Membrane in water
40167
    1TCq1    O1    1   0.584   0.561  11.649 -0.3931 -0.4009 -0.8698
    1TCq1    C1    2   0.521   0.641  11.564  0.4331 -0.5101 -0.0150
    1TCq1    O2    3   0.523   0.629  11.442  0.3747  0.0904  0.0432
    1TCq1    C2    4   0.462   0.756  11.635 -0.3175 -0.4885  0.2112
    1TCq1    C3    5   0.541   0.817  11.732  0.3415  0.0928  0.6748
    1TCq1    C4    6   0.496   0.934  11.783 -1.1470 -0.0989  0.3505
    1TCq1    C5    7   0.378   0.987  11.746  0.0848  0.1960 -0.1299
    1TCq1    C6    8   0.302   0.922  11.656 -0.5450  0.2842  0.3382
    1TCq1    C7    9   0.344   0.811  11.587 -0.3393 -0.0245 -0.2527
    1TCq1    C8   10   0.159   0.960  11.660  0.0355  1.1403 -0.2333
    1TCq1    O4   11   0.113   1.002  11.764  0.4239 -0.2947  0.1736
    1TCq1    C9   12   0.578   1.007  11.875  0.1110  0.1717 -0.0959
    1TCq1    O5   13   0.522   1.101  11.931  0.5385 -0.5764  0.0031
    1TCq1    O6   14   0.702   0.994  11.875 -0.0849  0.9925 -0.1482
    1TCq1    H1   15   0.563   0.591  11.740 -0.4913  2.5375 -1.8665
    1TCq1    H2   16   0.639   0.781  11.760  0.7564  1.8599  1.5049
    1TCq1    H3   17   0.332   1.074  11.791  0.2147 -1.0010  2.3224
    1TCq1    H4   18   0.285   0.753  11.517  0.7762 -1.8740  0.3448
    2MPD2     C   19   4.409   0.942  11.435 -0.0804  0.2627  0.2194
    2MPD2    C1   20   4.442   0.946  11.570 -0.3800 -0.1623 -0.6442
    2MPD2    C2   21   4.572   0.940  11.608  0.4252  0.4797  0.6550
    2MPD2    C3   22   4.676   0.938  11.517 -0.2997  0.1560  0.6580
    2MPD2    C4   23   4.639   0.920  11.385 -0.6064 -0.3616 -0.4948
    2MPD2    C5   24   4.503   0.912  11.343 -0.7864  0.0502  0.2635
    2MPD2     H   25   4.604   0.941  11.711 -1.2201  1.8451  1.1505
    2MPD2    H1   26   4.714   0.914  11.307  1.4813 -3.1406  1.7772
    2MPD2    H2   27   4.309   0.943  11.393  0.1872 -1.1195 -0.4435
    2MPD2    H3   28   4.487   0.898  11.237 -0.1776  1.1727  0.0280
    2MPD2     N   29   0.097   0.950  11.542  1.1488  0.1635  0.0536
    2MPD2    H5   30   0.156   0.936  11.460  1.1655  0.0619  0.0824
    2MPD2    N1   31   4.338   0.970  11.657  0.6939  0.1048 -0.0622
    2MPD2    H7   32   4.250   1.002  11.618  1.2265  2.7570  0.9218
    3TCq1    O1   33   3.851   1.186  10.663 -0.8040  0.4698  0.1295
    3TCq1    C1   34   3.912   1.302  10.620  0.0711  0.1138  0.3703
    3TCq1    O2   35   3.911   1.355  10.510 -0.0078  0.1521 -0.1784
    3TCq1    C2   36   3.952   1.365  10.742 -0.1425  0.4111 -0.8516
    3TCq1    C3   37   4.062   1.441  10.730 -0.3220  0.3288 -0.6583
    3TCq1    C4   38   4.090   1.542  10.817  0.3173 -0.5644 -0.2837
    3TCq1    C5   39   3.992   1.569  10.909  0.7563 -0.6643  0.0004
    3TCq1    C6   40   3.879   1.498  10.915  0.6386 -0.2345 -0.6012
    3TCq1    C7   41   3.853   1.391  10.834  0.5421  0.3064  0.1934
    3TCq1    C8   42   3.780   1.540  11.012 -1.1433  0.0527 -0.3028
    3TCq1    O4   43   3.691   1.458  11.035 -0.4166  0.0335  0.6829
    3TCq1    C9   44   4.213   1.622  10.808  0.2840 -0.4036  0.4990
    3TCq1    O5   45   4.205   1.738  10.855 -0.2822  0.1873  1.3516
    3TCq1    O6   46   4.301   1.582  10.728 -0.5395  0.3981 -0.4659
    3TCq1    H1   47   3.862   1.182  10.761 -1.1038 -1.7740  0.0835
    3TCq1    H2   48   4.127   1.424  10.645  0.9146  2.2448 -0.1053
    3TCq1    H3   49   4.008   1.643  10.986 -1.0028  0.2895 -0.5531
    3TCq1    H4   50   3.760   1.337  10.831  0.0568  1.1996 -0.8183
    4MPD2     C   51   3.574   1.871  11.346  0.1632 -0.0442 -0.8454
    4MPD2    C1   52   3.638   1.935  11.253 -0.0634  0.1847 -0.0471
    4MPD2    C2   53   3.707   1.870  11.155  0.3246  0.0794  1.0996
    4MPD2    C3   54   3.709   1.727  11.150 -0.5794 -0.0095  0.1629
    4MPD2    C4   55   3.627   1.656  11.237  0.8398  0.7512 -0.4880
    4MPD2    C5   56   3.568   1.735  11.342 -0.4710  0.0855  0.2202
    4MPD2     H   57   3.766   1.922  11.080 -0.4922  1.7528  1.6221
    4MPD2    H1   58   3.619   1.548  11.236 -1.6905  0.9403 -0.8510
    4MPD2    H2   59   3.513   1.922  11.420  0.8940 -3.9275  2.4780
    4MPD2    H3   60   3.499   1.688  11.411 -0.1239  1.2223  1.3334
    4MPD2     N   61   3.780   1.669  11.047 -0.3652 -0.3587 -0.4111
    4MPD2    H5   62   3.837   1.728  10.987 -0.7995  1.4086  0.9145
    4MPD2    N1   63   3.630   2.077  11.246  0.1182 -0.3285  0.3246
    4MPD2    H7   64   3.683   2.123  11.173 -0.8631  0.0848 -0.1280
    5TCq1    O1   65   0.213   4.630  11.599 -0.3797  0.3255  0.0819
    5TCq1    C1   66   0.193   4.583  11.718  0.3252  0.1206 -0.2849
    5TCq1    O2   67   0.264   4.601  11.812 -0.3187  0.7192  0.0061
    5TCq1    C2   68   0.049   4.582  11.737 -0.2245 -0.3134 -0.2399
    5TCq1    C3   69   0.003   4.620  11.858 -0.1278 -0.1844  0.6719
    5TCq1    C4   70   4.594   4.593  11.884 -0.7687 -0.0077 -0.2055
    5TCq1    C5   71   4.517   4.526  11.788  0.0279  0.0063 -0.0164
    5TCq1    C6   72   4.575   4.475  11.676 -0.7043  0.1207 -0.4549
    5TCq1    C7   73   4.701   4.506  11.646  0.1789 -0.1475  0.3579
    5TCq1    C8   74   4.521   4.363  11.608 -0.2850 -0.5613 -0.2587
    5TCq1    O4   75   4.584   4.325  11.509  0.5004 -0.1345 -0.3446
    5TCq1    C9   76   4.542   4.633  12.011 -0.3030 -0.3013 -0.1462
    5TCq1    O5   77   4.433   4.580  12.044 -0.1461  0.4540 -0.0944
    5TCq1    O6   78   4.611   4.697  12.089  0.4454  0.0312  0.4516
    5TCq1    H1   79   0.126   4.660  11.564 -0.2494  1.9984  1.1851
    5TCq1    H2   80   0.057   4.685  11.926 -0.4241 -0.1589  0.8827
    5TCq1    H3   81   4.417   4.504  11.825  0.5406  0.8728  1.9099
    5TCq1    H4   82   0.029   4.455  11.565  0.1442  1.3935 -0.6341
    6MPD2     C   83   4.161   4.249  11.618  0.5997 -0.6885  0.3842
    6MPD2    C1   84   4.297   4.238  11.589  0.0230 -0.2998 -0.7932
    6MPD2    C2   85   4.342   4.144  11.501 -0.4611 -0.0264  0.0360
    6MPD2    C3   86   4.257   4.047  11.443  0.9195  0.1394 -0.0121
    6MPD2    C4   87   4.126   4.051  11.489  0.4435  0.4913 -0.5883
    6MPD2    C5   88   4.079   4.153  11.567  0.4036 -0.8422 -0.2710
    6MPD2     H   89   4.448   4.148  11.482 -0.1879 -0.2648  1.5346
    6MPD2    H1   90   4.044   3.985  11.464  1.2012 -0.7720  0.2777
    6MPD2    H2   91   4.114   4.321  11.684 -0.0145 -0.9722  0.2577
    6MPD2    H3   92   3.973   4.154  11.588  0.4677  0.2868  0.0060
    6MPD2     N   93   4.301   3.943  11.349  0.6229  0.2849  0.3940
    6MPD2    H5   94   4.402   3.934  11.336  0.4303 -0.7106 -0.4251
    6MPD2    N1   95   4.386   4.339  11.642 -0.5181 -0.0264  0.3735
    6MPD2    H7   96   4.353   4.404  11.714 -1.2356 -0.0258  0.0348
    7TCq1    O1   97   1.912   3.863  12.694 -0.2277  0.4864  0.1139
    7TCq1    C1   98   1.940   3.865  12.829 -0.2883  0.2139 -0.1164
    7TCq1    O2   99   1.958   3.963  12.901  0.4079 -0.0691  0.4912
    7TCq1    C2  100   1.901   3.733  12.891 -0.5094 -1.6226 -0.3219
    7TCq1    C3  101   1.829   3.634  12.824 -0.1633  0.0227  0.3565
    7TCq1    C4  102   1.804   3.519  12.893  0.1921 -0.5910  0.7814
    7TCq1    C5  103   1.845   3.497  13.026 -0.6196  0.2298  0.0467
    7TCq1    C6  104   1.921   3.590  13.085 -1.0124 -0.3311 -0.4639
    7TCq1    C7  105   1.951   3.708  13.020 -0.3154  0.3457 -0.0140
    7TCq1    C8  106   2.009   3.549  13.193  0.4856  0.3996  0.0222
    7TCq1    O4  107   2.063   3.642  13.253  0.2223 -0.1871  0.1043
    7TCq1    C9  108   1.715   3.421  12.829 -0.2420 -0.3006 -0.2157
    7TCq1    O5  109   1.692   3.421  12.707 -0.5518 -0.6443  0.4966
    7TCq1    O6  110   1.661   3.347  12.917  0.3385  0.6573  0.3838
    7TCq1    H1  111   1.929   3.778  12.649 -0.5439  0.5515 -0.1276
    7TCq1    H2  112   1.788   3.640  12.723 -2.6076 -0.3293  1.3160
    7TCq1    H3  113   1.813   3.403  13.069  0.8803 -0.5821 -0.5997
    7TCq1    H4  114   1.987   3.790  13.081 -2.9546  0.1900  1.7442
    8MPD2     C  115   2.215   3.194  13.485 -0.5140 -0.1470 -0.1156
    8MPD2    C1  116   2.090   3.152  13.449  0.0737  0.1269  0.0761
    8MPD2    C2  117   2.026   3.229  13.346  0.3389 -0.1291  1.0887
    8MPD2    C3  118   2.077   3.350  13.312  0.2333  0.2098 -0.1070
    8MPD2    C4  119   2.203   3.397  13.364  0.2660  0.0837  0.1963
    8MPD2    C5  120   2.267   3.316  13.451  0.4392  0.0841  0.2041
    8MPD2     H  121   1.933   3.196  13.301  0.1581  2.2126 -0.2458
    8MPD2    H1  122   2.246   3.485  13.317 -0.5188 -0.8419 -2.2523
    8MPD2    H2  123   2.269   3.150  13.568  1.0693 -0.2544 -1.2140
    8MPD2    H3  124   2.360   3.346  13.498 -0.2731  1.5502  0.6722
    8MPD2     N  125   2.015   3.415  13.206  0.3196  0.9229 -0.2183
    8MPD2    H5  126   1.957   3.355  13.149 -1.0196  0.5179  1.5688
    8MPD2    N1  127   2.039   3.031  13.501 -0.2399 -0.2895  0.4047
    8MPD2    H7  128   2.088   2.967  13.563 -0.0599 -1.1851 -0.6585
    9TCq1    O1  129   4.460   1.961  10.951 -0.2269 -0.2496  0.6939
    9TCq1    C1  130   4.555   1.947  10.862 -0.1014  0.2584 -0.2595
    9TCq1    O2  131   4.546   1.892  10.753 -0.0953 -0.0494  0.0069
    9TCq1    C2  132   4.688   1.954  10.932  0.2268  0.9224 -0.8174
    9TCq1    C3  133   0.069   1.870  10.892  0.3684 -0.6946 -0.5277
    9TCq1    C4  134   0.191   1.879  10.950 -0.7439  0.1227  0.1878
    9TCq1    C5  135   0.202   1.956  11.069 -0.4224  0.2271  0.7345
    9TCq1    C6  136   0.092   2.026  11.113 -0.8791  0.2609  0.0210
    9TCq1    C7  137   4.696   2.026  11.042  0.2779  0.3052 -0.3681
    9TCq1    C8  138   0.116   2.117  11.226 -0.7331 -0.2206  0.3774
    9TCq1    O4  139   0.232   2.129  11.262  0.4739 -0.3083 -0.7340
    9TCq1    C9  140   0.293   1.789  10.912  0.1462  0.0601 -0.7796
    9TCq1    O5  141   0.286   1.755  10.791 -0.6068 -0.0728  0.1980
    9TCq1    O6  142   0.394   1.773  10.985  0.1892  0.3446 -0.0026
    9TCq1    H1  143   4.489   1.991  11.040 -1.2096  0.9431  0.6100
    9TCq1    H2  144   0.058   1.798  10.811  0.7098  1.3721 -2.4112
    9TCq1    H3  145   0.291   1.959  11.131  1.0758 -0.6209 -1.3511
    9TCq1    H4  146   4.623   2.099  11.075 -1.3401 -2.0050  1.1771
   10MPD2     C  147   0.091   2.317  11.447 -0.2535  0.3305 -0.2620
   10MPD2    C1  148   4.720   2.227  11.410  0.1958 -0.3781  0.7483
   10MPD2    C2  149   4.597   2.228  11.477  0.0394  0.1922  0.5122
   10MPD2    C3  150   4.570   2.316  11.577 -0.3864 -0.1777 -0.1337
   10MPD2    C4  151   4.664   2.411  11.607 -0.4453 -0.0004  0.4694
   10MPD2    C5  152   0.062   2.408  11.543  0.6357 -0.2828  0.4375
   10MPD2     H  153   4.524   2.157  11.441  0.2616  0.2360 -0.0262
   10MPD2    H1  154   4.646   2.491  11.677  0.0976 -1.4547  2.2629
   10MPD2    H2  155   0.181   2.326  11.388 -0.0653 -0.0623 -0.0369
   10MPD2    H3  156   0.139   2.482  11.564 -0.6897  1.1860  0.1643
   10MPD2     N  157   4.455   2.315  11.653  0.3521  1.4241 -0.3910
   10MPD2    H5  158   4.452   2.372  11.737 -2.0593  1.2705 -0.3597
   10MPD2    N1  159   0.001   2.147  11.293  0.0176  0.3229 -0.4490
   10MPD2    H7  160   4.640   2.094  11.266 -0.7937  1.1565  0.3865
   11TCq1    O1  161   0.052   2.837  14.140 -0.8783 -0.1106 -0.1028
   11TCq1    C1  162   0.004   2.823  14.263 -0.2180  0.5325  0.3799
   11TCq1    O2  163   4.691   2.914  14.335 -0.3353  0.0079  0.5280
   11TCq1    C2  164   0.002   2.681  14.295 -0.1909 -0.3011 -0.0945
   11TCq1    C3  165   0.108   2.600  14.262  0.0786 -0.3258 -0.1524
   11TCq1    C4  166   0.108   2.483  14.324  0.1935  0.5289  0.6211
   11TCq1    C5  167   0.015   2.449  14.418  0.3898  0.8359 -0.5373
   11TCq1    C6  168   4.644   2.537  14.461  0.0740 -0.1877  0.1571
   11TCq1    C7  169   4.630   2.654  14.388 -0.3725 -0.1064 -0.2142
   11TCq1    C8  170   4.524   2.496  14.527  0.2197  0.4353 -0.0765
   11TCq1    O4  171   4.450   2.578  14.576  1.1166  0.3807  0.0094
   11TCq1    C9  172   0.204   2.386  14.295 -0.0215  0.2301  1.0908
   11TCq1    O5  173   0.282   2.419  14.197  0.0038  0.6536  0.1701
   11TCq1    O6  174   0.195   2.265  14.345  0.2277  0.5603 -0.0909
   11TCq1    H1  175   0.057   2.751  14.093 -2.1573 -0.6365  0.7199
   11TCq1    H2  176   0.171   2.610  14.174 -0.9583  0.8371 -0.7709
   11TCq1    H3  177   0.012   2.356  14.474  0.8739 -0.3660 -2.5105
   11TCq1    H4  178   4.557   2.727  14.422 -2.1617 -0.2794 -3.7369
   12MPD2     C  179   4.272   2.341  14.603 -0.9976 -0.0214  0.0554
   12MPD2    C1  180   4.374   2.293  14.522 -0.5703  0.5005  0.0702
   12MPD2    C2  181   4.362   2.169  14.466  0.2766  0.3745 -0.3340
   12MPD2    C3  182   4.257   2.090  14.494  0.8417  0.2987  0.1245
   12MPD2    C4  183   4.150   2.139  14.573  0.0343  0.1593  0.3015
   12MPD2    C5  184   4.167   2.256  14.635 -0.3054 -0.0326  0.6232
   12MPD2     H  185   4.436   2.134  14.395 -0.1224  0.3589 -0.7398
   12MPD2    H1  186   4.059   2.082  14.586  0.2398 -0.3394 -0.4929
   12MPD2    H2  187   4.275   2.446  14.631 -0.9410 -0.0643  0.2112
   12MPD2    H3  188   4.093   2.295  14.704 -2.1324 -0.1757 -1.2532
   12MPD2     N  189   4.256   1.966  14.427 -0.2273  0.1841  0.1321
   12MPD2    H5  190   4.332   1.948  14.362 -0.9308  1.9544 -1.1935
   12MPD2    N1  191   4.493   2.368  14.491 -0.0037 -0.3969  0.1279
   12MPD2    H7  192   4.562   2.326  14.429 -0.6773 -0.7902 -0.3574
   13TCq1    O1  193   0.383   1.671  11.224  0.0778  0.2007 -0.2503
   13TCq1    C1  194   0.258   1.650  11.269  0.2132 -0.0293 -0.0648
   13TCq1    O2  195   0.224   1.668  11.386  0.3969  0.3498 -0.0878
   13TCq1    C2  196   0.167   1.626  11.165 -0.2178 -0.6413 -0.7620
   13TCq1    C3  197   0.196   1.532  11.065 -0.3339 -0.0560 -0.1952
   13TCq1    C4  198   0.092   1.460  11.008 -0.5592 -0.6677 -0.2568
   13TCq1    C5  199   4.683   1.486  11.038 -0.0321  0.4788  0.0264
   13TCq1    C6  200   4.652   1.594  11.131  0.6210  0.9102 -0.4598
   13TCq1    C7  201   0.032   1.657  11.199  0.5537 -0.0866  0.2934
   13TCq1    C8  202   4.510   1.611  11.175 -0.2585 -1.0337  0.2535
   13TCq1    O4  203   4.484   1.711  11.243  0.1144  0.0404 -0.2621
   13TCq1    C9  204   0.121   1.360  10.902  0.4635 -0.3865 -0.7135
   13TCq1    O5  205   0.236   1.333  10.870 -0.0910  0.2165  0.4126
   13TCq1    O6  206   0.017   1.316  10.842 -0.1543  0.0857 -0.0097
   13TCq1    H1  207   0.378   1.693  11.129  1.9446 -1.9280 -0.8452
   13TCq1    H2  208   0.292   1.489  11.039  0.9555  2.6158  0.1437
   13TCq1    H3  209   4.605   1.432  10.984  2.1886 -2.3254 -0.3656
   13TCq1    H4  210   0.007   1.719  11.284 -0.7450  1.9639 -1.5818
   14MPD2     C  211   4.235   1.392  11.092 -0.3374  0.4205  0.1727
   14MPD2    C1  212   4.295   1.497  11.162  0.1286 -0.0803  0.4766
   14MPD2    C2  213   4.221   1.565  11.259  0.3001  0.1087  0.0560
   14MPD2    C3  214   4.091   1.530  11.281 -0.2145 -1.0249  0.2664
   14MPD2    C4  215   4.030   1.437  11.201 -0.3533  1.1221  0.2913
   14MPD2    C5  216   4.097   1.371  11.105 -0.3958  0.0834 -0.0429
   14MPD2     H  217   4.270   1.645  11.314 -0.9711  1.9496 -1.4920
   14MPD2    H1  218   3.923   1.421  11.198 -0.5286  2.3984 -0.4339
   14MPD2    H2  219   4.289   1.348  11.009 -0.4572 -1.7778  1.2621
   14MPD2    H3  220   4.045   1.295  11.047 -0.8363  0.9929 -0.8461
   14MPD2     N  221   4.017   1.583  11.384 -0.8289  0.7429 -0.2262
   14MPD2    H5  222   4.061   1.666  11.424  1.0074  0.1812 -1.0592
   14MPD2    N1  223   4.427   1.509  11.139  0.3058  0.6254  0.0414
   14MPD2    H7  224   4.465   1.432  11.085  0.3126  0.3869  0.3871
   15TCq1    O1  225   4.688   0.155   2.720 -0.2857 -0.2446 -0.4365
   15TCq1    C1  226   0.055   0.253   2.675  0.8388  0.0873 -0.3370
   15TCq1    O2  227   0.020   0.333   2.593  0.6814  0.3470  0.6265
   15TCq1    C2  228   0.186   0.221   2.724 -0.4517 -0.0576  0.2671
   15TCq1    C3  229   0.207   0.142   2.832 -0.2297 -0.3904 -0.3435
   15TCq1    C4  230   0.338   0.146   2.885 -0.2088 -0.8560 -1.2516
   15TCq1    C5  231   0.434   0.231   2.829 -0.4152 -0.0092 -0.7621
   15TCq1    C6  232   0.407   0.293   2.711  0.2749  0.0324  0.0658
   15TCq1    C7  233   0.283   0.287   2.659  0.7846 -0.0599  0.4854
   15TCq1    C8  234   0.513   0.373   2.647 -1.1645  0.3822  0.3553
   15TCq1    O4  235   0.630   0.336   2.653 -0.6863 -0.7800  0.2553
   15TCq1    C9  236   0.384   0.068   2.996 -0.4296  0.0317 -0.1944
   15TCq1    O5  237   0.312   4.694   3.034  0.4608  0.1495  0.5729
   15TCq1    O6  238   0.494   0.105   3.049 -0.2351 -0.4484 -0.1755
   15TCq1    H1  239   0.014   0.073   2.743  1.4218  1.2206  1.2468
   15TCq1    H2  240   0.139   0.085   2.894 -0.4743 -1.1502 -1.3173
   15TCq1    H3  241   0.534   0.240   2.869  0.2458  0.9152 -2.6781
   15TCq1    H4  242   0.255   0.345   2.571 -0.4617 -0.1150  0.8370
   16MPD2     C  243   0.493   0.669   2.450  0.3478 -0.4899  0.7565
   16MPD2    C1  244   0.539   0.549   2.495  0.3358  0.5366 -1.2146
   16MPD2    C2  245   0.647   0.492   2.425  0.2221 -0.4197 -0.3405
   16MPD2    C3  246   0.701   0.556   2.322 -0.3612 -0.1886 -1.1330
   16MPD2    C4  247   0.668   0.692   2.287 -0.7150 -0.0435  0.7934
   16MPD2    C5  248   0.565   0.746   2.360 -0.7919 -0.0376  0.0152
   16MPD2     H  249   0.692   0.397   2.451 -2.1511 -1.9353 -1.8842
   16MPD2    H1  250   0.714   0.743   2.203 -0.7165 -2.1165 -0.4589
   16MPD2    H2  251   0.413   0.722   2.502 -1.3838 -2.6218  0.2980
   16MPD2    H3  252   0.528   0.846   2.339  0.0430  0.5962  1.5657
   16MPD2     N  253   0.804   0.497   2.251 -0.2240  0.0366  0.2461
   16MPD2    H5  254   0.846   0.413   2.291 -0.0290  0.4215  0.8599
   16MPD2    N1  255   0.471   0.482   2.588 -0.2687 -0.0083  0.1171
   16MPD2    H7  256   0.378   0.510   2.615 -0.2815 -1.0399  1.1576
   17TCq1    O1  257   4.299   1.330  11.476 -0.2272  0.2888  0.5212
   17TCq1    C1  258   4.413   1.320  11.555 -0.3151  0.1784  0.3004
   17TCq1    O2  259   4.422   1.332  11.675 -0.0553 -0.3425  0.2141
   17TCq1    C2  260   4.526   1.297  11.461  0.4392 -0.0186 -0.1131
   17TCq1    C3  261   4.511   1.250  11.330 -0.4106 -0.2366  0.3336
   17TCq1    C4  262   4.620   1.216  11.261 -0.6278  0.1542  0.1568
   17TCq1    C5  263   0.025   1.238  11.308  0.5477 -0.0612  0.0250
   17TCq1    C6  264   0.047   1.284  11.437 -0.0273 -0.6908  0.0760
   17TCq1    C7  265   4.654   1.322  11.517 -0.3447  0.3545  0.4886
   17TCq1    C8  266   0.177   1.301  11.493  0.0541  0.0069  0.4232
   17TCq1    O4  267   0.187   1.348  11.604 -0.0248  0.2014  0.3849
   17TCq1    C9  268   4.599   1.176  11.124  0.0958 -0.5792 -0.1207
   17TCq1    O5  269   4.485   1.199  11.074  0.3827 -0.0789  0.1445
   17TCq1    O6  270   4.685   1.116  11.059  0.6400  0.3489 -0.1811
   17TCq1    H1  271   4.322   1.339  11.381 -0.5852 -0.6277  0.3500
   17TCq1    H2  272   4.419   1.232  11.277  1.6538 -2.5679 -2.4974
   17TCq1    H3  273   0.106   1.194  11.251  0.9000  1.4724 -0.6785
   17TCq1    H4  274   4.664   1.364  11.616 -0.1684  0.1583  0.5536
   18MPD2     C  275   0.468   1.382  11.513 -0.9949 -0.3571  0.3331
   18MPD2    C1  276   0.411   1.333  11.403 -0.0115  0.2206 -0.1234
   18MPD2    C2  277   0.490   1.331  11.289  0.2619 -0.2953 -0.2627
   18MPD2    C3  278   0.617   1.378  11.281  1.0358 -0.2849 -0.1845
   18MPD2    C4  279   0.664   1.442  11.394  0.4184 -0.2418 -0.5071
   18MPD2    C5  280   0.589   1.442  11.510  0.8272 -0.1669 -0.1167
   18MPD2     H  281   0.448   1.275  11.207 -0.1719  1.8564 -1.4965
   18MPD2    H1  282   0.757   1.498  11.388 -0.6018  1.5789  0.5686
   18MPD2    H2  283   0.412   1.385  11.606 -1.8958  0.6523 -0.2398
   18MPD2    H3  284   0.620   1.504  11.593  3.7121 -2.1852  0.2952
   18MPD2     N  285   0.699   1.371  11.166  0.9016 -0.6496  0.5103
   18MPD2    H5  286   0.781   1.430  11.172  1.1470 -0.9334 -0.0913
   18MPD2    N1  287   0.276   1.287  11.398 -0.6406  0.1102 -0.0484
   18MPD2    H7  288   0.242   1.254  11.308 -1.3532 -1.0411  0.6444
   19TMC2    C1  289   0.916   2.046  14.080 -0.0496  0.3585  0.2788
   19TMC2    C2  290   0.836   2.098  13.983  0.9860 -0.4624 -0.0871
   19TMC2    C3  291   0.712   2.046  13.957 -0.1684  0.0666 -0.0086
   19TMC2    C4  292   0.872   1.944  14.161 -0.4224 -0.3519 -0.2354
   19TMC2    C5  293   0.741   1.906  14.147  0.0253 -0.7018 -0.2121
   19TMC2    C6  294   0.663   1.949  14.034 -0.6403 -0.5167  0.3534
   19TMC2     C  295   1.046   2.105  14.086 -0.1268 -0.3568  0.2112
   19TMC2     O  296   1.059   2.219  14.040  0.6875 -0.7934  0.1608
   19TMC2     H  297   0.875   2.173  13.914  1.6633 -0.6355  0.1077
   19TMC2    H1  298   0.924   1.924  14.254 -1.9232  1.0018  0.8990
   19TMC2    H2  299   0.571   1.899  14.004 -0.7885 -1.2220  1.9688
   19TMC2    C7  300   0.697   1.785  14.204 -0.2790  0.6758  0.6282
   19TMC2    C8  301   0.645   2.096  13.837 -0.1063  0.5320  0.8928
   19TMC2    O1  302   0.577   1.765  14.201  0.7522 -0.3480  0.0241
   19TMC2    O2  303   0.712   2.166  13.764  0.1467 -0.0280 -0.6185
   19TMC2    O5  304   0.585   1.982  13.794 -0.3693 -0.1889  0.5243
   19TMC2    H5  305   0.511   1.957  13.853  0.6856 -0.7602  1.6122
   20MPD2     C  306   1.336   2.176  14.141  0.3530 -0.4348 -1.1415
   20MPD2    C1  307   1.278   2.059  14.181  0.1064  0.1023 -0.1228
   20MPD2    C2  308   1.357   1.957  14.243  0.1367  0.4339  0.6151
   20MPD2    C3  309   1.491   1.976  14.268  0.1160  0.2929  0.2891
   20MPD2    C4  310   1.540   2.095  14.236 -0.1433 -0.0169  0.4874
   20MPD2    C5  311   1.472   2.193  14.167 -0.3369 -0.2945  0.0277
   20MPD2     H  312   1.306   1.865  14.269  0.8876  0.3734  1.8898
   20MPD2    H1  313   1.640   2.108  14.277  0.4807 -2.9840 -0.1141
   20MPD2    H2  314   1.286   2.237  14.066 -0.8705  0.5592  0.4973
   20MPD2    H3  315   1.523   2.283  14.136  1.2166 -1.1669  0.0377
   20MPD2     N  316   1.566   1.883  14.336  0.2620  0.6636 -0.4255
   20MPD2    H5  317   1.660   1.910  14.364  0.3634  2.7515 -2.8450
   20MPD2    N1  318   1.144   2.025  14.150 -0.0218 -0.0576 -0.2024
   20MPD2    H7  319   1.123   1.928  14.174  1.4579 -0.2147  0.4717
   21MPD2     C  320   3.355   2.424  14.569  0.7613 -0.0864  0.7667
   21MPD2    C1  321   3.390   2.315  14.644 -0.1057  0.2839  0.4984
   21MPD2    C2  322   3.313   2.279  14.753 -0.0685  0.6763  0.2066
   21MPD2    C3  323   3.205   2.356  14.789 -0.1912  0.3833 -0.4237
   21MPD2    C4  324   3.168   2.466  14.711  0.4988  0.1914  0.0611
   21MPD2    C5  325   3.240   2.494  14.599 -0.3188  0.3262 -0.4679
   21MPD2     H  326   3.353   2.197  14.811  1.5954  0.0013 -1.9166
   21MPD2    H1  327   3.091   2.541  14.727  0.6462  0.2448  0.5093
   21MPD2    H2  328   3.418   2.462  14.489  2.9611  3.3136  4.1254
   21MPD2    H3  329   3.208   2.577  14.538 -0.3731  0.4664 -0.2494
   21MPD2     N  330   3.130   2.330  14.911 -0.2030 -0.0933  0.3058
   21MPD2    H5  331   3.064   2.403  14.935 -0.9007 -0.8026  0.5447
   21MPD2    N1  332   3.512   2.251  14.627 -0.6293  0.0967 -0.5365
   21MPD2    H7  333   3.537   2.172  14.685  2.0824  0.4380 -1.2158
   22TCq2    C1  334   3.154   2.227  14.990  0.1304  0.0234  1.0175
   22TCq2    O2  335   3.202   2.122  14.957  0.2534  0.6379  0.1404
   22TCq2    C2  336   3.083   2.239  15.116 -0.3557 -0.3559 -0.2008
   22TCq2    C3  337   3.107   2.133  15.198  0.0710  0.5620  0.3012
   22TCq2    C4  338   3.067   2.140  15.326 -0.0497 -0.0550 -0.7117
   22TCq2    C5  339   2.998   2.247  15.370 -0.3561  0.0172  1.0211
   22TCq2    C6  340   2.970   2.351  15.274  0.5675 -0.2441  0.2383
   22TCq2    C7  341   3.021   2.352  15.151  0.0992  0.2299  0.1257
   22TCq2    C8  342   2.874   2.451  15.322 -0.9060 -0.5785 -0.1444
   22TCq2    O4  343   2.871   2.464  15.443 -0.2124 -0.4231  0.4223
   22TCq2    C9  344   3.111   2.043  15.418  0.3858 -0.6965  0.3437
   22TCq2    O5  345   3.106   2.065  15.543  0.3050  0.6393 -0.1874
   22TCq2    O6  346   3.138   1.927  15.381  0.6321 -0.1902 -0.1056
   22TCq2    H2  347   3.164   2.045  15.169 -0.1979  1.4131 -2.8811
   22TCq2    H3  348   2.956   2.245  15.470 -0.2380  0.4268  1.0765
   22TCq2    H4  349   3.017   2.437  15.083 -5.7778  1.6456  2.2216
   23MPD2     C  350   0.589   3.134  14.498  0.5307 -0.0992 -0.0397
   23MPD2    C1  351   0.495   3.142  14.594  0.1608 -1.3513  0.3939
   23MPD2    C2  352   0.418   3.254  14.599  0.2655  0.2386 -0.6427
   23MPD2    C3  353   0.426   3.356  14.502  0.0286  0.6113 -0.6021
   23MPD2    C4  354   0.529   3.350  14.412  0.3595 -0.1157 -0.2595
   23MPD2    C5  355   0.613   3.242  14.416 -0.1160  0.1300  0.5743
   23MPD2     H  356   0.350   3.259  14.683  1.0253  1.1264 -0.0752
   23MPD2    H1  357   0.552   3.437  14.352 -0.8809 -1.0492 -2.0949
   23MPD2    H2  358   0.644   3.044  14.471  0.2641 -0.4020  0.4297
   23MPD2    H3  359   0.690   3.244  14.339 -2.0484 -1.3515 -1.4037
   23MPD2     N  360   0.344   3.472  14.498  0.8239  0.6805 -0.2006
   23MPD2    H5  361   0.371   3.544  14.432  1.7321  0.2707 -0.2793
   23MPD2    N1  362   0.480   3.043  14.692  0.0924 -0.1024 -0.6976
   23MPD2    H7  363   0.410   3.065  14.762  1.8648  1.7737  0.4806
   24TCq2    C1  364   0.245   3.497  14.591 -0.4215 -0.5002 -0.6226
   24TCq2    O2  365   0.220   3.438  14.698 -0.3241  0.3874 -0.4630
   24TCq2    C2  366   0.177   3.621  14.570  0.5144 -0.5238  0.3992
   24TCq2    C3  367   0.159   3.661  14.439 -0.4720 -0.3953  0.1485
   24TCq2    C4  368   0.067   3.748  14.402 -0.5418  0.4515 -0.8302
   24TCq2    C5  369   4.705   3.804  14.501  0.1635 -0.2331 -0.2944
   24TCq2    C6  370   0.009   3.775  14.638 -0.4465  0.3145  0.3773
   24TCq2    C7  371   0.107   3.683  14.668 -0.4469  0.5410  0.2376
   24TCq2    C8  372   4.618   3.787  14.742  1.1181 -0.1089 -1.1346
   24TCq2    O4  373   4.642   3.776  14.860 -0.3629 -0.3288 -0.2296
   24TCq2    C9  374   0.047   3.777  14.262 -0.2118  0.3297 -0.3967
   24TCq2    O5  375   4.676   3.857  14.238 -0.0177 -0.5025  0.1629
   24TCq2    O6  376   0.112   3.708  14.173  0.2511  0.4071  0.6225
   24TCq2    H2  377   0.202   3.605  14.357 -2.0069 -2.3266  0.6766
   24TCq2    H3  378   4.640   3.887  14.476 -2.4812 -1.5245  2.2396
   24TCq2    H4  379   0.131   3.656  14.770  0.9079 -0.2039 -0.2822
   25TMC2    C1  380   3.853   0.619  11.525  0.8181  0.2222  0.4840
   25TMC2    C2  381   3.919   0.507  11.555 -0.8621 -0.1282  0.3988
   25TMC2    C3  382   3.975   0.504  11.680  0.1131 -0.4919  0.7452
   25TMC2    C4  383   3.853   0.729  11.614  0.5862 -0.3785  0.7050
   25TMC2    C5  384   3.921   0.719  11.728  0.5006 -0.0457  0.0688
   25TMC2    C6  385   3.982   0.608  11.765 -0.7779 -0.0073 -0.6490
   25TMC2     C  386   3.754   0.627  11.417 -0.3853 -0.3060 -0.4223
   25TMC2     O  387   3.713   0.737  11.380  1.2822 -0.2029 -0.2677
   25TMC2     H  388   3.938   0.419  11.496 -1.2776 -1.4452  2.2303
   25TMC2    H1  389   3.790   0.814  11.591  2.4829  0.0509 -3.0035
   25TMC2    H2  390   4.048   0.615  11.851  0.6154  1.1706 -1.8336
   25TMC2    C7  391   3.895   0.810  11.841 -0.3337  0.9482 -0.1644
   25TMC2    C8  392   4.022   0.386  11.739 -0.4289  0.5024 -0.0029
   25TMC2    O1  393   3.915   0.772  11.955 -0.4121  0.0022  0.0692
   25TMC2    O2  394   4.093   0.392  11.835  0.4162 -0.2952  0.6250
   25TMC2    O5  395   3.921   0.293  11.722 -0.7868  0.6723  0.4870
   25TMC2    H5  396   3.845   0.324  11.668 -1.4899 -0.0194  1.0890
   26MPD2     C  397   3.561   0.376  11.001 -0.1195  0.1647 -0.4679
   26MPD2    C1  398   3.597   0.291  11.095 -0.1525  0.0273  0.3884
   26MPD2    C2  399   3.669   0.336  11.206 -0.0776  0.5458 -0.0667
   26MPD2    C3  400   3.685   0.471  11.229 -0.6263  0.0385 -0.7226
   26MPD2    C4  401   3.636   0.560  11.134 -0.8721  0.3123 -0.2941
   26MPD2    C5  402   3.576   0.513  11.020  0.2104 -0.1933 -0.3653
   26MPD2     H  403   3.713   0.261  11.271 -1.7256 -1.3752 -1.1889
   26MPD2    H1  404   3.656   0.667  11.137  0.4010  0.0258  1.0429
   26MPD2    H2  405   3.520   0.343  10.906  1.8448 -3.0911 -0.1654
   26MPD2    H3  406   3.567   0.571  10.929 -0.6023 -1.2645 -0.9684
   26MPD2     N  407   3.741   0.504  11.351 -0.2616 -0.2878  0.0632
   26MPD2    H5  408   3.779   0.422  11.396  0.0632  0.0760  0.4577
   26MPD2    N1  409   3.597   0.161  11.050  0.2352 -0.1480  0.3738
   26MPD2    H7  410   3.582   0.132  10.954  1.1576 -0.5362  0.3472
   27TMC2    C1  411   2.774   2.303  12.352 -0.3053 -0.2951  0.1696
   27TMC2    C2  412   2.690   2.309  12.248  0.3649 -0.3188 -0.2734
   27TMC2    C3  413   2.621   2.424  12.217  0.1266  0.0750  0.3413
   27TMC2    C4  414   2.790   2.418  12.429 -0.5960 -0.0198  0.1303
   27TMC2    C5  415   2.726   2.535  12.392  1.1627 -0.4348  0.4479
   27TMC2    C6  416   2.640   2.541  12.286  0.5317 -0.0343 -0.2991
   27TMC2     C  417   2.746   2.190  12.431  0.0566  0.2922  0.3236
   27TMC2     O  418   2.775   2.084  12.380  0.3674 -0.4421  0.1427
   27TMC2     H  419   2.657   2.217  12.202 -1.0667  0.0366  0.0465
   27TMC2    H1  420   2.852   2.419  12.518  0.4888 -2.2314 -0.5906
   27TMC2    H2  421   2.598   2.640  12.275  1.1262  0.1190 -1.1397
   27TMC2    C7  422   2.672   2.584  12.512  0.0322 -0.1304  0.5162
   27TMC2    C8  423   2.558   2.423  12.091  0.1921 -0.8280  0.1781
   27TMC2    O1  424   2.616   2.495  12.572 -0.6841 -0.0483  0.2036
   27TMC2    O2  425   2.547   2.315  12.036 -0.1043  0.1320  0.1954
   27TMC2    O5  426   2.444   2.503  12.098 -0.9287  0.3045  0.3150
   27TMC2    H5  427   2.462   2.587  12.146 -2.1909  1.3140 -0.9634
   28MPD2     C  428   2.439   1.981  12.778 -0.5654 -1.0839  0.4063
   28MPD2    C1  429   2.441   2.117  12.801 -0.2821  0.2007  0.5426
   28MPD2    C2  430   2.527   2.195  12.727  0.1118  0.0231 -0.0430
   28MPD2    C3  431   2.592   2.138  12.618 -0.0895  0.1015  0.1324
   28MPD2    C4  432   2.576   2.005  12.586 -0.9301 -0.1432 -0.0104
   28MPD2    C5  433   2.510   1.925  12.676  0.5814 -0.0555 -0.2677
   28MPD2     H  434   2.537   2.301  12.745 -1.3660  0.4784 -1.9167
   28MPD2    H1  435   2.641   1.954  12.515  0.4814 -0.3062  1.3921
   28MPD2    H2  436   2.387   1.910  12.842 -1.1269 -0.3742  0.7350
   28MPD2    H3  437   2.518   1.817  12.676 -2.1978 -0.2575  1.8956
   28MPD2     N  438   2.672   2.228  12.545 -0.1134 -0.7307 -0.6056
   28MPD2    H5  439   2.677   2.326  12.572 -1.9940 -0.1232 -2.4291
   28MPD2    N1  440   2.359   2.163  12.910 -0.6695 -0.3538  0.8585
   28MPD2    H7  441   2.292   2.101  12.954 -1.7101 -1.3149 -2.0660
   29MPD2     C  442   2.107   0.210  14.150  0.3546  0.3619  0.1557
   29MPD2    C1  443   2.238   0.197  14.192 -0.2503 -0.4401  0.3511
   29MPD2    C2  444   2.294   0.279  14.284  0.5652 -0.5365 -0.0572
   29MPD2    C3  445   2.214   0.376  14.345 -0.0548  0.1809 -0.3968
   29MPD2    C4  446   2.084   0.397  14.291  0.2706  0.3267 -0.2094
   29MPD2    C5  447   2.035   0.320  14.184 -0.6126 -0.1162  0.3221
   29MPD2     H  448   2.397   0.266  14.314  1.0067  0.8729 -0.9679
   29MPD2    H1  449   2.022   0.477  14.328  1.0481  0.3468  1.0378
   29MPD2    H2  450   2.070   0.145  14.072  0.4395  0.4338  0.0548
   29MPD2    H3  451   1.938   0.340  14.139  1.0252  4.5206 -1.1230
   29MPD2     N  452   2.245   0.468  14.449  0.5054 -0.2193  0.0242
   29MPD2    H5  453   2.181   0.543  14.469  1.8181  0.8593  0.1655
   29MPD2    N1  454   2.326   0.093  14.149 -0.3515  0.4383  0.0297
   29MPD2    H7  455   2.412   0.084  14.202 -0.1254 -0.9894 -0.5861
   30TCq2    C1  456   2.362   0.476  14.517  0.2322 -0.6764  0.4264
   30TCq2    O2  457   2.470   0.425  14.493 -0.3282  0.2008  0.3750
   30TCq2    C2  458   2.359   0.595  14.599 -0.8376 -0.0928  0.4512
   30TCq2    C3  459   2.264   0.621  14.693 -0.2636 -0.1348 -0.3702
   30TCq2    C4  460   2.258   0.751  14.733 -0.7059 -0.1625 -0.4846
   30TCq2    C5  461   2.354   0.842  14.706  0.4374  0.3153  0.1563
   30TCq2    C6  462   2.453   0.807  14.614  0.3508 -0.2394 -0.1372
   30TCq2    C7  463   2.462   0.681  14.563  0.0353 -0.6752  0.8961
   30TCq2    C8  464   2.562   0.900  14.578 -0.6594  0.3593 -0.3687
   30TCq2    O4  465   2.625   0.875  14.480 -0.2393  0.3958  0.1843
   30TCq2    C9  466   2.136   0.786  14.803  0.0343  0.1673  0.1095
   30TCq2    O5  467   2.029   0.723  14.777 -0.2515  0.6409  0.0670
   30TCq2    O6  468   2.133   0.903  14.846  0.4314  0.3181  0.1103
   30TCq2    H2  469   2.176   0.560  14.713  2.2838 -2.9936  2.1323
   30TCq2    H3  470   2.339   0.945  14.737 -0.1063  0.4451 -0.5538
   30TCq2    H4  471   2.544   0.650  14.498 -0.7836 -0.5947 -0.1752
   31MPD2     C  472   0.270   4.406  14.590  0.4230  0.3014  0.4360
   31MPD2    C1  473   0.133   4.399  14.558  0.0219  0.1337 -0.0311
   31MPD2    C2  474   0.044   4.314  14.624 -0.0811 -0.6107 -0.6127
   31MPD2    C3  475   0.081   4.252  14.743  0.1625 -0.6141  0.0574
   31MPD2    C4  476   0.217   4.259  14.778 -0.1662  0.6641 -0.4006
   31MPD2    C5  477   0.311   4.325  14.698  0.4503 -0.8566 -1.0011
   31MPD2     H  478   4.668   4.294  14.582 -0.1284  2.0472 -1.7600
   31MPD2    H1  479   0.255   4.210  14.867  0.9610  1.8111 -0.2565
   31MPD2    H2  480   0.346   4.457  14.533  1.3014  0.5837  1.8792
   31MPD2    H3  481   0.413   4.321  14.734 -0.2250  1.7521  1.1432
   31MPD2     N  482   4.717   4.170  14.818  0.3789  0.1874 -0.0265
   31MPD2    H5  483   0.029   4.121  14.901 -1.0878 -3.0926 -1.3795
   31MPD2    N1  484   0.103   4.475  14.449  0.0557 -0.3289  0.2725
   31MPD2    H7  485   0.181   4.515  14.397  0.4086 -1.1930  0.1376
   32TCq2    C1  486   4.580   4.171  14.796  0.3264 -0.0372 -0.3528
   32TCq2    O2  487   4.509   4.233  14.717  0.3139 -0.4483 -0.0303
   32TCq2    C2  488   4.501   4.104  14.903 -0.8506 -0.4864  0.5433
   32TCq2    C3  489   4.370   4.137  14.905  0.1102  0.5184  0.1460
   32TCq2    C4  490   4.302   4.100  15.011  0.2826 -0.7939 -0.0687
   32TCq2    C5  491   4.343   4.022  15.106 -0.2634 -0.5389 -0.0771
   32TCq2    C6  492   4.480   3.986  15.102  0.1564  0.4491  0.4228
   32TCq2    C7  493   4.564   4.027  14.996 -0.5648 -0.4443  0.6885
   32TCq2    C8  494   4.533   3.893  15.201  0.3325 -0.2605 -0.0262
   32TCq2    O4  495   4.652   3.866  15.203 -0.2927 -0.0534 -0.0372
   32TCq2    C9  496   4.161   4.135  15.014  0.0454 -0.0804 -1.1235
   32TCq2    O5  497   4.122   4.213  14.923 -0.3783  0.4029 -0.5658
   32TCq2    O6  498   4.088   4.085  15.106  0.4628 -0.6021  0.2609
   32TCq2    H2  499   4.315   4.190  14.828  0.4075 -0.5010 -0.7703
   32TCq2    H3  500   4.278   4.007  15.191  0.4276  1.5650  0.8358
   32TCq2    H4  501   4.663   3.986  14.977 -1.1062 -0.1663 -2.6829
   33MPD2     C  502   0.529   0.930  10.581 -0.6420 -0.5218 -0.0850
   33MPD2    C1  503   0.623   1.021  10.541 -0.2864 -0.2062  0.2883
   33MPD2    C2  504   0.617   1.065  10.420  0.1365 -0.0307 -0.5948
   33MPD2    C3  505   0.521   1.019  10.329 -0.2120  0.5748 -0.4742
   33MPD2    C4  506   0.438   0.919  10.367 -1.0085  0.6571 -0.2899
   33MPD2    C5  507   0.441   0.874  10.491 -0.2446 -0.9962 -0.6458
   33MPD2     H  508   0.676   1.149  10.386  0.9995 -0.5895 -0.4820
   33MPD2    H1  509   0.358   0.884  10.303 -2.1706  1.5498  0.6621
   33MPD2    H2  510   0.534   0.894  10.683 -1.9251  0.5139  0.3438
   33MPD2    H3  511   0.369   0.799  10.518 -0.3579  0.0395  1.9043
   33MPD2     N  512   0.498   1.071  10.199 -0.4082 -0.0138 -0.5928
   33MPD2    H5  513   0.415   1.031  10.158 -0.4866 -1.8812  1.4222
   33MPD2    N1  514   0.708   1.078  10.642  0.3409  0.2412 -0.0876
   33MPD2    H7  515   0.691   1.041  10.735 -1.2169  1.4061  0.0695
   34TCq2    C1  516   0.547   1.198  10.155 -0.8384 -0.2042  0.1698
   34TCq2    O2  517   0.606   1.281  10.222  0.2923 -0.5025  0.2041
   34TCq2    C2  518   0.508   1.234  10.019  0.4660  0.4950  0.3622
   34TCq2    C3  519   0.388   1.200   9.961  0.3183  0.0894  0.6455
   34TCq2    C4  520   0.352   1.268   9.846  0.7364 -0.0020 -0.2288
   34TCq2    C5  521   0.425   1.370   9.787 -0.0833  0.0544 -0.5563
   34TCq2    C6  522   0.546   1.396   9.850 -0.4394 -0.0836  0.6205
   34TCq2    C7  523   0.591   1.327   9.962 -0.0563 -0.2817  0.1356
   34TCq2    C8  524   0.616   1.524   9.825  0.2128  0.6817  0.6918
   34TCq2    O4  525   0.696   1.572   9.904 -0.2681 -0.2119  0.0869
   34TCq2    C9  526   0.227   1.243   9.785 -0.7764  0.1048  0.6583
   34TCq2    O5  527   0.153   1.146   9.823 -0.5041 -0.2148 -0.3618
   34TCq2    O6  528   0.182   1.343   9.725 -0.4784 -0.1019  0.5491
   34TCq2    H2  529   0.320   1.128  10.004  0.1711 -0.4208 -0.4622
   34TCq2    H3  530   0.396   1.427   9.700 -4.3185 -0.1793  0.7431
   34TCq2    H4  531   0.679   1.352  10.020  1.0604  3.0555 -2.9871
   35MPD2     C  532   2.153   3.166  12.466  0.6870 -0.6644  0.8130
   35MPD2    C1  533   2.133   3.032  12.439 -0.2412 -0.5939 -0.7159
   35MPD2    C2  534   2.075   2.991  12.318 -0.1874  0.5668 -0.3865
   35MPD2    C3  535   2.042   3.086  12.227 -0.6777  0.2212 -0.4631
   35MPD2    C4  536   2.045   3.220  12.264  0.1469 -0.6047 -0.5863
   35MPD2    C5  537   2.114   3.257  12.376 -0.2115 -0.3790  0.2672
   35MPD2     H  538   2.060   2.888  12.287  0.3519  0.6493 -0.9308
   35MPD2    H1  539   1.995   3.299  12.209 -1.1359 -1.3053 -0.4296
   35MPD2    H2  540   2.182   3.202  12.564  0.2397  3.0145 -0.3749
   35MPD2    H3  541   2.105   3.363  12.398  0.2757 -0.3166  0.1630
   35MPD2     N  542   1.990   3.037  12.104  0.2301  0.3517 -0.4850
   35MPD2    H5  543   1.980   2.939  12.079  1.0484  0.4058 -1.0435
   35MPD2    N1  544   2.155   2.933  12.543 -0.3091  0.3955 -0.0995
   35MPD2    H7  545   2.162   2.965  12.639  0.5031 -1.2057  0.3874
   36TCq2    C1  546   1.969   3.119  11.997  0.0896  0.2119 -0.9972
   36TCq2    O2  547   2.022   3.229  11.979 -0.0501  0.4294  0.2208
   36TCq2    C2  548   1.889   3.069  11.887 -0.5787  0.7377 -0.3108
   36TCq2    C3  549   1.876   3.154  11.785  0.3224  0.3165  0.1535
   36TCq2    C4  550   1.788   3.119  11.686 -0.2449 -0.0934  0.0106
   36TCq2    C5  551   1.723   2.999  11.691 -0.2001  0.3707 -0.0766
   36TCq2    C6  552   1.734   2.920  11.806 -0.2505  0.1508  0.5952
   36TCq2    C7  553   1.816   2.952  11.907 -0.0211 -0.5388 -0.1969
   36TCq2    C8  554   1.666   2.789  11.807 -0.3968 -0.0155  0.1382
   36TCq2    O4  555   1.583   2.775  11.719  0.6503 -0.0900  0.7908
   36TCq2    C9  556   1.777   3.206  11.575 -0.3384 -0.2582  0.3413
   36TCq2    O5  557   1.733   3.167  11.464 -0.0183 -0.1124  0.1783
   36TCq2    O6  558   1.795   3.326  11.594  0.5190 -0.4610  0.4879
   36TCq2    H2  559   1.946   3.236  11.772  1.0152 -0.8545 -3.6886
   36TCq2    H3  560   1.658   2.979  11.607 -0.0678  0.4819 -0.2051
   36TCq2    H4  561   1.805   2.909  12.006 -0.9664 -0.8555 -0.4444
   37TMC2    C1  562   3.177   3.124  11.589 -0.3955  0.1123 -0.1194
   37TMC2    C2  563   3.140   3.178  11.470  0.5000  0.4374 -0.0238
   37TMC2    C3  564   3.234   3.181  11.371 -0.3098  0.9023 -0.6478
   37TMC2    C4  565   3.301   3.067  11.611 -0.5203  0.0757 -1.0881
   37TMC2    C5  566   3.387   3.061  11.503  0.4747  0.2293  0.7334
   37TMC2    C6  567   3.363   3.137  11.388 -0.3298 -0.2408 -0.6987
   37TMC2     C  568   3.076   3.125  11.703  0.3342 -0.2420  0.1725
   37TMC2     O  569   2.963   3.155  11.665 -0.2844  0.3117  0.2550
   37TMC2     H  570   3.039   3.214  11.452  0.4898  1.2401  1.6518
   37TMC2    H1  571   3.325   2.992  11.685 -3.7070 -0.1831 -0.2997
   37TMC2    H2  572   3.440   3.140  11.313 -0.8721 -1.7739 -1.3247
   37TMC2    C7  573   3.506   2.979  11.529 -0.2462  0.0316 -0.1757
   37TMC2    C8  574   3.195   3.248  11.250  0.5731 -0.1222 -0.0712
   37TMC2    O1  575   3.538   2.960  11.645  0.6431 -0.2036 -0.0631
   37TMC2    O2  576   3.088   3.301  11.249  0.0090  0.1029 -0.2210
   37TMC2    O5  577   3.267   3.191  11.151 -0.4904 -0.4648 -0.4902
   37TMC2    H5  578   3.319   3.114  11.184 -0.7180  0.7898  2.7691
   38MPD2     C  579   2.894   2.984  12.161  0.4536  0.2890 -0.5297
   38MPD2    C1  580   3.027   2.945  12.149  0.2241 -0.2998  0.3160
   38MPD2    C2  581   3.095   2.983  12.040  0.6144 -0.1150 -0.6026
   38MPD2    C3  582   3.037   3.047  11.931  0.0364  0.2682  0.2007
   38MPD2    C4  583   2.906   3.089  11.944  0.7089  0.1686 -0.4333
   38MPD2    C5  584   2.837   3.048  12.053  0.2956  0.7604 -0.4854
   38MPD2     H  585   3.203   2.968  12.040  0.3211 -2.3869 -2.3939
   38MPD2    H1  586   2.852   3.139  11.865 -0.0161  0.9483  0.5577
   38MPD2    H2  587   2.835   2.950  12.246  2.1004 -0.6090  0.2599
   38MPD2    H3  588   2.731   3.073  12.053  0.1523  0.1498 -2.8651
   38MPD2     N  589   3.118   3.073  11.820 -0.2790 -0.0941 -0.0956
   38MPD2    H5  590   3.214   3.039  11.826 -0.9357 -1.7031  1.4393
   38MPD2    N1  591   3.107   2.875  12.247  0.5294  0.6920 -0.3058
   38MPD2    H7  592   3.207   2.871  12.234  0.1510  1.8331 -3.4045
   39MPD2     C  593   1.501   4.387   1.842  0.0708  0.2560 -0.3855
   39MPD2    C1  594   1.411   4.405   1.946  1.1425  0.3576  1.0102
   39MPD2    C2  595   1.304   4.497   1.926  0.4687 -0.1686  0.0496
   39MPD2    C3  596   1.287   4.552   1.801 -0.4417 -0.6812 -0.0631
   39MPD2    C4  597   1.371   4.517   1.701  0.0572 -0.1267  0.1155
   39MPD2    C5  598   1.487   4.444   1.722  0.1957 -0.6523 -0.6159
   39MPD2     H  599   1.220   4.512   1.993  2.3624  3.5406  1.6159
   39MPD2    H1  600   1.366   4.569   1.606 -0.0145  0.6954  0.5632
   39MPD2    H2  601   1.581   4.317   1.865  1.6306  1.7113 -1.3992
   39MPD2    H3  602   1.565   4.417   1.652 -1.2037 -2.5907 -1.4575
   39MPD2     N  603   1.179   4.642   1.765 -0.2798  0.0378 -0.1299
   39MPD2    H5  604   1.179   4.667   1.666 -0.4173 -2.0893 -0.6623
   39MPD2    N1  605   1.454   4.360   2.073  0.4012 -0.1632  0.0177
   39MPD2    H7  606   1.538   4.304   2.085  0.3307 -0.1937  0.3617
   40TCq2    C1  607   1.381   4.390   2.183  0.4301 -0.3246 -1.0218
   40TCq2    O2  608   1.264   4.417   2.200 -0.8996 -0.7460  0.3960
   40TCq2    C2  609   1.458   4.364   2.308  0.2290 -0.1598 -0.1236
   40TCq2    C3  610   1.393   4.380   2.429 -0.3249  0.0743 -0.4293
   40TCq2    C4  611   1.456   4.348   2.549  0.9211  0.7363  0.0848
   40TCq2    C5  612   1.586   4.308   2.543  0.3153  0.1298 -0.0182
   40TCq2    C6  613   1.654   4.310   2.423  0.3130  0.5580 -0.1897
   40TCq2    C7  614   1.591   4.340   2.307  0.5878  0.0982 -0.4102
   40TCq2    C8  615   1.798   4.284   2.427 -0.6380  0.3274  0.3000
   40TCq2    O4  616   1.837   4.205   2.518  0.0675 -0.3768 -0.4002
   40TCq2    C9  617   1.382   4.362   2.677 -0.1922 -0.5638  0.5714
   40TCq2    O5  618   1.268   4.413   2.667  0.0631 -0.1996 -0.4331
   40TCq2    O6  619   1.454   4.383   2.780  0.4667 -0.2906 -0.4195
   40TCq2    H2  620   1.287   4.402   2.436  0.2206  2.3414  0.3321
   40TCq2    H3  621   1.632   4.262   2.629 -0.3770 -0.7740 -0.1301
   40TCq2    H4  622   1.655   4.328   2.221 -1.5530 -1.1298 -1.8170
   41TMC2    C1  623   1.252   3.084  13.993  0.6562  0.1180  0.2862
   41TMC2    C2  624   1.166   3.193  13.973  0.5836  0.2818  0.0553
   41TMC2    C3  625   1.159   3.234  13.842  0.8381 -0.0802  0.7287
   41TMC2    C4  626   1.343   3.039  13.894 -0.0864  0.1922  0.2374
   41TMC2    C5  627   1.320   3.087  13.766  0.2343 -0.1422  0.0661
   41TMC2    C6  628   1.229   3.180  13.742 -0.0075 -0.3341  0.7124
   41TMC2     C  629   1.251   3.023  14.128  0.0737 -0.0975 -0.0535
   41TMC2     O  630   1.285   2.905  14.122 -0.7727 -0.3111 -0.5351
   41TMC2     H  631   1.081   3.220  14.034 -1.2956 -0.0698 -2.3756
   41TMC2    H1  632   1.414   2.958  13.904 -1.1170 -0.9955 -2.1951
   41TMC2    H2  633   1.215   3.229  13.646  1.7654  0.1653  0.7049
   41TMC2    C7  634   1.369   3.006  13.654  0.0582  0.9499  0.1478
   41TMC2    C8  635   1.096   3.368  13.829 -0.2242 -0.0837 -0.8106
   41TMC2    O1  636   1.483   2.950  13.677 -0.4580 -0.1789  0.2655
   41TMC2    O2  637   1.009   3.404  13.905 -0.2191  0.2867  0.0099
   41TMC2    O5  638   1.187   3.448  13.770  0.0135  0.4712 -0.2295
   41TMC2    H5  639   1.269   3.395  13.758 -1.3352 -1.3962 -1.2328
   42MPD2     C  640   1.287   2.942  14.414 -0.3666  0.4334  0.0310
   42MPD2    C1  641   1.250   3.071  14.375 -0.1814 -0.1886  0.5031
   42MPD2    C2  642   1.210   3.152  14.477 -0.0029 -0.1780  0.0627
   42MPD2    C3  643   1.203   3.108  14.614  0.0968  0.5498 -0.4167
   42MPD2    C4  644   1.242   2.977  14.640  0.3151  0.7412 -0.2865
   42MPD2    C5  645   1.294   2.902  14.543 -0.1522  0.4331  0.0124
   42MPD2     H  646   1.185   3.257  14.461  0.8042  0.1218  0.7189
   42MPD2    H1  647   1.238   2.933  14.739  0.6790  0.5481 -0.3588
   42MPD2    H2  648   1.339   2.872  14.349 -0.2616  0.6338 -0.0991
   42MPD2    H3  649   1.330   2.805  14.574 -0.1232 -0.0419 -1.5079
   42MPD2     N  650   1.158   3.185  14.724 -0.3686  0.5002  0.2484
   42MPD2    H5  651   1.149   3.135  14.813 -0.4764 -0.5473 -0.3518
   42MPD2    N1  652   1.230   3.110  14.233  0.2506  0.0787  0.0824
   42MPD2    H7  653   1.230   3.210  14.216 -0.6823  0.1701  0.6200
   43MPD2     C  654   1.143   0.843   1.302  0.0422 -0.4052 -0.3234
   43MPD2    C1  655   1.223   0.891   1.200  0.1324  0.0119 -0.3403
   43MPD2    C2  656   1.199   1.026   1.163  0.4950 -0.5941  0.3894
   43MPD2    C3  657   1.097   1.105   1.201 -0.4278  0.1816  0.8785
   43MPD2    C4  658   1.014   1.052   1.296 -0.3180 -0.4136  0.3829
   43MPD2    C5  659   1.046   0.927   1.350 -0.0269  0.5809 -0.8989
   43MPD2     H  660   1.279   1.067   1.102 -0.0931 -1.1278 -0.7441
   43MPD2    H1  661   0.933   1.109   1.339  0.4383 -1.0517  2.6527
   43MPD2    H2  662   1.173   0.754   1.357 -1.7841 -0.7259  0.1467
   43MPD2    H3  663   0.997   0.887   1.438  1.9183  0.7488  0.2637
   43MPD2     N  664   1.086   1.239   1.155  0.5197  0.3573 -0.6946
   43MPD2    H5  665   1.009   1.291   1.195  1.4247  2.9492 -2.3761
   43MPD2    N1  666   1.336   0.821   1.155  0.7574  0.1035 -0.5881
   43MPD2    H7  667   1.390   0.875   1.088  1.7184 -0.7517 -0.4996
   44TCq2    C1  668   1.202   1.772   0.927 -0.7254 -0.8017  0.2470
   44TCq2    O2  669   1.139   1.867   0.880 -0.1092 -0.5987 -0.4488
   44TCq2    C2  670   1.118   1.657   0.957  0.0564  0.3544 -0.4434
   44TCq2    C3  671   0.992   1.689   0.995 -0.4126  0.4430 -0.2924
   44TCq2    C4  672   0.917   1.598   1.061  0.1921 -0.5333  0.5981
   44TCq2    C5  673   0.965   1.470   1.077 -0.3310  0.4334 -0.7563
   44TCq2    C6  674   1.087   1.433   1.022 -0.1907 -0.6589 -0.8493
   44TCq2    C7  675   1.169   1.530   0.974 -0.5056 -0.5358  0.9455
   44TCq2    C8  676   1.158   1.307   1.061  0.1780  0.2458  0.0806
   44TCq2    O4  677   1.261   1.274   1.000  0.0518 -0.8034 -0.7293
   44TCq2    C9  678   0.786   1.639   1.110  0.1972 -0.0358 -0.3052
   44TCq2    O5  679   0.724   1.563   1.186 -0.2117  0.2511 -0.0296
   44TCq2    O6  680   0.734   1.741   1.067 -0.0932 -0.1822  0.1200
   44TCq2    H2  681   0.950   1.787   0.974 -1.5282 -0.3793 -1.8944
   44TCq2    H3  682   0.892   1.395   1.106  0.1603 -0.1944 -1.1457
   44TCq2    H4  683   1.270   1.513   0.937 -0.9169 -1.3490  0.2032
   45TMC2    C1  684   3.512   3.219   9.455 -0.0703 -0.3573 -0.6223
   45TMC2    C2  685   3.390   3.268   9.482  0.7138  0.2385 -0.0987
   45TMC2    C3  686   3.383   3.403   9.494  0.1229 -0.5615  0.2454
   45TMC2    C4  687   3.620   3.305   9.450 -0.0734  0.6224 -0.1166
   45TMC2    C5  688   3.603   3.443   9.469 -0.3131  0.2458  0.5547
   45TMC2    C6  689   3.481   3.494   9.492  0.3123  0.1707 -0.1814
   45TMC2     C  690   3.541   3.078   9.455  0.5593 -1.0245 -0.9045
   45TMC2     O  691   3.660   3.049   9.445  0.5568 -0.1484 -0.6939
   45TMC2     H  692   3.296   3.214   9.481 -0.9218  3.0600  1.0961
   45TMC2    H1  693   3.720   3.267   9.431 -0.2361 -0.9483  2.1922
   45TMC2    H2  694   3.459   3.599   9.506  1.9342  0.3918  0.6712
   45TMC2    C7  695   3.699   3.508   9.550  0.3448 -0.6355 -0.2639
   45TMC2    C8  696   3.264   3.458   9.537 -0.6593  0.0961 -0.0254
   45TMC2    O1  697   3.659   3.600   9.622  0.2183  0.2716 -0.6709
   45TMC2    O2  698   3.244   3.556   9.604 -0.5551  0.0662  0.1043
   45TMC2    O5  699   3.180   3.424   9.435  0.2415 -0.6615  0.4151
   45TMC2    H5  700   3.224   3.379   9.359  1.2073 -3.8785  2.9058
   46MPD2     C  701   3.544   2.779   9.508  0.4369  0.1805 -0.1675
   46MPD2    C1  702   3.431   2.849   9.474 -0.2716  0.8598 -0.2642
   46MPD2    C2  703   3.314   2.770   9.462  1.0496  0.6622 -0.6313
   46MPD2    C3  704   3.309   2.636   9.472 -0.6217 -0.4603 -0.7088
   46MPD2    C4  705   3.424   2.567   9.506 -0.8722  0.0350 -0.3848
   46MPD2    C5  706   3.541   2.640   9.512 -0.4059 -0.1277 -0.2952
   46MPD2     H  707   3.218   2.820   9.460  0.1563 -1.1767 -2.7169
   46MPD2    H1  708   3.434   2.461   9.487 -0.7110  0.0378 -0.3117
   46MPD2    H2  709   3.644   2.821   9.520  0.6499 -0.4112  0.1283
   46MPD2    H3  710   3.636   2.588   9.521 -0.4486 -0.1012  0.3198
   46MPD2     N  711   3.186   2.573   9.454  0.1887 -0.5107 -0.4472
   46MPD2    H5  712   3.106   2.631   9.431  0.5657  1.0920  2.2072
   46MPD2    N1  713   3.426   2.992   9.459 -0.4333  0.6269  0.4100
   46MPD2    H7  714   3.336   3.039   9.452 -0.6130  0.3400  0.8294
   47TMC2    C1  715   0.787   3.880   9.844 -0.0987  0.1798  0.6913
   47TMC2    C2  716   0.820   3.821   9.722  0.1356 -0.0473  0.4218
   47TMC2    C3  717   0.715   3.828   9.631  0.0328 -0.2955 -0.6357
   47TMC2    C4  718   0.666   3.932   9.871  0.2800  0.4261  0.8834
   47TMC2    C5  719   0.572   3.937   9.773 -0.1238 -0.1055 -0.2681
   47TMC2    C6  720   0.587   3.876   9.655  0.3985 -0.3468 -0.4144
   47TMC2     C  721   0.881   3.873   9.953 -0.1134 -0.0710 -0.0249
   47TMC2     O  722   0.882   3.970  10.024  0.5221 -0.5026  0.4620
   47TMC2     H  723   0.913   3.776   9.691 -0.4852  0.1261 -1.7011
   47TMC2    H1  724   0.658   3.993   9.960 -1.0174 -1.8025  2.2826
   47TMC2    H2  725   0.515   3.855   9.578 -1.0716 -1.1681  1.1993
   47TMC2    C7  726   0.440   3.939   9.816 -0.3548  0.8256  0.1238
   47TMC2    C8  727   0.724   3.735   9.518  0.4095 -0.0784 -0.1780
   47TMC2    O1  728   0.349   3.958   9.732  0.1049  0.4527  0.3820
   47TMC2    O2  729   0.656   3.737   9.418 -0.3246 -0.1943 -0.6405
   47TMC2    O5  730   0.754   3.617   9.578 -0.4864 -0.2192  0.3785
   47TMC2    H5  731   0.779   3.617   9.673  0.5828  3.1775  0.1037
   48MPD2     C  732   1.152   3.865  10.066 -0.3549 -0.3811 -0.2222
   48MPD2    C1  733   1.087   3.757  10.006 -0.1378 -0.1513  0.7206
   48MPD2    C2  734   1.143   3.628  10.009  0.8935  0.0149 -0.6878
   48MPD2    C3  735   1.269   3.610  10.061 -1.4494 -0.2637  0.5862
   48MPD2    C4  736   1.336   3.720  10.116 -0.6252  0.0792  0.0846
   48MPD2    C5  737   1.274   3.842  10.123  0.2107 -0.3168  0.7653
   48MPD2     H  738   1.087   3.544   9.968  0.6369 -1.2043  2.1966
   48MPD2    H1  739   1.428   3.712  10.172  0.3400 -1.7572 -1.7781
   48MPD2    H2  740   1.110   3.965  10.061 -1.0684 -0.6752 -0.1174
   48MPD2    H3  741   1.326   3.926  10.168 -1.5258 -0.1576  2.5076
   48MPD2     N  742   1.320   3.483  10.047 -0.0637 -0.0802  0.0986
   48MPD2    H5  743   1.252   3.417  10.008 -0.3385 -0.0500  0.5305
   48MPD2    N1  744   0.964   3.766   9.943  0.4829 -0.3255 -0.0010
   48MPD2    H7  745   0.927   3.685   9.895  1.5839 -1.0882  0.4268
   49MPD2     C  746   3.543   0.808  10.241 -0.1134  0.3235  1.0132
   49MPD2    C1  747   3.492   0.736  10.345  0.6164  0.1511 -0.6795
   49MPD2    C2  748   3.504   0.780  10.478  0.3758 -0.4880  0.0033
   49MPD2    C3  749   3.550   0.909  10.503  0.7159  0.4833 -0.3297
   49MPD2    C4  750   3.611   0.975  10.400 -0.1251  0.0233  0.1477
   49MPD2    C5  751   3.595   0.932  10.274 -0.0772  0.3982 -0.6982
   49MPD2     H  752   3.459   0.716  10.553 -0.7253 -1.1415 -1.2172
   49MPD2    H1  753   3.657   1.071  10.421  0.3090  0.0671 -0.9627
   49MPD2    H2  754   3.543   0.784  10.135  0.4733 -0.7068  1.2453
   49MPD2    H3  755   3.624   1.001  10.196  1.1209 -1.7435 -2.1465
   49MPD2     N  756   3.565   0.954  10.637  0.0510 -0.2176 -0.3133
   49MPD2    H5  757   3.618   1.039  10.655  0.8384 -1.0388  1.3109
   49MPD2    N1  758   3.422   0.618  10.332 -0.0368  0.6642  0.2149
   49MPD2    H7  759   3.390   0.563  10.411  1.7587  0.3517  0.7225
   50TCq2    C1  760   3.404   0.556  10.218 -0.3776  0.6715 -0.0993
   50TCq2    O2  761   3.408   0.600  10.106 -0.0569  0.9369  0.2837
   50TCq2    C2  762   3.383   0.414  10.237 -0.2285  0.4990  0.7713
   50TCq2    C3  763   3.409   0.359  10.361 -0.0642 -0.5579 -0.2022
   50TCq2    C4  764   3.372   0.225  10.379  0.0993 -0.5792  0.4271
   50TCq2    C5  765   3.301   0.166  10.270 -0.0019  0.4829 -0.1223
   50TCq2    C6  766   3.285   0.225  10.143 -0.3095  0.3124  0.0431
   50TCq2    C7  767   3.315   0.357  10.126  0.2496  0.1312  0.1544
   50TCq2    C8  768   3.221   0.144  10.040 -0.1421  0.0939 -0.1378
   50TCq2    O4  769   3.154   0.043  10.074 -0.7951  0.3987 -0.4131
   50TCq2    C9  770   3.400   0.162  10.497  0.6391 -0.1382  1.0197
   50TCq2    O5  771   3.491   0.219  10.570  0.4593  0.2571  0.2925
   50TCq2    O6  772   3.383   0.037  10.495  0.9870  0.1294 -0.2060
   50TCq2    H2  773   3.483   0.402  10.428 -0.9462  1.0668 -0.2795
   50TCq2    H3  774   3.287   0.059  10.280 -0.4575  0.5872  0.4055
   50TCq2    H4  775   3.307   0.405  10.029 -0.4751  0.2577  0.2825
   51MPD2     C  776   3.549   3.928   1.514 -0.3935  0.1709 -0.0290
   51MPD2    C1  777   3.680   3.880   1.498 -0.1107 -0.5643 -0.0819
   51MPD2    C2  778   3.777   3.908   1.593  0.3195  1.1226  0.1944
   51MPD2    C3  779   3.743   3.983   1.708 -0.3784 -0.2854 -0.1241
   51MPD2    C4  780   3.612   4.019   1.721 -0.2307 -0.4285 -0.3239
   51MPD2    C5  781   3.513   3.993   1.627  0.4442  0.2862  1.2980
   51MPD2     H  782   3.877   3.879   1.564  0.1492  2.0416 -1.3074
   51MPD2    H1  783   3.588   4.079   1.807  3.2815 -0.4192  0.6285
   51MPD2    H2  784   3.467   3.899   1.450  0.2310 -0.9389 -0.3221
   51MPD2    H3  785   3.409   4.021   1.637  0.1699 -1.0339  2.1791
   51MPD2     N  786   3.837   4.033   1.800  0.7152  0.5438  0.3209
   51MPD2    H5  787   3.801   4.090   1.876 -1.4465 -0.9903  0.4276
   51MPD2    N1  788   3.720   3.802   1.383  0.3098  0.0567  0.2575
   51MPD2    H7  789   3.815   3.766   1.378  0.7258  1.2639 -0.5198
   52TCq2    C1  790   3.971   4.007   1.795  0.4244  0.7101  0.4911
   52TCq2    O2  791   4.028   3.917   1.732  0.1407 -0.2018  0.6912
   52TCq2    C2  792   4.048   4.094   1.884 -0.4543  0.1634 -0.5450
   52TCq2    C3  793   4.165   4.041   1.920 -0.2152  0.4884  0.0338
   52TCq2    C4  794   4.228   4.082   2.038 -0.0923  0.5870  0.3096
   52TCq2    C5  795   4.178   4.187   2.109  0.3457  0.0519  0.3756
   52TCq2    C6  796   4.056   4.236   2.064 -0.6384  0.9385 -0.3147
   52TCq2    C7  797   3.991   4.194   1.952  0.1097 -0.1814 -0.2112
   52TCq2    C8  798   3.995   4.340   2.143 -0.6904  0.1600 -0.3795
   52TCq2    O4  799   4.066   4.391   2.226 -0.5087 -0.1344 -0.2648
   52TCq2    C9  800   4.352   4.017   2.074 -0.1087 -0.1903 -0.0129
   52TCq2    O5  801   4.385   3.910   2.021 -0.0062  0.4007 -0.3916
   52TCq2    O6  802   4.414   4.070   2.171  0.0737  0.2618  0.0840
   52TCq2    H2  803   4.222   3.973   1.858  0.2631 -1.1776  2.3090
   52TCq2    H3  804   4.233   4.223   2.195  0.3201 -1.5378  1.0659
   52TCq2    H4  805   3.902   4.239   1.909 -0.1290 -0.4789 -0.0350
   53TMC2    C1  806   4.178   2.723  11.739  0.3998 -0.1005 -0.2905
   53TMC2    C2  807   4.310   2.677  11.734  0.2831 -0.2871  0.2413
   53TMC2    C3  808   4.392   2.720  11.837 -0.3949 -0.1054 -0.2904
   53TMC2    C4  809   4.126   2.798  11.836  0.4470 -0.0225 -0.4772
   53TMC2    C5  810   4.210   2.837  11.937  0.0551  0.1891 -0.1513
   53TMC2    C6  811   4.341   2.800  11.936  0.5500 -0.4674 -0.2764
   53TMC2     C  812   4.115   2.726  11.604  0.8641 -0.7522  0.1122
   53TMC2     O  813   4.176   2.668  11.513 -0.4277 -0.3927 -0.2875
   53TMC2     H  814   4.350   2.618  11.651 -0.6285 -1.8202  0.9069
   53TMC2    H1  815   4.022   2.831  11.839  0.2710 -0.5405 -0.8049
   53TMC2    H2  816   4.411   2.825  12.014  0.2391  0.6192 -0.3568
   53TMC2    C7  817   4.147   2.907  12.046  0.4273 -0.4645  0.9540
   53TMC2    C8  818   4.531   2.700  11.827 -0.5045  0.0966  0.6171
   53TMC2    O1  819   4.030   2.927  12.045  0.0585  0.0825  0.1761
   53TMC2    O2  820   4.566   2.719  11.708 -0.0489  0.3750  0.2649
   53TMC2    O5  821   4.530   2.580  11.889 -0.0093  0.1741  0.0615
   53TMC2    H5  822   4.541   2.602  11.984 -0.8686 -0.5124  0.3322
   54MPD2     C  823   3.938   2.751  11.365  0.2703  0.3690  0.4291
   54MPD2    C1  824   3.905   2.800  11.492 -0.3068 -0.5604 -0.0645
   54MPD2    C2  825   3.786   2.868  11.515 -0.1609 -0.4454 -0.0334
   54MPD2    C3  826   3.693   2.877  11.413 -0.4591  0.5915  0.4206
   54MPD2    C4  827   3.715   2.819  11.291  0.7962 -0.5122 -0.2310
   54MPD2    C5  828   3.838   2.765  11.272  0.6674 -0.6341 -0.4862
   54MPD2     H  829   3.760   2.898  11.616 -2.1370  2.4422 -1.4390
   54MPD2    H1  830   3.649   2.831  11.205 -1.1676  0.8152  1.4602
   54MPD2    H2  831   4.028   2.696  11.339  0.1121 -0.2528  1.1655
   54MPD2    H3  832   3.859   2.727  11.172 -0.3776 -1.7908 -0.2664
   54MPD2     N  833   3.574   2.947  11.417  0.5143  0.2917 -0.3815
   54MPD2    H5  834   3.523   2.963  11.330 -0.4433 -2.0367 -0.2438
   54MPD2    N1  835   3.993   2.789  11.605  0.6473 -0.2755  0.2570
   54MPD2    H7  836   3.972   2.833  11.694  0.6268  0.4985 -0.1317
   55MPD2     C  837   0.160   1.285   0.292  0.4709  0.1411  0.2642
   55MPD2    C1  838   0.040   1.237   0.343 -0.5139  0.0076  0.2245
   55MPD2    C2  839   4.685   1.319   0.420 -0.1681 -0.3369  0.6308
   55MPD2    C3  840   0.005   1.443   0.456  0.0319  0.5899  0.6391
   55MPD2    C4  841   0.128   1.489   0.401 -0.1671  0.3682  0.0377
   55MPD2    C5  842   0.199   1.408   0.320  0.1651  0.2735 -0.1515
   55MPD2     H  843   4.593   1.277   0.461 -1.1111  1.3895  0.2856
   55MPD2    H1  844   0.164   1.590   0.417  0.9828  0.3460 -2.3674
   55MPD2    H2  845   0.227   1.224   0.232 -0.1134 -2.3182  2.1074
   55MPD2    H3  846   0.296   1.440   0.283  0.2764 -2.0698 -1.8635
   55MPD2     N  847   4.645   1.518   0.542  0.1178 -0.0248 -0.3672
   55MPD2    H5  848   4.558   1.476   0.575 -1.1475  1.8914 -1.2504
   55MPD2    N1  849   0.027   1.099   0.321  0.6266  0.5881 -0.0113
   55MPD2    H7  850   0.098   1.061   0.260  1.1775  2.3630 -0.4692
   56TCq2    C1  851   4.660   1.016   0.383  0.6561 -0.0224 -0.5401
   56TCq2    O2  852   4.591   1.054   0.473 -0.1292  0.6641  0.5118
   56TCq2    C2  853   4.685   0.873   0.360 -0.0572 -0.1044 -0.6955
   56TCq2    C3  854   0.035   0.826   0.257 -0.1425 -1.0070  0.8801
   56TCq2    C4  855   0.099   0.706   0.275  0.1233  0.2196  0.1547
   56TCq2    C5  856   0.092   0.630   0.387  0.8306  0.4942 -0.2695
   56TCq2    C6  857   0.021   0.684   0.492 -0.5922 -0.3298  1.0036
   56TCq2    C7  858   4.681   0.804   0.478 -0.5537 -0.3991 -0.6600
   56TCq2    C8  859   0.048   0.628   0.627 -0.3024  0.3309  0.2737
   56TCq2    O4  860   0.113   0.524   0.640 -0.3775  0.4720 -0.5822
   56TCq2    C9  861   0.157   0.633   0.160  0.8555  0.1219 -0.3599
   56TCq2    O5  862   0.121   0.659   0.045 -0.3714 -0.2138  0.2059
   56TCq2    O6  863   0.221   0.529   0.193  0.3498 -0.2331  0.8379
   56TCq2    H2  864   0.026   0.860   0.155  1.5466  0.4804  1.2264
   56TCq2    H3  865   0.135   0.531   0.398 -0.5450 -0.1792 -0.8971
   56TCq2    H4  866   4.628   0.854   0.559  1.0991  1.5695 -0.7917
   57TMC2    C1  867   4.192   2.114  13.846  0.2579  0.0135 -0.0916
   57TMC2    C2  868   4.253   2.058  13.953  0.1711  0.5236 -0.1016
   57TMC2    C3  869   4.367   1.989  13.940  0.5696  0.6748 -0.2682
   57TMC2    C4  870   4.252   2.105  13.724 -0.3456 -0.0394 -0.2844
   57TMC2    C5  871   4.362   2.022  13.706 -0.5898 -0.3851  0.5610
   57TMC2    C6  872   4.424   1.961  13.813 -0.3911  0.0635  0.4210
   57TMC2     C  873   4.053   2.155  13.860 -0.2065 -0.1792  0.4133
   57TMC2     O  874   4.005   2.185  13.970  0.4447  0.4816  0.5300
   57TMC2     H  875   4.203   2.060  14.049 -1.4420 -0.0838 -0.9187
   57TMC2    H1  876   4.207   2.144  13.633  0.5791  1.0145 -0.3007
   57TMC2    H2  877   4.516   1.906  13.796 -0.8161 -0.2481 -0.8497
   57TMC2    C7  878   4.420   2.023  13.571  0.3895 -0.7698 -0.5595
   57TMC2    C8  879   4.400   1.895  14.051  0.3525  0.0257  0.2018
   57TMC2    O1  880   4.391   2.116  13.498  0.4802  0.3132  0.2083
   57TMC2    O2  881   4.398   1.935  14.169  0.1983  0.0512 -0.0539
   57TMC2    O5  882   4.490   1.812  14.003 -0.5088 -0.4452 -0.1948
   57TMC2    H5  883   4.450   1.773  13.922 -0.6710 -1.9949  0.6405
   58MPD2     C  884   3.563   2.140  13.725  0.5349 -0.3272 -0.2432
   58MPD2    C1  885   3.630   2.207  13.823  0.2575 -0.1186 -0.1571
   58MPD2    C2  886   3.768   2.208  13.836 -0.5686  0.4368 -0.3130
   58MPD2    C3  887   3.838   2.131  13.750 -0.1517 -0.0304  1.1782
   58MPD2    C4  888   3.773   2.066  13.648  0.0158 -0.4251  0.6560
   58MPD2    C5  889   3.641   2.073  13.627  0.6950 -0.1155 -0.1789
   58MPD2     H  890   3.820   2.269  13.907  0.0061 -0.4130 -0.0035
   58MPD2    H1  891   3.838   2.012  13.580  0.8426  0.7987  0.4695
   58MPD2    H2  892   3.457   2.143  13.702  0.2265  0.1294  1.2643
   58MPD2    H3  893   3.602   2.011  13.548  2.2204  0.2936 -1.2438
   58MPD2     N  894   3.980   2.123  13.753  0.3611 -0.3407  0.0124
   58MPD2    H5  895   4.031   2.065  13.687  1.4157  0.6587 -0.0625
   58MPD2    N1  896   3.570   2.294  13.913 -0.5690 -0.0967 -0.2834
   58MPD2    H7  897   3.623   2.337  13.988 -0.0320  0.7147 -1.1381
   59MPD2     C  898   1.747   2.030  13.471 -0.8871 -0.5817 -0.4008
   59MPD2    C1  899   1.857   1.961  13.441  0.9999 -0.2318 -0.2556
   59MPD2    C2  900   1.974   1.982  13.514 -0.5036 -0.9474 -0.4866
   59MPD2    C3  901   1.974   2.073  13.622  0.0456 -0.0610 -0.5187
   59MPD2    C4  902   1.858   2.139  13.642  0.6283  0.6966  0.9150
   59MPD2    C5  903   1.744   2.122  13.575  0.0274  0.1853 -0.3477
   59MPD2     H  904   2.059   1.916  13.504  0.5239  0.5337 -1.3707
   59MPD2    H1  905   1.847   2.212  13.722  1.0286 -0.3131  1.8902
   59MPD2    H2  906   1.655   2.018  13.415  0.6621 -2.7876 -2.4714
   59MPD2    H3  907   1.653   2.170  13.606 -1.1643 -1.3736 -1.4161
   59MPD2     N  908   2.097   2.107  13.688 -0.4910 -0.1772 -0.2534
   59MPD2    H5  909   2.087   2.178  13.760  0.9174 -2.7965  2.5165
   59MPD2    N1  910   1.856   1.862  13.339 -0.0376  0.4978 -0.0734
   59MPD2    H7  911   1.941   1.843  13.287  0.4685 -3.0409  2.0258
   60TCq2    C1  912   1.744   1.801  13.289 -0.5159 -0.2443  0.8899
   60TCq2    O2  913   1.636   1.803  13.341  0.2795 -0.7166  0.2739
   60TCq2    C2  914   1.759   1.721  13.168 -0.2687 -0.6920 -0.2992
   60TCq2    C3  915   1.676   1.613  13.149  0.5231 -0.8430  0.0168
   60TCq2    C4  916   1.682   1.537  13.034  0.1315  0.4115 -0.2044
   60TCq2    C5  917   1.767   1.580  12.935 -0.8192  0.1941  0.5481
   60TCq2    C6  918   1.859   1.684  12.959 -0.4078  0.2094  0.4060
   60TCq2    C7  919   1.859   1.749  13.075  0.0942 -0.3000  0.8066
   60TCq2    C8  920   1.938   1.738  12.841  0.2978  0.5744 -0.0916
   60TCq2    O4  921   1.973   1.651  12.760  0.0093 -0.5946 -0.3778
   60TCq2    C9  922   1.580   1.435  13.008  0.7456 -0.0290  0.3697
   60TCq2    O5  923   1.600   1.358  12.910 -0.0860 -0.0753 -0.0783
   60TCq2    O6  924   1.476   1.430  13.081  0.2638 -0.0993  0.1294
   60TCq2    H2  925   1.597   1.588  13.219  0.1296 -1.5550 -0.6983
   60TCq2    H3  926   1.758   1.529  12.840  2.6710 -2.4951  1.6388
   60TCq2    H4  927   1.934   1.824  13.097  0.6097 -0.4372 -0.4615
   61MPD2     C  928   1.579   3.552  14.430 -0.6314 -0.0901  0.5881
   61MPD2    C1  929   1.481   3.610  14.508  0.5515 -0.3229 -0.7760
   61MPD2    C2  930   1.429   3.736  14.468 -0.4731  0.0124 -0.4506
   61MPD2    C3  931   1.469   3.795  14.351  0.1702 -0.0155  0.8602
   61MPD2    C4  932   1.559   3.726  14.271 -0.2593  0.4820 -0.0136
   61MPD2    C5  933   1.616   3.610  14.314  0.3085 -0.1861 -0.6321
   61MPD2     H  934   1.362   3.792  14.533  0.3628 -0.0099  0.4279
   61MPD2    H1  935   1.600   3.771  14.181  1.1395 -0.8744 -0.0326
   61MPD2    H2  936   1.624   3.459  14.460 -0.4418 -0.2851 -0.3083
   61MPD2    H3  937   1.684   3.562  14.244  0.0192 -1.3710 -0.1018
   61MPD2     N  938   1.423   3.926  14.315  0.4146 -0.1699  0.0647
   61MPD2    H5  939   1.463   3.967  14.232  1.8668  0.5719  1.1336
   61MPD2    N1  940   1.443   3.555  14.631  0.0358  0.1417 -0.4020
   61MPD2    H7  941   1.388   3.614  14.692  0.9454  0.8590 -0.2771
   62TCq2    C1  942   1.467   3.424  14.673  0.0228 -1.0057 -0.0747
   62TCq2    O2  943   1.493   3.323  14.612  0.1466 -0.4151 -0.5886
   62TCq2    C2  944   1.441   3.408  14.820 -0.7517  0.1804 -0.2385
   62TCq2    C3  945   1.448   3.283  14.877  0.9195  0.0380 -0.0635
   62TCq2    C4  946   1.449   3.267  15.016  0.2191  0.1603 -0.7128
   62TCq2    C5  947   1.446   3.379  15.088 -0.3629  0.9792 -0.1551
   62TCq2    C6  948   1.426   3.502  15.030 -0.3541  0.1380  0.4584
   62TCq2    C7  949   1.421   3.518  14.893  1.0550  0.8399  0.2559
   62TCq2    C8  950   1.415   3.626  15.105  0.4424 -0.4167 -0.2950
   62TCq2    O4  951   1.447   3.731  15.052 -0.2410  0.4850  0.1412
   62TCq2    C9  952   1.481   3.144  15.067  0.2779 -0.0944 -0.2264
   62TCq2    O5  953   1.484   3.048  14.987 -0.8225  0.2942 -0.4574
   62TCq2    O6  954   1.471   3.130  15.191  0.7999  0.3373 -0.1713
   62TCq2    H2  955   1.477   3.197  14.818  2.2071 -0.1710  0.8766
   62TCq2    H3  956   1.468   3.378  15.194 -0.1695 -2.1934 -0.2497
   62TCq2    H4  957   1.407   3.619  14.855 -4.4196  0.0599  0.2079
   63TMC2    C1  958   1.041   3.407  11.283  0.2654  0.1366  0.3704
   63TMC2    C2  959   1.156   3.466  11.327 -0.0505  0.2257  0.0727
   63TMC2    C3  960   1.259   3.487  11.240  0.2388  0.1412  0.1584
   63TMC2    C4  961   1.024   3.376  11.155 -0.0238  0.6818  0.0859
   63TMC2    C5  962   1.127   3.402  11.067  0.3107 -0.5347  0.6581
   63TMC2    C6  963   1.248   3.455  11.107 -0.5682 -0.2034  0.7956
   63TMC2     C  964   0.950   3.360  11.388 -0.2769 -0.1452 -0.6360
   63TMC2     O  965   0.936   3.429  11.489  0.0493  0.8025 -0.5087
   63TMC2     H  966   1.161   3.503  11.429 -0.0953  1.5808 -0.4260
   63TMC2    H1  967   0.941   3.315  11.121 -0.1206 -0.1376  1.8273
   63TMC2    H2  968   1.331   3.485  11.045 -2.8646 -0.2276 -2.3016
   63TMC2    C7  969   1.085   3.418  10.927 -0.1212  0.5424  0.3099
   63TMC2    C8  970   1.376   3.534  11.302 -0.0147 -0.4023 -0.1069
   63TMC2    O1  971   0.970   3.374  10.907  0.3935 -0.0922 -0.4745
   63TMC2    O2  972   1.426   3.458  11.389 -0.0521  0.0734  0.0855
   63TMC2    O5  973   1.355   3.666  11.316  0.2244 -0.3100  0.8522
   63TMC2    H5  974   1.305   3.713  11.246  0.5955  2.6122  2.5359
   64MPD2     C  975   0.677   2.974  11.597 -0.4070  0.7512  0.1101
   64MPD2    C1  976   0.729   2.937  11.479  0.0096  0.4453 -0.4545
   64MPD2    C2  977   0.777   3.031  11.390  0.2371  0.6959 -0.1350
   64MPD2    C3  978   0.809   3.156  11.435  0.2067 -0.0570 -0.7034
   64MPD2    C4  979   0.753   3.198  11.551 -0.2691  0.3781 -0.7715
   64MPD2    C5  980   0.678   3.110  11.628  0.5443 -0.5601 -0.9483
   64MPD2     H  981   0.809   3.000  11.291  0.3890  1.8286 -0.4429
   64MPD2    H1  982   0.767   3.298  11.592  0.7958 -0.9939  2.2431
   64MPD2    H2  983   0.617   2.902  11.651  3.2456 -1.5488  1.1314
   64MPD2    H3  984   0.651   3.135  11.730  1.2034 -1.2236 -0.6111
   64MPD2     N  985   0.898   3.235  11.359  0.5251  0.2188  0.1437
   64MPD2    H5  986   0.916   3.193  11.268 -0.6627 -0.8689  0.4046
   64MPD2    N1  987   0.729   2.802  11.444 -0.1726 -0.3096 -0.0314
   64MPD2    H7  988   0.759   2.785  11.348 -0.0341 -0.4738  0.0396
   65MPD2     C  989   1.462   2.844  16.264  0.5023  0.5595  0.4623
   65MPD2    C1  990   1.525   2.814  16.140  0.1890 -0.6843  0.0102
   65MPD2    C2  991   1.512   2.688  16.095 -0.2240 -0.3944  0.0547
   65MPD2    C3  992   1.441   2.588  16.159  0.3065 -0.0287  0.5889
   65MPD2    C4  993   1.376   2.614  16.270  0.1957 -0.2637 -1.6272
   65MPD2    C5  994   1.384   2.745  16.323 -0.0370  0.2426  0.2944
   65MPD2     H  995   1.552   2.666  15.997 -0.4466  0.1984 -0.1747
   65MPD2    H1  996   1.320   2.537  16.321 -2.2295  1.2653 -1.9204
   65MPD2    H2  997   1.467   2.941  16.312  2.8389  0.9216 -0.4782
   65MPD2    H3  998   1.332   2.763  16.417  0.5137  1.0478  0.4461
   65MPD2     N  999   1.432   2.453  16.102  0.0121 -0.4247  0.2301
   65MPD2    H5 1000   1.358   2.394  16.137 -1.0033 -0.0347 -1.2629
   65MPD2    N1 1001   1.589   2.912  16.057  0.1578 -0.5595 -0.5485
   65MPD2    H7 1002   1.630   2.890  15.967  0.5615 -0.2400 -0.4438
   66TCq2    C1 1003   1.593   3.048  16.081 -0.0879  0.0124  0.1360
   66TCq2    O2 1004   1.559   3.111  16.178  0.0744  0.7745 -0.3070
   66TCq2    C2 1005   1.670   3.109  15.970  0.3216  0.4259 -0.4511
   66TCq2    C3 1006   1.674   3.056  15.839 -0.0498 -0.3346  0.1541
   66TCq2    C4 1007   1.742   3.115  15.743 -0.5805  0.5024 -1.1273
   66TCq2    C5 1008   1.795   3.240  15.762 -0.4474 -0.2883  0.1878
   66TCq2    C6 1009   1.790   3.292  15.890 -0.3337  0.1809 -0.5711
   66TCq2    C7 1010   1.724   3.232  15.993  0.0881 -0.8877 -0.3313
   66TCq2    C8 1011   1.808   3.441  15.882 -0.7597  0.1238  0.7223
   66TCq2    O4 1012   1.810   3.483  15.768 -0.2317  0.2955  0.0168
   66TCq2    C9 1013   1.752   3.047  15.616 -0.0518 -0.3833 -0.5640
   66TCq2    O5 1014   1.841   3.092  15.536 -0.2834 -0.2641  0.5508
   66TCq2    O6 1015   1.666   2.962  15.585  0.5472 -0.7246 -0.2791
   66TCq2    H2 1016   1.629   2.960  15.817  1.7025 -0.6890 -1.8691
   66TCq2    H3 1017   1.857   3.286  15.687 -0.9703  2.4652  1.4595
   66TCq2    H4 1018   1.707   3.276  16.091  0.1237  1.3157 -1.3046
   67MPD2     C 1019   1.962   2.350  14.440  0.2826 -0.6030 -0.4487
   67MPD2    C1 1020   1.890   2.425  14.529  0.1653  0.3187 -0.0637
   67MPD2    C2 1021   1.763   2.470  14.499 -0.0583 -0.4347  1.2092
   67MPD2    C3 1022   1.703   2.425  14.384 -0.8722 -0.4570  0.0840
   67MPD2    C4 1023   1.771   2.349  14.300  0.3318  0.8709  0.1158
   67MPD2    C5 1024   1.902   2.311  14.322 -0.2898 -0.5714  0.1581
   67MPD2     H 1025   1.715   2.543  14.563  1.0070  0.5326  0.9106
   67MPD2    H1 1026   1.728   2.315  14.206  0.4555  1.7347 -0.2513
   67MPD2    H2 1027   2.068   2.332  14.450  0.1625 -0.6401  0.7041
   67MPD2    H3 1028   1.951   2.255  14.243 -0.5424 -0.2403 -0.2367
   67MPD2     N 1029   1.568   2.464  14.344 -0.1841  0.0596 -1.1186
   67MPD2    H5 1030   1.535   2.441  14.251  2.9136 -1.3671 -1.8833
   67MPD2    N1 1031   1.956   2.479  14.647 -0.1434  1.0770 -0.1206
   67MPD2    H7 1032   1.904   2.549  14.699 -0.2760  0.5047  0.5065
   68TCq2    C1 1033   2.089   2.455  14.676 -0.5401 -0.0080 -0.4453
   68TCq2    O2 1034   2.162   2.369  14.637 -0.4535 -0.2281  0.1466
   68TCq2    C2 1035   2.145   2.541  14.783 -0.3784  0.7337 -0.6710
   68TCq2    C3 1036   2.095   2.662  14.811 -0.0235 -0.0044  0.2727
   68TCq2    C4 1037   2.147   2.737  14.916  0.2895  0.7595 -0.2635
   68TCq2    C5 1038   2.237   2.683  15.005  0.0242  0.0004  0.2027
   68TCq2    C6 1039   2.296   2.569  14.961  0.5388  0.5234 -0.3661
   68TCq2    C7 1040   2.256   2.495  14.849  0.3173 -0.3295 -0.4765
   68TCq2    C8 1041   2.373   2.503  15.063 -0.0541  0.7130  0.2600
   68TCq2    O4 1042   2.425   2.397  15.030  0.6804  0.3151 -0.3626
   68TCq2    C9 1043   2.102   2.868  14.944 -0.2958 -0.2477 -0.2276
   68TCq2    O5 1044   2.154   2.925  15.040  0.4960 -1.1515  0.4376
   68TCq2    O6 1045   2.040   2.924  14.849  0.4422 -0.2427  0.3972
   68TCq2    H2 1046   2.016   2.707  14.753  1.5271  0.2884 -1.6195
   68TCq2    H3 1047   2.284   2.743  15.082 -0.2634  2.0537 -1.1907
   68TCq2    H4 1048   2.295   2.397  14.820 -1.7216 -0.6402 -2.1579
   69TMC2    C1 1049   4.330   3.396  12.347  0.0858  0.3997 -1.1606
   69TMC2    C2 1050   4.197   3.394  12.346  0.1732 -0.9732 -0.4404
   69TMC2    C3 1051   4.140   3.345  12.234 -0.0960  0.9296 -0.0066
   69TMC2    C4 1052   4.407   3.366  12.236 -0.4930  0.2297 -0.4029
   69TMC2    C5 1053   4.343   3.317  12.127  0.1329 -0.4707  0.5562
   69TMC2    C6 1054   4.206   3.304  12.119 -0.0166 -0.2528 -0.2381
   69TMC2     C 1055   4.390   3.396  12.480  0.6621 -0.4067  0.2064
   69TMC2     O 1056   4.312   3.393  12.576  0.0100 -0.1239 -0.2948
   69TMC2     H 1057   4.131   3.430  12.424  1.3837 -1.8915  1.0173
   69TMC2    H1 1058   4.515   3.354  12.231 -0.2328  1.8259  1.3928
   69TMC2    H2 1059   4.158   3.231  12.055 -1.8485 -1.1615  2.1654
   69TMC2    C7 1060   4.421   3.256  12.026 -0.6064  0.0667 -0.0467
   69TMC2    C8 1061   3.997   3.354  12.233  0.0771  0.6470  0.2871
   69TMC2    O1 1062   4.537   3.218  12.051  0.1027  0.0699 -0.0283
   69TMC2    O2 1063   3.928   3.380  12.331 -0.2867 -0.1987 -0.1269
   69TMC2    O5 1064   3.950   3.269  12.140  0.0800 -0.4700 -0.0338
   69TMC2    H5 1065   3.992   3.297  12.056 -1.7298 -2.7821 -1.7253
   70MPD2     C 1066   0.019   3.394  12.572 -0.1370  0.2790  0.5719
   70MPD2    C1 1067   4.612   3.349  12.584 -0.5330  0.2598  0.1960
   70MPD2    C2 1068   4.565   3.278  12.695  0.7012  0.0354  0.0650
   70MPD2    C3 1069   4.653   3.244  12.792  0.1032  0.1832  0.1350
   70MPD2    C4 1070   0.061   3.291  12.781 -0.1348  0.0914  0.0697
   70MPD2    C5 1071   0.107   3.366  12.677 -0.0851  1.3462 -0.0763
   70MPD2     H 1072   4.466   3.235  12.704 -0.3351  2.3838  0.0464
   70MPD2    H1 1073   0.129   3.264  12.861 -2.5165  0.0686  2.0880
   70MPD2    H2 1074   0.064   3.438  12.484  0.5628 -1.0704  0.2565
   70MPD2    H3 1075   0.211   3.397  12.684  0.0084  1.5837 -2.6438
   70MPD2     N 1076   4.620   3.163  12.902  0.3584 -0.2546  0.2357
   70MPD2    H5 1077   4.689   3.154  12.976 -0.8928 -1.6916  1.2248
   70MPD2    N1 1078   4.530   3.398  12.477 -0.3943 -0.7222  0.4041
   70MPD2    H7 1079   4.573   3.437  12.394 -0.6249 -1.4468 -0.0588
   71TMC2    C1 1080   1.027   4.175   2.146  0.0425  0.6253 -0.1704
   71TMC2    C2 1081   1.133   4.140   2.226 -0.1829  0.5512  0.2424
   71TMC2    C3 1082   1.098   4.110   2.354 -0.5966 -0.4639 -0.9276
   71TMC2    C4 1083   0.897   4.180   2.184 -0.1650  0.2766 -0.4068
   71TMC2    C5 1084   0.865   4.146   2.315 -0.3574 -0.7344  0.1356
   71TMC2    C6 1085   0.973   4.118   2.401 -0.3507  0.0612  0.7822
   71TMC2     C 1086   1.053   4.190   2.005 -0.0425  0.1509  0.9756
   71TMC2     O 1087   0.975   4.255   1.933 -0.0929  0.6292 -0.1123
   71TMC2     H 1088   1.238   4.150   2.201 -0.6777  1.2267 -1.5362
   71TMC2    H1 1089   0.825   4.211   2.108  1.6184  1.6722 -1.5359
   71TMC2    H2 1090   0.946   4.095   2.504  1.8012 -1.9539  0.8865
   71TMC2    C7 1091   0.730   4.153   2.365  0.2335  0.4832 -0.2606
   71TMC2    C8 1092   1.200   4.074   2.457 -0.5588 -0.2409  0.3955
   71TMC2    O1 1093   0.722   4.159   2.487 -0.5882  0.3615  0.2735
   71TMC2    O2 1094   1.307   4.019   2.442 -0.5929  0.3291  0.0511
   71TMC2    O5 1095   1.167   4.139   2.567  0.0698 -0.0061 -0.6265
   71TMC2    H5 1096   1.101   4.210   2.552 -0.3361 -0.2594 -0.0809
   72MPD2     C 1097   1.353   4.102   1.612  0.2545  0.6738  0.4391
   72MPD2    C1 1098   1.243   4.182   1.617  0.3100 -0.2770  0.0657
   72MPD2    C2 1099   1.170   4.181   1.736  0.1451 -0.2675 -0.1698
   72MPD2    C3 1100   1.219   4.106   1.843  0.1626  0.3603 -0.2453
   72MPD2    C4 1101   1.332   4.027   1.833 -0.8396  0.3206  0.1901
   72MPD2    C5 1102   1.396   4.028   1.717 -0.5943  1.1143 -0.7497
   72MPD2     H 1103   1.097   4.260   1.750 -1.0623 -1.7114  1.7025
   72MPD2    H1 1104   1.368   3.972   1.920  0.5233  0.1591 -0.4835
   72MPD2    H2 1105   1.412   4.089   1.522 -1.0255 -0.6244 -0.2138
   72MPD2    H3 1106   1.491   3.979   1.699 -2.0760 -0.9633 -2.9021
   72MPD2     N 1107   1.167   4.116   1.975 -0.4016 -0.5375 -0.2442
   72MPD2    H5 1108   1.212   4.061   2.047 -0.5459  2.2032  1.9359
   72MPD2    N1 1109   1.202   4.265   1.514  0.5118  0.1817 -0.7458
   72MPD2    H7 1110   1.122   4.324   1.533 -1.3435 -2.9247  1.0438
   73TMC2    C1 1111   1.248   1.184  14.120  0.1487  0.1369  0.1568
   73TMC2    C2 1112   1.176   1.148  14.227 -0.7152 -0.5964  0.1764
   73TMC2    C3 1113   1.241   1.117  14.344  0.0970  0.2996 -0.9545
   73TMC2    C4 1114   1.384   1.176  14.118  0.7564  0.3619 -0.8740
   73TMC2    C5 1115   1.445   1.149  14.234  0.1578  0.5811  0.4473
   73TMC2    C6 1116   1.376   1.117  14.349  0.0095 -0.4289 -0.1918
   73TMC2     C 1117   1.205   1.305  14.064 -0.8715 -0.6233 -0.2928
   73TMC2     O 1118   1.295   1.377  14.024  0.1741  0.1409 -0.3169
   73TMC2     H 1119   1.069   1.166  14.231 -0.5144  0.7657 -0.8241
   73TMC2    H1 1120   1.436   1.192  14.024 -1.1902  2.3364 -1.6276
   73TMC2    H2 1121   1.426   1.116  14.446  0.6227  0.3515 -0.4949
   73TMC2    C7 1122   1.549   1.235  14.257  0.3670 -0.1479  0.2059
   73TMC2    C8 1123   1.161   1.025  14.429  0.6081  0.2761 -0.1254
   73TMC2    O1 1124   1.654   1.200  14.313  0.1758 -0.2607  0.4643
   73TMC2    O2 1125   1.039   1.040  14.422  0.4791 -0.8074  0.2333
   73TMC2    O5 1126   1.228   0.915  14.459  0.2461 -0.3621 -0.1589
   73TMC2    H5 1127   1.325   0.919  14.467  0.3212 -3.1073  0.3553
   74MPD2     C 1128   0.910   1.690  13.893  0.7185 -0.7583  0.0928
   74MPD2    C1 1129   1.045   1.683  13.915 -0.0178 -0.0358  0.2857
   74MPD2    C2 1130   1.102   1.571  13.967  0.1096  0.0537  0.0418
   74MPD2    C3 1131   1.023   1.466  14.004  0.2975 -0.0794  0.4107
   74MPD2    C4 1132   0.885   1.473  13.992 -1.2906  0.5945  0.0168
   74MPD2    C5 1133   0.834   1.580  13.927  0.4304 -0.1436 -0.1281
   74MPD2     H 1134   1.210   1.569  13.968  0.0640 -1.0036  2.0096
   74MPD2    H1 1135   0.822   1.394  14.031 -1.6490  0.3416 -1.0782
   74MPD2    H2 1136   0.872   1.771  13.833 -0.5241 -2.2244 -1.0962
   74MPD2    H3 1137   0.731   1.582  13.893 -0.0158 -0.5834  1.2112
   74MPD2     N 1138   1.071   1.341  14.061 -0.3158 -0.3677  0.5268
   74MPD2    H5 1139   1.003   1.267  14.075 -1.8094 -0.1336 -5.6034
   74MPD2    N1 1140   1.114   1.798  13.865  0.1924  0.2738 -0.5155
   74MPD2    H7 1141   1.071   1.857  13.794  0.7106  2.2030  0.7946
   75TCq2    C1 1142   1.472   2.524  14.427 -0.1591 -0.0147  0.2385
   75TCq2    O2 1143   1.480   2.552  14.542  0.7761  0.0571  0.3240
   75TCq2    C2 1144   1.344   2.546  14.370 -0.1592 -0.0157 -0.0785
   75TCq2    C3 1145   1.231   2.565  14.453 -0.7875 -0.3924 -0.3005
   75TCq2    C4 1146   1.108   2.563  14.398  0.0972 -0.1837 -0.2328
   75TCq2    C5 1147   1.095   2.575  14.266 -0.4740 -0.3097  0.2071
   75TCq2    C6 1148   1.204   2.554  14.189  0.3431 -0.0951 -0.2186
   75TCq2    C7 1149   1.331   2.530  14.237 -0.2388  0.0712 -0.3695
   75TCq2    C8 1150   1.200   2.550  14.046 -0.9003 -0.1974 -0.1329
   75TCq2    O4 1151   1.278   2.480  13.982 -0.5640  0.4546 -0.2394
   75TCq2    C9 1152   0.991   2.561  14.472  0.3060 -0.5653 -0.1368
   75TCq2    O5 1153   1.003   2.526  14.591 -0.3870 -0.2004 -0.0528
   75TCq2    O6 1154   0.875   2.581  14.419  0.1426  0.0252  0.3726
   75TCq2    H2 1155   1.238   2.580  14.560 -0.9037 -1.6679 -0.1152
   75TCq2    H3 1156   1.002   2.601  14.216 -1.3108 -0.1855  1.8244
   75TCq2    H4 1157   1.415   2.535  14.169  0.0309  3.7532  0.2407
   76MPD2     C 1158   0.439   2.390  11.647  0.0576  0.1948 -0.3914
   76MPD2    C1 1159   0.425   2.493  11.740  0.4743  0.0996 -0.9470
   76MPD2    C2 1160   0.475   2.469  11.866 -0.5402 -0.0025  0.1710
   76MPD2    C3 1161   0.521   2.343  11.903 -0.4885  0.2632  0.9909
   76MPD2    C4 1162   0.523   2.236  11.813 -0.3545  0.0904  0.2093
   76MPD2    C5 1163   0.477   2.259  11.686 -0.9747 -0.0233 -0.6003
   76MPD2     H 1164   0.479   2.547  11.941  1.6570  1.3401 -1.3538
   76MPD2    H1 1165   0.557   2.134  11.831  3.3400  1.4318  0.9496
   76MPD2    H2 1166   0.413   2.404  11.542 -2.0134  2.2928  0.3983
   76MPD2    H3 1167   0.505   2.192  11.606 -2.4650 -0.6992 -0.5380
   76MPD2     N 1168   0.572   2.309  12.035 -0.1328  0.3245  0.0798
   76MPD2    H5 1169   0.592   2.213  12.062  0.4629  0.1807 -0.8978
   76MPD2    N1 1170   0.395   2.626  11.710 -0.1037  0.0530  0.3691
   76MPD2    H7 1171   0.383   2.688  11.790 -1.9751  0.9429 -0.5984
   77TCq2    C1 1172   0.607   2.394  12.140 -0.2369  0.1091  0.3929
   77TCq2    O2 1173   0.622   2.513  12.137  0.2588 -0.1222  0.3060
   77TCq2    C2 1174   0.668   2.316  12.248  0.6018 -0.1654 -0.6526
   77TCq2    C3 1175   0.599   2.205  12.290  0.0502  0.2041  0.5223
   77TCq2    C4 1176   0.656   2.125  12.384  0.1014 -0.1237 -0.0333
   77TCq2    C5 1177   0.783   2.138  12.421 -0.4278 -0.1402  0.1179
   77TCq2    C6 1178   0.847   2.246  12.376  0.4608 -0.1765 -0.4847
   77TCq2    C7 1179   0.795   2.334  12.288  0.6338 -0.0772 -0.5182
   77TCq2    C8 1180   0.981   2.280  12.429  0.1748 -0.1785 -0.1952
   77TCq2    O4 1181   1.054   2.187  12.466  0.4570 -0.2379 -0.3522
   77TCq2    C9 1182   0.599   2.001  12.424 -0.8036  0.6115  0.7837
   77TCq2    O5 1183   0.526   1.940  12.343  0.3393  0.2921 -0.0791
   77TCq2    O6 1184   0.572   1.991  12.546 -0.2766  0.0426  0.0081
   77TCq2    H2 1185   0.496   2.180  12.268 -0.0346  0.6985  0.3547
   77TCq2    H3 1186   0.823   2.072  12.498 -0.1740 -0.3315 -0.1797
   77TCq2    H4 1187   0.848   2.424  12.256 -0.7123 -0.0102 -2.5670
   78MPD1     C 1188   3.418   2.099   1.660  0.3580  0.1458  0.5279
   78MPD1    C1 1189   3.379   2.214   1.722  0.2164 -0.8475  0.7616
   78MPD1    C2 1190   3.474   2.302   1.767 -0.5599 -0.2876  0.2986
   78MPD1    C3 1191   3.612   2.280   1.739  0.2288  0.1704 -0.8891
   78MPD1    C4 1192   3.650   2.172   1.670  0.4350  0.1765 -0.0298
   78MPD1    C5 1193   3.545   2.083   1.620 -0.0981  0.3055  0.1244
   78MPD1     H 1194   3.447   2.392   1.821  3.5611  1.2041 -0.1114
   78MPD1    H1 1195   3.756   2.158   1.651  0.5587  0.4623  0.4506
   78MPD1    H2 1196   3.344   2.026   1.629 -0.0866  1.8280 -2.4236
   78MPD1    H3 1197   3.576   1.995   1.565 -0.2197 -0.6591  1.6181
   78MPD1     N 1198   3.715   2.375   1.746 -0.1604  0.2836 -0.6973
   78MPD1    H5 1199   3.810   2.340   1.735 -0.3053  0.1536 -1.5537
   78MPD1    N1 1200   3.245   2.232   1.764  0.4435 -0.1786 -0.8252
   78MPD1    H6 1201   3.225   2.331   1.753  3.6486  0.5921  0.1114
   78MPD1    H7 1202   3.181   2.178   1.707 -1.9005  2.1365 -0.3668
   79TCq2    C1 1203   3.689   2.504   1.786 -0.5425 -0.3591 -0.9837
   79TCq2    O2 1204   3.591   2.571   1.791 -0.3026  0.0275 -0.5513
   79TCq2    C2 1205   3.806   2.574   1.807  0.0571 -0.0552  0.4762
   79TCq2    C3 1206   3.917   2.498   1.854 -0.1581  0.0584  0.0678
   79TCq2    C4 1207   4.038   2.569   1.864 -0.0495 -0.3010 -0.2905
   79TCq2    C5 1208   4.045   2.699   1.832 -0.4169 -0.0361  0.2148
   79TCq2    C6 1209   3.928   2.768   1.805  0.0818  0.0888 -0.4689
   79TCq2    C7 1210   3.809   2.710   1.776  0.1115 -0.1165  0.5467
   79TCq2    C8 1211   3.935   2.908   1.766  0.1222 -0.2214 -0.2566
   79TCq2    O4 1212   3.836   2.953   1.710 -0.4516  0.9556  0.8928
   79TCq2    C9 1213   4.156   2.502   1.900 -0.1537  0.1749  0.8762
   79TCq2    O5 1214   4.254   2.571   1.939 -0.4689  0.0068  0.6964
   79TCq2    O6 1215   4.148   2.374   1.897  1.0881  0.4822 -0.2981
   79TCq2    H2 1216   3.915   2.395   1.886  1.1856 -0.6107 -1.9951
   79TCq2    H3 1217   4.141   2.750   1.839  0.4731 -1.9695  1.9725
   79TCq2    H4 1218   3.725   2.778   1.776  0.1217 -0.1026  1.1693
   80MPD2     C 1219   3.957   2.847  12.736 -0.0140 -0.3760 -0.2081
   80MPD2    C1 1220   3.917   2.785  12.620 -0.0766  0.0266 -0.3056
   80MPD2    C2 1221   3.778   2.773  12.598  0.1434 -0.0334  0.7966
   80MPD2    C3 1222   3.685   2.804  12.696 -0.2941 -0.7288  0.0085
   80MPD2    C4 1223   3.725   2.854  12.821  0.4856 -0.7025 -0.3338
   80MPD2    C5 1224   3.860   2.865  12.839  0.0725 -0.2582  0.1199
   80MPD2     H 1225   3.748   2.738  12.499 -1.0555 -0.3869  1.2846
   80MPD2    H1 1226   3.658   2.900  12.893  2.2709  0.1332  0.8096
   80MPD2    H2 1227   4.057   2.886  12.745 -0.6108  1.5857 -2.0449
   80MPD2    H3 1228   3.891   2.913  12.932 -1.4259  1.5209 -0.3054
   80MPD2     N 1229   3.539   2.801  12.665 -0.1499  0.2276  0.5095
   80MPD2    H5 1230   3.476   2.782  12.743 -0.6855  3.0981  0.7962
   80MPD2    N1 1231   4.000   2.737  12.511 -0.2282  0.0609 -0.1370
   80MPD2    H7 1232   3.947   2.693  12.436 -2.2969 -1.0666  2.0072
   81TCq2    C1 1233   4.130   2.724  12.519 -0.1221  0.5701  0.0706
   81TCq2    O2 1234   4.213   2.750  12.608  0.2548  0.0865  0.0955
   81TCq2    C2 1235   4.182   2.660  12.404  0.3851  0.3937 -0.3476
   81TCq2    C3 1236   4.309   2.692  12.377  0.1698  0.8452 -0.1699
   81TCq2    C4 1237   4.351   2.654  12.253 -0.4531 -1.1423 -0.8010
   81TCq2    C5 1238   4.281   2.575  12.168  0.8115  0.6041  0.0832
   81TCq2    C6 1239   4.154   2.541  12.214  0.1056 -0.2368  0.2581
   81TCq2    C7 1240   4.102   2.574  12.333 -0.0193 -0.1266  0.1540
   81TCq2    C8 1241   4.085   2.452  12.131  0.0624  0.1025  0.3762
   81TCq2    O4 1242   4.092   2.466  12.012  0.6085  0.3721  0.4114
   81TCq2    C9 1243   4.493   2.678  12.228 -0.4075  0.0606 -0.2849
   81TCq2    O5 1244   4.554   2.754  12.307  0.2953  0.4962 -0.6046
   81TCq2    O6 1245   4.548   2.625  12.129  0.1029 -0.2042  0.2094
   81TCq2    H2 1246   4.371   2.751  12.443 -1.8907  2.8708 -0.0588
   81TCq2    H3 1247   4.326   2.555  12.072  0.7967  0.0473  0.1962
   81TCq2    H4 1248   4.005   2.541  12.367 -0.0326 -0.7528 -0.4891
   82MPD2     C 1249   2.887   2.169  10.720 -0.2336  0.1160  0.7042
   82MPD2    C1 1250   2.784   2.090  10.673 -0.7225  0.0612 -0.1264
   82MPD2    C2 1251   2.745   1.969  10.735  0.4931 -0.3486  0.1340
   82MPD2    C3 1252   2.802   1.939  10.854  0.1787 -0.3295 -0.4882
   82MPD2    C4 1253   2.894   2.020  10.908  0.5220 -0.2407 -0.3745
   82MPD2    C5 1254   2.940   2.129  10.837  0.0183  0.1557 -0.2005
   82MPD2     H 1255   2.675   1.901  10.688  1.2269 -0.9562 -0.0836
   82MPD2    H1 1256   2.946   2.000  11.001  0.0081 -0.8509 -0.2201
   82MPD2    H2 1257   2.923   2.254  10.663  2.5934 -0.9769  0.8791
   82MPD2    H3 1258   3.027   2.180  10.877 -0.8147  1.2411  0.2183
   82MPD2     N 1259   2.799   1.817  10.922  0.7656 -0.3810  0.6582
   82MPD2    H5 1260   2.855   1.814  11.007  0.1420  0.7762  1.1016
   82MPD2    N1 1261   2.724   2.131  10.553 -0.1671 -0.4633  0.2538
   82MPD2    H7 1262   2.774   2.209  10.510 -2.4358 -0.9532 -3.2269
   83TCq2    C1 1263   2.732   1.706  10.881  0.3750 -0.3760 -0.2966
   83TCq2    O2 1264   2.659   1.690  10.788 -0.6890  0.3558  0.0643
   83TCq2    C2 1265   2.744   1.604  10.985  0.2249  0.9942 -0.3680
   83TCq2    C3 1266   2.838   1.622  11.086  0.5749  0.1096 -0.3758
   83TCq2    C4 1267   2.807   1.587  11.216 -0.2263 -1.1635  0.0672
   83TCq2    C5 1268   2.683   1.533  11.243 -0.4958  0.2006  0.1224
   83TCq2    C6 1269   2.596   1.515  11.139 -0.8904  0.4123 -0.2878
   83TCq2    C7 1270   2.625   1.542  11.012 -0.0245  0.2497 -0.5908
   83TCq2    C8 1271   2.481   1.430  11.173  0.0477 -0.0179 -0.4076
   83TCq2    O4 1272   2.453   1.423  11.288  0.5461  0.0934 -0.1192
   83TCq2    C9 1273   2.904   1.611  11.321  0.4107 -0.5428 -0.4525
   83TCq2    O5 1274   3.026   1.592  11.299 -0.2899  0.1206  0.2304
   83TCq2    O6 1275   2.853   1.618  11.438 -0.3541 -0.0452 -0.1553
   83TCq2    H2 1276   2.931   1.677  11.081  1.5091 -1.1327  3.1129
   83TCq2    H3 1277   2.658   1.504  11.345  0.6320  0.2561  0.4127
   83TCq2    H4 1278   2.553   1.521  10.933  0.3650 -0.7355 -0.6894
   84TCq2    C1 1279   3.504   0.902  10.748 -0.3843 -0.1357 -0.5583
   84TCq2    O2 1280   3.426   0.810  10.757 -0.8060 -0.5365  0.0582
   84TCq2    C2 1281   3.545   0.952  10.883 -0.9086  0.1685  0.0615
   84TCq2    C3 1282   3.665   1.012  10.897  1.0493  0.4570 -0.1213
   84TCq2    C4 1283   3.719   1.016  11.021  0.2485 -0.0138 -0.1630
   84TCq2    C5 1284   3.644   0.983  11.129 -0.5628 -0.5661 -0.4856
   84TCq2    C6 1285   3.525   0.917  11.116  0.0854  0.7482 -0.2925
   84TCq2    C7 1286   3.475   0.912  10.992 -0.2223  0.5586  0.0249
   84TCq2    C8 1287   3.423   0.921  11.223 -0.2871  0.3232  0.0996
   84TCq2    O4 1288   3.303   0.940  11.196 -0.1608 -0.4485 -0.6522
   84TCq2    C9 1289   3.853   1.076  11.030 -0.5363 -0.6545 -0.0120
   84TCq2    O5 1290   3.910   1.087  11.142  0.8427 -0.2936  0.7092
   84TCq2    O6 1291   3.907   1.101  10.921  0.2669  0.2906 -0.6205
   84TCq2    H2 1292   3.725   1.020  10.807  1.2787  2.2169  0.1918
   84TCq2    H3 1293   3.689   0.996  11.227 -0.1658 -1.1092 -0.5924
   84TCq2    H4 1294   3.368   0.892  10.985 -0.1300  0.4378 -0.9865
   85MPD2     C 1295   3.925   3.790  16.575  0.7415  0.3220 -0.3608
   85MPD2    C1 1296   3.933   3.748  16.442 -0.1727 -0.5484  0.9263
   85MPD2    C2 1297   3.999   3.824  16.345 -0.0523  0.5177 -0.4095
   85MPD2    C3 1298   4.056   3.943  16.380  0.4859  0.3732  0.0673
   85MPD2    C4 1299   4.036   3.985  16.511  0.1690  0.6923 -0.5789
   85MPD2    C5 1300   3.968   3.915  16.606 -0.5220 -0.3670  0.0015
   85MPD2     H 1301   4.000   3.790  16.242  0.9871  1.2260 -0.6331
   85MPD2    H1 1302   4.075   4.075  16.556 -3.0865  0.8579  1.8784
   85MPD2    H2 1303   3.877   3.731  16.653 -0.1227  3.1835  1.2477
   85MPD2    H3 1304   3.973   3.954  16.707  1.1066  1.3405 -0.7330
   85MPD2     N 1305   4.119   4.037  16.286  0.0321  0.1968  0.8647
   85MPD2    H5 1306   4.124   4.014  16.187  1.7994  1.3911  0.6732
   85MPD2    N1 1307   3.862   3.635  16.398 -0.0845  0.0553 -0.5488
   85MPD2    H7 1308   3.870   3.620  16.298 -3.4753  0.8915 -0.9465
   86TCq2    C1 1309   4.179   4.158  16.315  0.4613 -0.0484 -0.1739
   86TCq2    O2 1310   4.217   4.191  16.426 -0.1976 -0.2370  0.5087
   86TCq2    C2 1311   4.185   4.251  16.202 -0.9408 -0.1477 -0.3328
   86TCq2    C3 1312   4.235   4.382  16.223 -0.5151 -0.3175  0.1215
   86TCq2    C4 1313   4.204   4.475  16.129 -0.4113  0.3877 -0.0576
   86TCq2    C5 1314   4.153   4.440  16.011  0.9107  0.0961 -0.1686
   86TCq2    C6 1315   4.099   4.317  15.997  0.5142  0.2234  0.0126
   86TCq2    C7 1316   4.113   4.218  16.090 -0.4475  0.3712  0.7569
   86TCq2    C8 1317   4.050   4.269  15.867  0.0107 -0.1537 -0.3699
   86TCq2    O4 1318   3.986   4.163  15.864 -0.6623  0.1230  0.3451
   86TCq2    C9 1319   4.252   4.607  16.141 -0.0808  0.1886 -0.0879
   86TCq2    O5 1320   4.269   4.668  16.034  0.1992  0.0435 -0.1425
   86TCq2    O6 1321   4.299   4.638  16.252  0.0987  0.0491 -0.1928
   86TCq2    H2 1322   4.285   4.404  16.317 -1.0435 -0.0855  0.3450
   86TCq2    H3 1323   4.135   4.525  15.945  1.7475  0.5984  0.2396
   86TCq2    H4 1324   4.059   4.125  16.073  1.8778 -0.8181 -0.1472
   87MPD2     C 1325   1.342   2.709   1.737  0.6266  0.4008 -0.6333
   87MPD2    C1 1326   1.378   2.796   1.638 -0.3759 -0.1316 -1.0062
   87MPD2    C2 1327   1.285   2.888   1.588 -0.2627 -0.5996  0.0632
   87MPD2    C3 1328   1.156   2.888   1.630 -0.8858  0.3573  0.2550
   87MPD2    C4 1329   1.119   2.795   1.728  0.1584  0.1597  0.6138
   87MPD2    C5 1330   1.212   2.702   1.778 -0.7982 -0.2623 -0.0317
   87MPD2     H 1331   1.312   2.951   1.504 -1.0460  0.0785  0.3110
   87MPD2    H1 1332   1.018   2.789   1.768 -0.0950  2.8890  0.3577
   87MPD2    H2 1333   1.414   2.643   1.783  0.8595  1.0359 -0.0816
   87MPD2    H3 1334   1.196   2.627   1.855 -0.6716 -0.4302 -0.1693
   87MPD2     N 1335   1.063   2.980   1.593 -0.7585 -0.3491 -0.5931
   87MPD2    H5 1336   0.967   2.970   1.624 -0.8756  1.2310 -0.4300
   87MPD2    N1 1337   1.510   2.784   1.597 -0.2986  0.4309  0.1886
   87MPD2    H7 1338   1.566   2.716   1.649  0.0249  0.4918 -0.0847
   88TCq2    C1 1339   1.572   2.845   1.485  0.1463  0.0756  0.3622
   88TCq2    O2 1340   1.519   2.921   1.404  0.2911  0.4946  0.3745
   88TCq2    C2 1341   1.716   2.831   1.490  0.5488 -0.1061  0.3900
   88TCq2    C3 1342   1.778   2.806   1.608  1.0325 -0.2818 -0.4778
   88TCq2    C4 1343   1.906   2.850   1.612 -0.0116  0.6735 -0.0847
   88TCq2    C5 1344   1.978   2.894   1.501 -0.1277 -0.5001  0.3646
   88TCq2    C6 1345   1.914   2.896   1.384 -0.5755  0.3245  0.2123
   88TCq2    C7 1346   1.776   2.873   1.374  0.5088 -0.5350 -0.2041
   88TCq2    C8 1347   2.002   2.898   1.267  0.3223 -0.0650 -0.2617
   88TCq2    O4 1348   2.127   2.905   1.286 -0.2715  0.1534 -0.1797
   88TCq2    C9 1349   1.974   2.855   1.739 -0.4422 -0.3901  0.1698
   88TCq2    O5 1350   1.902   2.815   1.839  0.4429 -0.2927  0.7080
   88TCq2    O6 1351   2.086   2.913   1.745  0.1881  0.0207 -0.1509
   88TCq2    H2 1352   1.720   2.781   1.696  1.5031  1.0510  0.2119
   88TCq2    H3 1353   2.084   2.907   1.517  0.0158  1.1733 -2.0000
   88TCq2    H4 1354   1.722   2.889   1.281  1.4519  1.0043 -0.4877
   89MPD2     C 1355   2.097   4.286   2.461  0.8772  0.3604 -0.7264
   89MPD2    C1 1356   2.025   4.354   2.356  0.0132  0.3699 -0.4202
   89MPD2    C2 1357   2.094   4.439   2.270  0.1583  0.6020 -0.0516
   89MPD2    C3 1358   2.232   4.462   2.288 -1.3540  1.4315 -0.0975
   89MPD2    C4 1359   2.303   4.378   2.371  0.2908 -0.2352  0.1098
   89MPD2    C5 1360   2.231   4.300   2.459 -0.3976  0.1408  1.0499
   89MPD2     H 1361   2.041   4.490   2.190  2.2110  1.1618 -1.0730
   89MPD2    H1 1362   2.407   4.388   2.399  0.5605  0.0653 -0.9936
   89MPD2    H2 1363   2.049   4.223   2.536  1.1376  0.3750 -0.5476
   89MPD2    H3 1364   2.293   4.258   2.537  0.5805 -0.7774 -0.2235
   89MPD2     N 1365   2.294   4.560   2.203 -0.3825  0.4505 -0.5562
   89MPD2    H5 1366   2.236   4.628   2.153 -0.9251  3.2341  3.8834
   89MPD2    N1 1367   1.884   4.348   2.341 -0.1970  0.1296 -0.4290
   89MPD2    H7 1368   1.847   4.409   2.268  0.1992 -0.1639 -0.8813
   90TCq2    C1 1369   2.430   4.574   2.189  0.2303 -0.6340  0.3639
   90TCq2    O2 1370   2.521   4.523   2.253  0.0707 -0.3290  0.1517
   90TCq2    C2 1371   2.465   4.674   2.091  1.4070  0.1428  0.2324
   90TCq2    C3 1372   2.593   0.003   2.104  0.1371 -0.3024  0.0774
   90TCq2    C4 1373   2.642   0.067   1.996  0.4331 -0.1215  0.1961
   90TCq2    C5 1374   2.562   0.097   1.888  0.4638 -0.0737 -0.7353
   90TCq2    C6 1375   2.431   0.049   1.888 -0.5301  0.3417  0.0571
   90TCq2    C7 1376   2.372   4.711   1.993  0.4777 -0.1480  0.2591
   90TCq2    C8 1377   2.347   0.071   1.770 -0.3848 -0.1468 -0.1090
   90TCq2    O4 1378   2.225   0.041   1.774 -0.2400  0.6445 -1.0638
   90TCq2    C9 1379   2.771   0.123   2.007  0.0926  0.3838  0.2390
   90TCq2    O5 1380   2.822   0.171   1.901  0.1124 -0.1471 -0.2318
   90TCq2    O6 1381   2.841   0.103   2.106 -0.9625 -0.6500  0.9653
   90TCq2    H2 1382   2.650   4.710   2.195  1.1690  1.6556 -0.2550
   90TCq2    H3 1383   2.619   0.131   1.802 -0.5935  1.2594 -0.9054
   90TCq2    H4 1384   2.273   4.671   1.976  0.1077  1.5753 -1.5093
   91TMC2    C1 1385   4.072   0.956  16.808 -0.3938  0.0082  0.2144
   91TMC2    C2 1386   4.130   1.049  16.890 -0.2065  0.2552  0.4226
   91TMC2    C3 1387   4.052   1.094  16.992  0.2144  0.2611  0.1917
   91TMC2    C4 1388   3.936   0.939  16.806  0.4508  0.4870  0.0549
   91TMC2    C5 1389   3.860   0.986  16.906 -0.5059 -0.5334 -0.1364
   91TMC2    C6 1390   3.919   1.068  17.007  0.6619 -0.2220  0.5428
   91TMC2     C 1391   4.152   0.885  16.706 -0.4377 -0.6656 -0.7709
   91TMC2     O 1392   4.081   0.836  16.620 -0.1163  0.5363 -0.8117
   91TMC2     H 1393   4.235   1.076  16.882 -0.3797  1.1067  1.0370
   91TMC2    H1 1394   3.893   0.889  16.720  0.4477  1.0745 -0.2868
   91TMC2    H2 1395   3.865   1.077  17.101  0.8458 -2.2206  0.8388
   91TMC2    C7 1396   3.720   0.960  16.926  0.2722 -0.5388 -0.2568
   91TMC2    C8 1397   4.111   1.167  17.100  1.1055 -0.0534  0.0687
   91TMC2    O1 1398   3.667   1.010  17.023  0.2292  0.0496  0.4459
   91TMC2    O2 1399   4.233   1.167  17.119  0.2354 -0.2081  0.1227
   91TMC2    O5 1400   4.027   1.272  17.121 -0.3028 -0.3288 -0.0660
   91TMC2    H5 1401   3.963   1.281  17.047  1.7249  0.9506 -1.6678
   92MPD2     C 1402   4.366   0.756  16.551  0.0212 -0.1886 -0.5408
   92MPD2    C1 1403   4.386   0.812  16.682  0.7619 -0.0074  0.0827
   92MPD2    C2 1404   4.508   0.797  16.740  0.0814 -0.3373 -0.4083
   92MPD2    C3 1405   4.614   0.732  16.679 -0.2934  0.4787  0.7630
   92MPD2    C4 1406   4.586   0.666  16.556  0.1308  0.4262  0.1251
   92MPD2    C5 1407   4.463   0.672  16.497 -0.1284  0.5289 -0.3295
   92MPD2     H 1408   4.520   0.841  16.839 -1.6173  0.0201 -0.3631
   92MPD2    H1 1409   4.652   0.587  16.520 -0.1142 -0.6068  1.9145
   92MPD2    H2 1410   4.274   0.756  16.494 -0.5486  0.0863  0.3776
   92MPD2    H3 1411   4.440   0.612  16.410  2.9818 -1.7108  0.3963
   92MPD2     N 1412   0.022   0.734  16.739 -0.1004  0.1406  0.2143
   92MPD2    H5 1413   0.026   0.767  16.835  2.4314 -0.0039  0.1615
   92MPD2    N1 1414   4.283   0.875  16.746 -0.2769  0.1481 -0.1909
   92MPD2    H7 1415   4.298   0.914  16.838  1.0969  2.3425 -1.3527
   93MPD2     C 1416   1.165   0.856  13.920 -0.0520 -0.0145 -0.4738
   93MPD2    C1 1417   1.159   0.787  14.037  0.2493 -0.9581  0.8421
   93MPD2    C2 1418   1.036   0.735  14.087 -0.6958  0.0851  0.8518
   93MPD2    C3 1419   0.923   0.755  14.010 -0.2138  0.0798  1.3564
   93MPD2    C4 1420   0.937   0.813  13.885  0.0491  0.3525  0.8611
   93MPD2    C5 1421   1.053   0.861  13.843  1.2921 -0.0874  0.0179
   93MPD2     H 1422   1.040   0.679  14.180 -3.8346  0.2411  1.0757
   93MPD2    H1 1423   0.848   0.826  13.824 -0.5409 -0.5441  1.5401
   93MPD2    H2 1424   1.255   0.897  13.874 -0.9104 -1.1898 -3.2008
   93MPD2    H3 1425   1.062   0.915  13.749  0.7812  1.3318  0.7769
   93MPD2     N 1426   0.796   0.708  14.046  0.1283  0.3079 -0.3497
   93MPD2    H5 1427   0.718   0.741  13.989 -0.3232  0.2729  0.2411
   93MPD2    N1 1428   1.276   0.756  14.110 -0.3918  0.5316  0.0388
   93MPD2    H7 1429   1.265   0.726  14.206 -1.5827  3.0777  0.7035
   94TCq2    C1 1430   1.405   0.767  14.062  0.5488 -0.0032 -0.7315
   94TCq2    O2 1431   1.445   0.803  13.951  0.0848 -0.1836  0.4588
   94TCq2    C2 1432   1.504   0.724  14.160 -0.1924 -0.1864  0.1266
   94TCq2    C3 1433   1.490   0.775  14.284 -0.2142  0.2331 -0.4968
   94TCq2    C4 1434   1.602   0.808  14.353  0.5054 -0.0513 -0.4548
   94TCq2    C5 1435   1.726   0.791  14.301  0.0548 -0.5450 -0.0155
   94TCq2    C6 1436   1.734   0.738  14.176 -0.1644  0.3034 -0.8118
   94TCq2    C7 1437   1.625   0.705  14.106  0.0761  0.1543  0.0355
   94TCq2    C8 1438   1.860   0.699  14.114 -0.6459  0.1800 -0.2488
   94TCq2    O4 1439   1.861   0.631  14.012  0.2719  0.4803  0.4555
   94TCq2    C9 1440   1.588   0.873  14.482  0.0903 -0.6777 -0.0925
   94TCq2    O5 1441   1.693   0.924  14.537 -0.4087  1.0717 -0.4761
   94TCq2    O6 1442   1.473   0.874  14.531 -0.1301  0.3456  0.3047
   94TCq2    H2 1443   1.399   0.754  14.340 -0.2977 -1.3388 -1.2153
   94TCq2    H3 1444   1.814   0.807  14.362 -1.2610 -0.1910  1.7861
   94TCq2    H4 1445   1.637   0.668  14.005 -0.2148  1.9295 -0.6523
   95TMC2    C1 1446   0.568   1.918  16.126 -0.4267  0.0009  0.1922
   95TMC2    C2 1447   0.563   1.907  16.259  0.0033 -0.0272  0.1445
   95TMC2    C3 1448   0.463   1.977  16.320 -0.7208  0.1090 -0.1254
   95TMC2    C4 1449   0.485   1.996  16.049  0.2487 -0.1387 -0.2483
   95TMC2    C5 1450   0.390   2.065  16.116  0.1641 -0.0540 -0.1938
   95TMC2    C6 1451   0.380   2.059  16.250  0.0405  0.2263  0.5057
   95TMC2     C 1452   0.699   1.890  16.076 -0.3257 -0.1845 -0.6720
   95TMC2     O 1453   0.795   1.932  16.139  0.4301 -0.0805  1.0863
   95TMC2     H 1454   0.635   1.846  16.312 -0.1615 -0.0616  0.3287
   95TMC2    H1 1455   0.507   2.012  15.944 -1.7658  0.5319 -0.5830
   95TMC2    H2 1456   0.298   2.102  16.308 -0.9103 -1.1987  0.2121
   95TMC2    C7 1457   0.303   2.146  16.037  0.3971  0.2059  0.1587
   95TMC2    C8 1458   0.395   1.920  16.436  0.4602 -0.5907 -0.0851
   95TMC2    O1 1459   0.290   2.119  15.914  1.0770 -0.0594  0.0301
   95TMC2    O2 1460   0.272   1.913  16.439 -0.7784  0.9359 -0.0878
   95TMC2    O5 1461   0.473   1.829  16.503  0.3798 -0.9320 -0.0327
   95TMC2    H5 1462   0.564   1.864  16.504 -0.1576  0.5072 -1.0385
   96MPD2     C 1463   0.983   1.847  15.654 -0.1399 -0.4578 -0.1226
   96MPD2    C1 1464   1.007   1.926  15.768 -1.3347  0.8257  0.0796
   96MPD2    C2 1465   0.909   1.929  15.868 -0.3646  0.0212  0.3919
   96MPD2    C3 1466   0.796   1.855  15.851  0.3712  0.4008 -0.2831
   96MPD2    C4 1467   0.765   1.790  15.732 -0.2270 -0.3670 -0.1043
   96MPD2    C5 1468   0.868   1.786  15.638  0.2518  0.6736  0.9655
   96MPD2     H 1469   0.920   1.990  15.957 -0.3394 -0.2873  0.5978
   96MPD2    H1 1470   0.673   1.737  15.711  0.0909 -1.0919  0.3166
   96MPD2    H2 1471   1.049   1.847  15.568 -0.4063  2.8883 -0.3402
   96MPD2    H3 1472   0.852   1.732  15.545  0.4507  0.2304  1.1891
   96MPD2     N 1473   0.696   1.846  15.949  0.4491  0.0189  0.5444
   96MPD2    H5 1474   0.614   1.796  15.916  0.4595  0.4022 -0.0550
   96MPD2    N1 1475   1.120   2.012  15.759 -0.0070 -0.1894  0.3761
   96MPD2    H7 1476   1.176   2.004  15.675 -2.8694  2.2956 -1.7936
   97MPD2     C 1477   3.449   4.657   1.476 -0.0942 -0.2449 -0.3790
   97MPD2    C1 1478   3.314   4.631   1.453  0.3604 -0.6465 -0.0157
   97MPD2    C2 1479   3.266   4.662   1.333  0.5679  0.3176 -0.1558
   97MPD2    C3 1480   3.344   4.712   1.226  0.6241  0.1847 -1.3078
   97MPD2    C4 1481   3.480   0.007   1.256  0.3130 -0.3931 -0.3349
   97MPD2    C5 1482   3.530   4.708   1.384  0.3706 -0.0191 -0.2623
   97MPD2     H 1483   3.158   4.651   1.324  0.2488  3.4206  0.0711
   97MPD2    H1 1484   3.548   0.040   1.178 -1.6394  1.2674 -1.3192
   97MPD2    H2 1485   3.484   4.636   1.577  0.6127 -0.2175 -0.6161
   97MPD2    H3 1486   3.636   0.004   1.403  0.9716  0.4023 -4.0264
   97MPD2     N 1487   3.307   0.017   1.095  0.3593 -0.0168 -0.6206
   97MPD2    H5 1488   3.368   0.036   1.016  0.5457 -0.3120 -0.5492
   97MPD2    N1 1489   3.231   4.602   1.565 -0.5936 -0.7018  0.4959
   97MPD2    H7 1490   3.279   4.591   1.654 -1.5181 -0.2822  1.0451
   98TCq2    C1 1491   3.186   4.709   1.043 -0.2313  0.3719 -0.2929
   98TCq2    O2 1492   3.096   4.664   1.113 -0.1483 -0.4893 -0.1422
   98TCq2    C2 1493   3.172   0.023   0.907 -0.1524 -0.1100 -0.8890
   98TCq2    C3 1494   3.067   4.684   0.838  0.3344 -0.0337 -0.8773
   98TCq2    C4 1495   3.049   0.010   0.712  0.2677 -0.1404  0.2434
   98TCq2    C5 1496   3.112   0.122   0.662  0.6728  0.1469 -0.5541
   98TCq2    C6 1497   3.210   0.183   0.742 -0.2712  0.4908 -0.2799
   98TCq2    C7 1498   3.249   0.132   0.861  0.1680 -0.8674 -0.3756
   98TCq2    C8 1499   3.275   0.302   0.698 -0.8243 -0.5713  0.3291
   98TCq2    O4 1500   3.391   0.316   0.724 -0.1413  0.7096 -0.0695
   98TCq2    C9 1501   2.947   4.665   0.629 -0.2036 -0.1899 -0.2603
   98TCq2    O5 1502   2.899   0.010   0.536  0.1548 -0.6732 -0.5171
   98TCq2    O6 1503   2.895   4.557   0.671  0.3947 -0.6820  0.0858
   98TCq2    H2 1504   3.018   4.591   0.865 -1.1810  1.1359  0.3662
   98TCq2    H3 1505   3.090   0.157   0.562  0.4752  0.5901 -0.3590
   98TCq2    H4 1506   3.322   0.187   0.920 -1.0645 -1.4193  1.6526
   99MPD2     C 1507   1.635   2.054   0.970  0.3731 -0.4681  0.5005
   99MPD2    C1 1508   1.650   1.935   1.031  0.1469  0.5939 -0.3175
   99MPD2    C2 1509   1.545   1.841   1.032  0.5667  0.0272 -0.2103
   99MPD2    C3 1510   1.419   1.866   0.992  0.0059  0.3736 -0.0601
   99MPD2    C4 1511   1.405   1.994   0.939  0.1466 -0.0238  0.3157
   99MPD2    C5 1512   1.507   2.093   0.935  0.4520  0.5800 -0.1694
   99MPD2     H 1513   1.560   1.739   1.065  1.9505  0.1936 -0.3193
   99MPD2    H1 1514   1.303   2.015   0.909  0.4678 -1.4490 -1.8066
   99MPD2    H2 1515   1.715   2.127   0.963 -0.5900  0.6648  1.1415
   99MPD2    H3 1516   1.478   2.193   0.908 -1.1617 -0.3893 -2.0163
   99MPD2     N 1517   1.324   1.764   0.978  0.1812  0.9320  0.8165
   99MPD2    H5 1518   1.343   1.675   1.022 -1.8283  1.1149  2.0646
   99MPD2    N1 1519   1.776   1.890   1.079  0.2432 -0.4278  0.1531
   99MPD2    H7 1520   1.780   1.799   1.126  0.9361 -1.3909 -1.7796
  100TCq2    C1 1521   1.898   1.957   1.068  1.0290  0.2576  0.7781
  100TCq2    O2 1522   1.929   2.058   1.007  0.4440 -0.0375  0.0628
  100TCq2    C2 1523   2.006   1.878   1.122  0.3200 -0.2996 -0.7826
  100TCq2    C3 1524   2.136   1.903   1.074 -0.7692  0.5288  0.1419
  100TCq2    C4 1525   2.234   1.856   1.162  0.4928  0.6569  0.7067
  100TCq2    C5 1526   2.209   1.790   1.275  0.2987  0.9070 -0.2705
  100TCq2    C6 1527   2.078   1.784   1.319  0.1088 -0.0376 -0.4600
  100TCq2    C7 1528   1.977   1.824   1.241  0.5372 -0.1810  0.4286
  100TCq2    C8 1529   2.057   1.722   1.448  0.5185  0.1595 -0.6568
  100TCq2    O4 1530   2.142   1.639   1.478 -0.1389  0.4636  0.1691
  100TCq2    C9 1531   2.374   1.869   1.124 -0.5663  0.3126  0.4687
  100TCq2    O5 1532   2.467   1.824   1.199  0.8065  0.1462 -0.3431
  100TCq2    O6 1533   2.402   1.922   1.011 -0.1492 -0.3275 -0.1617
  100TCq2    H2 1534   2.146   1.945   0.974 -0.5445  1.7013  0.6551
  100TCq2    H3 1535   2.293   1.760   1.337 -0.3984  0.6234  0.5478
  100TCq2    H4 1536   1.880   1.827   1.290 -0.3100 -0.3459 -1.2483
  101MPD2     C 1537   2.949   2.317  13.319 -0.3488  0.0613 -0.1999
  101MPD2    C1 1538   2.893   2.401  13.416 -0.0551 -0.3160 -0.3219
  101MPD2    C2 1539   2.817   2.342  13.515 -0.2680  0.4720  0.1319
  101MPD2    C3 1540   2.765   2.211  13.496 -0.2004 -0.0922  0.6711
  101MPD2    C4 1541   2.810   2.141  13.389 -0.0062 -0.1589 -0.1442
  101MPD2    C5 1542   2.905   2.188  13.303  0.8066  0.9611 -0.0812
  101MPD2     H 1543   2.789   2.404  13.599  1.7450 -0.0318  1.1764
  101MPD2    H1 1544   2.771   2.040  13.378 -0.9759  0.2731 -0.5990
  101MPD2    H2 1545   3.013   2.365  13.246 -1.6418  0.4956 -1.0385
  101MPD2    H3 1546   2.960   2.124  13.235  1.8184 -1.1167  2.7118
  101MPD2     N 1547   2.679   2.146  13.588  0.3393 -0.1688 -0.4916
  101MPD2    H5 1548   2.631   2.059  13.564  1.9883 -0.9176 -1.0602
  101MPD2    N1 1549   2.918   2.543  13.404 -0.0952  0.6754 -0.0110
  101MPD2    H7 1550   2.983   2.570  13.331  2.0597 -2.2260  0.8261
  102TCq2    C1 1551   3.121   2.962  13.237 -0.2041 -1.1237  0.4942
  102TCq2    O2 1552   3.118   2.926  13.118 -0.4364 -0.2651 -0.4200
  102TCq2    C2 1553   3.011   2.939  13.329 -0.4692 -0.1103  0.8358
  102TCq2    C3 1554   3.000   3.022  13.441 -0.0321  0.0383  0.3653
  102TCq2    C4 1555   2.927   2.983  13.543 -0.2164 -0.3117  0.2886
  102TCq2    C5 1556   2.863   2.863  13.541  0.8449  0.0572  0.2368
  102TCq2    C6 1557   2.881   2.777  13.436 -0.0248 -0.4730 -0.0763
  102TCq2    C7 1558   2.961   2.808  13.328  0.2970 -0.0845 -0.4437
  102TCq2    C8 1559   2.839   2.639  13.463  0.0318  0.7322 -0.1336
  102TCq2    O4 1560   2.744   2.628  13.539  0.0788  0.0594 -0.0831
  102TCq2    C9 1561   2.901   3.073  13.646  0.5068  0.0620  0.1268
  102TCq2    O5 1562   2.914   3.192  13.612 -0.3976 -0.7541 -0.2595
  102TCq2    O6 1563   2.832   3.047  13.744  0.2578 -0.3164 -1.1150
  102TCq2    H2 1564   3.053   3.116  13.438  1.4785 -0.7834  1.7507
  102TCq2    H3 1565   2.798   2.839  13.624  0.5978  1.0951  0.3438
  102TCq2    H4 1566   3.010   2.729  13.274  2.0873  2.1174 -1.9966
  103TMC2    C1 1567   1.123   3.014  12.693 -0.1451 -0.3396 -0.5384
  103TMC2    C2 1568   1.084   3.128  12.627  0.0673  0.4384 -0.1448
  103TMC2    C3 1569   1.054   3.230  12.710 -0.5349 -0.8769 -0.7780
  103TMC2    C4 1570   1.144   3.007  12.830 -0.5939 -0.4326 -0.1041
  103TMC2    C5 1571   1.129   3.123  12.900 -0.3128 -0.0510  0.4178
  103TMC2    C6 1572   1.074   3.231  12.845  0.3879  0.3403 -0.0840
  103TMC2     C 1573   1.118   2.892  12.619  0.5349  0.2138  0.4997
  103TMC2     O 1574   1.041   2.899  12.519  0.0601 -0.0053  0.6223
  103TMC2     H 1575   1.083   3.130  12.518  0.4389 -0.5991 -0.1698
  103TMC2    H1 1576   1.170   2.910  12.870  0.2345 -0.7216 -1.3463
  103TMC2    H2 1577   1.057   3.308  12.919  1.9896 -1.3841  2.1054
  103TMC2    C7 1578   1.178   3.121  13.039 -0.2224  0.5364  0.2706
  103TMC2    C8 1579   0.965   3.329  12.655  0.4033  0.2342 -0.0585
  103TMC2    O1 1580   1.139   3.207  13.115  0.1140 -0.4722 -0.1606
  103TMC2    O2 1581   0.918   3.321  12.540 -0.1968  0.0150  0.2346
  103TMC2    O5 1582   0.979   3.437  12.731 -0.0102  0.2837 -0.6383
  103TMC2    H5 1583   1.050   3.430  12.797 -0.1635 -2.1877 -0.7349
  104MPD2     C 1584   1.303   2.585  12.677 -0.7708  0.9547  0.3549
  104MPD2    C1 1585   1.204   2.660  12.622 -0.8830  0.3106  0.3424
  104MPD2    C2 1586   1.116   2.612  12.527  0.0879  0.7372  0.0774
  104MPD2    C3 1587   1.116   2.478  12.502  0.8063  1.2125  0.4726
  104MPD2    C4 1588   1.220   2.399  12.547  0.0166  0.4503 -0.6343
  104MPD2    C5 1589   1.311   2.457  12.631  0.1879  0.0816  0.2467
  104MPD2     H 1590   1.028   2.666  12.494  2.3609  2.0377 -3.7126
  104MPD2    H1 1591   1.227   2.294  12.524 -0.4986 -0.1863  2.1043
  104MPD2    H2 1592   1.365   2.621  12.759  1.9977 -0.6858 -1.0092
  104MPD2    H3 1593   1.396   2.403  12.669 -0.0828 -0.4595  0.0894
  104MPD2     N 1594   1.001   2.416  12.437  0.7076 -0.6864  0.4432
  104MPD2    H5 1595   0.915   2.469  12.431  2.0612  1.3146 -1.0260
  104MPD2    N1 1596   1.189   2.791  12.677  0.5111 -0.4739  0.2160
  104MPD2    H7 1597   1.255   2.807  12.753 -0.3307  1.3556  0.5579
  105MPD2     C 1598   2.871   2.677   0.036 -0.2045  0.3157  0.2193
  105MPD2    C1 1599   2.738   2.654   0.072 -0.0342 -0.7588 -0.2201
  105MPD2    C2 1600   2.705   2.650   0.205  0.0043  0.2829  0.5226
  105MPD2    C3 1601   2.795   2.697   0.300  0.3467 -0.0093  0.0702
  105MPD2    C4 1602   2.920   2.736   0.264 -0.4977 -0.2750  0.2056
  105MPD2    C5 1603   2.950   2.739   0.131 -0.6801  0.6331  0.1357
  105MPD2     H 1604   2.599   2.636   0.224 -0.0428 -0.5601 -0.3555
  105MPD2    H1 1605   2.999   2.775   0.327 -1.2636 -0.5615  1.3541
  105MPD2    H2 1606   2.899   2.684  17.621  0.6056  2.3263  0.5648
  105MPD2    H3 1607   3.046   2.779   0.102  0.3601 -1.9842  0.0007
  105MPD2     N 1608   2.750   2.712   0.437  0.1655  0.1244  0.4963
  105MPD2    H5 1609   2.660   2.671   0.460 -0.3845  0.8239 -0.4031
  105MPD2    N1 1610   2.633   2.637  17.661  0.3607  0.0948  0.6208
  105MPD2    H7 1611   2.539   2.643   0.008  0.0385 -1.1804  0.0119
  106TCq2    C1 1612   2.820   2.761   0.549  0.1843 -0.1493  0.0521
  106TCq2    O2 1613   2.935   2.797   0.561 -0.4002 -0.0656 -0.1287
  106TCq2    C2 1614   2.729   2.775   0.665  0.5139 -0.5744  0.0323
  106TCq2    C3 1615   2.782   2.764   0.792 -0.0281 -0.8676  0.5370
  106TCq2    C4 1616   2.705   2.804   0.902 -0.1216  0.2078  0.5938
  106TCq2    C5 1617   2.577   2.821   0.884  0.2183 -0.4711 -0.3283
  106TCq2    C6 1618   2.522   2.828   0.754 -0.0965 -0.6223 -0.1941
  106TCq2    C7 1619   2.600   2.820   0.646 -0.4869 -0.4112  0.2851
  106TCq2    C8 1620   2.378   2.847   0.742  0.8598 -0.0740 -0.9182
  106TCq2    O4 1621   2.339   2.879   0.631  0.4856 -0.3185 -0.2661
  106TCq2    C9 1622   2.753   2.797   1.035  0.0794 -0.4745  0.2359
  106TCq2    O5 1623   2.877   2.807   1.049 -0.3094 -0.3365 -0.1305
  106TCq2    O6 1624   2.673   2.759   1.125  0.1528 -0.5386 -0.0943
  106TCq2    H2 1625   2.890   2.754   0.798 -0.0834 -1.0891  1.1980
  106TCq2    H3 1626   2.515   2.829   0.973  0.3448 -0.9823 -0.1918
  106TCq2    H4 1627   2.556   2.833   0.548 -1.5887  2.8233  1.2168
  107TMC2    C1 1628   3.006   1.614  11.747  0.1568  0.3405 -0.6672
  107TMC2    C2 1629   3.091   1.706  11.681  0.6741  0.3752 -0.2457
  107TMC2    C3 1630   3.172   1.639  11.589 -0.1514  0.3354  0.5732
  107TMC2    C4 1631   3.007   1.480  11.730  0.5042  0.4039  0.3518
  107TMC2    C5 1632   3.100   1.426  11.643  0.6951 -0.5417 -1.0389
  107TMC2    C6 1633   3.180   1.506  11.568  0.0566  0.5073  0.2170
  107TMC2     C 1634   2.917   1.657  11.854  0.2514  0.1586  0.3145
  107TMC2     O 1635   2.897   1.588  11.953 -0.0569 -0.5272  0.0423
  107TMC2     H 1636   3.090   1.812  11.706 -2.4891  0.8450 -2.3197
  107TMC2    H1 1637   2.948   1.420  11.799 -0.0500  1.4512  0.7934
  107TMC2    H2 1638   3.256   1.468  11.501 -0.9732 -1.2127 -0.0028
  107TMC2    C7 1639   3.125   1.281  11.661  0.2607  0.5298 -0.2555
  107TMC2    C8 1640   3.257   1.726  11.510 -0.5574 -0.1278  0.6525
  107TMC2    O1 1641   3.094   1.220  11.761 -0.2100  0.0878  0.5577
  107TMC2    O2 1642   3.283   1.832  11.565 -0.0497  0.4573  0.0944
  107TMC2    O5 1643   3.243   1.701  11.383 -0.1157  0.5551 -0.2048
  107TMC2    H5 1644   3.174   1.634  11.366  0.1719  0.5313 -1.2774
  108MPD2     C 1645   2.730   1.970  11.824  0.4501 -0.5425 -0.5381
  108MPD2    C1 1646   2.779   1.863  11.886  0.5726 -0.4061 -0.4793
  108MPD2    C2 1647   2.735   1.824  12.011 -0.0869  0.6049  0.0547
  108MPD2    C3 1648   2.637   1.902  12.082  0.2439  0.1449  0.5186
  108MPD2    C4 1649   2.596   2.016  12.014  0.0502 -0.0937 -0.2823
  108MPD2    C5 1650   2.643   2.046  11.891  0.2391 -0.2600  0.4716
  108MPD2     H 1651   2.765   1.727  12.048 -1.4760  0.8985  1.9319
  108MPD2    H1 1652   2.515   2.074  12.056 -0.4413 -0.2951 -0.9667
  108MPD2    H2 1653   2.757   1.988  11.720  2.3570 -3.2632 -0.4987
  108MPD2    H3 1654   2.594   2.122  11.830 -0.4644  0.8365  2.3857
  108MPD2     N 1655   2.561   1.866  12.196 -0.0122  0.2421  0.3623
  108MPD2    H5 1656   2.472   1.913  12.212  0.0983  0.1640  1.2199
  108MPD2    N1 1657   2.872   1.785  11.814  0.3076 -0.0805  0.1616
  108MPD2    H7 1658   2.897   1.818  11.721  0.9745 -0.2003  0.3017
  109MPD2     C 1659   4.026   3.884   2.240 -0.0435  0.0893 -0.5937
  109MPD2    C1 1660   3.887   3.897   2.227  0.0278 -0.0954  0.0597
  109MPD2    C2 1661   3.822   3.976   2.316 -0.5312 -0.3166  0.1565
  109MPD2    C3 1662   3.888   4.061   2.408 -0.7417 -0.7852  0.1511
  109MPD2    C4 1663   4.026   4.048   2.416 -0.1553 -0.4630  0.0396
  109MPD2    C5 1664   4.094   3.957   2.336 -0.1808 -0.6577 -0.1208
  109MPD2     H 1665   3.717   3.995   2.302  0.1778  2.2219 -1.8113
  109MPD2    H1 1666   4.085   4.097   2.492  0.4709  1.0393 -1.3867
  109MPD2    H2 1667   4.077   3.810   2.180  0.5957  1.2891 -1.5164
  109MPD2    H3 1668   4.200   3.936   2.348  0.1659 -1.2572 -4.1193
  109MPD2     N 1669   3.810   4.168   2.462 -0.0439 -0.1756  0.3185
  109MPD2    H5 1670   3.713   4.158   2.433  0.2922 -2.4250 -0.0587
  109MPD2    N1 1671   3.828   3.812   2.128 -0.4127  0.7997  0.5315
  109MPD2    H7 1672   3.890   3.749   2.078 -2.0130 -0.8268  0.5851
  110TCq2    C1 1673   3.858   4.258   2.559  0.1470 -0.2611 -0.0247
  110TCq2    O2 1674   3.968   4.271   2.612  0.0971  0.1751 -0.0336
  110TCq2    C2 1675   3.755   4.351   2.599 -0.1369  0.0817 -0.6581
  110TCq2    C3 1676   3.784   4.431   2.701 -0.2618 -0.0052 -0.1704
  110TCq2    C4 1677   3.715   4.537   2.735 -0.4100 -0.0036  0.0741
  110TCq2    C5 1678   3.600   4.554   2.669  0.0534  0.1681  0.5447
  110TCq2    C6 1679   3.562   4.463   2.572 -0.0148  0.4957  0.3398
  110TCq2    C7 1680   3.644   4.364   2.532 -0.1761 -0.2415  0.0686
  110TCq2    C8 1681   3.450   4.495   2.482 -0.2396 -0.3443 -0.1861
  110TCq2    O4 1682   3.421   4.416   2.392  0.3051 -0.5585  0.3180
  110TCq2    C9 1683   3.760   4.641   2.823  0.6270 -0.4013  0.1397
  110TCq2    O5 1684   3.673   4.721   2.878  0.5383  0.5356 -0.5480
  110TCq2    O6 1685   3.878   4.626   2.866  0.3010  0.3574 -0.3623
  110TCq2    H2 1686   3.885   4.438   2.741  0.7710 -0.3253 -2.7410
  110TCq2    H3 1687   3.551   4.647   2.693  1.0471  0.7032  0.4830
  110TCq2    H4 1688   3.616   4.314   2.439  0.3211 -0.1929 -0.1054
  111TMC2    C1 1689   2.922   3.535  11.721  0.4416  0.1986 -0.4725
  111TMC2    C2 1690   2.821   3.587  11.800  0.1843  0.4413 -0.2394
  111TMC2    C3 1691   2.824   3.564  11.933 -0.6750  0.1768 -1.1222
  111TMC2    C4 1692   3.025   3.458  11.776  0.3033 -0.4115  0.2763
  111TMC2    C5 1693   3.027   3.439  11.908  0.2704  0.1756  0.0189
  111TMC2    C6 1694   2.926   3.490  11.995 -0.1149 -0.2579  0.1577
  111TMC2     C 1695   2.936   3.589  11.589 -0.3864  0.0963 -0.3167
  111TMC2     O 1696   2.833   3.614  11.525 -0.0427  0.3127 -0.2551
  111TMC2     H 1697   2.761   3.665  11.755  1.2047  2.3851  1.7981
  111TMC2    H1 1698   3.090   3.405  11.707  1.2944 -0.5326  1.3149
  111TMC2    H2 1699   2.932   3.482  12.103 -0.7562 -1.5467  0.0955
  111TMC2    C7 1700   3.140   3.380  11.973  0.7648 -0.4757 -0.1113
  111TMC2    C8 1701   2.759   3.655  12.024  0.5284 -0.1771 -0.1795
  111TMC2    O1 1702   3.116   3.355  12.092  0.3568 -0.0175  0.0156
  111TMC2    O2 1703   2.716   3.765  11.993 -0.1606  0.4877 -0.1171
  111TMC2    O5 1704   2.696   3.575  12.106  0.1166 -0.6629 -0.6749
  111TMC2    H5 1705   2.731   3.483  12.112 -0.1607 -0.9449 -3.4432
  112MPD2     C 1706   3.277   3.713  11.202 -0.0890 -0.3499  0.1591
  112MPD2    C1 1707   3.141   3.678  11.194  0.2543 -1.0374  0.4533
  112MPD2    C2 1708   3.060   3.649  11.312  0.7034 -0.1513  0.4261
  112MPD2    C3 1709   3.122   3.669  11.431 -0.1277 -0.2971  0.4205
  112MPD2    C4 1710   3.260   3.696  11.437  0.2323 -0.0010  0.7551
  112MPD2    C5 1711   3.335   3.713  11.320  0.5146  0.3525 -0.1927
  112MPD2     H 1712   2.962   3.604  11.299  0.5439  0.3689 -0.2136
  112MPD2    H1 1713   3.307   3.689  11.535  2.4219  0.2262 -0.2812
  112MPD2    H2 1714   3.335   3.748  11.118 -2.6112  0.5111 -1.1931
  112MPD2    H3 1715   3.443   3.724  11.328  0.2201  2.8678  0.3316
  112MPD2     N 1716   3.062   3.627  11.554 -0.1504 -0.0263 -0.2420
  112MPD2    H5 1717   3.120   3.630  11.638  1.1161  1.3444 -1.1660
  112MPD2    N1 1718   3.073   3.669  11.066  0.6861 -0.8290  0.0966
  112MPD2    H7 1719   2.977   3.640  11.054  1.1503 -1.9641 -0.8787
  113MPD2     C 1720   1.267   1.749   1.351  0.2315 -0.2297  0.4686
  113MPD2    C1 1721   1.178   1.849   1.333  0.0217 -0.0862 -0.2478
  113MPD2    C2 1722   1.038   1.837   1.350 -0.6369 -0.0884  0.3864
  113MPD2    C3 1723   0.997   1.712   1.390  0.1490  0.2132 -0.0298
  113MPD2    C4 1724   1.084   1.605   1.409 -0.2870  0.1514 -0.3110
  113MPD2    C5 1725   1.221   1.623   1.388 -0.4673 -0.2886 -0.7127
  113MPD2     H 1726   0.966   1.917   1.341 -0.5345  0.2646  2.7322
  113MPD2    H1 1727   1.054   1.505   1.440 -1.1209 -0.0447 -1.7020
  113MPD2    H2 1728   1.373   1.766   1.335  0.3546 -2.0532 -0.5920
  113MPD2    H3 1729   1.287   1.542   1.417 -1.8941 -1.0227  0.5162
  113MPD2     N 1730   0.873   1.679   1.439  0.1711 -0.2848 -0.0921
  113MPD2    H5 1731   0.856   1.584   1.468  1.1190 -1.0666 -2.0597
  113MPD2    N1 1732   1.212   1.979   1.293  0.4069  1.0415 -0.4509
  113MPD2    H7 1733   1.136   2.043   1.278  0.1687  0.9170  0.2464
  114TCq2    C1 1734   0.769   1.760   1.456 -0.5008  0.0218  0.3827
  114TCq2    O2 1735   0.771   1.883   1.444 -0.7405  0.4954 -0.0490
  114TCq2    C2 1736   0.655   1.701   1.516  0.3517 -0.0003 -0.0189
  114TCq2    C3 1737   0.551   1.789   1.531  0.2762  0.3226  0.6682
  114TCq2    C4 1738   0.458   1.746   1.623 -0.2715 -0.5800 -0.3165
  114TCq2    C5 1739   0.476   1.634   1.707  0.6519 -0.1823  0.3921
  114TCq2    C6 1740   0.593   1.562   1.704 -0.4411  0.1736 -0.4260
  114TCq2    C7 1741   0.676   1.592   1.599 -0.3327  0.1413  0.6943
  114TCq2    C8 1742   0.649   1.490   1.810 -0.0012  0.1856 -0.5329
  114TCq2    O4 1743   0.774   1.477   1.816  0.1572  0.5002  0.6258
  114TCq2    C9 1744   0.342   1.828   1.644 -0.2891 -0.4394  0.0992
  114TCq2    O5 1745   0.320   1.929   1.570 -0.3887  0.6251 -0.2288
  114TCq2    O6 1746   0.285   1.821   1.755  0.0623 -0.7699  0.6240
  114TCq2    H2 1747   0.531   1.869   1.461  0.2552  1.0991  1.5517
  114TCq2    H3 1748   0.404   1.615   1.786  0.2412 -0.7227 -0.1074
  114TCq2    H4 1749   0.759   1.526   1.579  0.0906  1.2585 -1.1936
  115TMC2    C1 1750   1.468   4.086   0.113  0.1921 -0.2976 -0.5892
  115TMC2    C2 1751   1.595   4.043   0.139  0.5244 -0.5225  0.5644
  115TMC2    C3 1752   1.690   4.136   0.151 -0.3963 -0.7225  0.8175
  115TMC2    C4 1753   1.435   4.216   0.092  0.5327 -0.3169 -0.7134
  115TMC2    C5 1754   1.537   4.312   0.098 -0.0727 -0.2415  0.8223
  115TMC2    C6 1755   1.666   4.270   0.139  0.1904  0.0970  0.1168
  115TMC2     C 1756   1.367   3.984   0.102  0.1585 -0.6414  0.0017
  115TMC2     O 1757   1.401   3.873   0.058 -0.1851 -0.5448  0.2392
  115TMC2     H 1758   1.619   3.942   0.168  1.9176 -0.7621 -1.4290
  115TMC2    H1 1759   1.333   4.250   0.076  0.2314 -0.7546  0.2776
  115TMC2    H2 1760   1.747   4.340   0.155 -0.1581  0.4623  0.2767
  115TMC2    C7 1761   1.485   4.447   0.103 -1.2436 -0.5577 -0.7356
  115TMC2    C8 1762   1.808   4.101   0.230 -0.2561  0.9261 -0.1952
  115TMC2    O1 1763   1.378   4.476   0.153  0.1319  0.6547  0.7751
  115TMC2    O2 1764   1.842   3.981   0.238 -0.6241 -0.7044  0.2390
  115TMC2    O5 1765   1.794   4.177   0.341 -0.4548 -0.0363  0.0624
  115TMC2    H5 1766   1.739   4.258   0.334  1.2711  1.3200  2.1215
  116MPD2     C 1767   0.888   3.831   0.199  0.3624 -0.2020  0.3502
  116MPD2    C1 1768   0.989   3.769   0.133  0.2194  0.0576  0.4522
  116MPD2    C2 1769   1.114   3.831   0.107  0.1829  0.4478  0.5954
  116MPD2    C3 1770   1.129   3.964   0.148 -0.1888 -0.0487 -1.0645
  116MPD2    C4 1771   1.024   4.023   0.223 -0.0750 -0.2008  0.1306
  116MPD2    C5 1772   0.904   3.958   0.242 -0.3018  0.0078  0.9105
  116MPD2     H 1773   1.193   3.781   0.054 -0.3413 -1.2920  1.4746
  116MPD2    H1 1774   1.028   4.123   0.265 -4.8355 -0.1146  0.3042
  116MPD2    H2 1775   0.792   3.782   0.210  0.8198 -1.8823 -3.0483
  116MPD2    H3 1776   0.817   4.005   0.287 -0.9368 -0.5834  0.2968
  116MPD2     N 1777   1.249   4.032   0.143 -0.0083  0.4560 -0.0537
  116MPD2    H5 1778   1.243   4.124   0.186 -0.3784 -0.2294  1.3824
  116MPD2    N1 1779   0.960   3.643   0.068  0.1234 -0.1784 -0.0770
  116MPD2    H7 1780   0.875   3.595   0.096 -0.6275  0.6448 -0.9332
  117TMC2    C1 1781   0.251   1.132  14.007  0.5025 -0.3076 -0.4789
  117TMC2    C2 1782   0.332   1.054  13.928 -0.2788  0.2521 -0.3364
  117TMC2    C3 1783   0.466   1.048  13.958 -0.4857  0.5207  0.4996
  117TMC2    C4 1784   0.298   1.188  14.123 -0.0323 -0.4433 -0.1190
  117TMC2    C5 1785   0.433   1.175  14.154  0.0105 -0.0893  0.5131
  117TMC2    C6 1786   0.516   1.106  14.070  0.5248 -0.8191 -0.0980
  117TMC2     C 1787   0.111   1.093  14.004 -0.1042  0.2817  0.1240
  117TMC2     O 1788   0.083   0.986  13.949  0.2813  0.1438  0.2345
  117TMC2     H 1789   0.301   1.013  13.832  1.4671  1.1559 -1.2894
  117TMC2    H1 1790   0.237   1.252  14.186 -1.7236 -1.8800 -0.2930
  117TMC2    H2 1791   0.624   1.117  14.072  0.2383  2.1644 -1.5236
  117TMC2    C7 1792   0.488   1.295  14.211 -0.4061  0.3519 -0.5211
  117TMC2    C8 1793   0.561   0.976  13.877 -0.8493 -0.5990  0.1725
  117TMC2    O1 1794   0.413   1.394  14.204  0.4841  0.2876  0.2911
  117TMC2    O2 1795   0.674   0.948  13.916  0.0234  0.2743  0.5570
  117TMC2    O5 1796   0.512   0.937  13.753 -0.2945 -0.4513  0.1867
  117TMC2    H5 1797   0.431   0.975  13.714  0.1343  0.3520  0.0894
  118MPD2     C 1798   0.810   1.326  14.379 -0.0012  0.5452 -0.4525
  118MPD2    C1 1799   0.698   1.374  14.317  0.0302  0.1709 -0.5358
  118MPD2    C2 1800   0.691   1.505  14.282 -0.4068 -0.1459  1.4093
  118MPD2    C3 1801   0.788   1.590  14.327 -0.2075  0.5937  0.2949
  118MPD2    C4 1802   0.894   1.544  14.399 -0.7095  0.4061  0.2915
  118MPD2    C5 1803   0.907   1.409  14.413 -0.6678 -0.2929 -0.2568
  118MPD2     H 1804   0.611   1.546  14.222  2.3855  1.6203 -1.1229
  118MPD2    H1 1805   0.976   1.608  14.427 -1.2111  1.8070 -1.4590
  118MPD2    H2 1806   0.836   1.222  14.395  2.1665  0.7919 -2.3729
  118MPD2    H3 1807   0.998   1.376  14.461 -0.2217  0.5240 -0.5399
  118MPD2     N 1808   0.794   1.721  14.282 -0.2306 -0.1375  0.4850
  118MPD2    H5 1809   0.886   1.764  14.289  1.1244 -3.0264  0.4820
  118MPD2    N1 1810   0.611   1.280  14.268 -0.3390 -0.9445 -0.9478
  118MPD2    H7 1811   0.649   1.186  14.268  0.1078 -0.7612 -2.6696
  119MPD2     C 1812   3.858   2.609  13.863 -0.0477 -0.2710  0.4804
  119MPD2    C1 1813   3.727   2.660  13.866  0.4713  0.1807  0.0158
  119MPD2    C2 1814   3.629   2.618  13.772 -0.6157  0.4310 -0.4126
  119MPD2    C3 1815   3.674   2.529  13.673 -0.1273 -0.2222 -0.4320
  119MPD2    C4 1816   3.801   2.478  13.670 -0.0527 -0.1784  0.2386
  119MPD2    C5 1817   3.897   2.519  13.758  0.1640 -0.2151 -0.2245
  119MPD2     H 1818   3.532   2.665  13.767  0.6926  3.1491 -0.5931
  119MPD2    H1 1819   3.836   2.404  13.598  0.8807  0.3614  0.1281
  119MPD2    H2 1820   3.918   2.617  13.953  0.9116  1.0920 -0.2840
  119MPD2    H3 1821   3.994   2.470  13.758  1.3753  2.1570  1.2310
  119MPD2     N 1822   3.578   2.468  13.584  0.2410 -0.0383  0.2973
  119MPD2    H5 1823   3.613   2.403  13.514  1.0534  0.6274  0.0907
  119MPD2    N1 1824   3.686   2.729  13.979 -0.0885 -0.1973 -0.9354
  119MPD2    H7 1825   3.751   2.721  14.057  0.4448 -0.7882 -1.4393
  120TCq2    C1 1826   3.438   2.481  13.597  0.5787  0.4329  0.4609
  120TCq2    O2 1827   3.374   2.530  13.687  0.2391 -0.1411 -0.4734
  120TCq2    C2 1828   3.370   2.400  13.497  0.1824 -1.6763  0.7761
  120TCq2    C3 1829   3.449   2.322  13.409  0.3848 -0.6656 -0.2291
  120TCq2    C4 1830   3.406   2.197  13.374 -0.4471 -0.3033  0.5815
  120TCq2    C5 1831   3.289   2.143  13.428 -0.3138 -0.2133  0.5080
  120TCq2    C6 1832   3.218   2.217  13.510 -0.5790 -0.4624  0.1589
  120TCq2    C7 1833   3.253   2.345  13.548 -0.0162 -0.2225  0.0370
  120TCq2    C8 1834   3.119   2.146  13.588  0.3044 -0.2833 -0.0794
  120TCq2    O4 1835   3.079   2.040  13.539 -0.5620 -0.3370  0.0360
  120TCq2    C9 1836   3.476   2.119  13.274 -0.2786 -0.3154  0.4989
  120TCq2    O5 1837   3.455   1.994  13.275 -0.0456 -0.1244 -0.0610
  120TCq2    O6 1838   3.567   2.178  13.205  0.1863 -0.0981  0.0048
  120TCq2    H2 1839   3.530   2.369  13.354 -0.1689  0.9628  0.3664
  120TCq2    H3 1840   3.268   2.043  13.390  1.9006  0.5969 -2.8716
  120TCq2    H4 1841   3.202   2.397  13.629 -0.8266 -0.1901 -0.4899
  121TMC2    C1 1842   0.063   3.954  13.913  0.2872 -0.0212  0.2939
  121TMC2    C2 1843   0.142   3.842  13.905 -0.0170  0.4515 -0.2096
  121TMC2    C3 1844   0.090   3.729  13.840 -0.7631 -0.1901 -0.9251
  121TMC2    C4 1845   4.663   3.964  13.856  0.0475  0.0121  0.3498
  121TMC2    C5 1846   4.619   3.848  13.795 -0.1386  0.1830  1.0827
  121TMC2    C6 1847   4.692   3.730  13.785  0.1088  0.3303 -0.6240
  121TMC2     C 1848   0.127   4.087  13.929 -0.1526  0.2418 -0.4137
  121TMC2     O 1849   0.053   4.186  13.937  0.0210 -0.2588  0.0335
  121TMC2     H 1850   0.234   3.843  13.963 -0.2903 -2.1073  0.2670
  121TMC2    H1 1851   4.597   4.050  13.864  0.0532  0.1986 -1.5828
  121TMC2    H2 1852   4.659   3.643  13.730 -0.3124  0.7451 -1.0202
  121TMC2    C7 1853   4.481   3.819  13.762 -0.4075  0.1889  0.2391
  121TMC2    C8 1854   0.157   3.606  13.859  1.3284 -0.3663 -0.6151
  121TMC2    O1 1855   4.445   3.705  13.752 -0.6422 -0.1463  0.2184
  121TMC2    O2 1856   0.181   3.529  13.765 -0.0161  0.3660 -0.1549
  121TMC2    O5 1857   0.231   3.618  13.972 -0.2853  0.2310 -0.4319
  121TMC2    H5 1858   0.188   3.664  14.047  1.9835  1.4981  0.0645
  122MPD2     C 1859   0.311   4.336  13.953  0.1839 -0.3490 -0.6088
  122MPD2    C1 1860   0.343   4.215  13.897 -0.1095 -0.3598 -0.4683
  122MPD2    C2 1861   0.449   4.210  13.807 -0.1089  0.5475 -0.4232
  122MPD2    C3 1862   0.504   4.326  13.766  0.1360  0.3927  0.9364
  122MPD2    C4 1863   0.472   4.443  13.830 -0.2179 -0.3133 -0.4902
  122MPD2    C5 1864   0.373   4.454  13.918 -0.2993  0.0479 -0.2108
  122MPD2     H 1865   0.472   4.124  13.746 -1.5463  0.7698 -1.2691
  122MPD2    H1 1866   0.498   4.542  13.794 -1.3758 -0.4916 -1.8203
  122MPD2    H2 1867   0.235   4.338  14.031  0.8373  0.3978  0.0050
  122MPD2    H3 1868   0.344   4.556  13.942 -0.9149 -0.5998  1.8212
  122MPD2     N 1869   0.586   4.336  13.658 -0.4665  0.2094  0.2137
  122MPD2    H5 1870   0.594   4.430  13.622  0.3148 -0.0413 -0.2825
  122MPD2    N1 1871   0.271   4.089  13.925  0.0899  0.1251 -0.2947
  122MPD2    H7 1872   0.306   3.996  13.902  0.2465  0.6116 -2.0022
  123MPD2     C 1873   4.054   2.627   9.383 -0.0778  0.1986  0.4552
  123MPD2    C1 1874   4.033   2.491   9.408 -0.1839 -0.1958 -0.0961
  123MPD2    C2 1875   4.118   2.416   9.498  0.2452 -0.1667 -0.0671
  123MPD2    C3 1876   4.222   2.482   9.562  0.2963 -0.3108 -0.3780
  123MPD2    C4 1877   4.236   2.619   9.541 -0.5983 -0.2049  0.2305
  123MPD2    C5 1878   4.159   2.686   9.447 -0.5833  0.3186  0.8257
  123MPD2     H 1879   4.097   2.312   9.520 -1.0532 -0.0822 -0.8893
  123MPD2    H1 1880   4.304   2.681   9.597  0.2951 -1.0651  0.1021
  123MPD2    H2 1881   3.995   2.688   9.316 -1.1210 -0.6254  0.6192
  123MPD2    H3 1882   4.178   2.792   9.434 -1.2356  0.2360 -0.8511
  123MPD2     N 1883   4.295   2.402   9.657  0.1667 -0.3022  0.8491
  123MPD2    H5 1884   4.281   2.305   9.683  2.5083 -0.7695  0.3885
  123MPD2    N1 1885   3.924   2.420   9.352  0.4958 -0.9465 -0.1467
  123MPD2    H7 1886   3.919   2.320   9.362  0.8921 -1.0126 -0.6233
  124TCq2    C1 1887   4.397   2.456   9.732  0.1771 -0.3814  0.4416
  124TCq2    O2 1888   4.456   2.562   9.722  0.0557 -0.1521  0.4449
  124TCq2    C2 1889   4.442   2.359   9.832 -0.3140  0.0748 -0.0614
  124TCq2    C3 1890   4.550   2.396   9.900  0.6264 -0.0794  0.3944
  124TCq2    C4 1891   4.582   2.329  10.013 -0.3978  0.2410 -0.0832
  124TCq2    C5 1892   4.516   2.216  10.052 -0.5635 -0.0894 -0.1755
  124TCq2    C6 1893   4.409   2.179   9.972  0.1984 -0.2885  0.5134
  124TCq2    C7 1894   4.363   2.252   9.862  0.2691  0.2947 -0.4808
  124TCq2    C8 1895   4.329   2.078  10.032 -0.0721  0.1840  0.6977
  124TCq2    O4 1896   4.357   2.041  10.144  0.1319 -0.5433 -0.1769
  124TCq2    C9 1897   4.700   2.362  10.082  0.0517 -0.2050 -0.1836
  124TCq2    O5 1898   0.026   2.282  10.169 -0.2208 -0.3935 -0.2229
  124TCq2    O6 1899   0.059   2.448  10.040  0.1502 -0.0609 -0.2349
  124TCq2    H2 1900   4.610   2.483   9.877  2.4373 -0.6337  2.9640
  124TCq2    H3 1901   4.554   2.150  10.129 -0.9315 -0.3400 -0.2057
  124TCq2    H4 1902   4.262   2.239   9.825  0.1134 -0.3593  0.1592
  125TMC2    C1 1903   4.332   3.825   9.771 -0.5814  0.6385  0.4356
  125TMC2    C2 1904   4.212   3.883   9.799  0.0370  0.2549  1.0859
  125TMC2    C3 1905   4.202   3.954   9.916 -0.0223 -0.4207  1.0135
  125TMC2    C4 1906   4.436   3.850   9.852 -0.3785  0.2100 -0.5186
  125TMC2    C5 1907   4.421   3.908   9.973  0.1761 -0.2107 -0.4422
  125TMC2    C6 1908   4.304   3.965  10.009 -0.1688  0.4354 -0.0857
  125TMC2     C 1909   4.353   3.739   9.655 -0.2168  0.3280 -0.6164
  125TMC2     O 1910   4.465   3.689   9.635  0.1595  0.4640 -0.1248
  125TMC2     H 1911   4.120   3.852   9.751  0.6411 -1.7630  1.2277
  125TMC2    H1 1912   4.528   3.811   9.810 -0.0681 -1.0941  1.3973
  125TMC2    H2 1913   4.302   4.042  10.086  2.7190 -0.0457  0.4640
  125TMC2    C7 1914   4.541   3.940  10.052 -0.7449 -1.2477  0.5431
  125TMC2    C8 1915   4.082   4.020   9.942  0.0332 -0.1789 -0.0307
  125TMC2    O1 1916   4.527   3.975  10.169  0.2799 -0.0206 -0.2202
  125TMC2    O2 1917   3.982   3.956   9.941 -0.1346  0.0349  0.6983
  125TMC2    O5 1918   4.104   4.145   9.901  0.2757  0.1399 -0.7609
  125TMC2    H5 1919   4.197   4.174   9.887  2.2586 -3.7523  4.3759
  126MPD1     C 1920   4.188   3.495   9.240  0.1818  0.0974  1.1342
  126MPD1    C1 1921   4.091   3.587   9.276  0.3176  0.6078  0.1002
  126MPD1    C2 1922   4.114   3.663   9.384 -0.0026 -1.4803  0.5394
  126MPD1    C3 1923   4.232   3.651   9.462 -0.0608 -0.4048  0.3685
  126MPD1    C4 1924   4.328   3.565   9.421  0.3299  0.4310 -0.0516
  126MPD1    C5 1925   4.307   3.493   9.303 -0.0572  0.0724  0.0232
  126MPD1     H 1926   4.029   3.721   9.418  0.6457 -1.6116  2.3865
  126MPD1    H1 1927   4.423   3.550   9.470 -0.8409  0.1061  2.1566
  126MPD1    H2 1928   4.183   3.429   9.154 -0.4416  1.0767  0.4188
  126MPD1    H3 1929   4.383   3.422   9.272 -0.8649  0.4938 -2.9038
  126MPD1     N 1930   4.246   3.731   9.573  0.5046 -0.1357 -0.4792
  126MPD1    H5 1931   4.169   3.796   9.584  0.5720 -0.4620  1.9349
  126MPD1    N1 1932   3.965   3.583   9.213  0.1084  0.0733 -0.4715
  126MPD1    H6 1933   3.910   3.667   9.231  0.6279  0.3282 -0.0287
  126MPD1    H7 1934   3.960   3.557   9.115  1.9755  1.0190 -0.8240
  127MPD2     C 1935   1.030   2.684   9.623  0.5320 -0.4651 -0.3916
  127MPD2    C1 1936   1.069   2.654   9.752 -0.8308  0.3848 -0.1612
  127MPD2    C2 1937   1.151   2.741   9.822 -0.5321  0.3370 -0.3970
  127MPD2    C3 1938   1.206   2.853   9.758  0.0102 -0.2652  0.6539
  127MPD2    C4 1939   1.168   2.878   9.627  0.4178 -0.7772  0.4266
  127MPD2    C5 1940   1.076   2.802   9.566  0.2813 -0.6468  0.0800
  127MPD2     H 1941   1.174   2.726   9.926  0.0085  2.7907 -0.1671
  127MPD2    H1 1942   1.209   2.963   9.573 -0.6046 -0.7604 -0.3158
  127MPD2    H2 1943   0.969   2.616   9.565  0.0208  0.5322 -1.0266
  127MPD2    H3 1944   1.065   2.811   9.459 -3.7063  0.2705  0.5688
  127MPD2     N 1945   1.292   2.935   9.828  1.0013  0.3993 -0.2258
  127MPD2    H5 1946   1.311   2.905   9.923 -0.4706 -0.8976 -0.3489
  127MPD2    N1 1947   1.011   2.544   9.820  0.1005 -0.2140  0.7210
  127MPD2    H7 1948   0.957   2.481   9.763  0.3470 -1.2057  1.5767
  128TCq2    C1 1949   1.046   2.496   9.945 -0.0581  0.1369  0.3584
  128TCq2    O2 1950   1.134   2.538  10.018 -0.4676  0.3284  0.3227
  128TCq2    C2 1951   0.981   2.373   9.987 -0.5636  0.7239  0.0051
  128TCq2    C3 1952   1.059   2.293  10.061  0.0970 -0.1879  1.0728
  128TCq2    C4 1953   1.025   2.161  10.077 -0.1176 -0.2947 -0.1149
  128TCq2    C5 1954   0.914   2.115  10.007 -0.0466  1.1337 -0.0177
  128TCq2    C6 1955   0.843   2.203   9.927  0.5240 -0.3081 -0.0782
  128TCq2    C7 1956   0.869   2.335   9.924 -0.9725 -0.0319  0.0324
  128TCq2    C8 1957   0.760   2.156   9.815  0.3623 -0.4285 -0.5280
  128TCq2    O4 1958   0.697   2.241   9.751 -0.0037  0.8254  0.6594
  128TCq2    C9 1959   1.106   2.067  10.154 -0.0919 -0.2860  0.6642
  128TCq2    O5 1960   1.077   1.947  10.137 -0.2159 -0.1566 -0.0414
  128TCq2    O6 1961   1.206   2.101  10.218  0.2375  0.6032  0.3057
  128TCq2    H2 1962   1.155   2.327  10.098  1.3839 -2.7556  0.1012
  128TCq2    H3 1963   0.874   2.017  10.031 -0.9349  0.8875 -2.5549
  128TCq2    H4 1964   0.808   2.415   9.884  1.9468  1.7955 -0.7658
  129MPD2     C 1965   4.435   3.349   1.344  0.1664  0.3754  0.6443
  129MPD2    C1 1966   4.306   3.308   1.383 -0.0908  0.2531  0.2583
  129MPD2    C2 1967   4.200   3.384   1.339 -0.7107  0.2267  0.7211
  129MPD2    C3 1968   4.213   3.485   1.249 -0.3303  0.2684 -0.5180
  129MPD2    C4 1969   4.344   3.526   1.231 -0.4059 -0.0080  0.2342
  129MPD2    C5 1970   4.457   3.467   1.277 -0.6821  0.6284  1.1534
  129MPD2     H 1971   4.099   3.347   1.357 -1.2022  1.4721  0.5299
  129MPD2    H1 1972   4.363   3.609   1.163 -1.5274 -0.3487 -0.5000
  129MPD2    H2 1973   4.520   3.284   1.363  1.0496  2.2148  2.9467
  129MPD2    H3 1974   4.557   3.502   1.254  0.1063 -1.1717  1.8289
  129MPD2     N 1975   4.098   3.548   1.195 -0.0340 -0.8681 -0.0109
  129MPD2    H5 1976   4.007   3.503   1.198 -0.8065  0.7462  1.0145
  129MPD2    N1 1977   4.282   3.182   1.455 -0.4356 -0.3065 -0.3585
  129MPD2    H7 1978   4.199   3.128   1.430 -0.8562  0.2301 -0.1247
  130TCq2    C1 1979   4.380   3.121   1.529  0.1131  0.5686 -0.1070
  130TCq2    O2 1980   4.482   3.167   1.581  0.0549  0.1574  0.5795
  130TCq2    C2 1981   4.355   2.982   1.562 -0.0532  0.3345 -0.1753
  130TCq2    C3 1982   4.450   2.917   1.628  0.3265  1.0290  0.2965
  130TCq2    C4 1983   4.437   2.777   1.641  0.2260 -0.5485 -0.5052
  130TCq2    C5 1984   4.328   2.712   1.589  0.1538  0.1034  0.1596
  130TCq2    C6 1985   4.230   2.785   1.528 -1.2768 -0.7573 -0.6343
  130TCq2    C7 1986   4.241   2.920   1.512  0.1306  0.5082 -0.2181
  130TCq2    C8 1987   4.119   2.717   1.465  0.0603 -0.4202  1.0226
  130TCq2    O4 1988   4.020   2.782   1.449  0.7320 -0.0708  0.2092
  130TCq2    C9 1989   4.539   2.706   1.715 -0.4010  0.0255 -0.5024
  130TCq2    O5 1990   4.549   2.582   1.692 -0.1880  0.1061  0.1687
  130TCq2    O6 1991   4.626   2.765   1.788  0.2002 -0.3392  0.2855
  130TCq2    H2 1992   4.538   2.951   1.680  0.1977  0.4002  0.9306
  130TCq2    H3 1993   4.320   2.606   1.612  0.8754 -0.2036 -1.0152
  130TCq2    H4 1994   4.166   2.966   1.450  0.0272  0.7725  0.1085
  131MPD2     C 1995   3.575   1.805   9.843  0.3665  0.3755  0.3917
  131MPD2    C1 1996   3.634   1.931   9.864 -1.3347 -0.6737 -0.0311
  131MPD2    C2 1997   3.645   2.030   9.765 -0.0266 -0.3018 -0.2390
  131MPD2    C3 1998   3.592   1.998   9.643 -0.8623  0.4112  0.2910
  131MPD2    C4 1999   3.549   1.867   9.622 -0.1494  0.6485  0.2392
  131MPD2    C5 2000   3.534   1.775   9.719  0.4876 -0.4413  0.3616
  131MPD2     H 2001   3.669   2.132   9.793  1.6486 -0.5291 -0.8111
  131MPD2    H1 2002   3.499   1.841   9.529  0.3750 -0.6672  0.3383
  131MPD2    H2 2003   3.569   1.726   9.917 -0.2577 -0.8582 -0.9561
  131MPD2    H3 2004   3.493   1.678   9.693 -1.3507  0.1888  0.9113
  131MPD2     N 2005   3.592   2.100   9.539  0.4728  0.1289 -0.2740
  131MPD2    H5 2006   3.614   2.195   9.566 -0.8527  0.3251  0.1415
  131MPD2    N1 2007   3.682   1.948   9.988 -0.1776 -0.9010 -0.1226
  131MPD2    H7 2008   3.677   1.866  10.047  1.6582 -0.0626  1.1884
  132TCq2    C1 2009   4.124   2.169  10.314  0.1674  0.1829 -0.1264
  132TCq2    O2 2010   4.169   2.161  10.425  0.2752  0.0245 -0.1403
  132TCq2    C2 2011   4.004   2.097  10.297  0.8809  0.3549  0.5874
  132TCq2    C3 2012   3.931   2.067  10.410  0.9741  0.2233 -0.1389
  132TCq2    C4 2013   3.796   2.045  10.395 -0.5718  0.5762 -0.1744
  132TCq2    C5 2014   3.746   2.017  10.270 -0.8508 -0.8987 -0.2385
  132TCq2    C6 2015   3.826   2.038  10.158  0.7462 -0.0748 -0.3353
  132TCq2    C7 2016   3.952   2.090  10.173  0.3069 -0.6869  0.3708
  132TCq2    C8 2017   3.761   2.059  10.031 -0.4213 -0.1539 -0.0761
  132TCq2    O4 2018   3.816   2.143   9.961 -0.7103 -0.8403  0.0862
  132TCq2    C9 2019   3.715   2.036  10.511 -0.2653 -0.0259 -0.3056
  132TCq2    O5 2020   3.753   2.091  10.616 -0.2559  0.9174  0.5660
  132TCq2    O6 2021   3.588   2.023  10.488  0.0679 -0.5038  0.2767
  132TCq2    H2 2022   3.979   2.065  10.508 -1.0675 -1.5134  0.8239
  132TCq2    H3 2023   3.641   1.989  10.264 -0.5962 -1.4382 -2.1448
  132TCq2    H4 2024   4.007   2.120  10.085  1.8008 -0.7509  1.2648
  133MPD2     C 2025   3.128   1.619   9.477 -0.5248 -0.0312  0.0191
  133MPD2    C1 2026   3.004   1.641   9.411  0.0515  0.5016  0.1667
  133MPD2    C2 2027   2.966   1.771   9.386  0.9523  0.2239  0.2043
  133MPD2    C3 2028   3.045   1.877   9.434  0.2797 -1.1027 -0.6884
  133MPD2    C4 2029   3.173   1.862   9.488  0.1610  0.0920 -0.0213
  133MPD2    C5 2030   3.207   1.728   9.507 -1.3100  0.0861 -0.9419
  133MPD2     H 2031   2.869   1.794   9.342  1.6941 -0.5818 -1.8612
  133MPD2    H1 2032   3.249   1.935   9.514  1.6753 -1.9066  1.2018
  133MPD2    H2 2033   3.142   1.518   9.513 -0.4919 -0.2432 -0.5818
  133MPD2    H3 2034   3.302   1.710   9.554 -1.2511 -1.2714 -1.5950
  133MPD2     N 2035   3.014   2.012   9.409 -0.8663  1.2200 -1.0679
  133MPD2    H5 2036   3.092   2.066   9.445  0.2090 -0.0626 -1.4727
  133MPD2    N1 2037   2.920   1.528   9.386  0.0802 -0.1252  0.3143
  133MPD2    H7 2038   2.957   1.441   9.423 -2.5729 -1.1145  0.6334
  134TCq2    C1 2039   2.814   1.528   9.295 -0.1490 -0.0587  0.4143
  134TCq2    O2 2040   2.759   1.618   9.234 -0.6090  0.0599  0.0359
  134TCq2    C2 2041   2.769   1.396   9.284  0.3358  0.0689  0.6533
  134TCq2    C3 2042   2.864   1.298   9.271  0.0640  0.4009  0.1760
  134TCq2    C4 2043   2.821   1.171   9.244 -0.4025  0.3143  0.9925
  134TCq2    C5 2044   2.684   1.144   9.217 -0.7531  0.4941 -0.1266
  134TCq2    C6 2045   2.595   1.251   9.222 -0.1944 -1.0695  0.1837
  134TCq2    C7 2046   2.635   1.377   9.251 -0.1425  0.2693 -0.8769
  134TCq2    C8 2047   2.465   1.242   9.154 -0.4207 -0.2332 -0.2465
  134TCq2    O4 2048   2.391   1.340   9.165  0.0292 -0.2005  0.5442
  134TCq2    C9 2049   2.915   1.063   9.255 -0.7689  0.4976  0.1562
  134TCq2    O5 2050   2.864   0.946   9.234  0.1867 -0.1255  0.0371
  134TCq2    O6 2051   3.030   1.101   9.294  0.1540 -0.1417 -0.9854
  134TCq2    H2 2052   2.970   1.318   9.282  0.1799  0.2274 -0.6058
  134TCq2    H3 2053   2.651   1.041   9.216  1.5943 -0.2527 -0.2942
  134TCq2    H4 2054   2.566   1.461   9.245 -1.3588 -0.7761 -1.4683
  135MPD2     C 2055   0.402   4.271  10.144  0.9353 -0.1185  0.0157
  135MPD2    C1 2056   0.341   4.310  10.022  0.0866  0.0480 -0.5451
  135MPD2    C2 2057   0.415   4.314   9.903  0.6280  0.1105 -0.7755
  135MPD2    C3 2058   0.546   4.284   9.911 -0.1644 -0.0048  0.2358
  135MPD2    C4 2059   0.602   4.242  10.032  0.6602 -0.6078 -0.4156
  135MPD2    C5 2060   0.536   4.238  10.152  0.7251  0.2903 -0.0584
  135MPD2     H 2061   0.363   4.342   9.812  0.9257 -1.1168 -1.3271
  135MPD2    H1 2062   0.707   4.217  10.043  0.7222 -0.3869 -0.5081
  135MPD2    H2 2063   0.352   4.243  10.236  1.0163  0.8338  0.3511
  135MPD2    H3 2064   0.580   4.199  10.243 -0.4846 -1.1717 -0.1036
  135MPD2     N 2065   0.629   4.295   9.799 -0.0131 -0.3621 -0.6126
  135MPD2    H5 2066   0.729   4.284   9.816  0.0423 -0.0590 -0.7447
  135MPD2    N1 2067   0.207   4.338  10.015  0.0837  0.7463  0.1950
  135MPD2    H7 2068   0.163   4.345   9.923  0.9248  0.8047 -0.2044
  136TCq2    C1 2069   0.133   4.370  10.124  0.5578  0.3264 -0.4699
  136TCq2    O2 2070   0.177   4.386  10.235  0.6684  0.0949  0.1082
  136TCq2    C2 2071   4.709   4.366  10.099  0.0683  0.0222  0.1514
  136TCq2    C3 2072   4.654   4.304   9.991 -0.3248 -0.0704  0.7236
  136TCq2    C4 2073   4.518   4.274   9.989 -0.1482 -0.0596  0.0448
  136TCq2    C5 2074   4.444   4.298  10.100  0.0808  0.1072 -0.0601
  136TCq2    C6 2075   4.503   4.363  10.207 -0.1447 -0.5747 -0.5317
  136TCq2    C7 2076   4.633   4.399  10.205 -0.0539  0.0847  0.1088
  136TCq2    C8 2077   4.444   4.346  10.338  0.3267  0.7337 -0.3851
  136TCq2    O4 2078   4.430   4.441  10.416  0.4769  0.0899  0.2286
  136TCq2    C9 2079   4.455   4.241   9.861 -0.5538  0.4778 -0.9513
  136TCq2    O5 2080   4.536   4.243   9.765 -0.6048  0.0156  0.0241
  136TCq2    O6 2081   4.333   4.238   9.851 -0.0612 -0.0136 -0.0674
  136TCq2    H2 2082   4.709   4.273   9.903  0.8515  0.9232  1.1253
  136TCq2    H3 2083   4.337   4.284  10.090 -0.1940  0.9745  1.7321
  136TCq2    H4 2084   4.679   4.436  10.296 -1.7747 -3.4088  2.4016
  137MPD2     C 2085   0.618   2.849  10.239  0.1906 -0.0014  0.1299
  137MPD2    C1 2086   0.545   2.962  10.272  0.0078 -0.2721 -0.4594
  137MPD2    C2 2087   0.459   2.948  10.377 -0.1321  0.3212 -0.6582
  137MPD2    C3 2088   0.464   2.843  10.460 -0.1557 -0.3258  0.6855
  137MPD2    C4 2089   0.538   2.736  10.428  0.0121  0.2732  0.3378
  137MPD2    C5 2090   0.605   2.733  10.311 -0.1829 -0.1807 -0.1268
  137MPD2     H 2091   0.394   3.032  10.401 -2.0436 -1.1775 -0.5365
  137MPD2    H1 2092   0.545   2.644  10.485  0.7008 -0.5335 -1.0412
  137MPD2    H2 2093   0.659   2.829  10.141  2.4238  0.9392  0.8920
  137MPD2    H3 2094   0.639   2.637  10.274  0.1592  0.0611 -0.4321
  137MPD2     N 2095   0.385   2.848  10.576  0.3391 -0.2620  0.1464
  137MPD2    H5 2096   0.318   2.924  10.576  0.4644 -0.1505  0.1302
  137MPD2    N1 2097   0.559   3.077  10.191 -0.5007  0.3560 -0.2824
  137MPD2    H7 2098   0.625   3.068  10.114 -0.0369  0.8679  0.0632
  138TCq2    C1 2099   0.470   3.183  10.171 -1.1774  0.2898  0.2389
  138TCq2    O2 2100   0.367   3.202  10.233  0.1955  0.3747 -0.6220
  138TCq2    C2 2101   0.506   3.259  10.053 -0.3831  0.3735  0.9784
  138TCq2    C3 2102   0.625   3.318  10.054 -0.0436  0.0998 -0.2654
  138TCq2    C4 2103   0.652   3.403   9.947  0.7877  0.5323 -0.3439
  138TCq2    C5 2104   0.555   3.428   9.854  0.1762  0.6454 -0.3128
  138TCq2    C6 2105   0.421   3.390   9.874 -0.1475 -0.6967 -0.8986
  138TCq2    C7 2106   0.406   3.301   9.980  0.8150  0.1948 -0.0674
  138TCq2    C8 2107   0.333   3.394   9.765  0.3207 -0.2136  0.1435
  138TCq2    O4 2108   0.347   3.488   9.685  0.2299  0.3627 -0.0013
  138TCq2    C9 2109   0.782   3.464   9.929 -0.1064  0.0543  0.3351
  138TCq2    O5 2110   0.862   3.452  10.023 -0.6896  0.1292  0.3521
  138TCq2    O6 2111   0.799   3.539   9.830 -0.0979 -0.0220  0.9689
  138TCq2    H2 2112   0.699   3.294  10.129 -1.0520  0.8419  0.9723
  138TCq2    H3 2113   0.580   3.507   9.784  0.2179  1.0188  0.1265
  138TCq2    H4 2114   0.309   3.256  10.000  0.6583  0.8010  0.5415
  139TMC2    C1 2115   0.313   1.931  13.471 -0.6581 -0.3449  0.2623
  139TMC2    C2 2116   0.346   1.982  13.355 -0.4532  0.2043 -0.2842
  139TMC2    C3 2117   0.278   2.093  13.317 -0.0375 -0.1948  0.2405
  139TMC2    C4 2118   0.216   1.982  13.554  0.0652 -0.3729  0.0479
  139TMC2    C5 2119   0.162   2.097  13.515 -0.3201 -0.4668 -0.3563
  139TMC2    C6 2120   0.190   2.163  13.395  0.3363  0.3232  0.4656
  139TMC2     C 2121   0.399   1.813  13.517 -0.0920  1.0182 -0.2233
  139TMC2     O 2122   0.491   1.776  13.445 -0.3064 -0.0559 -0.6095
  139TMC2     H 2123   0.425   1.944  13.291  0.0197  0.8795 -0.1071
  139TMC2    H1 2124   0.193   1.934  13.649  1.5858  1.1664  1.2014
  139TMC2    H2 2125   0.125   2.242  13.361 -1.2975 -0.4303  1.8750
  139TMC2    C7 2126   0.062   2.156  13.598 -0.1525  0.3058  0.5577
  139TMC2    C8 2127   0.323   2.149  13.196  0.1818  0.1870 -0.0856
  139TMC2    O1 2128   4.720   2.253  13.554 -0.5198  0.9504 -0.3469
  139TMC2    O2 2129   0.348   2.083  13.090  0.1774  0.5628 -0.0915
  139TMC2    O5 2130   0.310   2.281  13.193 -0.3011  0.5598 -0.3068
  139TMC2    H5 2131   0.305   2.324  13.281 -0.1419  0.3157 -0.1786
  140MPD2     C 2132   0.350   1.598  13.816  0.3000 -1.3850  0.2454
  140MPD2    C1 2133   0.403   1.643  13.694 -0.6211  0.1177 -0.6191
  140MPD2    C2 2134   0.504   1.566  13.648  0.1817  0.6045 -0.3435
  140MPD2    C3 2135   0.558   1.457  13.715 -0.1061  0.3557  0.7551
  140MPD2    C4 2136   0.504   1.425  13.839  0.0354  0.4286 -0.4694
  140MPD2    C5 2137   0.396   1.493  13.888 -0.2056  0.0026  0.2628
  140MPD2     H 2138   0.539   1.574  13.546 -1.3162 -0.1228 -0.9222
  140MPD2    H1 2139   0.543   1.341  13.894 -0.7882 -0.5289 -1.3312
  140MPD2    H2 2140   0.263   1.650  13.855  1.5990  0.1682  1.0158
  140MPD2    H3 2141   0.342   1.465  13.978  1.1430 -0.2756  0.9914
  140MPD2     N 2142   0.664   1.387  13.652 -0.4492 -0.0955 -0.1133
  140MPD2    H5 2143   0.699   1.430  13.567 -0.5999  0.6890  0.2281
  140MPD2    N1 2144   0.352   1.756  13.634 -0.1738 -0.6605  0.4831
  140MPD2    H7 2145   0.271   1.797  13.680 -0.2222 -0.0422 -0.1581
  141TCq2    C1 2146   1.122   3.322  14.718  0.8924 -0.2128 -0.3721
  141TCq2    O2 2147   1.125   3.406  14.631  0.6208 -0.3987  0.2207
  141TCq2    C2 2148   1.079   3.380  14.847  0.0307  0.5143  1.0564
  141TCq2    C3 2149   1.125   3.315  14.961 -0.3439  0.2964 -0.1862
  141TCq2    C4 2150   1.107   3.374  15.082  0.8766 -0.2159  0.0910
  141TCq2    C5 2151   1.064   3.499  15.089 -0.6373 -0.0950 -0.6193
  141TCq2    C6 2152   1.025   3.564  14.976  0.3587 -0.3478  0.5857
  141TCq2    C7 2153   1.021   3.504  14.852 -0.8977  0.2104  0.0104
  141TCq2    C8 2154   0.994   3.708  14.997  0.5876  0.1749  0.3987
  141TCq2    O4 2155   0.958   3.745  15.105 -0.3634 -0.1672 -0.5406
  141TCq2    C9 2156   1.149   3.298  15.195 -0.2246  0.2043  0.4088
  141TCq2    O5 2157   1.200   3.360  15.292  0.2973 -0.1048  0.1303
  141TCq2    O6 2158   1.173   3.176  15.184  0.1733  0.3055  0.0670
  141TCq2    H2 2159   1.176   3.219  14.962  1.3761  1.2142  0.1021
  141TCq2    H3 2160   1.085   3.553  15.181  1.4882  0.8912 -1.6788
  141TCq2    H4 2161   0.985   3.551  14.762  1.8287  0.9353 -0.6996
  142MPD2     C 2162   3.342   1.206  10.718  0.1783 -0.6900  0.6569
  142MPD2    C1 2163   3.367   1.242  10.589  0.1500  0.5388  0.3067
  142MPD2    C2 2164   3.444   1.355  10.551  0.5458 -0.2998  0.1473
  142MPD2    C3 2165   3.505   1.430  10.655 -0.1170  0.1938  0.0896
  142MPD2    C4 2166   3.482   1.395  10.793  0.2711  0.6256 -0.1676
  142MPD2    C5 2167   3.400   1.282  10.819  0.0451  0.0715  0.0781
  142MPD2     H 2168   3.475   1.355  10.447 -2.9642  0.9224 -0.8788
  142MPD2    H1 2169   3.522   1.450  10.876 -0.9266 -1.1410  1.5774
  142MPD2    H2 2170   3.265   1.132  10.736  0.4477 -1.3656 -0.9520
  142MPD2    H3 2171   3.378   1.257  10.922 -0.1969 -1.4035 -0.3282
  142MPD2     N 2172   3.599   1.536  10.636 -0.0618  0.1903 -0.3474
  142MPD2    H5 2173   3.641   1.579  10.718 -0.1034  0.0218 -0.2388
  142MPD2    N1 2174   3.305   1.154  10.494  0.2453  0.3515 -0.2069
  142MPD2    H7 2175   3.271   1.067  10.534  0.6231  1.3155  2.2327
  143TCq2    C1 2176   3.640   1.585  10.511  0.2236 -0.2997 -0.1650
  143TCq2    O2 2177   3.602   1.556  10.398 -1.0145  0.1102  0.5139
  143TCq2    C2 2178   3.754   1.669  10.526  0.7364 -0.0128  0.2473
  143TCq2    C3 2179   3.789   1.724  10.642 -0.0076 -0.4525  0.3455
  143TCq2    C4 2180   3.908   1.789  10.648  0.8073  0.5527  0.3154
  143TCq2    C5 2181   3.997   1.773  10.545  0.1279 -1.0296  0.1228
  143TCq2    C6 2182   3.970   1.703  10.432 -0.3931  1.1239 -0.3275
  143TCq2    C7 2183   3.843   1.650  10.419  0.4599 -0.0153 -0.3045
  143TCq2    C8 2184   4.059   1.725  10.312  0.4654 -1.0714  0.4058
  143TCq2    O4 2185   4.182   1.745  10.328  0.2637 -0.3273  0.0719
  143TCq2    C9 2186   3.939   1.871  10.765  0.4948 -0.2610 -0.5686
  143TCq2    O5 2187   4.027   1.956  10.754  0.1655 -0.2597  0.4817
  143TCq2    O6 2188   3.855   1.866  10.860 -0.4262  0.2727 -0.0020
  143TCq2    H2 2189   3.720   1.756  10.719 -0.8294  0.8731 -0.9378
  143TCq2    H3 2190   4.085   1.833  10.563 -0.6200 -0.0594  0.5682
  143TCq2    H4 2191   3.823   1.585  10.335 -1.5050 -0.5436  0.5658
  144MPD2     C 2192   0.293   1.290   0.995  0.0124  0.1739 -0.2715
  144MPD2    C1 2193   0.310   1.153   1.013  0.3905 -0.1931  0.7236
  144MPD2    C2 2194   0.337   1.108   1.146  0.1719 -0.3906 -0.3370
  144MPD2    C3 2195   0.344   1.195   1.253  0.3203  0.0939 -0.3771
  144MPD2    C4 2196   0.313   1.324   1.231  0.7342  0.5021  0.2955
  144MPD2    C5 2197   0.290   1.369   1.108  0.6098 -0.4357 -0.3396
  144MPD2     H 2198   0.368   1.006   1.168 -1.5643 -0.6965  0.6723
  144MPD2    H1 2199   0.299   1.389   1.317  2.2113  1.8866 -0.5149
  144MPD2    H2 2200   0.278   1.329   0.896 -3.8411  0.1985  0.3375
  144MPD2    H3 2201   0.275   1.476   1.101 -0.8506 -0.6011  0.2589
  144MPD2     N 2202   0.367   1.149   1.385 -0.0752 -0.9495 -0.1647
  144MPD2    H5 2203   0.361   1.050   1.407  0.9737 -0.8500  0.5726
  144MPD2    N1 2204   0.336   1.071   0.901 -0.4080  0.2758  0.4535
  144MPD2    H7 2205   0.374   0.978   0.916 -0.0832  0.5044  1.0585
  145TCq2    C1 2206   0.420   1.240   1.481  0.2031 -0.3409 -0.1165
  145TCq2    O2 2207   0.481   1.347   1.466  0.3397  1.6933  0.3833
  145TCq2    C2 2208   0.465   1.166   1.599  0.2659 -0.4697  0.4927
  145TCq2    C3 2209   0.402   1.051   1.621 -0.0485  0.3730 -0.8577
  145TCq2    C4 2210   0.466   0.942   1.684  0.1761  1.0217 -0.5596
  145TCq2    C5 2211   0.600   0.944   1.716 -0.2472 -0.1421  0.6751
  145TCq2    C6 2212   0.668   1.060   1.688  0.5452  0.0824  0.5042
  145TCq2    C7 2213   0.606   1.174   1.625  0.4489 -0.2215  0.1801
  145TCq2    C8 2214   0.814   1.073   1.701 -0.4655  0.3746 -0.2985
  145TCq2    O4 2215   0.866   0.965   1.732 -0.3172  0.2863 -0.1896
  145TCq2    C9 2216   0.390   0.822   1.706  0.6192 -0.0768  0.4782
  145TCq2    O5 2217   0.266   0.816   1.676 -0.0866  0.5173  0.1756
  145TCq2    O6 2218   0.456   0.729   1.759 -0.4717  0.3231  0.3164
  145TCq2    H2 2219   0.295   1.046   1.613 -0.1611  1.8251 -0.3111
  145TCq2    H3 2220   0.658   0.862   1.756 -1.0050  0.1551  2.3855
  145TCq2    H4 2221   0.654   1.264   1.591 -0.9727  0.5063  0.1079
  146TMC2    C1 2222   3.224   4.138  11.978 -0.3694 -0.2296  0.1248
  146TMC2    C2 2223   3.221   4.223  11.866  0.0618  0.8617 -0.0275
  146TMC2    C3 2224   3.318   4.196  11.773 -0.7636  0.1243  0.3206
  146TMC2    C4 2225   3.310   4.032  11.995  0.1108 -0.0180  0.2384
  146TMC2    C5 2226   3.409   4.021  11.897 -0.5998  0.2195 -0.9008
  146TMC2    C6 2227   3.413   4.100  11.783  0.7414  0.5213  0.2774
  146TMC2     C 2228   3.118   4.136  12.077 -0.2057  0.2446 -0.3923
  146TMC2     O 2229   3.013   4.189  12.032 -0.2522 -0.7199  0.1260
  146TMC2     H 2230   3.146   4.301  11.861  0.0923  0.8466 -0.7649
  146TMC2    H1 2231   3.307   3.974  12.086 -2.4051 -0.5251 -0.1622
  146TMC2    H2 2232   3.489   4.079  11.709  1.3042 -0.4557  1.1358
  146TMC2    C7 2233   3.501   3.909  11.894  0.3826 -0.3015  0.0576
  146TMC2    C8 2234   3.338   4.313  11.687  0.3949 -0.9093 -0.2949
  146TMC2    O1 2235   3.535   3.866  11.785  0.5501  0.0390  0.1282
  146TMC2    O2 2236   3.274   4.415  11.695 -0.2193  0.6290 -0.0162
  146TMC2    O5 2237   3.454   4.305  11.618 -0.2650 -0.1199 -0.4059
  146TMC2    H5 2238   3.494   4.216  11.608 -0.5126 -0.2652 -0.0768
  147MPD2     C 2239   3.711   3.497  12.101  0.1620  0.3068  0.4016
  147MPD2    C1 2240   3.683   3.585  12.205  0.1319  0.2214 -0.0137
  147MPD2    C2 2241   3.630   3.708  12.175  0.3456  0.4510  0.9256
  147MPD2    C3 2242   3.601   3.740  12.041  0.3511 -0.3233 -0.0696
  147MPD2    C4 2243   3.619   3.642  11.943 -0.0565 -0.0274  0.8984
  147MPD2    C5 2244   3.676   3.521  11.973 -0.0854 -0.2962 -0.0203
  147MPD2     H 2245   3.615   3.791  12.242 -1.8090 -0.5322  1.6524
  147MPD2    H1 2246   3.583   3.650  11.841 -0.3527  1.0336  1.0808
  147MPD2    H2 2247   3.749   3.398  12.121  0.9760  0.1951 -1.7387
  147MPD2    H3 2248   3.678   3.444  11.898 -1.1832 -2.4168  2.1070
  147MPD2     N 2249   3.532   3.856  12.018  0.2687  0.0596  0.0190
  147MPD2    H5 2250   3.487   3.907  12.093 -0.9873  1.6255 -1.7877
  147MPD2    N1 2251   3.742   3.565  12.331 -0.8640  0.6693 -0.2652
  147MPD2    H7 2252   3.828   3.514  12.344 -1.1973  0.1455 -0.0952
  148MPD2     C 2253   2.866   2.893  10.628 -0.2351  0.2298 -0.2891
  148MPD2    C1 2254   2.938   2.775  10.609 -0.1066  0.4130 -0.4609
  148MPD2    C2 2255   2.938   2.707  10.491  0.6411 -0.7840 -0.2024
  148MPD2    C3 2256   2.866   2.747  10.378  0.4700 -0.7462 -0.7796
  148MPD2    C4 2257   2.805   2.867  10.390 -0.2216  1.0113  0.5717
  148MPD2    C5 2258   2.801   2.934  10.510 -0.9031  0.1780 -0.1632
  148MPD2     H 2259   2.999   2.617  10.492 -0.6104 -1.5949  2.7659
  148MPD2    H1 2260   2.752   2.913  10.307  1.0835  2.5965  0.6117
  148MPD2    H2 2261   2.872   2.952  10.718 -0.6458  0.2432 -0.2678
  148MPD2    H3 2262   2.760   3.035  10.503  1.7295  1.4016  1.9036
  148MPD2     N 2263   2.884   2.688  10.245 -0.3569 -0.3498  0.0739
  148MPD2    H5 2264   2.848   2.733  10.162 -1.7456 -3.2904 -0.9198
  148MPD2    N1 2265   3.016   2.733  10.715 -0.1201 -0.3228 -0.1476
  148MPD2    H7 2266   3.040   2.799  10.788  0.0837  0.4520 -0.9126
  149TCq2    C1 2267   3.057   2.607  10.732  1.0470  0.2417 -0.0906
  149TCq2    O2 2268   2.999   2.506  10.695 -0.8303 -0.1304 -1.1470
  149TCq2    C2 2269   3.161   2.588  10.830  0.7306  0.0665 -0.0159
  149TCq2    C3 2270   3.259   2.683  10.812  0.4750  0.2894  0.0039
  149TCq2    C4 2271   3.386   2.625  10.823  0.1453  0.5257  0.1022
  149TCq2    C5 2272   3.420   2.494  10.843  0.0213  1.0238 -0.9443
  149TCq2    C6 2273   3.316   2.415  10.874 -0.6553  0.7354 -0.2818
  149TCq2    C7 2274   3.184   2.457  10.868  0.2394 -0.4673 -0.0620
  149TCq2    C8 2275   3.352   2.275  10.895 -0.4435 -0.7171  0.0505
  149TCq2    O4 2276   3.447   2.222  10.832  0.4649 -0.0256  0.5529
  149TCq2    C9 2277   3.494   2.707  10.766 -0.1191 -0.2943  0.2640
  149TCq2    O5 2278   3.481   2.828  10.788 -0.4329  0.2917  0.5670
  149TCq2    O6 2279   3.591   2.657  10.704  0.7380 -0.4812  0.1879
  149TCq2    H2 2280   3.242   2.788  10.794  0.0179 -0.0265 -1.4126
  149TCq2    H3 2281   3.520   2.457  10.822  0.0001 -0.7911  2.0568
  149TCq2    H4 2282   3.103   2.386  10.864  1.2360 -1.6362  0.3517
  150MPD2     C 2283   4.504   1.991  12.386 -0.1264  0.0354 -0.4212
  150MPD2    C1 2284   4.501   2.099  12.296  0.0909 -0.3641  0.0666
  150MPD2    C2 2285   4.614   2.186  12.301 -0.4042 -0.1700 -0.2918
  150MPD2    C3 2286   4.710   2.167  12.398 -0.3332 -0.0462  0.1162
  150MPD2    C4 2287   4.707   2.070  12.494  0.7241 -0.3122  0.4456
  150MPD2    C5 2288   4.600   1.980  12.477 -0.1362 -0.8601  0.4040
  150MPD2     H 2289   4.632   2.267  12.231  0.8866 -0.5107 -0.3631
  150MPD2    H1 2290   0.063   2.051  12.566  2.3017 -0.7432 -1.3883
  150MPD2    H2 2291   4.428   1.915  12.396 -0.3958  0.6622  2.1444
  150MPD2    H3 2292   4.585   1.897  12.545 -2.3073 -0.8097 -0.0166
  150MPD2     N 2293   0.103   2.254  12.397 -0.6695 -0.5855 -0.3590
  150MPD2    H5 2294   0.100   2.330  12.329 -1.9263 -0.4103 -0.1127
  150MPD2    N1 2295   4.395   2.098  12.199 -0.1606  0.2089  0.0312
  150MPD2    H7 2296   4.331   2.019  12.194  0.0639 -0.0128  0.7386
  151TCq2    C1 2297   0.221   2.236  12.464  0.1172  0.0695 -0.3201
  151TCq2    O2 2298   0.272   2.142  12.515  0.0768 -0.1149 -0.1187
  151TCq2    C2 2299   0.301   2.363  12.462  0.3911  0.1715  0.4190
  151TCq2    C3 2300   0.239   2.482  12.434 -0.1728 -0.6312 -0.3812
  151TCq2    C4 2301   0.314   2.595  12.430  0.6588  0.1659  0.7832
  151TCq2    C5 2302   0.449   2.605  12.457 -0.2332 -0.2414 -0.1451
  151TCq2    C6 2303   0.504   2.478  12.498  0.2592 -0.5313 -0.6394
  151TCq2    C7 2304   0.432   2.362  12.505  0.6845  0.2681  0.2472
  151TCq2    C8 2305   0.631   2.494  12.558  0.4934 -0.3056 -0.3262
  151TCq2    O4 2306   0.701   2.596  12.526 -0.1371 -0.4411  0.1918
  151TCq2    C9 2307   0.239   2.720  12.407 -0.7854 -0.2572  0.4637
  151TCq2    O5 2308   0.122   2.712  12.366  0.0059  0.5270 -0.0010
  151TCq2    O6 2309   0.302   2.832  12.416 -0.6430  0.2421 -0.0833
  151TCq2    H2 2310   0.132   2.483  12.419  0.1178 -1.3176 -2.5700
  151TCq2    H3 2311   0.496   2.703  12.452  0.3325 -0.4203  1.4877
  151TCq2    H4 2312   0.480   2.268  12.530 -0.8966 -0.4839  0.4494
  152MPD2     C 2313   4.335   1.820  13.137 -0.2893 -0.0422  0.5944
  152MPD2    C1 2314   4.358   1.886  13.014 -0.1115 -0.6259 -0.1103
  152MPD2    C2 2315   4.252   1.888  12.920  0.0163 -0.2429  0.1973
  152MPD2    C3 2316   4.131   1.832  12.950  0.7496  0.2584  0.2473
  152MPD2    C4 2317   4.104   1.786  13.078  0.3008  0.2707 -0.0663
  152MPD2    C5 2318   4.208   1.774  13.166 -0.0755 -0.4755  0.0749
  152MPD2     H 2319   4.271   1.915  12.816 -0.9861  0.7324  0.2630
  152MPD2    H1 2320   4.015   1.731  13.105  0.6964 -1.1148 -1.5513
  152MPD2    H2 2321   4.413   1.814  13.211 -0.6427  0.5721  1.0102
  152MPD2    H3 2322   4.201   1.718  13.259  1.6760 -1.0675 -0.1325
  152MPD2     N 2323   4.032   1.820  12.841 -0.6425  0.0770 -0.2187
  152MPD2    H5 2324   4.055   1.873  12.757  1.1732 -0.2944  0.0334
  152MPD2    N1 2325   4.485   1.932  12.992  0.5627 -0.9015  0.0348
  152MPD2    H7 2326   4.556   1.879  13.041  1.6126  0.3585 -0.1200
  153TCq2    C1 2327   4.515   2.037  12.904  0.7480  0.2487  0.1902
  153TCq2    O2 2328   4.442   2.114  12.850 -0.3147 -0.1226 -0.2582
  153TCq2    C2 2329   4.657   2.067  12.900  0.3803  0.0884 -0.6525
  153TCq2    C3 2330   0.024   1.959  12.879  0.1173  0.1706 -0.0454
  153TCq2    C4 2331   0.154   1.995  12.837  0.2853  0.4715  0.8043
  153TCq2    C5 2332   0.184   2.123  12.812  0.2678  0.2343  0.3134
  153TCq2    C6 2333   0.097   2.229  12.834  0.1003 -0.0266 -0.2140
  153TCq2    C7 2334   4.691   2.199  12.873 -0.2379  0.4642 -0.2427
  153TCq2    C8 2335   0.155   2.365  12.833 -0.2540 -0.2294 -0.0303
  153TCq2    O4 2336   0.098   2.463  12.793  0.1842 -0.7445  0.6205
  153TCq2    C9 2337   0.244   1.886  12.802  0.4539 -0.0766  0.3187
  153TCq2    O5 2338   0.201   1.773  12.840 -0.2131 -0.3989  0.8230
  153TCq2    O6 2339   0.353   1.915  12.746  0.0991 -0.2360  0.0814
  153TCq2    H2 2340   4.718   1.857  12.902 -0.1844  0.2864  0.1080
  153TCq2    H3 2341   0.277   2.153  12.765  0.6832 -1.7571 -0.1383
  153TCq2    H4 2342   4.613   2.274  12.872 -0.4128  0.2945  0.6232
  154MPD2     C 2343   1.537   3.797   0.957 -0.3154  0.0538  0.0532
  154MPD2    C1 2344   1.575   3.761   0.821  0.3020 -0.3053  0.2605
  154MPD2    C2 2345   1.501   3.659   0.762 -0.4827 -0.3743 -0.5387
  154MPD2    C3 2346   1.392   3.611   0.831 -0.1894 -0.9308 -0.2029
  154MPD2    C4 2347   1.359   3.655   0.959 -0.1106  0.3576 -0.0463
  154MPD2    C5 2348   1.427   3.753   1.020  0.8127 -0.1341 -0.0065
  154MPD2     H 2349   1.530   3.610   0.670  1.2856 -1.3647  0.5358
  154MPD2    H1 2350   1.278   3.614   1.018 -0.4871  3.3603  1.5396
  154MPD2    H2 2351   1.590   3.876   1.009 -0.9068  1.9951 -2.2859
  154MPD2    H3 2352   1.399   3.770   1.123 -0.4997 -2.0115 -0.0360
  154MPD2     N 2353   1.313   3.507   0.773  0.2441 -0.3857 -0.0488
  154MPD2    H5 2354   1.225   3.479   0.815 -1.9035  3.3963 -2.0639
  154MPD2    N1 2355   1.685   3.824   0.762 -0.0835  0.6398  0.7353
  154MPD2    H7 2356   1.731   3.891   0.823  0.3681  2.5409 -1.6933
  155TCq2    C1 2357   1.737   3.790   0.644  1.0012 -0.1522  0.0059
  155TCq2    O2 2358   1.712   3.697   0.566 -0.1713  0.2396  0.1439
  155TCq2    C2 2359   1.862   3.856   0.615 -0.3731 -0.3706 -0.0980
  155TCq2    C3 2360   1.957   3.788   0.539  0.0637  0.2609  0.4490
  155TCq2    C4 2361   2.064   3.847   0.496 -0.3556 -0.2838 -0.2309
  155TCq2    C5 2362   2.089   3.978   0.524  0.7108  0.6929  1.1504
  155TCq2    C6 2363   1.996   4.045   0.596 -0.0414  0.5243 -0.2992
  155TCq2    C7 2364   1.879   3.988   0.634  0.2989 -0.1432  0.8037
  155TCq2    C8 2365   2.020   4.189   0.608 -0.3523  1.0591 -1.0216
  155TCq2    O4 2366   2.134   4.228   0.612 -0.6943 -0.6532  0.1036
  155TCq2    C9 2367   2.144   3.776   0.404 -0.3772  0.3834 -0.7784
  155TCq2    O5 2368   2.230   3.837   0.344  0.0910  0.0995  0.2410
  155TCq2    O6 2369   2.137   3.651   0.404  0.0977 -0.1930  0.8080
  155TCq2    H2 2370   1.948   3.681   0.520 -1.5114  0.4646 -0.0172
  155TCq2    H3 2371   2.180   4.018   0.483  0.3450  0.6988  0.3428
  155TCq2    H4 2372   1.802   4.043   0.688  1.5043 -0.8870  3.2746
  156MPD2     C 2373   0.574   4.149  11.627  0.7378 -0.7944  0.6307
  156MPD2    C1 2374   0.478   4.246  11.597 -0.5313 -0.7016  0.1053
  156MPD2    C2 2375   0.438   4.340  11.690 -0.0151  0.2627 -0.0408
  156MPD2    C3 2376   0.476   4.325  11.821  0.4938 -0.7739  1.1792
  156MPD2    C4 2377   0.562   4.219  11.856 -0.2724 -0.4512  0.8497
  156MPD2    C5 2378   0.613   4.132  11.759  0.3560  0.9701 -0.3887
  156MPD2     H 2379   0.380   4.427  11.660 -0.1247  0.8275  1.7886
  156MPD2    H1 2380   0.607   4.207  11.954  0.1374 -0.1265  0.7031
  156MPD2    H2 2381   0.610   4.083  11.549  0.6827  0.1043 -0.1637
  156MPD2    H3 2382   0.680   4.051  11.785 -0.3266  1.0582  1.6569
  156MPD2     N 2383   0.445   4.430  11.906 -0.1187 -0.4025 -0.0809
  156MPD2    H5 2384   0.396   4.510  11.866  0.6351 -1.2700 -2.7292
  156MPD2    N1 2385   0.433   4.248  11.460  0.0139 -0.2341 -0.2871
  156MPD2    H7 2386   0.499   4.215  11.390 -0.7932  0.4838 -1.3855
  157TCq2    C1 2387   0.317   4.308  11.423  0.1784 -0.0080  0.0533
  157TCq2    O2 2388   0.223   4.329  11.497 -0.2365 -0.1131 -0.1467
  157TCq2    C2 2389   0.310   4.348  11.288 -0.1974 -0.0052  0.5935
  157TCq2    C3 2390   0.394   4.297  11.190 -0.9036  0.2054 -0.0287
  157TCq2    C4 2391   0.376   4.343  11.062  0.9772 -1.2108 -0.4733
  157TCq2    C5 2392   0.278   4.432  11.032 -0.5018 -0.4253 -0.0553
  157TCq2    C6 2393   0.186   4.460  11.129  0.1344  0.1446 -0.5617
  157TCq2    C7 2394   0.203   4.422  11.259  0.3762 -0.3509  0.7710
  157TCq2    C8 2395   0.065   4.525  11.085  0.6615 -1.0667 -0.6628
  157TCq2    O4 2396   0.072   4.610  10.994  0.2064 -0.3964  0.4051
  157TCq2    C9 2397   0.453   4.275  10.957  0.0601 -0.0230  0.4131
  157TCq2    O5 2398   0.424   4.301  10.840  0.8589  0.2114  0.3887
  157TCq2    O6 2399   0.539   4.187  10.989 -0.9295 -0.2181 -0.1266
  157TCq2    H2 2400   0.482   4.238  11.212  0.3397  2.2926  0.5952
  157TCq2    H3 2401   0.264   4.455  10.927  0.6271 -1.1362 -0.3576
  157TCq2    H4 2402   0.138   4.466  11.333  0.7058  1.1062  0.1955
  158TMC2    C1 2403   0.347   3.350  13.356  0.0400 -0.0194 -0.2517
  158TMC2    C2 2404   0.378   3.437  13.253  0.3665 -0.1713  0.1104
  158TMC2    C3 2405   0.279   3.507  13.198 -0.3253 -0.1780 -0.0708
  158TMC2    C4 2406   0.213   3.339  13.404 -0.5676  0.0226 -0.1015
  158TMC2    C5 2407   0.114   3.404  13.331  0.0808  0.3254 -0.0081
  158TMC2    C6 2408   0.147   3.487  13.232 -0.0043  0.4943 -0.2083
  158TMC2     C 2409   0.450   3.309  13.444 -0.3606  0.4348  0.3463
  158TMC2     O 2410   0.562   3.305  13.395 -0.2345 -0.6336 -0.2651
  158TMC2     H 2411   0.481   3.439  13.218 -0.5938  0.0751 -2.7338
  158TMC2    H1 2412   0.194   3.250  13.462  0.9149  0.4698  1.0607
  158TMC2    H2 2413   0.065   3.530  13.177  0.3865  0.7068 -0.6228
  158TMC2    C7 2414   4.699   3.344  13.331  0.0204  0.0081 -0.6793
  158TMC2    C8 2415   0.290   3.532  13.057  0.4558  0.1441  0.7019
  158TMC2    O1 2416   4.636   3.373  13.229 -0.2482 -0.8095  0.3311
  158TMC2    O2 2417   0.245   3.630  12.999  0.7313 -0.6413  0.5225
  158TMC2    O5 2418   0.284   3.418  12.992  0.1116 -0.3773 -0.1288
  158TMC2    H5 2419   0.306   3.343  13.050  0.0647 -1.9232 -2.1007
  159MPD2     C 2420   0.632   3.173  13.897 -0.3615  0.2011 -0.0490
  159MPD2    C1 2421   0.501   3.208  13.914  0.1094 -0.0763 -0.1536
  159MPD2    C2 2422   0.429   3.246  13.800  0.3710 -0.0235 -0.3597
  159MPD2    C3 2423   0.489   3.250  13.678 -0.5940  0.3008  0.4424
  159MPD2    C4 2424   0.631   3.226  13.673  0.2120  0.3604 -0.1442
  159MPD2    C5 2425   0.702   3.182  13.784  0.4340 -0.2212 -0.9011
  159MPD2     H 2426   0.327   3.280  13.812  0.9285  2.2653 -2.0695
  159MPD2    H1 2427   0.680   3.247  13.578 -0.5229 -0.6271 -0.7389
  159MPD2    H2 2428   0.677   3.136  13.989  1.2229  1.6883 -0.2366
  159MPD2    H3 2429   0.795   3.130  13.767  1.4724  1.3637 -0.0899
  159MPD2     N 2430   0.407   3.304  13.575 -0.0867  0.2755  0.0073
  159MPD2    H5 2431   0.306   3.313  13.585  0.0314  1.3394  0.2347
  159MPD2    N1 2432   0.446   3.204  14.042 -0.3393 -0.1500  0.2265
  159MPD2    H7 2433   0.497   3.170  14.124  2.4064 -0.1012 -1.4658
  160TMC2    C1 2434   0.254   1.610   2.016 -0.7190  0.3206 -0.2901
  160TMC2    C2 2435   0.311   1.496   2.071  0.0983  0.5704  0.0444
  160TMC2    C3 2436   0.409   1.521   2.161  0.2567  0.3334  0.9495
  160TMC2    C4 2437   0.299   1.735   2.035  0.7164  0.3226  0.1808
  160TMC2    C5 2438   0.414   1.747   2.111  0.5241  0.3152 -0.1827
  160TMC2    C6 2439   0.462   1.645   2.185 -0.0540  0.1701  0.0935
  160TMC2     C 2440   0.121   1.596   1.968 -0.7112  0.5803  0.1016
  160TMC2     O 2441   0.056   1.511   2.022 -0.1240  0.5362  0.6686
  160TMC2     H 2442   0.259   1.401   2.063  3.4592 -1.4108  1.7035
  160TMC2    H1 2443   0.228   1.809   1.999 -1.2458 -0.4875  2.3925
  160TMC2    H2 2444   0.538   1.647   2.261  0.6936 -0.3047 -0.6444
  160TMC2    C7 2445   0.489   1.870   2.117 -0.0512 -0.6990  0.2054
  160TMC2    C8 2446   0.442   1.428   2.267  0.2945 -0.9804  0.0503
  160TMC2    O1 2447   0.548   1.903   2.218 -0.2421  0.0014 -0.7286
  160TMC2    O2 2448   0.355   1.371   2.326 -0.4085  0.2370 -0.0347
  160TMC2    O5 2449   0.574   1.415   2.289  0.2408 -0.5863  0.5372
  160TMC2    H5 2450   0.624   1.461   2.217  0.3903 -2.4629 -0.5646
  161MPD2     C 2451   4.628   1.532   1.780 -0.8508  0.1060  0.1671
  161MPD2    C1 2452   4.706   1.648   1.768  0.0910  0.4687  0.0749
  161MPD2    C2 2453   4.669   1.737   1.674  0.6607 -0.9333 -0.6544
  161MPD2    C3 2454   4.552   1.723   1.595  0.6002 -0.1213 -0.0192
  161MPD2    C4 2455   4.476   1.610   1.616 -0.3465  0.8180  0.4621
  161MPD2    C5 2456   4.518   1.518   1.705 -0.1681  0.9007  0.2700
  161MPD2     H 2457   0.021   1.815   1.657 -2.6297  1.5796 -3.3369
  161MPD2    H1 2458   4.401   1.586   1.543  1.5222  2.2301 -1.9194
  161MPD2    H2 2459   4.644   1.450   1.850  2.4441  1.7580  1.3875
  161MPD2    H3 2460   4.468   1.424   1.728 -0.0743  0.7522 -0.1421
  161MPD2     N 2461   4.513   1.807   1.487  0.0842 -0.6548 -0.1593
  161MPD2    H5 2462   4.428   1.771   1.446 -0.7688 -1.0115  1.9035
  161MPD2    N1 2463   0.095   1.668   1.854  0.2464  0.0312 -0.1006
  161MPD2    H7 2464   0.163   1.736   1.822  0.1202 -0.3283 -1.1519
  162TMC2    C1 2465   2.956   3.451   1.295 -0.9030  0.8855 -0.2764
  162TMC2    C2 2466   2.887   3.555   1.352 -0.3836 -0.6599  0.3602
  162TMC2    C3 2467   2.878   3.559   1.485  1.1057 -0.6831 -0.8905
  162TMC2    C4 2468   3.029   3.359   1.367 -0.0475  0.5089  0.6660
  162TMC2    C5 2469   3.023   3.376   1.504 -0.1235 -0.3578 -0.0175
  162TMC2    C6 2470   2.953   3.476   1.566 -0.4461 -0.5078  0.1124
  162TMC2     C 2471   2.975   3.456   1.148  0.0454 -0.6077  0.4674
  162TMC2     O 2472   2.988   3.350   1.088  0.2866 -0.6251  0.0815
  162TMC2     H 2473   2.817   3.615   1.296  0.8564  1.2075  0.8377
  162TMC2    H1 2474   3.095   3.283   1.327 -2.4837 -0.1330 -2.0599
  162TMC2    H2 2475   2.940   3.482   1.673  1.5872 -1.4153  0.4105
  162TMC2    C7 2476   3.092   3.288   1.599 -0.3968  0.6550  0.4403
  162TMC2    C8 2477   2.792   3.662   1.532 -0.0477 -0.0586  0.1733
  162TMC2    O1 2478   3.122   3.337   1.705 -0.5222  0.0870 -0.4101
  162TMC2    O2 2479   2.756   3.763   1.468  0.7061  0.6240  0.1603
  162TMC2    O5 2480   2.736   3.627   1.648 -0.2622 -0.1781 -0.1650
  162TMC2    H5 2481   2.764   3.535   1.669 -0.2495  0.1949  1.4029
  163MPD2     C 2482   2.886   3.680   0.695  0.6228  0.2479  0.5854
  163MPD2    C1 2483   2.934   3.551   0.723  0.5326 -1.2571 -0.0120
  163MPD2    C2 2484   2.954   3.508   0.856 -0.0945  0.1334 -0.6180
  163MPD2    C3 2485   2.933   3.603   0.953  0.0645 -0.5257 -0.7618
  163MPD2    C4 2486   2.883   3.731   0.926  0.2115  0.2041 -0.2222
  163MPD2    C5 2487   2.870   3.767   0.798  0.1643  0.1854  0.4885
  163MPD2     H 2488   3.008   3.416   0.873  0.4661  0.2445 -1.7378
  163MPD2    H1 2489   2.874   3.809   1.000  1.7246 -1.4884  1.7424
  163MPD2    H2 2490   2.879   3.711   0.591 -0.1060 -1.3988  0.1496
  163MPD2    H3 2491   2.831   3.866   0.778 -0.7247 -0.2366  0.1378
  163MPD2     N 2492   2.953   3.580   1.093  0.0341 -0.2572  0.1434
  163MPD2    H5 2493   2.932   3.656   1.157  0.4620  0.8212 -1.0122
  163MPD2    N1 2494   2.969   3.471   0.612 -0.4764 -0.3667  0.7293
  163MPD2    H7 2495   2.938   3.515   0.526  0.9331 -0.8892 -0.0506
  164TCq2    C1 2496   3.586   2.159  11.346 -0.4422  0.2619  1.2081
  164TCq2    O2 2497   3.530   2.141  11.455  0.0594 -0.6230 -0.0453
  164TCq2    C2 2498   3.595   2.297  11.299  0.6772  0.1984  0.3652
  164TCq2    C3 2499   3.677   2.335  11.191  0.3133  0.0028 -0.7690
  164TCq2    C4 2500   3.652   2.455  11.127  0.3408  0.5804 -0.0916
  164TCq2    C5 2501   3.556   2.540  11.173 -1.2941 -0.5880  0.6915
  164TCq2    C6 2502   3.489   2.513  11.287 -0.5851  0.1458 -0.6504
  164TCq2    C7 2503   3.505   2.392  11.344  0.0707  0.2779  0.5059
  164TCq2    C8 2504   3.373   2.594  11.318 -0.3058  0.5187 -0.5154
  164TCq2    O4 2505   3.327   2.655  11.227 -0.1436 -0.4877  0.4224
  164TCq2    C9 2506   3.736   2.483  11.016 -0.2035 -0.1387 -0.1818
  164TCq2    O5 2507   3.744   2.608  10.980 -0.0872 -0.3790  0.1660
  164TCq2    O6 2508   3.778   2.391  10.943  0.2253  0.1378  0.4831
  164TCq2    H2 2509   3.755   2.274  11.146  1.0945  0.1408  0.3783
  164TCq2    H3 2510   3.539   2.630  11.114  0.3407 -1.6506 -1.4184
  164TCq2    H4 2511   3.425   2.363  11.411 -0.9728  2.2395  0.1163
  165MPD2     C 2512   3.655   4.468   2.147  0.7985  0.0062  0.4953
  165MPD2    C1 2513   3.787   4.463   2.186 -0.0555 -0.7246  0.1941
  165MPD2    C2 2514   3.838   4.564   2.271 -0.3408 -0.2174  0.4449
  165MPD2    C3 2515   3.750   4.662   2.319  0.5855  0.7102 -0.0588
  165MPD2    C4 2516   3.623   4.670   2.269  0.6861  0.0565 -0.8968
  165MPD2    C5 2517   3.579   4.574   2.180 -0.0009  0.7956  0.0757
  165MPD2     H 2518   3.942   4.565   2.303  0.4165  0.5017 -2.0979
  165MPD2    H1 2519   3.554   0.026   2.300  0.6037 -0.2945 -0.2153
  165MPD2    H2 2520   3.614   4.385   2.090 -0.6413  0.4187  0.9438
  165MPD2    H3 2521   3.473   4.569   2.154 -0.2230  0.1127  1.1073
  165MPD2     N 2522   3.793   0.038   2.414  0.5409 -0.1685  0.3769
  165MPD2    H5 2523   3.722   0.093   2.462  0.0789 -0.6122  0.1993
  165MPD2    N1 2524   3.860   4.356   2.124 -0.5144 -0.1961 -0.2526
  165MPD2    H7 2525   3.809   4.288   2.068 -0.3047 -1.3746  0.9886
  166TCq2    C1 2526   3.921   0.064   2.464 -0.2685  0.1093 -0.4407
  166TCq2    O2 2527   4.028   0.012   2.443 -0.2630 -0.2465 -0.0231
  166TCq2    C2 2528   3.930   0.180   2.551 -0.0386 -0.2052  0.2715
  166TCq2    C3 2529   3.818   0.233   2.604 -0.6150  0.5522 -0.1727
  166TCq2    C4 2530   3.820   0.368   2.652  0.0119  0.2198 -0.0799
  166TCq2    C5 2531   3.931   0.441   2.636 -0.1226 -0.2037 -0.4280
  166TCq2    C6 2532   4.036   0.391   2.567 -0.0386 -0.2790 -0.5661
  166TCq2    C7 2533   4.040   0.261   2.533  0.1998 -0.8431  0.5235
  166TCq2    C8 2534   4.112   0.481   2.479 -0.2095 -0.0365 -0.4691
  166TCq2    O4 2535   4.208   0.430   2.423  0.1022  0.3999 -0.5706
  166TCq2    C9 2536   3.697   0.426   2.714 -0.0039 -0.3113  0.0180
  166TCq2    O5 2537   3.596   0.346   2.731 -0.1537 -0.0329 -0.1005
  166TCq2    O6 2538   3.690   0.550   2.715  0.3292  0.1781 -0.5813
  166TCq2    H2 2539   3.719   0.190   2.616  0.2096 -1.4102 -0.5544
  166TCq2    H3 2540   3.940   0.545   2.663 -1.3324  0.0924 -1.1412
  166TCq2    H4 2541   4.119   0.229   2.466 -0.4147 -0.5055 -0.3699
  167TMC2    C1 2542   2.577   2.567  13.238  0.2893 -0.2146 -0.0749
  167TMC2    C2 2543   2.509   2.583  13.358  0.1037  0.2862  0.1370
  167TMC2    C3 2544   2.471   2.473  13.426  0.2339 -0.3151 -0.3242
  167TMC2    C4 2545   2.599   2.444  13.186 -0.2277 -0.1428 -0.3695
  167TMC2    C5 2546   2.547   2.335  13.251 -0.2175 -0.1606  0.2262
  167TMC2    C6 2547   2.489   2.345  13.378 -0.1274  0.4475  0.0584
  167TMC2     C 2548   2.601   2.685  13.157  0.3301  0.5374  0.2833
  167TMC2     O 2549   2.623   2.793  13.214 -0.1872 -0.4962 -0.1203
  167TMC2     H 2550   2.467   2.678  13.389 -0.8089 -0.5230  1.3562
  167TMC2    H1 2551   2.650   2.435  13.091 -1.2935 -2.1046 -0.7461
  167TMC2    H2 2552   2.461   2.259  13.439  0.1121 -0.4056 -1.0263
  167TMC2    C7 2553   2.557   2.203  13.206 -0.1906 -0.0225  0.8044
  167TMC2    C8 2554   2.431   2.487  13.563 -0.1160  0.4848  0.9118
  167TMC2    O1 2555   2.475   2.118  13.250 -0.1817  0.6137 -0.0195
  167TMC2    O2 2556   2.350   2.410  13.618  0.8287  0.1850  0.1392
  167TMC2    O5 2557   2.500   2.590  13.625  0.7497 -0.5324 -0.0681
  167TMC2    H5 2558   2.589   2.611  13.587  2.2856 -0.7625  3.4299
  168MPD2     C 2559   2.688   2.870  12.944  0.6603  0.1986  0.9754
  168MPD2    C1 2560   2.653   2.743  12.923 -0.2773  0.8365 -0.2695
  168MPD2    C2 2561   2.655   2.691  12.794  0.1512 -0.6071 -0.0428
  168MPD2    C3 2562   2.707   2.762  12.687 -0.3974  0.6076  0.0302
  168MPD2    C4 2563   2.755   2.891  12.713  0.2692 -0.0736 -0.1941
  168MPD2    C5 2564   2.743   2.946  12.840  0.8300  0.0789 -0.2267
  168MPD2     H 2565   2.615   2.591  12.782  1.6967 -1.2185 -0.0675
  168MPD2    H1 2566   2.798   2.954  12.637 -1.0219 -0.1827 -0.9998
  168MPD2    H2 2567   2.676   2.925  13.036 -1.0199  1.0447  0.2486
  168MPD2    H3 2568   2.756   3.053  12.854 -2.0234  0.2429  1.1260
  168MPD2     N 2569   2.729   2.705  12.558  0.4243  0.4725 -0.3616
  168MPD2    H5 2570   2.773   2.751  12.479  1.8634  0.4382  0.4098
  168MPD2    N1 2571   2.604   2.659  13.024 -0.8324  0.0853 -0.1005
  168MPD2    H7 2572   2.565   2.568  13.002  0.0103 -0.7790  1.9811
  169MPD1     C 2573   1.204   1.427  10.406  0.0433 -0.2649 -0.5245
  169MPD1    C1 2574   1.270   1.496  10.310  0.2830 -0.2262  0.3132
  169MPD1    C2 2575   1.227   1.491  10.176 -0.3565 -0.6817  0.1433
  169MPD1    C3 2576   1.123   1.409  10.143 -0.5666 -0.0081  1.0842
  169MPD1    C4 2577   1.049   1.343  10.244 -0.0361  0.0433  1.0376
  169MPD1    C5 2578   1.088   1.354  10.376 -0.5917 -0.5906 -0.1100
  169MPD1     H 2579   1.277   1.541  10.095  2.7331 -3.2452  0.4581
  169MPD1    H1 2580   0.963   1.278  10.234  0.6244 -0.8008  0.8648
  169MPD1    H2 2581   1.242   1.418  10.508 -0.7155 -0.4345 -0.2554
  169MPD1    H3 2582   1.041   1.293  10.452  3.2338 -1.4884  1.5172
  169MPD1     N 2583   1.101   1.389  10.007 -0.2196 -0.0450  0.2670
  169MPD1    H5 2584   1.157   1.445   9.944 -1.0874 -2.0673 -2.3065
  169MPD1    N1 2585   1.377   1.583  10.350 -0.0496  0.1553  0.1527
  169MPD1    H6 2586   1.454   1.592  10.285 -0.1936 -0.0018 -0.0390
  169MPD1    H7 2587   1.412   1.540  10.436  0.0337 -1.0509 -0.4849
  170MPD1     C 2588   3.729   0.134  12.938 -0.1413 -0.2773 -0.3910
  170MPD1    C1 2589   3.642   0.238  12.967  0.1795 -0.2270  0.0583
  170MPD1    C2 2590   3.623   0.277  13.102 -0.2158 -0.2312 -0.3833
  170MPD1    C3 2591   3.675   0.212  13.208  0.2380 -0.0173 -0.1496
  170MPD1    C4 2592   3.764   0.104  13.172  0.0928  0.0461  0.6143
  170MPD1    C5 2593   3.781   0.062  13.040  0.5588 -0.5356  0.5904
  170MPD1     H 2594   3.565   0.365  13.127 -0.9802 -1.1591  1.0937
  170MPD1    H1 2595   3.808   0.047  13.254  0.8840 -0.4392 -0.1556
  170MPD1    H2 2596   3.745   0.096  12.838 -2.3749 -0.0995 -0.8192
  170MPD1    H3 2597   3.838   4.693  13.027 -0.2030 -0.9343  0.0184
  170MPD1     N 2598   3.652   0.266  13.338 -0.2717  0.6427  0.8447
  170MPD1    H5 2599   3.600   0.353  13.348 -1.8388 -0.0123 -1.4692
  170MPD1    N1 2600   3.561   0.281  12.855 -0.0451 -0.1244  0.1129
  170MPD1    H6 2601   3.518   0.369  12.881  0.4782  0.3352 -0.5678
  170MPD1    H7 2602   3.629   0.317  12.788  0.3232 -1.0865 -0.0359
  171MPD1     C 2603   1.976   1.736  15.751 -0.3225  0.4301 -0.3159
  171MPD1    C1 2604   1.923   1.621  15.687  0.3623  0.2715  0.0609
  171MPD1    C2 2605   1.945   1.502  15.745  0.1240  0.1896  0.0068
  171MPD1    C3 2606   2.041   1.481  15.841 -0.9034  0.2453 -0.2789
  171MPD1    C4 2607   2.086   1.594  15.904 -0.2183 -0.0794 -0.1730
  171MPD1    C5 2608   2.053   1.716  15.860  1.0204 -0.1405  0.2126
  171MPD1     H 2609   1.888   1.418  15.708  2.8553 -2.2667  1.4128
  171MPD1    H1 2610   2.151   1.583  15.991  0.0040  1.6844 -0.1223
  171MPD1    H2 2611   1.972   1.833  15.702  1.9474  0.9176  0.4522
  171MPD1    H3 2612   2.094   1.801  15.913  0.7356 -0.0426  0.2749
  171MPD1     N 2613   2.079   1.360  15.893  0.1408  0.4480  0.2864
  171MPD1    H5 2614   2.133   1.372  15.978 -0.0360  0.6317  0.3723
  171MPD1    N1 2615   1.828   1.633  15.584 -0.4634 -0.2600 -0.1273
  171MPD1    H6 2616   1.831   1.709  15.517  0.8862 -0.1197  0.0982
  171MPD1    H7 2617   1.818   1.550  15.525  0.2654 -1.4632  1.4227
  172MPD1     C 2618   0.524   0.180   0.651  0.1855 -0.3867  0.7612
  172MPD1    C1 2619   0.467   0.259   0.743  0.0219  0.2595 -0.7153
  172MPD1    C2 2620   0.545   0.345   0.819 -0.9639 -0.0832 -0.1566
  172MPD1    C3 2621   0.680   0.355   0.805 -0.0953  0.1146  0.2829
  172MPD1    C4 2622   0.744   0.268   0.718  1.0720  0.0210 -0.1094
  172MPD1    C5 2623   0.660   0.191   0.640  0.3339  0.3708  0.3988
  172MPD1     H 2624   0.496   0.414   0.887 -2.6127 -2.0987  0.6846
  172MPD1    H1 2625   0.851   0.269   0.702  0.9975 -1.7426 -0.7865
  172MPD1    H2 2626   0.468   0.119   0.581 -0.3010 -1.7128  2.3233
  172MPD1    H3 2627   0.703   0.121   0.569  0.6288  0.0737  0.8698
  172MPD1     N 2628   0.761   0.460   0.858 -0.0756  0.1194 -0.4105
  172MPD1    H5 2629   0.855   0.466   0.822  0.1262  2.6557  0.5876
  172MPD1    N1 2630   0.327   0.265   0.736  0.0805 -0.6296 -0.0465
  172MPD1    H6 2631   0.290   0.277   0.830 -2.9197  0.7442 -1.3659
  172MPD1    H7 2632   0.289   0.177   0.700 -0.1645  0.7222 -3.1150
  173MPD1     C 2633   2.791   0.938  13.946  0.7308  0.3134  0.1936
  173MPD1    C1 2634   2.692   0.888  14.026  0.3030 -0.4148  0.1644
  173MPD1    C2 2635   2.725   0.832  14.147  0.6643  0.2061  0.2748
  173MPD1    C3 2636   2.850   0.840  14.190  0.3732 -0.0178 -0.1261
  173MPD1    C4 2637   2.947   0.896  14.108 -0.0511  0.2000 -0.7255
  173MPD1    C5 2638   2.915   0.951  13.988 -0.0664  0.0016  0.0403
  173MPD1     H 2639   2.648   0.785  14.208  0.3690 -0.6801 -0.7876
  173MPD1    H1 2640   3.050   0.904  14.138 -0.2493  0.4920 -0.1177
  173MPD1    H2 2641   2.769   0.978  13.848  0.0490  0.0912  0.2569
  173MPD1    H3 2642   2.981   1.002  13.920  0.3775 -0.6750 -0.0302
  173MPD1     N 2643   2.881   0.812  14.323 -0.3611 -0.5275 -0.0221
  173MPD1    H5 2644   2.803   0.773  14.375 -0.4678 -0.1663  0.0909
  173MPD1    N1 2645   2.565   0.871  13.967 -1.3453  0.2824  0.2117
  173MPD1    H6 2646   2.532   0.937  13.898 -0.2983  1.5980  0.9686
  173MPD1    H7 2647   2.488   0.859  14.032 -1.9248  1.5273 -0.2566
  174MPD1     C 2648   3.692   0.379  14.746  0.3039 -0.4224  0.4479
  174MPD1    C1 2649   3.585   0.372  14.833  0.2925 -0.4645  0.1857
  174MPD1    C2 2650   3.464   0.410  14.786 -0.3773  0.3501 -0.3909
  174MPD1    C3 2651   3.444   0.478  14.666  0.0459 -0.4256  0.7298
  174MPD1    C4 2652   3.552   0.491  14.586 -0.4036 -0.0130  0.8461
  174MPD1    C5 2653   3.674   0.439  14.623 -0.1384  0.1833 -0.1872
  174MPD1     H 2654   3.376   0.408  14.850  1.5169 -0.3696  2.2019
  174MPD1    H1 2655   3.534   0.528  14.486 -0.9599  3.8880  2.3550
  174MPD1    H2 2656   3.792   0.342  14.764  0.3990 -0.7494 -0.7386
  174MPD1    H3 2657   3.756   0.442  14.552 -0.9561  0.1573 -1.1383
  174MPD1     N 2658   3.323   0.529  14.622 -0.1029  0.3620 -0.5107
  174MPD1    H5 2659   3.332   0.594  14.545  0.6235 -1.3391 -1.8585
  174MPD1    N1 2660   3.599   0.305  14.954 -1.0769  0.6287  0.1532
  174MPD1    H6 2661   3.548   0.354  15.027 -3.4070 -2.6447  0.7681
  174MPD1    H7 2662   3.696   0.295  14.981 -1.5472 -0.1724  1.5309
  175MPD1     C 2663   1.135   1.421  15.702  0.0154  0.6946 -0.8561
  175MPD1    C1 2664   1.201   1.322  15.770  0.9297  1.0492  0.4648
  175MPD1    C2 2665   1.169   1.305  15.904  0.4041  1.3045  0.0264
  175MPD1    C3 2666   1.092   1.392  15.975  0.1983  0.0556 -0.8105
  175MPD1    C4 2667   1.028   1.489  15.903  0.0485  0.2547 -0.4597
  175MPD1    C5 2668   1.047   1.500  15.771 -0.5342 -0.2937  0.0494
  175MPD1     H 2669   1.208   1.215  15.950 -0.8297  0.5979 -0.3241
  175MPD1    H1 2670   0.965   1.566  15.946 -0.8926 -0.7442 -0.0698
  175MPD1    H2 2671   1.139   1.433  15.595  0.5418  1.3067 -0.7688
  175MPD1    H3 2672   0.992   1.570  15.710  0.1689  1.2769  1.1947
  175MPD1     N 2673   1.060   1.374  16.110 -0.3142  0.8357  0.4234
  175MPD1    H5 2674   1.003   1.448  16.151  0.4392  0.7445  1.6650
  175MPD1    N1 2675   1.285   1.235  15.697  0.4537  0.6467  0.0738
  175MPD1    H6 2676   1.369   1.213  15.750  0.2893  0.3003  0.1893
  175MPD1    H7 2677   1.318   1.281  15.613  1.2649  0.0959  0.0994
  176MPD1     C 2678   2.484   2.950   0.089 -0.0153 -0.1472 -1.0125
  176MPD1    C1 2679   2.586   3.035   0.108 -0.2346 -0.2550  0.0502
  176MPD1    C2 2680   2.561   3.168   0.071 -0.2812  0.4084  1.1115
  176MPD1    C3 2681   2.448   3.205   0.006  0.2531  0.5491  0.3310
  176MPD1    C4 2682   2.352   3.116  17.659  0.0885  0.4164 -0.4633
  176MPD1    C5 2683   2.373   2.991   0.013  0.2302  0.1881 -0.0862
  176MPD1     H 2684   2.630   3.245   0.103  0.8916  0.3161 -1.2260
  176MPD1    H1 2685   2.261   3.136  17.606  1.5888  4.3578 -1.5022
  176MPD1    H2 2686   2.483   2.849   0.127  1.6984 -0.2579 -1.2428
  176MPD1    H3 2687   2.294   2.920  17.682 -0.5068  0.8294  0.5445
  176MPD1     N 2688   2.423   3.342  17.675  0.2521  0.0794 -0.3848
  176MPD1    H5 2689   2.487   3.404   0.034  1.2368 -0.0144 -1.5758
  176MPD1    N1 2690   2.705   2.995   0.170 -0.4322  0.2705 -0.3698
  176MPD1    H6 2691   2.776   3.047   0.118 -1.0088  1.0063 -0.4291
  176MPD1    H7 2692   2.719   2.895   0.162 -1.1418  0.0084  1.6428
  177MPD1     C 2693   1.638   2.899  10.700 -0.1408  0.2443 -0.3331
  177MPD1    C1 2694   1.700   3.015  10.661  0.0497  0.4447 -0.7988
  177MPD1    C2 2695   1.695   3.057  10.532  0.7597  0.0676  0.0831
  177MPD1    C3 2696   1.608   2.998  10.441 -0.0260 -0.2157 -0.4765
  177MPD1    C4 2697   1.534   2.887  10.485  0.0318  0.7347  0.1102
  177MPD1    C5 2698   1.555   2.836  10.606  0.6330 -0.1506 -0.3519
  177MPD1     H 2699   1.754   3.141  10.496  0.0005  0.8532  0.6744
  177MPD1    H1 2700   1.476   2.822  10.421  1.4295  0.3657 -0.7735
  177MPD1    H2 2701   1.629   2.859  10.800 -0.0497  1.0136 -0.0156
  177MPD1    H3 2702   1.511   2.741  10.634  1.1598 -0.4593 -0.5751
  177MPD1     N 2703   1.615   3.051  10.311  0.5380 -0.0166  0.4491
  177MPD1    H5 2704   1.685   3.122  10.292  3.0402 -1.9879  2.4365
  177MPD1    N1 2705   1.801   3.060  10.748 -0.4148 -0.8529  0.3533
  177MPD1    H6 2706   1.789   3.043  10.848 -0.1234  0.5895  0.6392
  177MPD1    H7 2707   1.808   3.161  10.734 -0.3859 -0.5660  2.4699
  178MPD1     C 2708   3.717   3.408   0.176 -0.2282 -0.0076  0.1221
  178MPD1    C1 2709   3.586   3.447   0.163 -0.1684  0.1905  0.4107
  178MPD1    C2 2710   3.559   3.538   0.066  0.3611 -0.1742 -0.2755
  178MPD1    C3 2711   3.652   3.570  17.661 -0.5462 -0.3165 -0.4873
  178MPD1    C4 2712   3.777   3.527  17.671  0.6729 -0.6734  0.1007
  178MPD1    C5 2713   3.810   3.445   0.084 -0.7819 -0.4970  0.3736
  178MPD1     H 2714   3.461   3.584   0.059  1.1360  1.2892 -1.5761
  178MPD1    H1 2715   3.853   3.545  17.596  0.0234 -1.1963 -0.6801
  178MPD1    H2 2716   3.747   3.342   0.256 -3.8569 -1.5502  0.2007
  178MPD1    H3 2717   3.915   3.417   0.087 -0.2155  1.3532 -1.7180
  178MPD1     N 2718   3.627   3.667  17.556 -0.2674  0.1298  0.0317
  178MPD1    H5 2719   3.700   3.672  17.485  1.1639 -1.2230  1.4109
  178MPD1    N1 2720   3.483   3.426   0.258 -0.1731 -0.2287 -0.1685
  178MPD1    H6 2721   3.495   3.351   0.326 -1.2847 -0.2721 -0.0078
  178MPD1    H7 2722   3.399   3.395   0.209  0.5737 -3.0059  0.2862
  179MPD1     C 2723   3.737   1.612  15.811  0.4132  0.0384 -0.5598
  179MPD1    C1 2724   3.607   1.577  15.795  0.1517 -0.0305  0.4037
  179MPD1    C2 2725   3.507   1.644  15.855  0.2206  0.2579 -0.3165
  179MPD1    C3 2726   3.543   1.735  15.955 -0.4426 -0.5535  0.2126
  179MPD1    C4 2727   3.673   1.760  15.994  0.2198  0.2407  0.2978
  179MPD1    C5 2728   3.765   1.693  15.921 -0.1389 -0.8750  0.0393
  179MPD1     H 2729   3.408   1.618  15.820  0.0546  2.5412 -1.5448
  179MPD1    H1 2730   3.706   1.829  16.071 -2.1006 -0.5365  1.9920
  179MPD1    H2 2731   3.817   1.570  15.751  0.9185 -0.1216  0.2241
  179MPD1    H3 2732   3.870   1.707  15.941 -0.8572  2.2012  1.6243
  179MPD1     N 2733   3.445   1.812  16.010  0.0869  0.7444  0.1764
  179MPD1    H5 2734   3.466   1.863  16.095  1.0528 -0.7308  0.8361
  179MPD1    N1 2735   3.576   1.498  15.678  1.1963 -0.2348 -0.0961
  179MPD1    H6 2736   3.638   1.418  15.670 -1.7122 -2.6450  1.1255
  179MPD1    H7 2737   3.479   1.465  15.676  1.5273 -1.2148 -0.0523
  180MPD1     C 2738   2.485   3.570  13.984 -0.2876 -0.9641 -0.3689
  180MPD1    C1 2739   2.462   3.635  13.864 -0.5928 -0.1843  0.5808
  180MPD1    C2 2740   2.534   3.751  13.843  0.2887 -0.2406 -1.1987
  180MPD1    C3 2741   2.597   3.819  13.952 -0.8541 -0.0794 -0.1714
  180MPD1    C4 2742   2.603   3.761  14.082 -0.2811  0.2849  0.6300
  180MPD1    C5 2743   2.547   3.636  14.090 -0.7242 -0.8404  0.1373
  180MPD1     H 2744   2.527   3.798  13.746  1.0674 -1.5894 -1.9122
  180MPD1    H1 2745   2.626   3.806  14.178  1.2451 -1.1304  0.9310
  180MPD1    H2 2746   2.439   3.473  14.002  0.3485 -1.0994  0.5763
  180MPD1    H3 2747   2.559   3.584  14.184  0.1603 -1.9676 -0.5987
  180MPD1     N 2748   2.641   3.953  13.926  0.3460  0.2501  0.2530
  180MPD1    H5 2749   2.619   3.995  13.837 -1.3695  0.5867  0.8379
  180MPD1    N1 2750   2.409   3.563  13.754  0.0304  0.0581  0.3797
  180MPD1    H6 2751   2.336   3.496  13.780 -3.5300  2.8680 -2.3657
  180MPD1    H7 2752   2.377   3.621  13.677 -1.2765  0.0873  0.9438
  181MPD1     C 2753   0.248   0.459   9.697  0.4944 -0.0574 -0.0112
  181MPD1    C1 2754   0.331   0.383   9.779  0.1388 -0.5590 -0.5337
  181MPD1    C2 2755   0.469   0.423   9.787  0.3820  0.5127  0.6236
  181MPD1    C3 2756   0.513   0.544   9.734  0.4632 -0.1046 -0.6142
  181MPD1    C4 2757   0.426   0.621   9.659 -0.4484  0.0015  0.3022
  181MPD1    C5 2758   0.292   0.580   9.640  0.6275 -0.0408  0.0718
  181MPD1     H 2759   0.544   0.363   9.838  1.8955  2.9981  1.2823
  181MPD1    H1 2760   0.465   0.717   9.625  1.8361 -0.5704  1.2610
  181MPD1    H2 2761   0.153   0.415   9.668  2.7355 -4.1052 -1.0588
  181MPD1    H3 2762   0.237   0.637   9.566  2.8487  0.2292 -1.3543
  181MPD1     N 2763   0.640   0.604   9.745 -0.4292 -0.4636  0.1855
  181MPD1    H5 2764   0.654   0.684   9.685 -1.1998 -1.1081 -0.8629
  181MPD1    N1 2765   0.298   0.250   9.800 -0.6030  0.9066  0.3744
  181MPD1    H6 2766   0.201   0.250   9.829 -0.5976  0.5249  0.3884
  181MPD1    H7 2767   0.349   0.217   9.882  0.9617 -0.6140 -1.1965
  182MPD1     C 2768   0.673   4.494   2.232 -0.6125 -0.4920  0.7673
  182MPD1    C1 2769   0.724   4.534   2.110 -0.2920  0.2051  0.1581
  182MPD1    C2 2770   0.646   4.611   2.018  0.2112  0.3019  0.0437
  182MPD1    C3 2771   0.510   4.633   2.055 -0.2891  0.5354  0.5606
  182MPD1    C4 2772   0.459   4.591   2.177  0.2102  0.1235 -0.7633
  182MPD1    C5 2773   0.545   4.524   2.266  0.0262  0.7537 -0.0658
  182MPD1     H 2774   0.685   4.663   1.932 -0.2478 -2.5741 -1.9086
  182MPD1    H1 2775   0.357   4.606   2.208  0.1927 -0.9593 -0.3069
  182MPD1    H2 2776   0.737   4.443   2.304  0.7699  3.4572  2.3101
  182MPD1    H3 2777   0.508   4.477   2.356 -2.4427  1.2266 -0.8430
  182MPD1     N 2778   0.417   4.701   1.974 -0.1791  0.3670 -0.3963
  182MPD1    H5 2779   0.325   0.001   2.011  0.1823 -0.3647  0.9422
  182MPD1    N1 2780   0.853   4.513   2.071 -0.3878  0.1919  0.3604
  182MPD1    H6 2781   0.902   4.455   2.139  0.5196  0.4549 -0.0606
  182MPD1    H7 2782   0.866   4.470   1.979 -1.5002  1.1894 -0.2699
  183MPD1     C 2783   1.039   4.247   9.185 -0.6831  0.3422  0.5654
  183MPD1    C1 2784   0.992   4.370   9.162  0.4253 -0.4728  0.4440
  183MPD1    C2 2785   1.067   4.483   9.206 -0.5699  0.2428 -0.1316
  183MPD1    C3 2786   1.175   4.462   9.287 -0.0223 -0.1355  0.4543
  183MPD1    C4 2787   1.219   4.330   9.325  0.4085 -0.2000 -0.0469
  183MPD1    C5 2788   1.149   4.226   9.269  0.1174 -0.3092 -0.8469
  183MPD1     H 2789   1.038   4.586   9.191 -0.5224  0.1205 -1.0665
  183MPD1    H1 2790   1.300   4.310   9.393 -0.2080 -0.3388  0.6383
  183MPD1    H2 2791   0.992   4.165   9.132 -0.9566  0.1243  1.1456
  183MPD1    H3 2792   1.182   4.125   9.289  1.4707  0.2601 -0.2551
  183MPD1     N 2793   1.254   4.574   9.322 -0.9716 -0.0992 -0.0923
  183MPD1    H5 2794   1.233   4.660   9.272  0.6925 -1.2933 -2.7895
  183MPD1    N1 2795   0.895   4.395   9.062  0.2178 -0.0703 -0.3649
  183MPD1    H6 2796   0.859   4.490   9.078 -0.5220 -0.3985 -0.0805
  183MPD1    H7 2797   0.824   4.326   9.085  1.4471 -1.0002  0.6440
  184MPD1     C 2798   1.288   2.022  10.943  0.1797  0.0570 -0.2024
  184MPD1    C1 2799   1.163   1.962  10.941  0.5047  0.3879  0.5373
  184MPD1    C2 2800   1.087   1.975  10.833  0.7741  0.1003 -0.3807
  184MPD1    C3 2801   1.121   2.063  10.728  1.0622 -0.4016 -0.0454
  184MPD1    C4 2802   1.240   2.128  10.737 -0.7612 -0.0590  0.4662
  184MPD1    C5 2803   1.326   2.109  10.841  0.2518  0.3494 -0.0684
  184MPD1     H 2804   0.985   1.938  10.841  0.9438 -0.2660  0.0595
  184MPD1    H1 2805   1.277   2.185  10.653  0.6781 -0.6935  0.6675
  184MPD1    H2 2806   1.361   2.009  11.022  0.2448  1.9427  0.0544
  184MPD1    H3 2807   1.423   2.156  10.851  0.7471 -0.5633 -0.5870
  184MPD1     N 2808   1.044   2.087  10.613  0.4641  0.3786  0.3321
  184MPD1    H5 2809   1.076   2.154  10.544  0.0478 -0.7994 -0.9868
  184MPD1    N1 2810   1.119   1.903  11.057 -0.3401  0.3451 -0.7355
  184MPD1    H6 2811   1.054   1.825  11.048  1.6754 -1.4117 -0.0713
  184MPD1    H7 2812   1.194   1.864  11.113  1.7920  2.0827 -2.3971
  185MPD1     C 2813   0.329   1.635  10.047 -0.2232 -0.1547  0.1121
  185MPD1    C1 2814   0.327   1.769   9.996  0.1039 -0.8393  0.0041
  185MPD1    C2 2815   0.404   1.865  10.069 -0.4257  0.0846  0.0161
  185MPD1    C3 2816   0.482   1.827  10.181 -0.0931  1.1110 -0.0183
  185MPD1    C4 2817   0.491   1.689  10.214 -0.7077  0.7253 -0.1208
  185MPD1    C5 2818   0.412   1.602  10.156  0.2069 -0.4196 -0.0834
  185MPD1     H 2819   0.395   1.970  10.044  2.9732  0.0161 -1.5389
  185MPD1    H1 2820   0.554   1.654  10.295 -3.7455 -2.1272  1.0194
  185MPD1    H2 2821   0.263   1.559  10.006  1.4773 -1.5257 -0.1094
  185MPD1    H3 2822   0.426   1.504  10.200 -1.0430 -0.6190 -0.1226
  185MPD1     N 2823   0.571   1.916  10.251 -0.1693  0.1837  0.7947
  185MPD1    H5 2824   0.620   1.873  10.328  0.2326 -2.1921 -0.7942
  185MPD1    N1 2825   0.237   1.800   9.894  0.2537  0.2324 -0.1196
  185MPD1    H6 2826   0.262   1.894   9.863  0.2254  0.4151  0.4116
  185MPD1    H7 2827   0.263   1.736   9.819  2.0976  1.3737 -0.4543
  186MPD1     C 2828   4.188   2.243  16.089  0.0249  0.5086  0.3415
  186MPD1    C1 2829   4.180   2.191  16.219  0.2802  0.2770 -0.5516
  186MPD1    C2 2830   4.118   2.252  16.326 -0.0480 -0.0817 -0.5689
  186MPD1    C3 2831   4.066   2.374  16.295 -0.0057  0.5266 -0.0917
  186MPD1    C4 2832   4.075   2.434  16.173 -0.2520  0.5305  0.0024
  186MPD1    C5 2833   4.133   2.368  16.070 -0.3077  0.7136  0.2499
  186MPD1     H 2834   4.114   2.211  16.426 -1.9832 -0.4915 -0.8177
  186MPD1    H1 2835   4.025   2.529  16.157  0.2823  0.8884  0.4695
  186MPD1    H2 2836   4.231   2.180  16.012 -1.0272  1.1424 -0.7579
  186MPD1    H3 2837   4.134   2.417  15.974 -1.4322 -2.8870 -1.6205
  186MPD1     N 2838   3.994   2.440  16.401  0.0716 -0.5825 -0.2697
  186MPD1    H5 2839   3.955   2.529  16.370 -0.8439 -1.0618 -0.4888
  186MPD1    N1 2840   4.221   2.061  16.235  0.0748 -0.5365 -0.8329
  186MPD1    H6 2841   4.218   2.034  16.333  1.1877  1.1775 -0.3264
  186MPD1    H7 2842   4.308   2.037  16.187 -0.3479  0.1049 -1.9192
  187MPD1     C 2843   3.187   4.594  17.528 -0.1852 -0.5048  0.4392
  187MPD1    C1 2844   3.121   4.554  17.414  0.1890  0.3921 -0.4716
  187MPD1    C2 2845   2.980   4.574  17.414 -0.1226 -0.0458  0.1733
  187MPD1    C3 2846   2.909   4.610  17.529  0.0746 -0.2788  0.3284
  187MPD1    C4 2847   2.986   4.655  17.633  0.6022 -0.0703  0.1243
  187MPD1    C5 2848   3.121   4.651  17.637 -0.6146 -0.4020 -0.0486
  187MPD1     H 2849   2.916   4.559  17.328 -0.3407 -1.8276  0.6508
  187MPD1    H1 2850   2.934   4.698   0.028  0.0699  1.8549 -1.1804
  187MPD1    H2 2851   3.295   4.591  17.537 -0.3180 -0.6430  1.9745
  187MPD1    H3 2852   3.176   4.694   0.030  1.7273 -2.1757 -0.6697
  187MPD1     N 2853   2.770   4.617  17.544  0.1383  0.7405 -0.4081
  187MPD1    H5 2854   2.732   4.669  17.623 -0.1638  0.2767 -0.2504
  187MPD1    N1 2855   3.188   4.488  17.315 -0.1333  0.6410  0.2340
  187MPD1    H6 2856   3.141   4.503  17.226  1.9986  2.7756 -0.5282
  187MPD1    H7 2857   3.285   4.519  17.312  0.0034  0.4307  3.3684
  188MPD1     C 2858   3.568   4.032  10.014 -0.3458  0.0531  0.1661
  188MPD1    C1 2859   3.673   3.954  10.056  0.3750 -0.7043 -0.4407
  188MPD1    C2 2860   3.665   3.817  10.041 -0.5734  0.1747 -0.1117
  188MPD1    C3 2861   3.561   3.774   9.954  0.0672  0.3351 -0.7990
  188MPD1    C4 2862   3.464   3.855   9.905  0.1349 -1.1987  0.6936
  188MPD1    C5 2863   3.464   3.985   9.937  0.3450  0.5715  1.1182
  188MPD1     H 2864   3.750   3.754  10.068 -1.5700 -0.1412  2.3155
  188MPD1    H1 2865   3.390   3.824   9.832 -0.1377  0.0466  0.4457
  188MPD1    H2 2866   3.569   4.139  10.028 -1.5688  0.2372 -1.0771
  188MPD1    H3 2867   3.388   4.049   9.895 -0.3916 -2.2562 -1.9117
  188MPD1     N 2868   3.554   3.643   9.907 -0.1138 -0.2410 -1.1512
  188MPD1    H5 2869   3.472   3.625   9.850 -1.7641  2.7854  0.2629
  188MPD1    N1 2870   3.776   4.003  10.127  0.1215  0.5509  0.0514
  188MPD1    H6 2871   3.794   4.102  10.107 -1.3827  0.4818 -1.6821
  188MPD1    H7 2872   3.863   3.958  10.098 -0.9642 -2.2683  1.1928
  189MPD1     C 2873   4.123   0.497   1.192 -0.2746 -0.8262 -0.2682
  189MPD1    C1 2874   4.099   0.426   1.076 -0.0922  0.4031 -0.4426
  189MPD1    C2 2875   4.074   0.496   0.961 -0.1385  0.2474  0.5833
  189MPD1    C3 2876   4.045   0.636   0.965  0.0568 -0.4505 -0.5357
  189MPD1    C4 2877   4.058   0.698   1.084 -0.2889  0.2898 -0.3479
  189MPD1    C5 2878   4.100   0.639   1.197 -0.1289  0.1206 -0.0137
  189MPD1     H 2879   4.074   0.442   0.867  1.8171  0.2258  0.6079
  189MPD1    H1 2880   4.026   0.800   1.101 -1.1730  0.1496 -1.1251
  189MPD1    H2 2881   4.147   0.469   1.293 -0.2018  1.8783  0.4615
  189MPD1    H3 2882   4.099   0.704   1.284 -0.7633 -1.5985  1.2689
  189MPD1     N 2883   4.015   0.703   0.845  0.8206  0.5919 -0.1723
  189MPD1    H5 2884   4.029   0.654   0.757 -0.7420  0.4292 -0.3379
  189MPD1    N1 2885   4.125   0.291   1.078  0.1554  0.0738  0.4757
  189MPD1    H6 2886   4.116   0.247   1.170 -0.1353  0.9877  0.8845
  189MPD1    H7 2887   4.069   0.238   1.012  0.1245 -0.6335  1.0694
  190MPD1     C 2888   3.229   4.428  15.538  0.5355 -0.2570 -0.3773
  190MPD1    C1 2889   3.310   4.339  15.473 -0.3963 -0.1804 -0.3326
  190MPD1    C2 2890   3.299   4.205  15.496  0.7871 -0.3788  0.2229
  190MPD1    C3 2891   3.225   4.156  15.604 -0.7075  0.0214 -0.7407
  190MPD1    C4 2892   3.154   4.249  15.686 -0.5230  0.2068  0.7364
  190MPD1    C5 2893   3.158   4.381  15.646  0.6431 -0.7545 -0.3416
  190MPD1     H 2894   3.352   4.132  15.437 -1.4389 -2.0417  0.2577
  190MPD1    H1 2895   3.104   4.221  15.778  0.1048 -1.3857  0.6031
  190MPD1    H2 2896   3.224   4.533  15.514  0.2739  0.2342  1.8028
  190MPD1    H3 2897   3.105   4.457  15.703  1.4648 -0.0070 -0.5752
  190MPD1     N 2898   3.217   4.017  15.609  0.1443  0.2220  0.2834
  190MPD1    H5 2899   3.274   3.969  15.539 -0.2496 -2.0505  1.5190
  190MPD1    N1 2900   3.392   4.385  15.367 -0.7686 -0.5515  0.7479
  190MPD1    H6 2901   3.465   4.316  15.354 -0.9796 -0.5846 -0.3463
  190MPD1    H7 2902   3.431   4.477  15.385  1.2160 -1.0753 -0.9320
  191MPD1     C 2903   3.337   4.464  12.036  0.5699 -0.0704 -0.1335
  191MPD1    C1 2904   3.235   4.557  12.015 -0.0708 -0.5293  0.2013
  191MPD1    C2 2905   3.183   4.616  12.125  0.5349 -0.7851 -0.5158
  191MPD1    C3 2906   3.204   4.563  12.252  0.3952  0.1575 -0.5888
  191MPD1    C4 2907   3.274   4.446  12.263 -0.2355 -1.1473  0.3085
  191MPD1    C5 2908   3.347   4.395  12.158  0.2723  0.5317  0.7476
  191MPD1     H 2909   3.127   4.707  12.109 -1.4857 -1.8354  0.4512
  191MPD1    H1 2910   3.280   4.395  12.359  0.0476 -0.4621  0.6477
  191MPD1    H2 2911   3.391   4.422  11.952 -1.6993 -2.1124 -0.5963
  191MPD1    H3 2912   3.410   4.307  12.162  1.2132  1.2303  1.3687
  191MPD1     N 2913   3.143   4.627  12.362 -0.4905 -0.5589 -0.1904
  191MPD1    H5 2914   3.080   4.703  12.339  1.2768  1.1017  0.4544
  191MPD1    N1 2915   3.204   4.605  11.888 -0.4958 -0.1157  0.2411
  191MPD1    H6 2916   3.209   4.536  11.814  0.7059  0.3550 -0.1232
  191MPD1    H7 2917   3.121   4.665  11.886 -0.2950  0.1543  0.0299
  192MPD1     C 2918   3.444   4.666  13.332 -0.1356 -0.1272 -0.2290
  192MPD1    C1 2919   3.317   4.714  13.342 -0.0337 -0.9484  0.0283
  192MPD1    C2 2920   3.249   0.019  13.224 -0.0674 -0.3702  0.1386
  192MPD1    C3 2921   3.302   4.694  13.103  0.2961  0.1435 -0.4136
  192MPD1    C4 2922   3.424   4.633  13.099  0.7711  0.7287  0.5581
  192MPD1    C5 2923   3.502   4.630  13.212 -0.5810 -0.4407  0.7485
  192MPD1     H 2924   3.153   0.068  13.240 -1.3007 -2.2240 -1.4929
  192MPD1    H1 2925   3.481   4.608  13.010 -2.0653 -2.6209 -0.3371
  192MPD1    H2 2926   3.501   4.644  13.421 -1.1803 -0.4171  0.3677
  192MPD1    H3 2927   3.600   4.584  13.211 -0.2838  0.2867 -2.5399
  192MPD1     N 2928   3.251   4.717  12.972  0.1989  0.0829  0.3851
  192MPD1    H5 2929   3.307   4.677  12.898 -0.9032  1.3670 -1.1436
  192MPD1    N1 2930   3.267   0.043  13.463  0.1008  0.3526 -0.0004
  192MPD1    H6 2931   3.284   4.707  13.545  0.5049 -1.8283 -1.6430
  192MPD1    H7 2932   3.166   0.045  13.460  0.1539  0.1299 -1.9445
  193MPD1     C 2933   1.932   0.874   0.034  0.7344 -0.0772 -0.0168
  193MPD1    C1 2934   1.922   0.857  17.588  0.0216  0.4752 -0.6485
  193MPD1    C2 2935   2.000   0.936  17.501 -0.8072 -0.2093  0.0387
  193MPD1    C3 2936   2.055   1.050  17.554 -0.6939  0.0953 -0.3630
  193MPD1    C4 2937   2.048   1.073  17.689 -0.0201 -0.5367 -0.8468
  193MPD1    C5 2938   1.990   0.980   0.080  0.0819 -0.5520  0.2500
  193MPD1     H 2939   2.010   0.903  17.398 -0.3409 -0.1549  0.0690
  193MPD1    H1 2940   2.091   1.160   0.049  1.6056 -1.7175 -0.1802
  193MPD1    H2 2941   1.884   0.806   0.103 -0.3233  0.3164 -0.3537
  193MPD1    H3 2942   1.993   0.985   0.188  0.7039  1.0061  0.1666
  193MPD1     N 2943   2.130   1.147  17.480  0.3452  0.5535 -0.7382
  193MPD1    H5 2944   2.159   1.232  17.528  1.4973  0.0438 -0.5243
  193MPD1    N1 2945   1.863   0.737  17.537  0.0800  0.1755 -0.5382
  193MPD1    H6 2946   1.829   0.731  17.441  0.4964  1.3705 -0.7644
  193MPD1    H7 2947   1.798   0.692  17.601  0.4638 -1.4433 -1.2795
  194MPD1     C 2948   0.057   3.754  17.359  0.7281 -0.9784  0.8089
  194MPD1    C1 2949   0.164   3.803  17.296  0.6428  0.5710  0.2977
  194MPD1    C2 2950   0.253   3.707  17.260  0.2828  0.0270  0.5793
  194MPD1    C3 2951   0.228   3.570  17.262 -0.2005 -0.2954  0.3991
  194MPD1    C4 2952   0.105   3.526  17.306 -0.0470 -0.4040  0.3991
  194MPD1    C5 2953   0.025   3.621  17.364  0.2734  0.1026 -0.2621
  194MPD1     H 2954   0.350   3.733  17.219 -0.6283 -1.4318 -2.4302
  194MPD1    H1 2955   0.080   3.421  17.305  1.0170 -0.6571 -0.4116
  194MPD1    H2 2956   4.695   3.809  17.401  0.5902 -0.3143 -0.3122
  194MPD1    H3 2957   4.651   3.585  17.400 -0.3904  2.1888  0.0735
  194MPD1     N 2958   0.334   3.477  17.226  0.2577 -0.3710  0.1234
  194MPD1    H5 2959   0.425   3.518  17.208  0.5274 -1.3365 -0.7252
  194MPD1    N1 2960   0.188   3.934  17.302  0.4016 -0.0140  0.6950
  194MPD1    H6 2961   0.104   3.991  17.311 -0.0073 -0.4277 -0.4286
  194MPD1    H7 2962   0.255   3.961  17.231  0.4574  0.4822  0.9355
  195MPD1     C 2963   2.331   0.562   0.573  0.9534  0.0135 -0.0004
  195MPD1    C1 2964   2.200   0.542   0.618  0.2857  0.5538  0.3389
  195MPD1    C2 2965   2.122   0.446   0.553 -0.0956  0.3912  0.2863
  195MPD1    C3 2966   2.175   0.357   0.469 -0.0494  0.0393  0.2985
  195MPD1    C4 2967   2.308   0.372   0.431  0.4548 -0.9485 -0.3276
  195MPD1    C5 2968   2.383   0.477   0.479  0.4321  0.4283 -0.7332
  195MPD1     H 2969   2.014   0.443   0.568  0.3058 -0.5306  2.9144
  195MPD1    H1 2970   2.356   0.307   0.358  2.5032  1.8216 -1.4567
  195MPD1    H2 2971   2.391   0.645   0.607  0.4322  0.6913 -0.7182
  195MPD1    H3 2972   2.480   0.498   0.435 -0.9626  4.3333 -2.0142
  195MPD1     N 2973   2.115   0.239   0.421 -0.2863 -0.1804 -0.0817
  195MPD1    H5 2974   2.180   0.177   0.374  0.1984  2.0653 -2.3552
  195MPD1    N1 2975   2.147   0.637   0.705 -0.4773  0.6212 -0.1375
  195MPD1    H6 2976   2.065   0.604   0.755 -0.5282 -2.5902 -2.3285
  195MPD1    H7 2977   2.216   0.649   0.779  0.0225  2.6990 -0.9370
  196MPD1     C 2978   0.914   4.170   0.555  0.4037  0.1678 -0.2136
  196MPD1    C1 2979   0.943   4.304   0.563  0.2656 -0.1894 -0.1907
  196MPD1    C2 2980   0.969   4.357   0.689 -0.4402 -0.1232 -0.5363
  196MPD1    C3 2981   0.979   4.273   0.802 -0.5634 -0.1080 -0.7455
  196MPD1    C4 2982   0.936   4.142   0.789  0.3837  0.1881 -0.2064
  196MPD1    C5 2983   0.904   4.095   0.666 -0.1421  0.6331 -0.4696
  196MPD1     H 2984   1.001   4.460   0.701  1.3909 -0.3868 -3.1559
  196MPD1    H1 2985   0.928   4.079   0.877 -2.1400 -0.0117 -0.6022
  196MPD1    H2 2986   0.887   4.120   0.463 -0.9042  1.2296 -0.4051
  196MPD1    H3 2987   0.878   3.990   0.659 -4.1353  1.6788 -0.9965
  196MPD1     N 2988   1.010   4.322   0.932  0.0291  0.3499 -0.2062
  196MPD1    H5 2989   1.013   4.253   1.006 -0.6152  2.5621  1.8891
  196MPD1    N1 2990   0.953   4.375   0.443  0.0336 -0.0826  0.1520
  196MPD1    H6 2991   1.033   4.346   0.388 -1.1473 -1.4511 -0.8595
  196MPD1    H7 2992   0.971   4.474   0.460  0.2181 -0.2950  1.1858
  197MPD1     C 2993   0.796   0.946   0.348 -0.6744 -0.4925  0.1721
  197MPD1    C1 2994   0.869   1.042   0.416 -0.0380  0.8016 -0.4366
  197MPD1    C2 2995   0.937   1.132   0.338  0.5553  0.4210 -0.2219
  197MPD1    C3 2996   0.953   1.121   0.200 -0.1432  0.7075  0.2132
  197MPD1    C4 2997   0.875   1.028   0.134 -0.2335 -0.3725 -0.1426
  197MPD1    C5 2998   0.796   0.946   0.214  0.2149  0.3472  0.3439
  197MPD1     H 2999   0.997   1.211   0.381  0.0414  1.1503 -0.8602
  197MPD1    H1 3000   0.892   1.014   0.027  0.8824  0.7916 -0.1104
  197MPD1    H2 3001   0.734   0.879   0.407 -1.3524  0.3862  0.4602
  197MPD1    H3 3002   0.735   0.876   0.159 -2.1809  2.4317  0.3701
  197MPD1     N 3003   1.041   1.203   0.128 -0.6841 -0.0614 -0.0567
  197MPD1    H5 3004   1.072   1.168   0.038 -1.3995 -0.9708  0.0551
  197MPD1    N1 3005   0.861   1.053   0.554  0.3207  0.0907 -0.1974
  197MPD1    H6 3006   0.952   1.070   0.597 -0.6811  0.8710  1.6047
  197MPD1    H7 3007   0.816   0.972   0.595  0.5945  0.3928  0.7085
  198MPD1     C 3008   2.583   0.278  15.836  0.1825 -0.2703  0.4902
  198MPD1    C1 3009   2.671   0.181  15.868 -0.1199 -0.2607  0.0040
  198MPD1    C2 3010   2.785   0.210  15.943 -0.0570 -0.7115 -0.3785
  198MPD1    C3 3011   2.809   0.340  15.986  0.0356 -0.4244  0.1401
  198MPD1    C4 3012   2.731   0.436  15.945  0.3521  0.4070  0.6191
  198MPD1    C5 3013   2.624   0.407  15.871 -0.0744 -0.3763  0.2159
  198MPD1     H 3014   2.854   0.131  15.972 -0.5943 -0.7912  0.6868
  198MPD1    H1 3015   2.750   0.542  15.955  0.9016  0.5042 -1.5010
  198MPD1    H2 3016   2.490   0.254  15.787  0.8187 -2.8472  0.5289
  198MPD1    H3 3017   2.560   0.489  15.842  0.6215  0.1483  0.1777
  198MPD1     N 3018   2.932   0.362  16.055 -0.1223  0.0367 -0.3114
  198MPD1    H5 3019   2.977   0.272  16.068 -0.2680 -0.0334 -0.2852
  198MPD1    N1 3020   2.662   0.053  15.799 -0.3733 -0.2802 -0.1939
  198MPD1    H6 3021   2.674   4.690  15.853  2.2029 -1.2034 -2.1746
  198MPD1    H7 3022   2.575   0.038  15.749  0.0916 -4.3489  0.2946
  199MPD1     C 3023   0.780   4.553  10.004  0.4122 -0.1397  0.3815
  199MPD1    C1 3024   0.876   4.620   9.933  0.1488  0.0417 -0.5229
  199MPD1    C2 3025   0.831   4.712   9.842  0.5080 -0.0014 -0.3819
  199MPD1    C3 3026   0.698   0.006   9.811 -0.9235  0.7159  0.3273
  199MPD1    C4 3027   0.600   4.662   9.880 -0.1847  0.0023  0.5441
  199MPD1    C5 3028   0.640   4.582   9.985 -0.1884 -0.0448  0.3381
  199MPD1     H 3029   0.915   0.036   9.791  1.2873 -1.6849 -0.6197
  199MPD1    H1 3030   0.494   4.680   9.867 -0.2979 -3.8118 -3.7991
  199MPD1    H2 3031   0.802   4.485  10.085  0.6378 -1.3000 -0.6578
  199MPD1    H3 3032   0.573   4.529  10.052 -2.6143  1.2891 -1.0137
  199MPD1     N 3033   0.662   0.104   9.718  0.1398 -0.3715  0.2344
  199MPD1    H5 3034   0.563   0.113   9.696  0.3507 -1.5242 -1.1485
  199MPD1    N1 3035   1.008   4.626   9.966 -0.0948 -0.4531  0.1057
  199MPD1    H6 3036   1.068   4.659   9.891  0.4831 -3.0549 -0.5792
  199MPD1    H7 3037   1.036   4.536  10.004 -1.0257 -0.7242  0.1459
  200MPD1     C 3038   3.619   1.232  14.842 -0.3752 -1.1435  0.2938
  200MPD1    C1 3039   3.657   1.196  14.716  0.1840  0.1708 -0.0267
  200MPD1    C2 3040   3.788   1.187  14.683  0.2129 -0.1391 -0.0739
  200MPD1    C3 3041   3.891   1.202  14.777 -0.0869  0.1131 -0.0161
  200MPD1    C4 3042   3.856   1.230  14.906 -1.1258  0.0093 -0.5992
  200MPD1    C5 3043   3.722   1.242  14.935 -0.3147 -0.7068 -0.5378
  200MPD1     H 3044   3.810   1.162  14.580  2.5453  2.3519 -0.1906
  200MPD1    H1 3045   3.919   1.236  14.994  0.1140 -1.7158 -1.3539
  200MPD1    H2 3046   3.520   1.257  14.877 -0.7822 -2.3354  0.0039
  200MPD1    H3 3047   3.687   1.261  15.036 -0.5179  1.6888 -1.0531
  200MPD1     N 3048   4.026   1.186  14.746  0.0413  0.6009  0.0055
  200MPD1    H5 3049   4.054   1.148  14.656 -1.4615  1.8313 -0.9853
  200MPD1    N1 3050   3.556   1.204  14.619  0.0281 -0.3807  0.1159
  200MPD1    H6 3051   3.463   1.201  14.659 -0.6443 -0.0167 -1.4088
  200MPD1    H7 3052   3.560   1.129  14.551  0.1559 -0.2928  0.0237
  201MPD1     C 3053   2.203   0.481  13.014 -0.1966  0.4830  0.4070
  201MPD1    C1 3054   2.335   0.473  13.056 -0.0668 -0.1706 -0.0665
  201MPD1    C2 3055   2.406   0.355  13.027  0.1554 -0.2686  0.2059
  201MPD1    C3 3056   2.346   0.249  12.966  0.1319 -0.3058  1.1725
  201MPD1    C4 3057   2.215   0.260  12.922 -0.0931  0.8380 -0.3961
  201MPD1    C5 3058   2.149   0.376  12.940 -0.0003 -0.0418 -0.1928
  201MPD1     H 3059   2.510   0.352  13.056  0.1449 -1.8192  0.0588
  201MPD1    H1 3060   2.169   0.181  12.862  0.0654 -0.2451  0.9191
  201MPD1    H2 3061   2.136   0.566  13.022  2.1895  1.9776  4.7747
  201MPD1    H3 3062   2.047   0.388  12.905 -0.9385 -0.9723  2.1999
  201MPD1     N 3063   2.412   0.123  12.961 -0.0076 -0.2516 -0.2434
  201MPD1    H5 3064   2.482   0.101  13.031  1.1311  1.2337 -0.9171
  201MPD1    N1 3065   2.402   0.590  13.099 -1.0810 -0.3691 -0.3768
  201MPD1    H6 3066   2.345   0.648  13.160  0.5553  0.4960  0.3244
  201MPD1    H7 3067   2.481   0.568  13.158 -0.0519  1.9346 -0.8961
  202MPD1     C 3068   1.505   3.782   9.414 -0.4581  0.1252 -0.1824
  202MPD1    C1 3069   1.607   3.696   9.439 -0.4952 -0.2206 -0.1624
  202MPD1    C2 3070   1.732   3.747   9.490 -0.2169  0.3608  0.5520
  202MPD1    C3 3071   1.737   3.872   9.546  0.1563 -0.1776  0.1344
  202MPD1    C4 3072   1.632   3.953   9.524  0.2771 -0.2731  0.2347
  202MPD1    C5 3073   1.518   3.909   9.461  0.4574 -0.0666 -0.0260
  202MPD1     H 3074   1.826   3.708   9.454 -0.1517  1.2763 -0.2848
  202MPD1    H1 3075   1.627   4.047   9.577  1.9354 -1.6492  2.8497
  202MPD1    H2 3076   1.410   3.760   9.366 -0.7983  0.8094  0.1809
  202MPD1    H3 3077   1.441   3.981   9.436 -1.2500 -1.3993  1.3955
  202MPD1     N 3078   1.858   3.925   9.599  0.3063  0.6578  0.0095
  202MPD1    H5 3079   1.847   4.019   9.638 -0.0603 -0.0829  1.6748
  202MPD1    N1 3080   1.606   3.588   9.353  0.6935 -0.3855  0.2645
  202MPD1    H6 3081   1.672   3.512   9.371 -1.0978 -1.3819  2.5654
  202MPD1    H7 3082   1.510   3.553   9.351  0.5463  0.0921 -1.5279
  203MPD1     C 3083   0.970   1.060  12.561 -0.5840 -0.1714 -0.3958
  203MPD1    C1 3084   0.929   0.994  12.453  0.0278 -0.3924 -0.4287
  203MPD1    C2 3085   0.860   0.872  12.465 -0.0566  0.7077  0.4323
  203MPD1    C3 3086   0.851   0.814  12.592 -0.4110  0.1330 -0.5846
  203MPD1    C4 3087   0.894   0.883  12.702  1.3679 -0.6962  0.0051
  203MPD1    C5 3088   0.943   1.009  12.686  0.0459  0.2968 -0.4329
  203MPD1     H 3089   0.818   0.829  12.375 -0.9186 -0.7980  1.5549
  203MPD1    H1 3090   0.882   0.840  12.801 -2.8685 -2.5022 -1.3037
  203MPD1    H2 3091   1.022   1.155  12.555  0.4457 -0.7373 -0.4483
  203MPD1    H3 3092   0.984   1.066  12.769 -1.0635 -0.5105  0.6703
  203MPD1     N 3093   0.795   0.684  12.599  0.3881  0.9925  0.0755
  203MPD1    H5 3094   0.778   0.651  12.505  0.3623  0.0102  0.4234
  203MPD1    N1 3095   0.937   1.061  12.332  0.2794 -0.0197 -0.8857
  203MPD1    H6 3096   1.011   1.131  12.327 -0.4714  0.6980 -1.9348
  203MPD1    H7 3097   0.962   1.000  12.254 -0.1174 -0.3773 -0.7333
  204MPD1     C 3098   0.680   2.746   0.222 -0.2680  0.2521 -0.3717
  204MPD1    C1 3099   0.657   2.695   0.096 -0.2645 -0.2627  0.5165
  204MPD1    C2 3100   0.646   2.556   0.080 -0.1555 -0.5292 -0.9365
  204MPD1    C3 3101   0.640   2.469   0.192 -0.3071  0.3447 -0.6665
  204MPD1    C4 3102   0.651   2.528   0.313  0.4112  0.2456  0.1504
  204MPD1    C5 3103   0.671   2.661   0.329 -0.0408 -0.2539 -0.0190
  204MPD1     H 3104   0.641   2.514  17.670 -2.8585  0.2033 -1.1285
  204MPD1    H1 3105   0.647   2.475   0.408 -0.2973  0.0992  0.0420
  204MPD1    H2 3106   0.686   2.851   0.247  1.6011 -0.1585  0.8792
  204MPD1    H3 3107   0.688   2.697   0.430 -1.7433  0.3460  0.0469
  204MPD1     N 3108   0.603   2.331   0.179 -0.2878 -0.1988  0.6759
  204MPD1    H5 3109   0.596   2.299   0.083  0.0595  1.2840  0.1550
  204MPD1    N1 3110   0.695   2.775  17.679  0.2108  0.0287  0.1914
  204MPD1    H6 3111   0.664   2.759  17.583 -1.9414  2.2231  0.5108
  204MPD1    H7 3112   0.668   2.871   0.010 -0.4509 -0.3680  1.1856
  205MPD1     C 3113   4.656   0.975  17.318 -0.4294 -0.9499 -0.3945
  205MPD1    C1 3114   4.642   0.899  17.431  0.2821 -0.1274  0.3744
  205MPD1    C2 3115   4.567   0.946  17.534 -0.1536 -0.5182  0.2704
  205MPD1    C3 3116   4.494   1.061  17.512  0.9063  0.0986  0.5307
  205MPD1    C4 3117   4.496   1.127  17.396 -0.1277 -0.7784  0.2162
  205MPD1    C5 3118   4.584   1.090  17.303  0.0164 -0.1525  0.3759
  205MPD1     H 3119   4.558   0.908  17.635 -1.4047 -0.8354  0.0339
  205MPD1    H1 3120   4.455   1.225  17.375  0.6192 -0.5313 -0.0877
  205MPD1    H2 3121   0.009   0.955  17.242  0.8944 -0.2233  0.7159
  205MPD1    H3 3122   4.590   1.151  17.214  2.6357 -0.9396  0.0115
  205MPD1     N 3123   4.434   1.139  17.615  0.8761 -0.4047  0.6123
  205MPD1    H5 3124   4.400   1.234  17.603  1.3877 -0.1471  1.2031
  205MPD1    N1 3125   4.710   0.778  17.455  0.0646 -0.3963 -0.8157
  205MPD1    H6 3126   0.007   0.739  17.363 -2.0025 -1.9589 -0.5938
  205MPD1    H7 3127   4.650   0.713  17.506  0.0393  0.4851  0.2685
  206MPD1     C 3128   0.741   3.857  16.081 -0.0607  0.1130 -0.7157
  206MPD1    C1 3129   0.656   3.763  16.127 -0.3768 -0.3986 -0.2250
  206MPD1    C2 3130   0.597   3.680  16.032  0.0480 -0.6500 -0.0780
  206MPD1    C3 3131   0.611   3.704  15.895 -0.2639  0.9232 -0.4751
  206MPD1    C4 3132   0.695   3.798  15.851 -0.2075 -0.1190 -0.4970
  206MPD1    C5 3133   0.756   3.876  15.947 -0.0574 -0.5907 -0.5422
  206MPD1     H 3134   0.545   3.597  16.078  0.0323 -0.0332  1.0159
  206MPD1    H1 3135   0.707   3.816  15.745  0.0027  1.0664 -0.2728
  206MPD1    H2 3136   0.803   3.918  16.146  0.1273 -0.5653 -0.2511
  206MPD1    H3 3137   0.817   3.958  15.912 -2.4324  0.6949 -1.6418
  206MPD1     N 3138   0.543   3.627  15.798  0.1613  0.2698  0.4991
  206MPD1    H5 3139   0.537   3.657  15.701  0.1264 -0.5941  0.2341
  206MPD1    N1 3140   0.647   3.739  16.266  0.3742 -0.5446 -0.3676
  206MPD1    H6 3141   0.567   3.679  16.286 -0.6921 -0.2557 -3.6857
  206MPD1    H7 3142   0.663   3.813  16.334 -0.3060 -0.7592  0.0247
  207MPD1     C 3143   2.763   1.220   9.645  0.1926  0.5899  0.0852
  207MPD1    C1 3144   2.725   1.098   9.696 -0.2385  0.4686 -0.7542
  207MPD1    C2 3145   2.791   1.053   9.813  0.4274  0.3627 -0.3077
  207MPD1    C3 3146   2.880   1.137   9.873 -0.8650  0.2601  0.2414
  207MPD1    C4 3147   2.912   1.262   9.823  0.0137  0.4880  0.0006
  207MPD1    C5 3148   2.841   1.304   9.715 -0.1540 -0.2974 -0.4283
  207MPD1     H 3149   2.755   0.960   9.858  2.8169 -1.0513 -1.3190
  207MPD1    H1 3150   2.983   1.327   9.872 -1.5135  2.3901 -0.3366
  207MPD1    H2 3151   2.717   1.256   9.554  2.3481  1.0940 -0.8028
  207MPD1    H3 3152   2.847   1.404   9.674  2.8045 -0.2560  0.1243
  207MPD1     N 3153   2.964   1.091   9.977  0.5725  0.4203 -0.3571
  207MPD1    H5 3154   3.041   1.150  10.004  1.3654  0.0265 -1.7508
  207MPD1    N1 3155   2.652   1.010   9.617  0.3638  0.3570 -0.4190
  207MPD1    H6 3156   2.584   1.054   9.555  1.0913  0.1563 -1.3621
  207MPD1    H7 3157   2.595   0.954   9.680  0.4155  0.4572 -0.2847
  208MPD1     C 3158   4.343   0.001   0.217 -0.6086 -0.1248 -0.0502
  208MPD1    C1 3159   4.283   4.684   0.335 -0.1857  0.5296  0.1591
  208MPD1    C2 3160   4.296   0.043   0.444  0.3636  0.1896  0.4364
  208MPD1    C3 3161   4.376   0.156   0.446 -0.1675  0.3402 -0.5366
  208MPD1    C4 3162   4.442   0.187   0.324 -0.2241 -0.4766  0.4564
  208MPD1    C5 3163   4.428   0.108   0.210  0.3878  0.2993  0.5512
  208MPD1     H 3164   4.253   0.015   0.539 -1.4933  0.9597 -0.1690
  208MPD1    H1 3165   4.517   0.265   0.319 -0.5489 -0.0849  1.8241
  208MPD1    H2 3166   4.335   4.663   0.126 -0.4686 -1.8612  1.0732
  208MPD1    H3 3167   4.476   0.118   0.114 -0.7104 -1.2712 -0.1513
  208MPD1     N 3168   4.397   0.224   0.570  0.0842  0.0692  0.1405
  208MPD1    H5 3169   4.355   0.179   0.650  1.0987  0.1846  0.7274
  208MPD1    N1 3170   4.189   4.583   0.342  0.2892  0.8704 -0.0360
  208MPD1    H6 3171   4.171   4.539   0.432 -1.7272 -0.3304 -1.0257
  208MPD1    H7 3172   4.201   4.512   0.269 -1.7170 -0.7414  1.2112
  209MPD1     C 3173   3.415   4.205  10.643 -0.2148  0.2789 -0.0166
  209MPD1    C1 3174   3.448   4.322  10.583 -0.7199 -0.0164  0.0986
  209MPD1    C2 3175   3.417   4.438  10.648  0.5635  0.1878  0.0590
  209MPD1    C3 3176   3.349   4.442  10.768 -0.1851  0.0292 -0.6094
  209MPD1    C4 3177   3.307   4.324  10.821 -0.3876  0.1044 -0.2351
  209MPD1    C5 3178   3.346   4.207  10.759  0.6502 -0.2648  0.2145
  209MPD1     H 3179   3.435   4.533  10.600 -2.0419  0.5082 -0.3111
  209MPD1    H1 3180   3.265   4.324  10.921  1.6699  1.8810  0.6369
  209MPD1    H2 3181   3.434   4.105  10.605  1.5914  0.4776  0.3223
  209MPD1    H3 3182   3.311   4.112  10.797  0.8389 -0.8357 -1.0461
  209MPD1     N 3183   3.327   4.566  10.822  0.5738  0.0856 -0.2246
  209MPD1    H5 3184   3.351   4.647  10.765  2.5834  0.7543  1.5254
  209MPD1    N1 3185   3.487   4.319  10.443  0.0366  0.0319  0.1483
  209MPD1    H6 3186   3.564   4.380  10.418  1.3394 -0.9104  1.8072
  209MPD1    H7 3187   3.500   4.230  10.396 -1.2343  0.5709 -1.1929
  210MPD1     C 3188   3.214   0.632  11.555  0.5490 -0.9713  0.7650
  210MPD1    C1 3189   3.174   0.501  11.567  0.0472 -0.1618 -0.7723
  210MPD1    C2 3190   3.212   0.415  11.466 -0.4784  0.2932 -0.9074
  210MPD1    C3 3191   3.263   0.469  11.345 -0.2704 -0.4406 -0.1385
  210MPD1    C4 3192   3.299   0.598  11.333 -0.2445  0.1837  0.3266
  210MPD1    C5 3193   3.274   0.681  11.439 -0.3368 -0.1092  0.1496
  210MPD1     H 3194   3.197   0.308  11.475  0.0717  0.2385 -0.6448
  210MPD1    H1 3195   3.338   0.646  11.245 -0.1352  1.2165  0.9360
  210MPD1    H2 3196   3.191   0.707  11.630  0.4056 -2.0176  1.7804
  210MPD1    H3 3197   3.295   0.787  11.432  0.8266 -0.2365  1.6034
  210MPD1     N 3198   3.263   0.392  11.224  0.4788  0.3148 -0.3546
  210MPD1    H5 3199   3.271   0.446  11.138  0.1069 -0.9629 -1.1929
  210MPD1    N1 3200   3.135   0.450  11.694 -0.1824 -0.3556  0.5818
  210MPD1    H6 3201   3.086   0.520  11.748  2.5568  0.2453  2.2193
  210MPD1    H7 3202   3.082   0.364  11.678 -1.7338  0.4672  1.3287
  211MPD1     C 3203   0.864   0.268  16.498  1.0413  0.0366  0.7091
  211MPD1    C1 3204   0.755   0.311  16.422 -0.0041 -0.3908  0.6502
  211MPD1    C2 3205   0.677   0.416  16.474 -0.2874  0.1868 -0.1178
  211MPD1    C3 3206   0.701   0.474  16.597  0.0786 -0.2305  0.1722
  211MPD1    C4 3207   0.808   0.421  16.672 -0.0422 -0.1351  0.1746
  211MPD1    C5 3208   0.883   0.320  16.624  0.8075 -0.6232  0.1069
  211MPD1     H 3209   0.590   0.446  16.416  0.6791  0.0537 -1.6263
  211MPD1    H1 3210   0.826   0.447  16.776  2.0310  1.2876 -0.5444
  211MPD1    H2 3211   0.937   0.196  16.464 -0.1979  0.4729 -2.8188
  211MPD1    H3 3212   0.961   0.275  16.685  1.7445  0.3033 -0.4031
  211MPD1     N 3213   0.607   0.572  16.645  0.0951  0.7526 -0.1259
  211MPD1    H5 3214   0.540   0.600  16.575  1.0878  1.0492 -0.9550
  211MPD1    N1 3215   0.737   0.269  16.285 -0.6489 -0.2943  0.6555
  211MPD1    H6 3216   0.637   0.278  16.268 -0.6990 -1.3236  0.3959
  211MPD1    H7 3217   0.762   0.171  16.298  0.5738  0.0443  0.9110
  212MPD1     C 3218   4.601   3.468  16.540 -0.0888  0.2058 -0.2063
  212MPD1    C1 3219   4.536   3.524  16.652  0.9540 -0.1297  0.1804
  212MPD1    C2 3220   4.432   3.457  16.713  0.2158 -0.3755  0.7254
  212MPD1    C3 3221   4.397   3.321  16.680  0.3849  0.3450  0.3335
  212MPD1    C4 3222   4.464   3.265  16.579  0.6542 -0.4666  0.2814
  212MPD1    C5 3223   4.564   3.333  16.511 -0.0681  0.8823 -0.3404
  212MPD1     H 3224   4.388   3.505  16.800  0.4569  2.0144 -0.4753
  212MPD1    H1 3225   4.436   3.165  16.546  0.3740  0.3054 -1.8142
  212MPD1    H2 3226   4.657   3.527  16.469 -0.8282  0.7743 -0.3188
  212MPD1    H3 3227   4.618   3.274  16.437 -1.9917 -0.2137 -0.8826
  212MPD1     N 3228   4.310   3.237  16.754 -0.5285  0.3757 -0.0394
  212MPD1    H5 3229   4.291   3.144  16.720  1.9572 -0.8857  2.0273
  212MPD1    N1 3230   4.555   3.663  16.680 -0.4427  0.0468  0.2080
  212MPD1    H6 3231   4.525   3.704  16.767 -3.1730 -1.1148 -0.1844
  212MPD1    H7 3232   4.652   3.689  16.663 -0.0910 -1.0767  0.4853
  213MPD1     C 3233   1.752   4.486  15.899  0.6064  0.3207 -0.2351
  213MPD1    C1 3234   1.711   4.372  15.834  0.3704 -0.4211  0.0937
  213MPD1    C2 3235   1.814   4.305  15.770  0.1279  0.1895  0.2880
  213MPD1    C3 3236   1.928   4.367  15.732  0.5848 -0.1024 -0.0741
  213MPD1    C4 3237   1.949   4.490  15.774 -0.0398  0.0790 -0.4791
  213MPD1    C5 3238   1.862   4.557  15.858 -0.3429 -0.4025  0.3104
  213MPD1     H 3239   1.803   4.199  15.751 -0.6127  0.0133  1.6704
  213MPD1    H1 3240   2.030   4.554  15.741 -0.1759 -0.7794 -2.4880
  213MPD1    H2 3241   1.679   4.538  15.960  1.7079 -1.1611  2.3004
  213MPD1    H3 3242   1.885   4.660  15.883  1.8935 -0.7801 -0.1245
  213MPD1     N 3243   2.026   4.302  15.644  0.0250  0.2004  0.1434
  213MPD1    H5 3244   1.992   4.212  15.613 -1.5903  1.5161 -1.8282
  213MPD1    N1 3245   1.606   4.305  15.894  0.3083 -0.0725 -0.2783
  213MPD1    H6 3246   1.570   4.235  15.830  0.9830  0.4454 -1.2311
  213MPD1    H7 3247   1.531   4.366  15.928 -0.3535 -1.6713  1.1647
  214MPD1     C 3248   1.977   3.561  15.050 -0.5681 -0.1139 -0.0482
  214MPD1    C1 3249   1.905   3.619  15.156  0.3127  0.0205  0.5366
  214MPD1    C2 3250   1.960   3.735  15.211  0.0751 -0.0928  0.1692
  214MPD1    C3 3251   2.085   3.779  15.173  0.1768  0.6140  0.0919
  214MPD1    C4 3252   2.158   3.705  15.082  0.5483  0.3803 -0.6033
  214MPD1    C5 3253   2.110   3.590  15.027  0.0712 -0.6240  0.5937
  214MPD1     H 3254   1.904   3.790  15.285  0.4242 -0.1805  0.4991
  214MPD1    H1 3255   2.251   3.743  15.040  0.2191  2.3749  0.5149
  214MPD1    H2 3256   1.947   3.466  15.008 -1.0006 -0.0079  0.0228
  214MPD1    H3 3257   2.175   3.528  14.966  2.0043  2.6373 -0.6397
  214MPD1     N 3258   2.157   3.887  15.224  0.2431 -0.0438 -0.5337
  214MPD1    H5 3259   2.248   3.902  15.182 -0.1215  1.9051 -0.6563
  214MPD1    N1 3260   1.772   3.590  15.182 -0.0611 -0.1536  0.2669
  214MPD1    H6 3261   1.749   3.609  15.279  0.5551 -1.1214  0.6088
  214MPD1    H7 3262   1.745   3.493  15.166  0.9992 -0.1247 -1.7295
  215MPD1     C 3263   2.493   4.486  10.465 -0.2625  0.1206  0.3696
  215MPD1    C1 3264   2.625   4.472  10.494 -0.2098  0.1502  1.0084
  215MPD1    C2 3265   2.685   4.574  10.557  0.2152 -0.6714  0.0624
  215MPD1    C3 3266   2.618   4.693  10.587 -0.0198  0.2204 -0.4241
  215MPD1    C4 3267   2.488   4.706  10.554  0.1880 -0.6357  0.4900
  215MPD1    C5 3268   2.430   4.598  10.501 -0.3193  0.0992 -0.1940
  215MPD1     H 3269   2.793   4.564  10.565  0.5811  1.4868 -1.8691
  215MPD1    H1 3270   2.428   0.071  10.580  2.0730  0.5688  0.8040
  215MPD1    H2 3271   2.432   4.405  10.427  1.0878  0.5082 -2.5912
  215MPD1    H3 3272   2.322   4.609  10.493 -0.2500  0.3911 -0.6901
  215MPD1     N 3273   2.697   0.079  10.629 -0.1528  0.3484  0.9741
  215MPD1    H5 3274   2.797   0.063  10.629 -0.5850 -2.2584  1.5699
  215MPD1    N1 3275   2.698   4.355  10.466  0.7637  0.0893  0.3020
  215MPD1    H6 3276   2.676   4.328  10.371  2.7487 -0.8661  0.1172
  215MPD1    H7 3277   2.796   4.367  10.490  0.5712 -1.9161  2.0340
  216MPD1     C 3278   0.394   2.227  17.182  0.5433 -0.6894 -0.6675
  216MPD1    C1 3279   0.274   2.164  17.203 -0.4992  0.2789  0.1352
  216MPD1    C2 3280   0.181   2.225  17.286  0.0375 -0.0771 -0.1649
  216MPD1    C3 3281   0.205   2.342  17.354  0.0716  0.3220 -0.4117
  216MPD1    C4 3282   0.335   2.391  17.342 -0.1607  0.0044  0.3663
  216MPD1    C5 3283   0.426   2.340  17.250  0.4374  0.4429  0.2209
  216MPD1     H 3284   0.086   2.174  17.289  0.1950 -0.4097 -0.7866
  216MPD1    H1 3285   0.365   2.475  17.404  0.2186  1.1776 -1.4250
  216MPD1    H2 3286   0.458   2.193  17.101 -0.0881 -1.9289 -0.6352
  216MPD1    H3 3287   0.518   2.392  17.230 -0.1031  1.0970 -0.5492
  216MPD1     N 3288   0.109   2.394  17.442  0.9249 -0.2132  0.0934
  216MPD1    H5 3289   0.021   2.345  17.444  1.2430 -0.7183  1.3287
  216MPD1    N1 3290   0.241   2.061  17.116 -0.1951  0.0649 -0.3171
  216MPD1    H6 3291   0.321   2.001  17.099  0.6806  2.0494 -3.2921
  216MPD1    H7 3292   0.161   2.011  17.153  1.1859 -2.0949 -0.2741
  217MPD1     C 3293   0.795   0.279   9.165  0.0029  0.2060  0.4964
  217MPD1    C1 3294   0.911   0.258   9.239  0.1947  0.0040  1.0054
  217MPD1    C2 3295   0.912   0.154   9.328 -0.1583 -0.9574  0.2253
  217MPD1    C3 3296   0.802   0.066   9.342 -0.1197  0.3396  0.8072
  217MPD1    C4 3297   0.696   0.088   9.273  0.4776  0.5299  0.5520
  217MPD1    C5 3298   0.689   0.190   9.186  0.2062  0.2478  0.6244
  217MPD1     H 3299   1.007   0.142   9.381  0.1781  2.9344  0.5278
  217MPD1    H1 3300   0.608   0.025   9.287 -0.0383  0.9049 -1.0012
  217MPD1    H2 3301   0.774   0.357   9.093 -1.1197 -0.1307  0.4582
  217MPD1    H3 3302   0.602   0.208   9.124 -0.3831 -1.1127  1.0481
  217MPD1     N 3303   0.797   4.682   9.438  0.4451 -0.1947  0.4475
  217MPD1    H5 3304   0.714   4.623   9.446  1.0502 -0.8728  1.6481
  217MPD1    N1 3305   1.029   0.326   9.205  0.1965  0.5643  0.1531
  217MPD1    H6 3306   1.007   0.418   9.167 -1.6616  0.0616  0.0016
  217MPD1    H7 3307   1.091   0.345   9.283 -0.7174 -0.1703  1.0671
  218MPD1     C 3308   2.955   0.977  13.378 -0.5336  0.1176 -0.2411
  218MPD1    C1 3309   2.951   0.837  13.377 -0.1999  0.0914  0.1210
  218MPD1    C2 3310   2.903   0.769  13.267 -0.4540  0.8283  0.6746
  218MPD1    C3 3311   2.868   0.835  13.151 -0.0546 -0.5505  0.6696
  218MPD1    C4 3312   2.874   0.971  13.152 -0.7552  0.3842 -0.6313
  218MPD1    C5 3313   2.912   1.043  13.265 -0.7653 -0.0522 -1.2705
  218MPD1     H 3314   2.913   0.661  13.263 -3.5204  0.5558  0.1233
  218MPD1    H1 3315   2.835   1.025  13.067 -0.6636  2.5117  0.6605
  218MPD1    H2 3316   2.991   1.031  13.465 -1.1766 -2.3289  1.5524
  218MPD1    H3 3317   2.921   1.151  13.265  0.4002 -0.1688  1.2492
  218MPD1     N 3318   2.816   0.750  13.047 -0.4832  0.3567  0.5262
  218MPD1    H5 3319   2.816   0.653  13.075 -1.1906 -0.1749 -1.3490
  218MPD1    N1 3320   2.988   0.772  13.492 -0.3648 -0.2792 -0.0788
  218MPD1    H6 3321   3.042   0.688  13.471 -3.5111 -2.4668  0.5993
  218MPD1    H7 3322   3.039   0.836  13.553 -1.2567  0.9184 -0.5834
  219MPD1     C 3323   2.465   0.904  12.084 -0.6834  0.1955 -0.2718
  219MPD1    C1 3324   2.539   0.791  12.089  0.0930  0.5410 -0.5491
  219MPD1    C2 3325   2.576   0.745  12.214  0.1524  0.0343 -0.0874
  219MPD1    C3 3326   2.536   0.809  12.331 -0.3420  0.4308  0.9446
  219MPD1    C4 3327   2.467   0.930  12.327  0.5380  0.5464 -0.0614
  219MPD1    C5 3328   2.428   0.969  12.204 -0.1374  0.3348 -0.0034
  219MPD1     H 3329   2.646   0.663  12.205  1.6439  1.2419  0.6918
  219MPD1    H1 3330   2.425   0.982  12.412  0.3129 -2.3933  1.6160
  219MPD1    H2 3331   2.426   0.951  11.994 -2.9258 -1.8687 -0.3638
  219MPD1    H3 3332   2.371   1.061  12.194  1.0160  1.0435  0.0061
  219MPD1     N 3333   2.578   0.767  12.460  0.0074 -0.0497 -0.5166
  219MPD1    H5 3334   2.564   0.830  12.538 -0.1274  1.6710 -1.9555
  219MPD1    N1 3335   2.603   0.746  11.972  0.2150 -0.9120 -0.0506
  219MPD1    H6 3336   2.643   0.653  11.982  0.8839 -0.3477  2.4889
  219MPD1    H7 3337   2.550   0.747  11.885 -0.2281  1.5318  0.2372
  220MPD1     C 3338   2.627   1.703   9.529 -0.3563  0.9763  0.5285
  220MPD1    C1 3339   2.709   1.690   9.637  0.3113  0.1789 -0.0207
  220MPD1    C2 3340   2.662   1.605   9.733  0.1051  0.0358 -0.4204
  220MPD1    C3 3341   2.565   1.510   9.715  0.2763  0.0851  0.1134
  220MPD1    C4 3342   2.503   1.515   9.591  0.4753  0.6579  0.0637
  220MPD1    C5 3343   2.536   1.605   9.498  0.6335  0.7569 -0.2933
  220MPD1     H 3344   2.710   1.601   9.831  0.9716  0.0655 -0.8489
  220MPD1    H1 3345   2.425   1.445   9.561  0.2514 -0.1873  2.6514
  220MPD1    H2 3346   2.644   1.789   9.465  0.4860  0.2569 -0.2116
  220MPD1    H3 3347   2.478   1.599   9.408 -0.2489  0.1174  0.3219
  220MPD1     N 3348   2.530   1.427   9.822 -0.3688 -0.4037 -0.0888
  220MPD1    H5 3349   2.582   1.442   9.908 -1.1284  1.2289  0.0902
  220MPD1    N1 3350   2.796   1.795   9.669 -0.0602  0.2457 -0.3117
  220MPD1    H6 3351   2.847   1.834   9.590  1.9023  0.8527  1.2622
  220MPD1    H7 3352   2.849   1.778   9.754  0.7868  0.6175 -0.7680
  221MPD1     C 3353   4.036   4.071  16.938 -0.0059 -0.6522 -0.4871
  221MPD1    C1 3354   4.137   3.980  16.954 -0.3143 -0.3304  0.3095
  221MPD1    C2 3355   4.237   3.993  16.863  0.2866  0.1326 -0.1073
  221MPD1    C3 3356   4.253   4.093  16.767  0.0210  0.8687  0.3542
  221MPD1    C4 3357   4.158   4.188  16.762  0.3217  0.0675 -0.7481
  221MPD1    C5 3358   4.053   4.179  16.851 -0.3779  0.0535  0.1927
  221MPD1     H 3359   4.312   3.916  16.876 -0.5894 -0.8267 -0.7435
  221MPD1    H1 3360   4.164   4.272  16.694  0.6587  0.3999 -0.3058
  221MPD1    H2 3361   3.944   4.057  16.994  0.2722  0.0570  0.1377
  221MPD1    H3 3362   3.972   4.250  16.838  0.3932  0.9383  0.1599
  221MPD1     N 3363   4.367   4.104  16.674  0.4935 -0.2928 -0.0327
  221MPD1    H5 3364   4.365   4.163  16.591  1.6408  0.4164  0.4407
  221MPD1    N1 3365   4.117   3.854  17.024  0.5418  0.1191 -0.3633
  221MPD1    H6 3366   4.063   3.862  17.110 -0.3229  0.4159 -0.9383
  221MPD1    H7 3367   4.207   3.818  17.056  2.1862  4.0067 -0.5255
  222MPD1     C 3368   4.547   2.810  16.826  0.3650 -0.0475  0.0623
  222MPD1    C1 3369   4.559   2.942  16.856  0.2726  0.7064 -0.3689
  222MPD1    C2 3370   4.507   2.991  16.980  0.5710 -0.3893  0.9370
  222MPD1    C3 3371   4.447   2.905  17.069  0.3364  0.2609  0.2798
  222MPD1    C4 3372   4.444   2.771  17.034  0.6091  0.0347  0.1053
  222MPD1    C5 3373   4.488   2.722  16.917  0.3679 -0.1942  0.5206
  222MPD1     H 3374   4.517   3.098  16.993 -3.4919 -0.0109  1.1274
  222MPD1    H1 3375   4.402   2.690  17.093  0.3382  0.3765  0.3833
  222MPD1    H2 3376   4.593   2.775  16.734 -1.1478  1.3459 -1.2143
  222MPD1    H3 3377   4.497   2.616  16.898 -0.3980  0.0914 -1.5051
  222MPD1     N 3378   4.396   2.945  17.188 -0.4986 -0.0372 -0.3123
  222MPD1    H5 3379   4.366   2.873  17.252  0.5425 -0.6024 -0.4595
  222MPD1    N1 3380   4.623   3.033  16.768  0.0613  0.5227 -0.0081
  222MPD1    H6 3381   4.593   3.002  16.676  3.1182  1.4759 -1.3385
  222MPD1    H7 3382   4.572   3.121  16.767  0.3723  0.7125  2.9284
  223MPD1     C 3383   4.155   2.325  17.678  0.3195  0.0984  0.1660
  223MPD1    C1 3384   4.267   2.332  17.607 -0.5699  0.0180  0.0116
  223MPD1    C2 3385   4.298   2.460  17.554  0.0706  0.4522  0.4607
  223MPD1    C3 3386   4.232   2.579  17.598  0.3121  0.3575 -0.5625
  223MPD1    C4 3387   4.127   2.553  17.683 -0.0239  0.4194  0.5223
  223MPD1    C5 3388   4.082   2.434   0.033 -0.4557 -0.2710 -0.3667
  223MPD1     H 3389   4.369   2.471  17.472 -1.8033  1.1016 -1.0673
  223MPD1    H1 3390   4.073   2.638   0.034  1.3411 -0.1713  3.5603
  223MPD1    H2 3391   4.124   2.228   0.028 -1.4781  0.8720  0.6599
  223MPD1    H3 3392   4.005   2.431   0.109  0.2743  2.5088  0.4871
  223MPD1     N 3393   4.282   2.707  17.563  0.4825 -0.3274 -0.2952
  223MPD1    H5 3394   4.345   2.715  17.485  0.3152 -1.6651 -0.5760
  223MPD1    N1 3395   4.323   2.221  17.542  1.0419  1.2947 -0.2917
  223MPD1    H6 3396   4.410   2.240  17.492  0.6101  2.6549 -0.5226
  223MPD1    H7 3397   4.332   2.137  17.599 -0.2758  0.2068 -1.6820
  224MPD1     C 3398   2.613   0.117  10.093 -0.0736  0.1612  0.0083
  224MPD1    C1 3399   2.541   0.176   9.993  0.1787  0.9129 -0.1145
  224MPD1    C2 3400   2.405   0.150   9.975 -0.5561  0.4240 -0.2810
  224MPD1    C3 3401   2.335   0.089  10.086  0.2757 -0.0038 -0.7235
  224MPD1    C4 3402   2.404   0.035  10.188  0.3400  0.5467  0.1045
  224MPD1    C5 3403   2.542   0.047  10.189  0.1513  0.3644  0.4507
  224MPD1     H 3404   2.356   0.185   9.886  0.0130  4.2071  0.8790
  224MPD1    H1 3405   2.345   4.715  10.269 -1.2290 -0.8377 -1.7463
  224MPD1    H2 3406   2.720   0.131  10.102  0.1940 -1.3933 -0.7900
  224MPD1    H3 3407   2.608   4.717  10.258 -0.0710 -0.8391 -0.2271
  224MPD1     N 3408   2.198   0.064  10.081 -0.0011 -0.2971 -0.2915
  224MPD1    H5 3409   2.165   4.721  10.153  0.0990  0.3376  0.3227
  224MPD1    N1 3410   2.613   0.241   9.890 -0.5915 -0.1490  0.1418
  224MPD1    H6 3411   2.566   0.318   9.844 -1.7072 -0.0926  1.3757
  224MPD1    H7 3412   2.703   0.282   9.914 -1.2141  0.8596  0.7499
  225MPD1     C 3413   2.529   1.265  12.389  0.0253 -0.2596 -0.3371
  225MPD1    C1 3414   2.485   1.330  12.274 -0.5659 -0.3603 -1.0603
  225MPD1    C2 3415   2.344   1.337  12.265 -0.1810  0.3923 -0.2402
  225MPD1    C3 3416   2.260   1.311  12.371 -0.1953  0.2059 -0.1182
  225MPD1    C4 3417   2.316   1.262  12.494 -0.2064 -0.1104  0.1141
  225MPD1    C5 3418   2.449   1.249  12.498  0.3504 -0.6541  0.3594
  225MPD1     H 3419   2.306   1.359  12.166  0.5899  1.1879 -0.3672
  225MPD1    H1 3420   2.259   1.239  12.584  1.8583  0.4069  1.5416
  225MPD1    H2 3421   2.632   1.236  12.402 -0.1608 -0.8464 -0.1675
  225MPD1    H3 3422   2.492   1.215  12.591 -1.2795 -0.8879  1.0352
  225MPD1     N 3423   2.119   1.308  12.361 -0.0689  0.1941  0.0190
  225MPD1    H5 3424   2.067   1.303  12.448  0.6273  1.9848  0.5392
  225MPD1    N1 3425   2.561   1.320  12.158 -0.4595  0.1058  0.3528
  225MPD1    H6 3426   2.660   1.337  12.178 -0.0048 -0.1098 -1.7437
  225MPD1    H7 3427   2.523   1.379  12.084  0.9692 -1.7000 -1.8177
  226MPD1     C 3428   0.316   0.501   8.940  0.4751 -0.0366 -0.0491
  226MPD1    C1 3429   0.279   0.626   8.988  0.2258  1.0315  0.1743
  226MPD1    C2 3430   0.380   0.719   9.010 -1.0028 -0.0186 -0.8888
  226MPD1    C3 3431   0.513   0.682   8.999  0.5031 -0.6269  0.0183
  226MPD1    C4 3432   0.553   0.557   8.958 -0.0547 -0.4371 -0.4168
  226MPD1    C5 3433   0.450   0.466   8.928 -0.2079 -0.5581 -0.2141
  226MPD1     H 3434   0.355   0.821   9.038 -1.1333 -1.1281  3.0205
  226MPD1    H1 3435   0.657   0.532   8.938  0.1490 -1.1413  1.4465
  226MPD1    H2 3436   0.249   0.418   8.924  1.2900  0.1213 -4.0857
  226MPD1    H3 3437   0.473   0.363   8.905  0.5870 -0.7394  1.3480
  226MPD1     N 3438   0.607   0.774   9.050 -0.2609 -0.2279 -0.0807
  226MPD1    H5 3439   0.574   0.861   9.090  1.0379  0.7018 -1.0506
  226MPD1    N1 3440   0.140   0.663   8.991 -0.1129 -0.2496 -0.2111
  226MPD1    H6 3441   0.073   0.587   9.003  0.7484 -0.9769 -0.0731
  226MPD1    H7 3442   0.119   0.738   9.057 -0.4404  0.3287 -0.9711
  227MPD1     C 3443   0.421   1.608   9.056  0.5123  0.4518 -0.0650
  227MPD1    C1 3444   0.353   1.492   9.093 -0.3807  0.9563  0.5931
  227MPD1    C2 3445   0.428   1.383   9.121 -0.9775  0.5347 -0.0604
  227MPD1    C3 3446   0.567   1.381   9.102  0.4759 -0.3983 -0.6136
  227MPD1    C4 3447   0.631   1.500   9.065 -0.2318  0.5796  0.2246
  227MPD1    C5 3448   0.555   1.616   9.044  0.5920  0.5683 -0.2913
  227MPD1     H 3449   0.380   1.295   9.161 -0.5636  0.7076  0.8336
  227MPD1    H1 3450   0.738   1.500   9.048 -0.4497 -1.0503 -1.1750
  227MPD1    H2 3451   0.361   1.696   9.033 -0.7476 -0.1380  1.0054
  227MPD1    H3 3452   0.594   1.707   8.999  0.5634 -1.3739 -4.2057
  227MPD1     N 3453   0.640   1.256   9.115  0.7794 -0.0278  0.0591
  227MPD1    H5 3454   0.592   1.168   9.131 -0.0300  0.3251 -0.4249
  227MPD1    N1 3455   0.213   1.487   9.085  0.0123 -0.3885  0.9904
  227MPD1    H6 3456   0.176   1.577   9.114 -1.1035 -0.2824 -0.7623
  227MPD1    H7 3457   0.185   1.417   9.153 -1.3882  0.8310  1.6627
  228MPD1     C 3458   4.646   3.709  12.703  0.1563  0.2549  0.3423
  228MPD1    C1 3459   4.588   3.647  12.812  0.1629  0.2954 -1.0788
  228MPD1    C2 3460   4.448   3.628  12.822 -0.1438  0.2292  0.3313
  228MPD1    C3 3461   4.364   3.669  12.720 -0.3407  0.0711 -0.1816
  228MPD1    C4 3462   4.421   3.735  12.613  0.1471  0.0364 -0.3812
  228MPD1    C5 3463   4.554   3.754  12.604  0.0206 -0.0992 -0.0703
  228MPD1     H 3464   4.410   3.559  12.897 -1.7886  1.0623  0.2520
  228MPD1    H1 3465   4.364   3.771  12.528  0.6624 -0.4432 -0.9257
  228MPD1    H2 3466   0.032   3.714  12.690  0.1494 -0.7351 -0.0716
  228MPD1    H3 3467   4.590   3.806  12.516 -1.2495  0.6921 -0.1239
  228MPD1     N 3468   4.227   3.641  12.729 -0.8486 -0.1278  0.4183
  228MPD1    H5 3469   4.199   3.575  12.801  0.8238 -0.6490  0.5939
  228MPD1    N1 3470   4.661   3.621  12.928  0.2037 -0.1986 -0.0990
  228MPD1    H6 3471   0.033   3.593  12.901 -0.4671 -0.4399 -2.1932
  228MPD1    H7 3472   4.615   3.542  12.973  0.0797  0.7446  1.4350
  229MPD1     C 3473   3.147   2.728  15.137 -0.4218  0.7657  0.4665
  229MPD1    C1 3474   3.143   2.688  15.265  0.0603 -0.0921 -1.0359
  229MPD1    C2 3475   3.228   2.589  15.302  0.1114 -0.5644 -0.5169
  229MPD1    C3 3476   3.311   2.525  15.208 -0.5918  0.7298 -0.1730
  229MPD1    C4 3477   3.310   2.563  15.072 -0.7757 -0.1115 -0.2114
  229MPD1    C5 3478   3.234   2.671  15.045  0.6019 -0.0660  0.4046
  229MPD1     H 3479   3.224   2.557  15.406 -0.4096 -0.5915 -0.5472
  229MPD1    H1 3480   3.373   2.521  14.994 -0.7890  1.1470 -0.8954
  229MPD1    H2 3481   3.080   2.806  15.102  0.9797  1.2476 -1.1097
  229MPD1    H3 3482   3.227   2.718  14.947 -0.1205 -2.6088 -0.7683
  229MPD1     N 3483   3.383   2.407  15.237 -0.4643 -0.2029  0.2305
  229MPD1    H5 3484   3.424   2.357  15.159  1.3049  0.5312  0.6983
  229MPD1    N1 3485   3.048   2.737  15.361 -0.1721 -0.4870  0.1707
  229MPD1    H6 3486   3.000   2.656  15.399 -0.7838  0.0325  0.5056
  229MPD1    H7 3487   2.990   2.815  15.330  0.8973 -0.3587 -1.5680
  230MPD1     C 3488   4.127   1.977  15.847  0.2823  0.2125  0.8125
  230MPD1    C1 3489   4.138   1.944  15.712 -1.2677 -0.1697 -0.3902
  230MPD1    C2 3490   4.023   1.937  15.638  0.4096  0.0704  1.0601
  230MPD1    C3 3491   3.902   1.987  15.690 -0.6518 -0.6410  0.1499
  230MPD1    C4 3492   3.898   2.024  15.820 -0.0647 -0.8460  0.3179
  230MPD1    C5 3493   4.011   2.025  15.893  0.1928 -0.2170 -0.1896
  230MPD1     H 3494   4.026   1.905  15.535 -1.3040  0.4100  0.8895
  230MPD1    H1 3495   3.803   2.045  15.868  0.7503  3.8585 -0.1040
  230MPD1    H2 3496   4.212   1.959  15.912  1.0420 -0.7268 -0.4387
  230MPD1    H3 3497   4.009   2.052  15.998  3.2914 -1.0735  0.0863
  230MPD1     N 3498   3.787   1.997  15.609 -0.3841 -0.4395  0.4635
  230MPD1    H5 3499   3.790   1.970  15.511  2.0447 -0.7197  0.6316
  230MPD1    N1 3500   4.265   1.894  15.668 -0.8927 -0.0591  0.1798
  230MPD1    H6 3501   4.262   1.899  15.567  0.9477 -1.8297  0.0367
  230MPD1    H7 3502   4.345   1.949  15.696  1.0415 -2.2416 -1.0650
  231MPD1     C 3503   1.714   4.183  15.380  0.1240  0.0113 -0.3374
  231MPD1    C1 3504   1.753   4.107  15.275 -0.3042 -0.5484 -0.1734
  231MPD1    C2 3505   1.846   4.165  15.193  0.4937  0.2322  0.1426
  231MPD1    C3 3506   1.910   4.280  15.224 -1.2256  0.0425  0.3642
  231MPD1    C4 3507   1.859   4.353  15.330 -0.8425 -0.1678  0.3662
  231MPD1    C5 3508   1.766   4.301  15.411 -0.3670 -0.4426  0.7995
  231MPD1     H 3509   1.885   4.109  15.109  2.8311  1.3536  0.4753
  231MPD1    H1 3510   1.891   4.454  15.350  1.3139 -0.4947 -1.4279
  231MPD1    H2 3511   1.638   4.150  15.450  0.2605 -0.9843 -0.6575
  231MPD1    H3 3512   1.738   4.357  15.499  0.1018  1.6766 -0.3965
  231MPD1     N 3513   2.012   4.325  15.139 -0.3399  0.2910  0.5103
  231MPD1    H5 3514   2.039   4.261  15.065  0.6202 -1.2737  2.2220
  231MPD1    N1 3515   1.693   3.988  15.239 -0.5432 -0.1639  0.0512
  231MPD1    H6 3516   1.736   3.930  15.167  0.3965  0.1497  0.3636
  231MPD1    H7 3517   1.627   3.944  15.303 -1.0479 -0.0163 -0.3688
  232MPD1     C 3518   2.080   1.508   1.050  0.4477 -0.6643  0.0712
  232MPD1    C1 3519   2.183   1.419   1.079  0.7341  0.6399 -0.5429
  232MPD1    C2 3520   2.272   1.393   0.978 -0.8567 -0.2348 -0.1664
  232MPD1    C3 3521   2.253   1.434   0.846 -0.1405  0.8949  0.4690
  232MPD1    C4 3522   2.144   1.509   0.814  0.0785  0.7610  0.2585
  232MPD1    C5 3523   2.062   1.544   0.916  0.7812  0.5455  0.3365
  232MPD1     H 3524   2.345   1.314   0.987  1.0245  1.6013  0.7889
  232MPD1    H1 3525   2.134   1.555   0.716  0.1978 -0.0543 -0.1303
  232MPD1    H2 3526   2.018   1.531   1.135  0.0141 -2.7211  0.3171
  232MPD1    H3 3527   1.982   1.612   0.891  0.0302 -0.5454 -0.2183
  232MPD1     N 3528   2.357   1.402   0.749 -0.1381 -0.1498 -0.0256
  232MPD1    H5 3529   2.436   1.348   0.784 -0.4115  0.0861  0.9576
  232MPD1    N1 3530   2.202   1.387   1.217  0.2258 -0.0889  0.1677
  232MPD1    H6 3531   2.113   1.395   1.266 -1.1224 -0.4451 -2.2560
  232MPD1    H7 3532   2.247   1.297   1.234  1.3210  0.5822  0.8239
  233MPD1     C 3533   3.317   0.330   2.295 -0.2733  0.5402  0.0014
  233MPD1    C1 3534   3.428   0.369   2.367 -0.4947  0.2895  0.1747
  233MPD1    C2 3535   3.554   0.338   2.310 -0.1057 -0.1227  0.4125
  233MPD1    C3 3536   3.574   0.277   2.188  0.2598  0.2445  0.3063
  233MPD1    C4 3537   3.464   0.248   2.114 -0.0572 -0.3563  0.6784
  233MPD1    C5 3538   3.336   0.279   2.168  0.0259  0.7338  0.4801
  233MPD1     H 3539   3.643   0.354   2.370 -0.3074  0.0498  0.6700
  233MPD1    H1 3540   3.460   0.200   2.017  0.5786 -0.3856  0.6715
  233MPD1    H2 3541   3.216   0.354   2.328 -0.1663  0.5091  0.3591
  233MPD1    H3 3542   3.247   0.256   2.110  1.1045 -3.4381  0.4172
  233MPD1     N 3543   3.702   0.235   2.132  0.4996  0.3611  0.4395
  233MPD1    H5 3544   3.703   0.199   2.037  2.6153  2.0402 -0.1752
  233MPD1    N1 3545   3.416   0.434   2.490 -0.3238 -0.0670  0.4387
  233MPD1    H6 3546   3.489   0.407   2.555  1.1856  1.8175 -0.4613
  233MPD1    H7 3547   3.326   0.413   2.532 -0.2986 -1.4736 -0.2129
  234MPD1     C 3548   1.906   2.959   9.910  0.7884 -0.2839 -0.6368
  234MPD1    C1 3549   1.971   3.064   9.977 -0.3782  0.5592  0.4838
  234MPD1    C2 3550   1.937   3.193   9.940 -0.3131 -0.0829  0.0583
  234MPD1    C3 3551   1.831   3.216   9.854 -0.0501 -0.4800 -0.4178
  234MPD1    C4 3552   1.761   3.109   9.798 -0.6698 -0.2973 -0.2254
  234MPD1    C5 3553   1.811   2.984   9.815  0.2819  0.0138 -0.7610
  234MPD1     H 3554   1.985   3.281   9.982  0.3562  1.6529 -4.3338
  234MPD1    H1 3555   1.674   3.118   9.733 -1.9520  3.7881  2.0747
  234MPD1    H2 3556   1.922   2.857   9.944 -1.3748 -0.2413  0.5251
  234MPD1    H3 3557   1.769   2.898   9.763  0.3235 -1.0933  1.0426
  234MPD1     N 3558   1.796   3.356   9.843 -0.1471 -0.1725  0.0303
  234MPD1    H5 3559   1.850   3.408   9.911 -1.2094 -1.4544  1.8581
  234MPD1    N1 3560   2.082   3.033  10.051  0.4930 -0.0319  0.0038
  234MPD1    H6 3561   2.100   3.100  10.126 -0.3748  1.0613 -0.7753
  234MPD1    H7 3562   2.086   2.939  10.090  1.0531 -0.2686 -0.6121
  235MPD1     C 3563   2.977   2.293   8.844  0.5919 -0.1596  0.1222
  235MPD1    C1 3564   3.086   2.216   8.815  0.6241  0.0588  0.6152
  235MPD1    C2 3565   3.197   2.218   8.892 -0.4321  0.4066 -0.7347
  235MPD1    C3 3566   3.212   2.324   8.983  0.3906  0.6305 -0.8178
  235MPD1    C4 3567   3.106   2.408   9.009  0.0857 -0.0427 -0.8780
  235MPD1    C5 3568   2.987   2.378   8.949 -0.0398 -0.3447 -0.0614
  235MPD1     H 3569   3.280   2.149   8.882 -0.6333  0.3506 -2.0014
  235MPD1    H1 3570   3.117   2.487   9.082 -1.3100 -1.6509  1.0773
  235MPD1    H2 3571   2.882   2.287   8.793  0.3460 -2.3071  0.8135
  235MPD1    H3 3572   2.900   2.441   8.961 -0.7964 -1.2714 -0.7331
  235MPD1     N 3573   3.329   2.328   9.062  0.1227 -0.9105  0.1438
  235MPD1    H5 3574   3.400   2.256   9.048 -1.3544 -2.4669  0.7097
  235MPD1    N1 3575   3.062   2.105   8.728  0.0372  0.0329  0.1977
  235MPD1    H6 3576   3.008   2.144   8.652 -0.3586  1.5757  1.2638
  235MPD1    H7 3577   3.149   2.067   8.692 -0.2467 -1.6905  1.3667
  236MPD1     C 3578   2.243   2.337   9.590 -0.2700  0.4694 -0.6128
  236MPD1    C1 3579   2.253   2.445   9.669  0.0232  0.0551  0.1869
  236MPD1    C2 3580   2.366   2.457   9.751  0.1310  0.4548  0.1855
  236MPD1    C3 3581   2.455   2.351   9.775  0.3016 -0.0282  0.6090
  236MPD1    C4 3582   2.424   2.234   9.704  0.0741  0.5466 -0.3338
  236MPD1    C5 3583   2.322   2.227   9.616 -0.1974  0.3921 -0.7961
  236MPD1     H 3584   2.372   2.537   9.825 -1.1108  0.1880  0.5749
  236MPD1    H1 3585   2.471   2.139   9.727  0.7942  1.8439  3.5113
  236MPD1    H2 3586   2.157   2.315   9.527 -1.3018 -0.7318  1.2181
  236MPD1    H3 3587   2.293   2.134   9.568  1.4398  0.4765 -1.9331
  236MPD1     N 3588   2.564   2.346   9.866 -0.5035  0.0479  0.3942
  236MPD1    H5 3589   2.627   2.266   9.869  0.0249  0.4248 -0.8955
  236MPD1    N1 3590   2.152   2.542   9.660  0.5237  0.3762  0.1135
  236MPD1    H6 3591   2.062   2.502   9.636  0.6327  0.2150 -0.0212
  236MPD1    H7 3592   2.145   2.590   9.750  0.9227  0.0849  0.3024
  237MPD1     C 3593   2.336   0.794  15.222 -0.5175  0.0773  0.9997
  237MPD1    C1 3594   2.258   0.860  15.135  0.0672 -0.0779 -0.3075
  237MPD1    C2 3595   2.125   0.841  15.145 -0.1187  0.0430 -0.2487
  237MPD1    C3 3596   2.073   0.737  15.232 -0.1707  0.3441 -0.3267
  237MPD1    C4 3597   2.156   0.667  15.317 -0.1387  0.1160 -0.1397
  237MPD1    C5 3598   2.289   0.700  15.311  0.5028  0.1344 -0.1950
  237MPD1     H 3599   2.058   0.901  15.085 -1.4955 -2.8924 -1.6646
  237MPD1    H1 3600   2.133   0.583  15.382  0.6438  0.8886  1.1388
  237MPD1    H2 3601   2.443   0.804  15.207 -0.2249 -1.5366  2.0017
  237MPD1    H3 3602   2.364   0.640  15.361  2.3220  3.6783  1.3580
  237MPD1     N 3603   1.936   0.702  15.245 -0.7053 -0.4825  0.4282
  237MPD1    H5 3604   1.910   0.630  15.311 -2.2696 -0.3619 -0.0412
  237MPD1    N1 3605   2.306   0.954  15.044  0.5717  0.1441  0.0337
  237MPD1    H6 3606   2.246   0.943  14.963 -0.5882 -0.4765  0.9865
  237MPD1    H7 3607   2.394   0.928  14.999  0.4180  0.4961 -0.4710
  238MPD1     C 3608   2.993   0.398  15.458 -0.3927  0.0055 -0.4770
  238MPD1    C1 3609   2.921   0.304  15.532  0.2668  0.0272 -0.7061
  238MPD1    C2 3610   2.922   0.169  15.491  0.7397 -0.2387  0.1142
  238MPD1    C3 3611   2.986   0.129  15.375  0.6992  0.2856 -0.3701
  238MPD1    C4 3612   3.054   0.222  15.303 -0.9502 -0.2524 -0.3248
  238MPD1    C5 3613   3.059   0.352  15.344  0.5872  0.4632 -0.0825
  238MPD1     H 3614   2.849   0.114  15.550 -0.2685 -1.2999 -2.1303
  238MPD1    H1 3615   3.099   0.199  15.207 -0.5946  1.7835 -0.6406
  238MPD1    H2 3616   2.993   0.504  15.480 -0.3350  0.1344 -1.0980
  238MPD1    H3 3617   3.107   0.421  15.275  2.4250 -0.6304  0.1144
  238MPD1     N 3618   2.984   4.721  15.326  0.3695 -0.1235 -0.1297
  238MPD1    H5 3619   3.022   4.710  15.232  1.7765  0.5766  0.3600
  238MPD1    N1 3620   2.823   0.347  15.621  0.1485 -0.9098  0.6040
  238MPD1    H6 3621   2.823   0.441  15.659 -0.3537 -0.5622 -0.2460
  238MPD1    H7 3622   2.806   0.280  15.695 -2.8962 -2.1530 -1.2101
  239MPD1     C 3623   4.079   0.538  15.326 -0.1829 -0.3148  0.1206
  239MPD1    C1 3624   3.944   0.518  15.307 -0.1896 -0.2375  0.6466
  239MPD1    C2 3625   3.885   0.560  15.188  1.0459 -0.0010  0.9710
  239MPD1    C3 3626   3.958   0.616  15.085 -0.0130  0.3605  0.4329
  239MPD1    C4 3627   4.095   0.626  15.107  0.0174  0.2115  0.3949
  239MPD1    C5 3628   4.156   0.597  15.231  1.0485 -0.2156 -0.4501
  239MPD1     H 3629   3.783   0.526  15.177  1.3468 -1.6854  3.2383
  239MPD1    H1 3630   4.155   0.649  15.020  0.3435 -1.8652  0.0548
  239MPD1    H2 3631   4.133   0.501  15.412  0.5994  0.6015  0.0205
  239MPD1    H3 3632   4.263   0.607  15.237  1.3976 -3.9729 -0.6817
  239MPD1     N 3633   3.897   0.667  14.965 -0.6119 -0.0919  0.1369
  239MPD1    H5 3634   3.964   0.705  14.899 -0.1219 -1.7240 -0.3047
  239MPD1    N1 3635   3.879   0.425  15.395  0.1790 -0.1663  0.4240
  239MPD1    H6 3636   3.923   0.439  15.485  0.0145  0.8425  0.3416
  239MPD1    H7 3637   3.778   0.432  15.405  0.0484  0.1556 -1.1242
  240MPD1     C 3638   3.350   0.445  14.154  0.3835 -0.4566 -0.0369
  240MPD1    C1 3639   3.219   0.395  14.162  0.5388 -0.3690  0.1562
  240MPD1    C2 3640   3.188   0.307  14.265  0.5153  0.1482 -0.2055
  240MPD1    C3 3641   3.287   0.265  14.347  0.1937  0.9382  0.3123
  240MPD1    C4 3642   3.414   0.307  14.323  0.0354  0.4685 -1.4518
  240MPD1    C5 3643   3.447   0.382  14.220 -0.5653  1.7877  0.1133
  240MPD1     H 3644   3.089   0.275  14.293  1.3730 -2.1864  0.2305
  240MPD1    H1 3645   3.501   0.284  14.384 -1.4073 -0.6240  0.2096
  240MPD1    H2 3646   3.376   0.519  14.079 -0.8609  1.0177  0.9833
  240MPD1    H3 3647   3.547   0.424  14.223  0.5894 -0.9044 -0.6166
  240MPD1     N 3648   3.247   0.178  14.448  0.8280 -0.2524 -0.5942
  240MPD1    H5 3649   3.150   0.150  14.436  0.6580 -0.5777  1.4481
  240MPD1    N1 3650   3.122   0.456  14.077  0.1287  0.1545  0.2492
  240MPD1    H6 3651   3.149   0.468  13.980  0.1771  2.2053  0.5294
  240MPD1    H7 3652   3.027   0.419  14.069  0.0104  0.8896 -1.7488
  241MPD1     C 3653   3.528   0.125  15.419 -0.0986 -0.3497  0.1456
  241MPD1    C1 3654   3.396   0.100  15.408 -0.0978 -0.1246  0.0400
  241MPD1    C2 3655   3.347   0.059  15.284 -0.5072 -0.4462  0.4908
  241MPD1    C3 3656   3.427   0.064  15.170 -0.0689  0.2492  0.9807
  241MPD1    C4 3657   3.555   0.100  15.186  0.2525  0.4721 -0.0978
  241MPD1    C5 3658   3.601   0.128  15.310  0.7422  0.1413 -0.3067
  241MPD1     H 3659   3.242   0.033  15.282 -0.1915 -1.6264 -1.8578
  241MPD1    H1 3660   3.621   0.104  15.100  0.0981 -2.0240 -0.3329
  241MPD1    H2 3661   3.577   0.131  15.516  1.7016  0.1870 -0.8071
  241MPD1    H3 3662   3.709   0.145  15.309  0.8827 -0.7830 -0.6553
  241MPD1     N 3663   3.378   0.055  15.041 -0.4038  0.4908  0.1286
  241MPD1    H5 3664   3.454   0.055  14.974 -1.3088 -1.2111 -0.8905
  241MPD1    N1 3665   3.316   0.093  15.525 -0.0833  0.1092  0.3194
  241MPD1    H6 3666   3.220   0.109  15.496  0.8613  2.7781 -1.2687
  241MPD1    H7 3667   3.347   0.152  15.602  2.6134 -0.7960 -0.0611
  242MPD1     C 3668   2.721   3.712  15.830  0.1184 -0.2858 -0.6727
  242MPD1    C1 3669   2.743   3.585  15.878 -0.5204 -0.1191 -0.5046
  242MPD1    C2 3670   2.814   3.496  15.796 -0.5632  0.3820  0.5686
  242MPD1    C3 3671   2.870   3.539  15.671 -0.7534  0.2186  0.1561
  242MPD1    C4 3672   2.861   3.676  15.644  0.2407  0.0426  0.6963
  242MPD1    C5 3673   2.785   3.762  15.719  0.5877 -0.0452  0.0189
  242MPD1     H 3674   2.822   3.392  15.823 -0.6854 -0.4475 -2.5437
  242MPD1    H1 3675   2.915   3.712  15.557  1.5613 -1.3657  0.9256
  242MPD1    H2 3676   2.657   3.780  15.885  1.4772 -0.0438  0.6054
  242MPD1    H3 3677   2.770   3.864  15.689  0.8016  0.3726  1.3152
  242MPD1     N 3678   2.953   3.456  15.589  0.1165 -0.3164  0.4329
  242MPD1    H5 3679   3.000   3.508  15.514  1.9597 -2.2180  0.2757
  242MPD1    N1 3680   2.661   3.555  15.986 -0.0574 -0.0490  0.6747
  242MPD1    H6 3681   2.648   3.634  16.049 -1.7009 -0.1484  0.4368
  242MPD1    H7 3682   2.707   3.479  16.036 -1.5814 -3.4180 -3.0603
  243MPD1     C 3683   0.311   3.129  17.555 -0.2819 -0.5162  0.2429
  243MPD1    C1 3684   0.296   3.006  17.495  0.2866  0.1059 -0.4569
  243MPD1    C2 3685   0.309   2.888  17.568 -0.1592  0.0210  0.2154
  243MPD1    C3 3686   0.318   2.893   0.014 -0.3400  0.1885 -0.5750
  243MPD1    C4 3687   0.338   3.017   0.074  0.0669  0.1063 -0.0413
  243MPD1    C5 3688   0.329   3.131   0.004 -0.6430  0.1661  0.1239
  243MPD1     H 3689   0.305   2.794  17.516 -1.8473 -0.8043  1.8547
  243MPD1    H1 3690   0.360   3.017   0.180 -3.2984  0.6374  0.6700
  243MPD1    H2 3691   0.315   3.219  17.495 -1.5625 -1.1273 -0.7396
  243MPD1    H3 3692   0.347   3.226   0.053  2.2972  0.8011 -2.1498
  243MPD1     N 3693   0.307   2.768   0.085 -0.3716 -0.1230  0.2159
  243MPD1    H5 3694   0.281   2.686   0.032  1.2095 -0.7885  0.4421
  243MPD1    N1 3695   0.301   3.008  17.354  0.2129 -0.2611 -0.2538
  243MPD1    H6 3696   0.267   3.091  17.305 -0.4640 -0.1257  0.4358
  243MPD1    H7 3697   0.270   2.920  17.313  1.4715 -0.3568 -0.9770
  244MPD1     C 3698   0.001   2.543   1.028 -0.5323  0.3973  0.2873
  244MPD1    C1 3699   0.025   2.665   0.973 -0.5519  0.7165  0.5257
  244MPD1    C2 3700   0.068   2.668   0.838 -0.4023 -0.0007  0.3336
  244MPD1    C3 3701   0.064   2.552   0.759  1.2360  0.6690  0.4943
  244MPD1    C4 3702   0.025   2.432   0.815 -0.2626  0.4024 -0.2085
  244MPD1    C5 3703   0.010   2.431   0.951  0.6076 -0.0092  0.3608
  244MPD1     H 3704   0.101   2.758   0.787 -1.8507  0.7331  0.6920
  244MPD1    H1 3705   0.000   2.340   0.763  1.4149 -0.3978  0.4195
  244MPD1    H2 3706   4.702   2.531   1.133 -0.0286  2.3818  0.6062
  244MPD1    H3 3707   0.006   2.330   0.992 -1.7980  0.0511  0.2850
  244MPD1     N 3708   0.105   2.551   0.619 -0.0960  0.2883 -0.5187
  244MPD1    H5 3709   0.121   2.641   0.576 -0.9458  0.3779 -0.6585
  244MPD1    N1 3710   0.046   2.769   1.055  0.2426  0.3056  0.0523
  244MPD1    H6 3711   0.030   2.856   1.004 -2.1680  0.9888  1.9674
  244MPD1    H7 3712   0.001   2.762   1.146  1.2443 -0.9634  0.4556
  245MPD1     C 3713   1.316   2.199  13.568  0.0267  0.6582  0.3577
  245MPD1    C1 3714   1.310   2.280  13.682 -0.2339  0.4781 -0.1893
  245MPD1    C2 3715   1.390   2.387  13.675 -0.2351 -0.7062 -0.0258
  245MPD1    C3 3716   1.488   2.404  13.580  0.1046 -0.1267 -0.0888
  245MPD1    C4 3717   1.489   2.318  13.472 -0.2489 -0.2606  0.2339
  245MPD1    C5 3718   1.407   2.212  13.469  0.4969 -0.1887  1.2168
  245MPD1     H 3719   1.399   2.449  13.763  0.6691 -1.3489  0.3273
  245MPD1    H1 3720   1.562   2.332  13.393  0.4424 -1.0503  0.7341
  245MPD1    H2 3721   1.244   2.119  13.553  0.7404  0.0993 -0.0764
  245MPD1    H3 3722   1.401   2.150  13.381 -1.9178  1.3013  0.3261
  245MPD1     N 3723   1.585   2.505  13.591  0.0823  0.6101 -0.0629
  245MPD1    H5 3724   1.586   2.565  13.673  1.5121  0.8174 -0.2241
  245MPD1    N1 3725   1.206   2.283  13.773 -0.3189  0.1686  0.0614
  245MPD1    H6 3726   1.219   2.334  13.860  1.3457 -0.9519  0.4780
  245MPD1    H7 3727   1.178   2.191  13.806  1.4339 -0.2617  0.3415
  246MPD1     C 3728   2.076   0.972   8.959  0.7958 -0.1187  0.0063
  246MPD1    C1 3729   2.178   0.882   8.991 -0.0920  0.8157 -0.0593
  246MPD1    C2 3730   2.296   0.935   9.038 -0.5682 -0.6959 -0.7427
  246MPD1    C3 3731   2.310   1.075   9.057 -0.2490 -0.7107  0.3455
  246MPD1    C4 3732   2.199   1.159   9.049  0.3453 -0.6067  0.6044
  246MPD1    C5 3733   2.098   1.107   8.980 -0.2280  0.3707 -0.5340
  246MPD1     H 3734   2.379   0.872   9.067  0.8081  1.5171  0.0629
  246MPD1    H1 3735   2.222   1.265   9.051 -1.7042 -0.1254 -1.3326
  246MPD1    H2 3736   1.975   0.956   8.924  0.7759 -0.4971  0.2412
  246MPD1    H3 3737   2.012   1.174   8.976  0.8430  1.7687  0.0904
  246MPD1     N 3738   2.439   1.121   9.101 -0.1451 -0.2742 -0.0497
  246MPD1    H5 3739   2.518   1.059   9.114 -0.4622 -0.6778 -0.0612
  246MPD1    N1 3740   2.157   0.744   8.983  0.1482 -0.0166  0.1818
  246MPD1    H6 3741   2.059   0.730   8.959 -0.1372 -0.0190  1.3845
  246MPD1    H7 3742   2.193   0.692   9.063  2.5670 -2.5184 -2.4609
  247MPD1     C 3743   0.027   2.578  15.992 -0.2319 -0.6742  0.1137
  247MPD1    C1 3744   0.057   2.487  15.896 -0.5823  0.1816  0.8084
  247MPD1    C2 3745   0.135   2.381  15.930  0.2666 -0.3409  0.0446
  247MPD1    C3 3746   0.174   2.362  16.064  0.5744 -0.3764 -0.3720
  247MPD1    C4 3747   0.149   2.461  16.158 -0.3786 -0.6480  0.7284
  247MPD1    C5 3748   0.074   2.567  16.117 -0.1827  0.5514 -0.1953
  247MPD1     H 3749   0.142   2.294  15.866  4.3063  1.5890 -2.1049
  247MPD1    H1 3750   0.181   2.454  16.261  0.7134 -0.8999  0.3726
  247MPD1    H2 3751   4.673   2.650  15.964  0.2418 -0.2144  0.0042
  247MPD1    H3 3752   0.044   2.643  16.189 -2.0845 -1.6532  1.3156
  247MPD1     N 3753   0.245   2.248  16.109  0.2522 -0.3151 -0.0047
  247MPD1    H5 3754   0.270   2.251  16.208 -0.2582 -2.0246  0.1714
  247MPD1    N1 3755   4.696   2.490  15.782  0.5917 -0.0984 -0.7006
  247MPD1    H6 3756   4.665   2.587  15.771 -0.2761 -0.3585 -0.5308
  247MPD1    H7 3757   0.013   2.460  15.692  1.2105 -0.8899 -0.1635
  248MPD1     C 3758   1.903   4.645   0.743 -0.5644  0.0614  0.0263
  248MPD1    C1 3759   1.788   4.578   0.736  0.6604  0.2648 -0.6859
  248MPD1    C2 3760   1.793   4.446   0.693 -0.2694 -0.3730  0.4876
  248MPD1    C3 3761   1.908   4.403   0.635  0.2034  0.6570  0.2529
  248MPD1    C4 3762   2.028   4.483   0.632 -0.0287 -0.3645  0.3351
  248MPD1    C5 3763   2.026   4.607   0.690 -0.0398 -0.5216 -0.3037
  248MPD1     H 3764   1.704   4.385   0.703 -1.2221  1.0825  0.9485
  248MPD1    H1 3765   2.120   4.453   0.583  0.5692 -0.6412  1.6524
  248MPD1    H2 3766   1.903   0.020   0.791 -2.6392  0.1459 -0.1453
  248MPD1    H3 3767   2.117   4.665   0.686 -1.0500  1.3801  4.3191
  248MPD1     N 3768   1.907   4.265   0.602 -0.6026  0.4761 -0.1992
  248MPD1    H5 3769   1.819   4.224   0.572  0.1630 -0.3463 -1.3232
  248MPD1    N1 3770   1.670   4.633   0.784  0.2338 -0.1502  0.0848
  248MPD1    H6 3771   1.588   4.599   0.735  0.8626 -1.3683 -0.1188
  248MPD1    H7 3772   1.670   0.013   0.776 -1.3668 -0.0867  0.8845
  249MPD1     C 3773   3.115   0.004   9.559 -0.5355  0.2330 -0.3685
  249MPD1    C1 3774   3.223   0.090   9.560 -0.2127 -0.2468  1.0958
  249MPD1    C2 3775   3.259   0.159   9.678  0.0525 -0.2238 -0.4406
  249MPD1    C3 3776   3.207   0.123   9.797 -0.2577 -0.1081 -0.1469
  249MPD1    C4 3777   3.122   0.014   9.793  0.2226 -0.7282 -0.7217
  249MPD1    C5 3778   3.069   4.680   9.680  0.3552  0.0284  0.1191
  249MPD1     H 3779   3.339   0.231   9.674 -0.5935  0.5506  0.7686
  249MPD1    H1 3780   3.077   4.698   9.884  1.2903  1.8115  0.8668
  249MPD1    H2 3781   3.078   4.681   9.467 -2.7629  1.2681  0.0152
  249MPD1    H3 3782   2.986   4.610   9.680  0.5868 -0.2501  1.5052
  249MPD1     N 3783   3.253   0.189   9.913 -0.4291  0.0238  0.0499
  249MPD1    H5 3784   3.339   0.240   9.900 -0.8076  0.6098 -0.1501
  249MPD1    N1 3785   3.274   0.131   9.432  0.0047  0.2538  0.3842
  249MPD1    H6 3786   3.372   0.160   9.440  1.1610 -3.3335 -1.0701
  249MPD1    H7 3787   3.270   0.057   9.363  0.1543  2.4093 -1.9385
  250MPD2     C 3788   0.425   0.787  13.246 -0.4446 -0.6204 -0.3713
  250MPD2    C1 3789   0.310   0.863  13.226 -0.0506 -0.3005  0.3039
  250MPD2    C2 3790   0.208   0.801  13.152 -0.0570 -0.3391  0.4417
  250MPD2    C3 3791   0.229   0.679  13.096 -0.8298 -0.5725  0.6896
  250MPD2    C4 3792   0.335   0.599  13.132 -0.1238  0.0993  0.1024
  250MPD2    C5 3793   0.431   0.655  13.208 -0.4077 -0.2358  0.0685
  250MPD2     H 3794   0.121   0.861  13.129  0.5783  0.6949  0.7508
  250MPD2    H1 3795   0.346   0.496  13.102 -1.8760 -0.3720  1.0662
  250MPD2    H2 3796   0.509   0.824  13.303 -0.0756 -1.6487 -0.2394
  250MPD2    H3 3797   0.525   0.604  13.222  0.0001  0.5528  0.2150
  250MPD2     N 3798   0.139   0.635  12.997  0.2906 -0.3773 -0.5580
  250MPD2    H5 3799   0.166   0.546  12.955  0.1580 -0.9972  0.6793
  250MPD2    N1 3800   0.313   0.998  13.273  0.2985 -0.9981 -0.4033
  250MPD2    H7 3801   0.406   1.025  13.303  0.1502 -0.3006 -0.5707
  251TMC3    C1 3802   0.259   1.226  13.297  0.1675  0.3462 -0.3203
  251TMC3    C2 3803   0.170   1.325  13.332  0.3284 -0.3218  0.1573
  251TMC3    C3 3804   0.211   1.450  13.339  0.8564  0.2389  0.5178
  251TMC3    C4 3805   0.390   1.259  13.264  0.2089 -0.5107  0.1319
  251TMC3    C5 3806   0.426   1.389  13.277 -0.6089  0.2500  0.1583
  251TMC3    C6 3807   0.342   1.488  13.321 -0.3391  0.0023 -0.4468
  251TMC3     C 3808   0.212   1.093  13.269 -0.0294  0.2347 -0.8373
  251TMC3     O 3809   0.097   1.071  13.231  0.0310 -0.3956 -0.0700
  251TMC3     H 3810   0.070   1.292  13.356  0.2303 -0.9427 -1.1015
  251TMC3    H1 3811   0.461   1.188  13.223 -0.5040 -1.2357  0.1517
  251TMC3    H2 3812   0.371   1.591  13.339  0.0080 -0.0478 -0.7024
  251TMC3    C7 3813   0.564   1.395  13.321 -0.0913  0.0034 -0.0722
  251TMC3    C8 3814   0.113   1.545  13.391 -0.0633  0.1191  0.4378
  251TMC3    O1 3815   0.619   1.293  13.352 -0.9334 -0.5758  0.4067
  251TMC3    O2 3816   0.037   1.515  13.481  0.7596  0.0421  0.6821
  252TMC3    C1 3817   0.975   1.359   9.823  0.5448 -0.2656 -0.3322
  252TMC3    C2 3818   1.018   1.490   9.781  0.0779 -0.0236  0.8592
  252TMC3    C3 3819   0.983   1.535   9.653  0.5570  0.3287  0.0828
  252TMC3    C4 3820   0.898   1.279   9.745 -0.9609  0.1956  0.6011
  252TMC3    C5 3821   0.870   1.328   9.625  0.6754 -0.6969  0.0837
  252TMC3    C6 3822   0.915   1.448   9.574 -0.5395  0.3186  0.5753
  252TMC3     C 3823   1.003   1.308   9.955  0.0321  0.8826  0.3580
  252TMC3     O 3824   0.926   1.232  10.011 -1.1525  0.0424 -0.6094
  252TMC3     H 3825   1.062   1.564   9.847  0.5072  3.8412 -3.7341
  252TMC3    H1 3826   0.868   1.182   9.780 -0.7735 -0.6053 -1.4490
  252TMC3    H2 3827   0.872   1.475   9.478  1.2603  1.7391  0.1741
  252TMC3    C7 3828   0.755   1.265   9.557 -0.4528  0.0937 -0.1738
  252TMC3    C8 3829   0.979   1.674   9.625 -0.0307 -0.2243 -0.2401
  252TMC3    O1 3830   0.675   1.341   9.502 -0.3859  0.3087 -0.6973
  252TMC3    O2 3831   0.940   1.691   9.511 -0.3834 -0.2484 -0.3402
  253MPD2     C 3832   1.488   0.829  15.774 -0.2258 -0.1368 -0.2840
  253MPD2    C1 3833   1.351   0.836  15.773  0.5398  0.0166  0.1219
  253MPD2    C2 3834   1.285   0.808  15.891 -0.0644 -0.4659  0.9328
  253MPD2    C3 3835   1.353   0.764  16.000  0.3262  0.2531  0.6668
  253MPD2    C4 3836   1.488   0.760  15.999 -0.4489  0.4973  0.0896
  253MPD2    C5 3837   1.555   0.803  15.887 -0.6408  0.0768  0.0653
  253MPD2     H 3838   1.177   0.813  15.884 -0.1069 -3.4104 -0.5874
  253MPD2    H1 3839   1.540   0.732  16.090  0.0098 -1.1172 -0.6732
  253MPD2    H2 3840   1.543   0.840  15.681  1.7456  1.1216  1.0303
  253MPD2    H3 3841   1.663   0.799  15.881 -0.4704  1.6576  1.8937
  253MPD2     N 3842   1.296   0.738  16.129 -0.1274  0.1182 -0.0218
  253MPD2    H5 3843   1.353   0.690  16.197  0.6300 -0.7340 -1.2533
  253MPD2    N1 3844   1.279   0.863  15.653 -0.2641 -0.0226  0.2672
  253MPD2    H7 3845   1.179   0.871  15.672 -0.2099 -1.6952  1.1876
  254TMC3    C1 3846   1.114   0.723  16.288  0.2926 -0.5062 -0.5547
  254TMC3    C2 3847   0.980   0.733  16.311  0.7129  0.1546 -0.5954
  254TMC3    C3 3848   0.940   0.713  16.440  0.1648  0.0003  0.3726
  254TMC3    C4 3849   1.202   0.662  16.379 -0.1288  0.0588 -0.2559
  254TMC3    C5 3850   1.154   0.639  16.505 -0.2326 -0.2316 -0.3224
  254TMC3    C6 3851   1.017   0.656  16.536  1.2478 -0.6504 -0.0120
  254TMC3     C 3852   1.167   0.759  16.156  0.2777 -0.0375 -0.8356
  254TMC3     O 3853   1.084   0.813  16.089  0.1812 -0.0821  0.2861
  254TMC3     H 3854   0.923   0.794  16.242 -0.4809  0.0782  0.3245
  254TMC3    H1 3855   1.308   0.642  16.368 -0.0127 -0.8397  2.6254
  254TMC3    H2 3856   0.979   0.649  16.637 -0.1948  0.3112 -0.4937
  254TMC3    C7 3857   1.235   0.622  16.626 -1.0123  0.0385  0.0775
  254TMC3    C8 3858   0.874   0.828  16.500  0.6240  0.7580 -0.8318
  254TMC3    O1 3859   1.201   0.555  16.722 -0.1320  0.3306  0.5252
  254TMC3    O2 3860   0.935   0.869  16.601 -0.5675 -0.3857  0.2127
  255MPD2     C 3861   4.211   2.919  10.797  0.0415  0.7120 -0.1186
  255MPD2    C1 3862   4.309   3.015  10.815 -0.6432  0.1346 -0.6790
  255MPD2    C2 3863   4.431   2.984  10.866 -0.8284 -0.2998 -1.4949
  255MPD2    C3 3864   4.468   2.853  10.880  0.3130 -0.3298 -0.3761
  255MPD2    C4 3865   4.383   2.756  10.845 -0.8219 -0.3554 -0.6004
  255MPD2    C5 3866   4.253   2.787  10.817  0.2684  0.0601  0.1075
  255MPD2     H 3867   4.503   3.060  10.893  0.6738 -1.8615 -1.0718
  255MPD2    H1 3868   4.405   2.651  10.861 -0.7342 -0.1486  0.6143
  255MPD2    H2 3869   4.110   2.943  10.768 -0.2979 -0.6708 -0.0640
  255MPD2    H3 3870   4.178   2.710  10.802  0.4636  0.0481 -0.8138
  255MPD2     N 3871   4.602   2.829  10.905  0.2611  0.3448  0.1888
  255MPD2    H5 3872   4.655   2.906  10.945 -1.3741  0.5864  1.8641
  255MPD2    N1 3873   4.271   3.149  10.777 -0.2147 -0.2547 -0.1572
  255MPD2    H7 3874   4.176   3.156  10.741 -0.0581  2.6133  0.0018
  256TMC3    C1 3875   4.305   3.362  10.718 -0.6851 -0.3432  1.0031
  256TMC3    C2 3876   4.362   3.483  10.738 -0.7541  0.0948 -0.0891
  256TMC3    C3 3877   4.345   3.585  10.644 -0.3786  0.8322  0.5178
  256TMC3    C4 3878   4.225   3.343  10.607  0.3258  0.4306 -0.4391
  256TMC3    C5 3879   4.225   3.437  10.513 -0.8103 -0.4256  0.1229
  256TMC3    C6 3880   4.287   3.554  10.522  0.1915  0.2009 -0.3324
  256TMC3     C 3881   4.340   3.263  10.810  0.1428  0.0338  0.5024
  256TMC3     O 3882   4.434   3.274  10.887  0.2805 -0.3095 -0.6020
  256TMC3     H 3883   4.420   3.509  10.826  0.7796  0.3037 -1.1668
  256TMC3    H1 3884   4.195   3.243  10.578 -1.8028  0.1891  2.5262
  256TMC3    H2 3885   4.252   3.629  10.452 -2.3524  0.1938  0.9330
  256TMC3    C7 3886   4.147   3.393  10.393  0.0029  0.5986 -0.2420
  256TMC3    C8 3887   4.345   3.722  10.691  0.1788 -0.3165 -0.0928
  256TMC3    O1 3888   4.194   3.429  10.287 -0.5181  0.2771 -0.6683
  256TMC3    O2 3889   4.293   3.737  10.801  0.3570 -0.2273 -0.5344
  257MPD2     C 3890   3.241   0.962  13.586  0.0956 -0.6091 -0.4594
  257MPD2    C1 3891   3.273   0.887  13.465 -0.0749 -0.6294  0.0137
  257MPD2    C2 3892   3.315   0.761  13.476 -0.7189  0.0976  0.0901
  257MPD2    C3 3893   3.321   0.707  13.604 -0.0053 -0.1997  0.3495
  257MPD2    C4 3894   3.280   0.775  13.716  0.0974 -0.2289  0.2434
  257MPD2    C5 3895   3.239   0.910  13.708  0.3751  0.2286 -0.1832
  257MPD2     H 3896   3.343   0.698  13.393 -1.9184  0.0923 -0.3022
  257MPD2    H1 3897   3.290   0.738  13.817  0.3080  1.4529  0.8392
  257MPD2    H2 3898   3.214   1.067  13.574  0.8760 -0.2730  0.7097
  257MPD2    H3 3899   3.201   0.952  13.800  2.1088  0.4792  0.4166
  257MPD2     N 3900   3.391   0.581  13.604  0.6322  0.5241  0.1917
  257MPD2    H5 3901   3.450   0.564  13.523  0.9237 -0.2814  0.5783
  257MPD2    N1 3902   3.276   0.941  13.338 -0.1344 -0.3496 -0.4056
  257MPD2    H7 3903   3.315   0.882  13.265  1.9767  2.8758 -1.8669
  258TMC3    C1 3904   3.501   0.398  13.712  0.3506  0.5330  0.0164
  258TMC3    C2 3905   3.539   0.352  13.590 -0.4884 -0.3247  0.6405
  258TMC3    C3 3906   3.650   0.277  13.581 -0.1861 -0.1012  0.0309
  258TMC3    C4 3907   3.568   0.361  13.828 -0.0220  0.3909 -0.2483
  258TMC3    C5 3908   3.667   0.273  13.818  0.3810 -0.2844 -0.9191
  258TMC3    C6 3909   3.719   0.240  13.694 -0.2102  1.0311 -0.4102
  258TMC3     C 3910   3.392   0.497  13.717 -0.6007 -0.8197  0.1341
  258TMC3     O 3911   3.331   0.499  13.823 -0.0813 -0.1371 -0.0418
  258TMC3     H 3912   3.491   0.378  13.496 -0.1194 -1.1734  0.2173
  258TMC3    H1 3913   3.535   0.382  13.929 -1.4559  3.3097 -1.3300
  258TMC3    H2 3914   3.818   0.200  13.677  0.2516  2.2638 -0.6256
  258TMC3    C7 3915   3.749   0.241  13.927 -0.5637  0.0717  0.1406
  258TMC3    C8 3916   3.687   0.205  13.458 -0.3557 -0.1732  0.0850
  258TMC3    O1 3917   3.870   0.259  13.924 -0.3911 -0.4274 -0.4289
  258TMC3    O2 3918   3.735   0.092  13.479 -0.9348  0.2340 -0.7768
  259MPD2     C 3919   2.242   2.356   0.274  0.4630 -0.3912  0.4120
  259MPD2    C1 3920   2.352   2.392   0.343 -0.2994 -0.0742 -1.1314
  259MPD2    C2 3921   2.480   2.363   0.291 -0.4211  0.0954  0.5086
  259MPD2    C3 3922   2.494   2.309   0.165 -0.1170  0.0294  1.1401
  259MPD2    C4 3923   2.384   2.286   0.095  0.1805  0.5654  0.3103
  259MPD2    C5 3924   2.255   2.315   0.140  0.1444  0.2285  0.4097
  259MPD2     H 3925   2.568   2.379   0.352 -0.4229 -2.9148  1.2650
  259MPD2    H1 3926   2.393   2.258  17.680  0.9635 -1.7196  0.9742
  259MPD2    H2 3927   2.148   2.370   0.324 -0.5167 -0.4764 -1.3955
  259MPD2    H3 3928   2.167   2.301   0.079  1.4428 -0.1735 -1.3747
  259MPD2     N 3929   2.623   2.291   0.118  0.0594 -1.4168 -0.6742
  259MPD2    H5 3930   2.704   2.311   0.175 -2.1208  1.7936  1.2929
  259MPD2    N1 3931   2.344   2.432   0.475  0.0119  0.0764  0.2721
  259MPD2    H7 3932   2.254   2.407   0.515 -0.4779  0.8102 -0.3614
  260TMC3    C1 3933   2.787   2.185  17.676 -0.4395  0.3490  0.6522
  260TMC3    C2 3934   2.819   2.066  17.624  0.1570  0.2918 -0.5911
  260TMC3    C3 3935   2.953   2.037  17.624  0.3535 -0.5774  0.1881
  260TMC3    C4 3936   2.877   2.274   0.042 -0.1452  0.1146 -0.5167
  260TMC3    C5 3937   3.008   2.236   0.049 -0.9214  0.3335 -0.0547
  260TMC3    C6 3938   3.048   2.114  17.685  0.7289  0.4850 -0.7331
  260TMC3     C 3939   2.645   2.201   0.011  0.2426 -0.6810 -0.4150
  260TMC3     O 3940   2.573   2.133  17.632 -0.1052 -0.1730  0.5966
  260TMC3     H 3941   2.746   1.998  17.583  0.2528 -0.1172 -0.0918
  260TMC3    H1 3942   2.858   2.374   0.079  1.9145 -0.2299  1.4693
  260TMC3    H2 3943   3.151   2.080  17.688  1.2527  2.2802  1.6409
  260TMC3    C7 3944   3.111   2.306   0.118  0.4054 -0.0548  0.0349
  260TMC3    C8 3945   2.997   1.904  17.613 -0.2341  0.3159  0.4588
  260TMC3    O1 3946   3.217   2.313   0.057  0.2397 -0.0460 -0.5194
  260TMC3    O2 3947   3.098   1.870  17.559 -0.5264  0.2239 -1.0794
  261MPD2     C 3948   4.091   0.706  12.623  0.0777 -0.0409  0.7195
  261MPD2    C1 3949   4.213   0.695  12.563  0.1144 -0.4666 -0.1333
  261MPD2    C2 3950   4.233   0.765  12.441 -0.0320  0.0417  0.3697
  261MPD2    C3 3951   4.131   0.839  12.385 -0.2489  0.1153 -0.1852
  261MPD2    C4 3952   4.004   0.837  12.437  0.0493 -0.5297  0.5045
  261MPD2    C5 3953   3.988   0.775  12.555 -0.7255  0.6314  0.4776
  261MPD2     H 3954   4.333   0.766  12.401 -0.0568  0.2319  0.3083
  261MPD2    H1 3955   3.919   0.894  12.402 -0.2772  0.5911  3.1205
  261MPD2    H2 3956   4.077   0.659  12.720 -0.2465 -0.2662  0.5615
  261MPD2    H3 3957   3.890   0.786  12.601 -0.1657  0.3795  1.7223
  261MPD2     N 3958   4.160   0.911  12.266  0.0668  0.5361  0.0043
  261MPD2    H5 3959   4.253   0.902  12.226 -0.5093  0.9253 -1.4085
  261MPD2    N1 3960   4.327   0.630  12.613 -0.6877  0.3333 -0.4101
  261MPD2    H7 3961   4.411   0.626  12.556 -0.0982 -0.4472  0.5208
  262TMC3    C1 3962   4.126   1.049  12.071 -0.8266  0.3461 -0.4916
  262TMC3    C2 3963   4.058   1.160  12.026  0.1391  0.3642  0.6206
  262TMC3    C3 3964   4.090   1.206  11.900  0.3053  0.1257 -0.1816
  262TMC3    C4 3965   4.194   0.973  11.985 -1.1768  0.1617  0.8971
  262TMC3    C5 3966   4.219   1.019  11.858 -0.4036 -0.3920  0.5854
  262TMC3    C6 3967   4.171   1.140  11.814 -0.2331  0.0187  0.4892
  262TMC3     C 3968   4.079   1.002  12.203 -0.5661  0.3629  0.0014
  262TMC3     O 3969   3.978   1.049  12.247  0.4005 -0.2570  0.4948
  262TMC3     H 3970   4.010   1.226  12.097 -0.1801  1.4198 -0.5771
  262TMC3    H1 3971   4.227   0.874  12.016  2.2343  1.7050  2.2413
  262TMC3    H2 3972   4.201   1.195  11.726 -0.1104  1.5288  1.4822
  262TMC3    C7 3973   4.344   0.970  11.797 -0.0323  0.2875  0.2252
  262TMC3    C8 3974   4.046   1.343  11.869  0.1843 -0.4055  0.5564
  262TMC3    O1 3975   4.434   0.928  11.872  0.5243  0.3141 -0.3575
  262TMC3    O2 3976   4.102   1.401  11.772  0.6635 -0.0405  0.1808
  263MPD2     C 3977   0.667   4.658  11.157  0.2830  0.6647  0.2605
  263MPD2    C1 3978   0.721   0.043  11.226 -0.5354  0.0210  0.4425
  263MPD2    C2 3979   0.733   0.163  11.157 -0.2279 -0.6802 -0.2639
  263MPD2    C3 3980   0.681   0.186  11.032  0.3476 -0.6737  0.1273
  263MPD2    C4 3981   0.617   0.085  10.969  0.3330  0.5775 -1.4500
  263MPD2    C5 3982   0.603   4.687  11.035 -0.3060 -0.0718 -0.0681
  263MPD2     H 3983   0.784   0.243  11.209 -0.0007 -2.5817  2.4464
  263MPD2    H1 3984   0.572   0.103  10.873 -1.1211  0.8618 -0.7231
  263MPD2    H2 3985   0.674   4.556  11.194  0.3593  0.5354 -0.1126
  263MPD2    H3 3986   0.558   4.606  10.979  0.2236  1.0114 -2.0591
  263MPD2     N 3987   0.714   0.311  10.970  0.1034  0.1073  0.1987
  263MPD2    H5 3988   0.756   0.386  11.024  2.3238 -0.6414 -0.4680
  263MPD2    N1 3989   0.781   0.031  11.357  0.1369 -0.0952  0.2215
  263MPD2    H7 3990   0.786   4.656  11.385 -0.0999 -0.9468 -2.6643
  264TMC3    C1 3991   0.725   0.470  10.796 -0.3210  0.5713 -0.1596
  264TMC3    C2 3992   0.684   0.573  10.877  0.6378  0.0805  0.2323
  264TMC3    C3 3993   0.713   0.694  10.821  0.3652 -0.2695 -0.9150
  264TMC3    C4 3994   0.778   0.485  10.667 -0.2977 -0.2571  0.3522
  264TMC3    C5 3995   0.803   0.609  10.623 -0.1871 -0.2371  0.1832
  264TMC3    C6 3996   0.778   0.715  10.704 -0.1023 -0.1737 -0.1315
  264TMC3     C 3997   0.701   0.333  10.837  0.2205  1.0091  0.1783
  264TMC3     O 3998   0.691   0.254  10.744  0.1592 -0.2349  0.0940
  264TMC3     H 3999   0.658   0.554  10.981  1.2402  0.6131  0.4817
  264TMC3    H1 4000   0.812   0.400  10.610  0.2853 -1.0687  1.9087
  264TMC3    H2 4001   0.809   0.815  10.674  2.7544 -0.8340  0.5896
  264TMC3    C7 4002   0.886   0.619  10.503 -0.7287 -0.2387  0.3649
  264TMC3    C8 4003   0.699   0.815  10.902  0.3234 -0.1275  0.1585
  264TMC3    O1 4004   0.975   0.535  10.487  0.1126  0.4286  0.2978
  264TMC3    O2 4005   0.750   0.918  10.860  0.0950 -0.4851  0.2285
  265MPD2     C 4006   2.144   0.517  15.760 -0.2412 -0.2715  0.0839
  265MPD2    C1 4007   2.232   0.624  15.754  0.1775  0.0037 -0.0925
  265MPD2    C2 4008   2.350   0.613  15.687  0.3909 -0.0009  0.4230
  265MPD2    C3 4009   2.381   0.487  15.633  0.0423  0.9937 -0.7335
  265MPD2    C4 4010   2.297   0.377  15.649  0.1777  0.6105 -0.0907
  265MPD2    C5 4011   2.178   0.392  15.714  0.4248  0.6214  0.9310
  265MPD2     H 4012   2.417   0.698  15.690  0.1387  0.2585 -1.2836
  265MPD2    H1 4013   2.329   0.278  15.619  1.2828  0.4445  1.6320
  265MPD2    H2 4014   2.050   0.520  15.814 -0.4856  1.0870 -0.4273
  265MPD2    H3 4015   2.111   0.307  15.713  0.5527  0.5120  2.2103
  265MPD2     N 4016   2.490   0.467  15.544  0.3217 -0.2428  0.0292
  265MPD2    H5 4017   2.488   0.375  15.502  1.5482 -1.1968  2.0342
  265MPD2    N1 4018   2.205   0.749  15.824 -0.3196  0.0366  0.6957
  265MPD2    H7 4019   2.266   0.828  15.809  0.4430 -0.5489  0.7377
  266TMC3    C1 4020   2.118   0.898  15.976 -0.6835  0.6249 -0.3128
  266TMC3    C2 4021   2.116   0.906  16.115 -0.0988 -0.6698 -0.6900
  266TMC3    C3 4022   2.108   1.034  16.159  0.0558  0.1934 -0.1897
  266TMC3    C4 4023   2.110   1.002  15.891 -0.0558 -0.1786 -0.3112
  266TMC3    C5 4024   2.089   1.123  15.943  0.0976  0.9988 -0.1411
  266TMC3    C6 4025   2.089   1.146  16.078 -0.5068 -0.0782  0.0633
  266TMC3     C 4026   2.104   0.761  15.919  0.2638  0.2903 -0.4419
  266TMC3     O 4027   2.040   0.669  15.972 -0.4087  0.7281 -0.3034
  266TMC3     H 4028   2.136   0.821  16.180 -1.4062  0.5746  1.3717
  266TMC3    H1 4029   2.106   0.972  15.787  1.1089  2.0633 -1.0064
  266TMC3    H2 4030   2.053   1.239  16.121  2.4209  1.1009  0.0067
  266TMC3    C7 4031   2.043   1.230  15.857  0.2510 -0.2046 -0.3204
  266TMC3    C8 4032   2.064   1.041  16.293 -0.2832 -0.5424  0.0033
  266TMC3    O1 4033   1.972   1.197  15.765 -0.0638 -0.0626 -0.1588
  266TMC3    O2 4034   2.002   0.942  16.329  0.2911  0.0715  0.4634
  267MPD2     C 4035   0.018   3.336   0.093  0.4768 -0.0771  0.0765
  267MPD2    C1 4036   0.023   3.243   0.194  0.1854 -0.2812  0.2719
  267MPD2    C2 4037   4.713   3.112   0.166  0.1612 -0.4496  0.2838
  267MPD2    C3 4038   4.679   3.075   0.033 -0.4677 -0.1480 -0.4568
  267MPD2    C4 4039   4.683   3.167  17.616  0.4244 -0.0737  1.1112
  267MPD2    C5 4040   4.718   3.297  17.653 -0.7248  0.2921  0.3805
  267MPD2     H 4041   0.009   3.035   0.240 -2.2692 -3.3644 -2.1464
  267MPD2    H1 4042   4.667   3.145  17.511  2.0901 -1.2982  1.1121
  267MPD2    H2 4043   0.056   3.437   0.108  1.1137 -0.3498  0.2782
  267MPD2    H3 4044   0.003   3.374  17.577 -1.9545 -2.2286 -2.2797
  267MPD2     N 4045   4.648   2.939  17.685 -0.4273  0.1743  0.3478
  267MPD2    H5 4046   4.643   2.915  17.586  0.7685  1.8295 -0.1076
  267MPD2    N1 4047   0.097   3.278   0.308 -0.3200 -0.4870 -0.5472
  267MPD2    H7 4048   0.155   3.361   0.304  0.0694 -0.7068  0.6051
  268TMC3    C1 4049   0.227   3.240   0.492  0.3421 -0.1063  0.1433
  268TMC3    C2 4050   0.342   3.251   0.425 -0.6103  0.2078 -0.0553
  268TMC3    C3 4051   0.456   3.229   0.492 -0.1099  0.4976 -0.1271
  268TMC3    C4 4052   0.223   3.205   0.622  0.4816  0.3295  0.0210
  268TMC3    C5 4053   0.339   3.184   0.688 -0.0240 -0.8307  0.1133
  268TMC3    C6 4054   0.462   3.205   0.626  0.2950  0.0852 -0.2462
  268TMC3     C 4055   0.114   3.194   0.419  0.2106  0.2022 -0.1721
  268TMC3     O 4056   0.061   3.090   0.457 -0.2522  0.7270  0.0340
  268TMC3     H 4057   0.341   3.246   0.316 -1.3081 -0.2447 -0.0242
  268TMC3    H1 4058   0.123   3.186   0.660  0.0933  3.5154  0.6068
  268TMC3    H2 4059   0.558   3.186   0.674  1.1977  0.2536 -1.9641
  268TMC3    C7 4060   0.330   3.115   0.815 -1.3760 -0.2935  0.3311
  268TMC3    C8 4061   0.575   3.204   0.412  0.2195 -0.1824  0.1148
  268TMC3    O1 4062   0.427   3.043   0.841  0.2682 -0.2946 -0.4588
  268TMC3    O2 4063   0.659   3.136   0.468 -0.1599  0.0856 -0.5729
  269MPD2     C 4064   0.640   1.281  15.741  0.0166  0.6085  0.1101
  269MPD2    C1 4065   0.508   1.311  15.767 -0.5586 -0.0773 -0.2944
  269MPD2    C2 4066   0.443   1.420  15.710  0.5024 -0.7351 -0.0389
  269MPD2    C3 4067   0.517   1.502  15.621  0.5008 -0.0276 -0.0173
  269MPD2    C4 4068   0.650   1.475  15.605 -0.3067  0.1051 -0.4852
  269MPD2    C5 4069   0.711   1.373  15.673  0.3097  0.2706 -0.6546
  269MPD2     H 4070   0.339   1.443  15.728  0.7788 -1.2389  2.2205
  269MPD2    H1 4071   0.711   1.518  15.526  0.3258 -0.2186 -0.1718
  269MPD2    H2 4072   0.688   1.196  15.787  1.6240  1.2163 -0.4613
  269MPD2    H3 4073   0.813   1.342  15.650  0.1384  2.0490 -3.7546
  269MPD2     N 4074   0.449   1.607  15.565  0.1975  0.1615 -0.5059
  269MPD2    H5 4075   0.354   1.623  15.596  0.1189 -1.2078 -0.0435
  269MPD2    N1 4076   0.439   1.220  15.849 -0.6361 -0.0692  0.3701
  269MPD2    H7 4077   0.492   1.142  15.885  0.3390  0.4591  0.0861
  270TMC3    C1 4078   0.251   1.095  15.920  0.5403 -0.4451  0.1276
  270TMC3    C2 4079   0.117   1.076  15.901  0.2110  0.2494 -0.0581
  270TMC3    C3 4080   0.055   0.971  15.952 -0.8602  0.3092 -0.6749
  270TMC3    C4 4081   0.316   1.020  16.025 -0.3223  1.1283  1.0375
  270TMC3    C5 4082   0.248   0.909  16.067 -0.7553 -0.1738 -0.2093
  270TMC3    C6 4083   0.113   0.883  16.034  0.4628  0.3849  0.5379
  270TMC3     C 4084   0.304   1.225  15.878  0.6383 -0.6449  0.1608
  270TMC3     O 4085   0.228   1.320  15.863 -0.2569 -0.1607  0.4175
  270TMC3     H 4086   0.065   1.157  15.851  0.8088  0.2856 -0.6189
  270TMC3    H1 4087   0.422   1.028  16.041 -0.1390  2.2810 -0.7417
  270TMC3    H2 4088   0.063   0.789  16.052 -0.3335  0.6860 -0.0839
  270TMC3    C7 4089   0.330   0.799  16.105 -0.7278 -0.5418  0.4067
  270TMC3    C8 4090   4.674   0.913  15.869  0.1022 -0.5891 -0.3953
  270TMC3    O1 4091   0.443   0.794  16.061  0.1559 -0.0816  0.4337
  270TMC3    O2 4092   4.615   0.813  15.906 -0.3105 -0.2071 -0.0876
  271MPD2     C 4093   4.083   0.851  14.049  0.7535  0.6147  0.4473
  271MPD2    C1 4094   4.039   0.880  14.181 -0.0822 -0.3310  0.7434
  271MPD2    C2 4095   3.922   0.957  14.204  0.3213  0.5709  0.6070
  271MPD2    C3 4096   3.859   1.010  14.094 -0.0413  0.4488  0.0586
  271MPD2    C4 4097   3.905   0.983  13.967 -0.0566 -0.5623  0.2658
  271MPD2    C5 4098   4.018   0.907  13.942  0.0821  0.3312  0.0380
  271MPD2     H 4099   3.885   0.983  14.302  1.3588  1.1407  0.8464
  271MPD2    H1 4100   3.858   1.039  13.887 -0.2115  0.4301  1.0548
  271MPD2    H2 4101   4.171   0.793  14.024  0.2911 -0.2060  0.7454
  271MPD2    H3 4102   4.058   0.892  13.842 -0.0203 -0.5893  0.1342
  271MPD2     N 4103   3.742   1.099  14.106 -0.0882  0.0738  0.4299
  271MPD2    H5 4104   3.701   1.137  14.021  0.0333 -0.1391  0.2769
  271MPD2    N1 4105   4.108   0.823  14.289 -0.3227 -0.1489  0.1715
  271MPD2    H7 4106   4.057   0.844  14.374  0.7269 -3.0846  1.5266
  272TMC3    C1 4107   4.290   0.728  14.427  0.8565 -0.2221 -0.1611
  272TMC3    C2 4108   4.421   0.691  14.422  0.3178  0.4571  0.4950
  272TMC3    C3 4109   4.487   0.683  14.545  0.0461  0.1055  0.2261
  272TMC3    C4 4110   4.222   0.766  14.537 -0.3595 -0.1594  1.1429
  272TMC3    C5 4111   4.293   0.752  14.653  0.6970  0.2117 -0.1544
  272TMC3    C6 4112   4.423   0.712  14.659  0.0479  0.9205 -0.6225
  272TMC3     C 4113   4.231   0.756  14.290 -0.5889 -0.0741 -0.2684
  272TMC3     O 4114   4.307   0.734  14.199 -0.2272 -0.0858  0.0364
  272TMC3     H 4115   4.468   0.649  14.334  0.6422 -0.3982  1.0707
  272TMC3    H1 4116   4.128   0.820  14.541 -0.6705 -0.6803  0.9483
  272TMC3    H2 4117   4.480   0.714  14.751  1.5001 -1.0126 -1.4816
  272TMC3    C7 4118   4.236   0.811  14.777  0.0364  0.6183  0.1456
  272TMC3    C8 4119   4.629   0.664  14.541  0.0203 -0.0143  0.3051
  272TMC3    O1 4120   4.114   0.797  14.785  0.2239 -0.0803 -0.8862
  272TMC3    O2 4121   4.684   0.670  14.432  0.1972  0.8224 -0.1933
  273MPD2     C 4122   1.292   3.373  12.263 -0.7034 -0.4825 -0.0874
  273MPD2    C1 4123   1.366   3.475  12.206 -0.2674  0.6603 -0.4592
  273MPD2    C2 4124   1.318   3.539  12.092  0.6054 -0.1742  0.6245
  273MPD2    C3 4125   1.202   3.491  12.029  0.2358  0.1953  0.1405
  273MPD2    C4 4126   1.146   3.375  12.080  0.4009  0.0644 -0.5678
  273MPD2    C5 4127   1.185   3.316  12.194  0.1165 -0.4314  0.1882
  273MPD2     H 4128   1.379   3.613  12.042 -1.2366  0.8999 -0.0703
  273MPD2    H1 4129   1.057   3.330  12.039 -0.7840  2.3953 -0.5691
  273MPD2    H2 4130   1.322   3.332  12.358  1.5237  1.2711 -0.0453
  273MPD2    H3 4131   1.142   3.232  12.247  0.7756 -1.2268 -0.5243
  273MPD2     N 4132   1.152   3.556  11.914 -0.5030 -0.1737  0.1662
  273MPD2    H5 4133   1.082   3.503  11.862  0.5807 -0.3207 -1.1470
  273MPD2    N1 4134   1.477   3.524  12.283 -1.4974  0.1818 -0.8047
  273MPD2    H7 4135   1.495   3.482  12.373 -1.4862 -0.0967 -0.9382
  274TMC3    C1 4136   1.151   3.729  11.750 -0.3178 -0.3101  0.3195
  274TMC3    C2 4137   1.040   3.686  11.693 -0.2734  0.3048  0.0315
  274TMC3    C3 4138   1.008   3.741  11.571  0.5473 -0.1294 -0.1671
  274TMC3    C4 4139   1.227   3.829  11.696 -0.1479 -0.1239  0.7045
  274TMC3    C5 4140   1.184   3.885  11.579  0.0068 -0.6780  0.5082
  274TMC3    C6 4141   1.077   3.840  11.512  0.0652 -0.5463  0.0137
  274TMC3     C 4142   1.183   3.692  11.886 -0.1457  0.3084 -0.5942
  274TMC3     O 4143   1.231   3.781  11.953 -0.3152 -0.4173  0.4005
  274TMC3     H 4144   0.973   3.617  11.744 -0.3098  1.0270  0.9468
  274TMC3    H1 4145   1.307   3.859  11.762  0.8201 -3.0032  0.8523
  274TMC3    H2 4146   1.031   3.892  11.429 -1.1638 -4.1294 -1.5788
  274TMC3    C7 4147   1.211   4.024  11.559 -0.7332 -0.2512 -0.6339
  274TMC3    C8 4148   0.874   3.732  11.524  0.0273 -0.1957 -0.3213
  274TMC3    O1 4149   1.136   4.089  11.486  0.3368 -0.0219 -0.2554
  274TMC3    O2 4150   0.849   3.715  11.403  0.0679  0.0043 -0.2045
  275MPD2     C 4151   0.927   2.160  14.477  0.2469 -0.2501  0.0077
  275MPD2    C1 4152   0.946   2.032  14.524  0.5221 -0.1167  0.4043
  275MPD2    C2 4153   0.836   1.946  14.521  0.7979  0.1052  0.1080
  275MPD2    C3 4154   0.707   1.989  14.475 -0.9450 -0.3253  0.2733
  275MPD2    C4 4155   0.698   2.122  14.441  0.2792 -0.1576 -0.5602
  275MPD2    C5 4156   0.803   2.212  14.448 -0.6740 -0.0083  0.2233
  275MPD2     H 4157   0.851   1.850  14.568 -0.5161 -0.6939 -1.1047
  275MPD2    H1 4158   0.599   2.162  14.423  0.0765 -0.0421  0.8848
  275MPD2    H2 4159   1.010   2.229  14.474  0.2427 -0.2427  0.0646
  275MPD2    H3 4160   0.784   2.319  14.444  1.5153  0.3482 -0.7419
  275MPD2     N 4161   0.584   1.916  14.470 -0.1979  0.0898 -0.1458
  275MPD2    H5 4162   0.506   1.967  14.432 -0.6954  1.2438  2.4329
  275MPD2    N1 4163   1.068   1.966  14.555  0.0279  0.3748 -0.2391
  275MPD2    H7 4164   1.067   1.869  14.588  1.2844  0.2255 -0.6675
  276TMC3    C1 4165   1.290   1.941  14.625 -0.3118 -0.3350  0.7063
  276TMC3    C2 4166   1.255   1.806  14.620  0.1966  0.1909  0.0233
  276TMC3    C3 4167   1.255   1.737  14.735 -0.4089 -0.5380  0.5973
  276TMC3    C4 4168   1.323   2.002  14.743  0.8073 -0.3224 -0.0101
  276TMC3    C5 4169   1.311   1.929  14.852 -1.0317 -0.1681 -0.0380
  276TMC3    C6 4170   1.278   1.796  14.859  0.3251  0.3983 -0.1975
  276TMC3     C 4171   1.191   2.027  14.569 -0.0467 -0.2465  0.9389
  276TMC3     O 4172   1.227   2.144  14.551 -0.1479  0.8931  0.2136
  276TMC3     H 4173   1.227   1.759  14.527 -0.0128  1.6912 -0.6754
  276TMC3    H1 4174   1.339   2.109  14.736 -1.3929 -0.0024 -0.3156
  276TMC3    H2 4175   1.259   1.750  14.955 -2.1584  0.7192 -0.5352
  276TMC3    C7 4176   1.345   1.992  14.987  0.7861  0.0375  0.2482
  276TMC3    C8 4177   1.147   1.642  14.731  0.1174 -0.9699  0.2050
  276TMC3    O1 4178   1.313   1.931  15.083 -0.3925  0.3539  0.0698
  276TMC3    O2 4179   1.060   1.665  14.648 -0.0859 -0.2377  0.4376
  277MPD2     C 4180   2.107   0.775  13.318  0.7072 -0.3762 -0.1092
  277MPD2    C1 4181   2.202   0.830  13.403 -0.5433  0.3376 -0.2419
  277MPD2    C2 4182   2.285   0.758  13.486 -0.3369 -0.2271  0.1013
  277MPD2    C3 4183   2.274   0.624  13.479  0.1749 -0.3919  0.0237
  277MPD2    C4 4184   2.183   0.569  13.395  0.5335 -0.0990 -0.1867
  277MPD2    C5 4185   2.094   0.641  13.315  0.7353  0.0899  0.1736
  277MPD2     H 4186   2.348   0.813  13.556  3.1072  0.4201 -3.5175
  277MPD2    H1 4187   2.178   0.462  13.379 -0.8253  0.1538 -1.4402
  277MPD2    H2 4188   2.056   0.841  13.248 -0.6745 -0.0100  1.2403
  277MPD2    H3 4189   2.022   0.591  13.252  0.9410 -2.1265  1.6712
  277MPD2     N 4190   2.359   0.545  13.566  0.6900 -0.0226 -0.1627
  277MPD2    H5 4191   2.402   0.598  13.641 -1.5972  0.3060  0.9053
  277MPD2    N1 4192   2.210   0.970  13.398 -0.1625  0.0321 -0.3852
  277MPD2    H7 4193   2.133   1.026  13.362 -1.5262 -1.8828 -0.4629
  278TMC3    C1 4194   2.432   0.348  13.685  0.0975  1.1605 -0.1834
  278TMC3    C2 4195   2.494   0.223  13.683 -0.2263  0.6765  0.0399
  278TMC3    C3 4196   2.546   0.172  13.797 -0.2128 -0.0374 -0.8279
  278TMC3    C4 4197   2.425   0.423  13.794 -0.1081 -0.3888  0.2940
  278TMC3    C5 4198   2.487   0.374  13.909  0.0617  0.3415 -0.0861
  278TMC3    C6 4199   2.550   0.250  13.912 -0.7780 -0.6085  0.5657
  278TMC3     C 4200   2.367   0.402  13.568 -0.5010  0.3626 -0.6108
  278TMC3     O 4201   2.346   0.325  13.472  0.2132 -0.1088 -0.8583
  278TMC3     H 4202   2.468   0.156  13.601  1.5054 -1.1857  0.9981
  278TMC3    H1 4203   2.365   0.513  13.790  0.9151  0.3484  1.7079
  278TMC3    H2 4204   2.583   0.207  14.006  1.7364  1.1883  0.5186
  278TMC3    C7 4205   2.457   0.453  14.026  0.0982 -0.4992  0.6161
  278TMC3    C8 4206   2.619   0.047  13.792  0.6133 -0.5593  0.1581
  278TMC3    O1 4207   2.546   0.463  14.110  0.2881  0.4371 -0.7719
  278TMC3    O2 4208   2.630   4.699  13.891  0.2024  0.2286  0.5421
  279MPD2     C 4209   1.368   0.544   0.721 -0.3613  0.0195 -0.1339
  279MPD2    C1 4210   1.330   0.665   0.762 -0.3344  0.0472  0.0142
  279MPD2    C2 4211   1.412   0.772   0.740 -0.0843 -0.0266 -0.7446
  279MPD2    C3 4212   1.536   0.756   0.684 -0.1129 -0.3849 -0.0075
  279MPD2    C4 4213   1.572   0.630   0.639 -0.3947  0.3384 -0.1713
  279MPD2    C5 4214   1.487   0.524   0.659  0.1481 -0.1968  0.1309
  279MPD2     H 4215   1.370   0.872   0.744 -0.2606 -0.1388  0.3849
  279MPD2    H1 4216   1.668   0.608   0.593  0.2728  2.4184  0.2348
  279MPD2    H2 4217   1.296   0.463   0.730  1.0651 -1.4507 -1.8666
  279MPD2    H3 4218   1.524   0.425   0.633  1.2201  0.9497 -2.6997
  279MPD2     N 4219   1.621   0.865   0.660  0.2409 -0.5038 -0.2060
  279MPD2    H5 4220   1.694   0.858   0.590  0.8075  1.4178  0.1699
  279MPD2    N1 4221   1.201   0.667   0.817  0.1905 -0.4504 -0.2386
  279MPD2    H7 4222   1.145   0.582   0.821  0.8729 -0.8149  1.5408
  280TMC3    C1 4223   1.004   0.771   0.910 -0.4104 -0.1334  0.0707
  280TMC3    C2 4224   0.938   0.651   0.928  0.1116 -0.0840 -0.3905
  280TMC3    C3 4225   0.812   0.663   0.973 -0.7735 -1.1964 -0.5601
  280TMC3    C4 4226   0.943   0.891   0.944  0.3201 -0.1640 -0.1522
  280TMC3    C5 4227   0.818   0.889   0.998  0.0066 -0.2759  0.7775
  280TMC3    C6 4228   0.748   0.777   1.012  0.5869  0.0950  0.0997
  280TMC3     C 4229   1.144   0.779   0.865  0.4494  0.2744 -0.1235
  280TMC3     O 4230   1.190   0.892   0.867  0.2619 -0.3566  0.2157
  280TMC3     H 4231   0.985   0.554   0.914  0.3160 -0.1834  0.9919
  280TMC3    H1 4232   0.999   0.984   0.955  0.1402 -0.0949  0.1744
  280TMC3    H2 4233   0.648   0.776   1.056  0.9986 -2.9566  0.9395
  280TMC3    C7 4234   0.741   1.016   0.989  0.8537 -0.8044 -0.1990
  280TMC3    C8 4235   0.721   0.557   0.948  0.3510  0.5604  0.0181
  280TMC3    O1 4236   0.634   1.024   1.041  0.1113  0.3279 -0.0916
  280TMC3    O2 4237   0.618   0.558   1.018  1.0430 -0.1359  0.2237
  281TMC3    C1 4238   0.823   1.227  13.621  0.2351  0.0554 -0.2033
  281TMC3    C2 4239   0.917   1.307  13.563 -0.1350  0.2207 -0.3038
  281TMC3    C3 4240   0.995   1.242  13.474  0.2352 -0.0194 -0.8572
  281TMC3    C4 4241   0.806   1.093  13.597 -0.1988  0.0287 -0.3114
  281TMC3    C5 4242   0.878   1.036  13.502  0.3559 -0.0029 -0.7520
  281TMC3    C6 4243   0.976   1.109  13.439  0.0590 -0.1408 -0.0248
  281TMC3     C 4244   0.725   1.285  13.712  0.7047  0.0473 -0.5995
  281TMC3     O 4245   0.699   1.219  13.812  0.1140 -0.0787  0.0627
  281TMC3     H 4246   0.932   1.413  13.580 -0.7119  0.3024 -0.2791
  281TMC3    H1 4247   0.721   1.048  13.647  0.8485 -2.3875 -0.7141
  281TMC3    H2 4248   1.026   1.072  13.350 -0.1417  1.5706 -0.8555
  281TMC3    C7 4249   0.871   0.891  13.484 -0.3886 -0.0707  0.3562
  281TMC3    C8 4250   1.103   1.311  13.396 -0.0321 -0.5327  0.1023
  281TMC3    O1 4251   0.973   0.832  13.448  0.7555 -0.2912  0.8023
  281TMC3    O2 4252   1.199   1.234  13.366 -0.6316  0.2722 -0.5683
  282MPD2     C 4253   2.376   2.380  15.571  0.1454  0.2722 -0.5456
  282MPD2    C1 4254   2.276   2.469  15.546  0.1691  0.2312  0.6179
  282MPD2    C2 4255   2.265   2.527  15.423 -0.8761 -0.1999 -0.2878
  282MPD2    C3 4256   2.353   2.493  15.319 -0.8838 -0.3887 -0.1959
  282MPD2    C4 4257   2.448   2.393  15.344 -0.8466  0.1110  0.0540
  282MPD2    C5 4258   2.459   2.336  15.472  0.5753  0.1074  0.6382
  282MPD2     H 4259   2.189   2.603  15.412  1.6687  2.1785 -1.3959
  282MPD2    H1 4260   2.512   2.347  15.271 -1.1152 -1.9584  1.1317
  282MPD2    H2 4261   2.388   2.325  15.664 -0.8618 -0.2276 -0.7197
  282MPD2    H3 4262   2.540   2.269  15.497  0.7610  0.1817  0.2262
  282MPD2     N 4263   2.337   2.550  15.192  1.0127 -0.3146  0.3820
  282MPD2    H5 4264   2.259   2.615  15.185  1.1199 -0.3314 -1.1198
  282MPD2    N1 4265   2.185   2.511  15.649 -0.5023 -0.3056 -0.0270
  282MPD2    H7 4266   2.110   2.576  15.625 -1.0828 -1.0883 -0.3388
  283TMC3    C1 4267   2.066   2.491  15.845 -0.4677 -0.3258 -0.4426
  283TMC3    C2 4268   2.023   2.623  15.852 -0.0804 -0.0420 -0.0899
  283TMC3    C3 4269   1.940   2.671  15.953  0.0113 -0.6425  0.4481
  283TMC3    C4 4270   2.006   2.398  15.923 -0.1927 -0.6377  0.6888
  283TMC3    C5 4271   1.927   2.442  16.026  0.6227  0.4871 -0.1475
  283TMC3    C6 4272   1.885   2.578  16.037 -0.3853 -0.5299 -0.7113
  283TMC3     C 4273   2.189   2.456  15.772 -0.1490 -0.1780  0.0588
  283TMC3     O 4274   2.273   2.396  15.839 -0.2023 -0.0001 -0.2478
  283TMC3     H 4275   2.075   2.692  15.786  0.2950 -1.2263 -1.0465
  283TMC3    H1 4276   2.054   2.301  15.932 -1.4456 -1.3401 -0.1813
  283TMC3    H2 4277   1.815   2.612  16.112  0.9438  1.8421 -0.5415
  283TMC3    C7 4278   1.859   2.339  16.098 -0.0141 -0.1066 -0.1239
  283TMC3    C8 4279   1.932   2.813  15.983 -0.2208  0.8405 -0.2966
  283TMC3    O1 4280   1.825   2.361  16.209 -0.5423 -0.4489 -0.0194
  283TMC3    O2 4281   1.884   2.833  16.092 -0.0041 -0.0222  0.5291
  284MPD2     C 4282   0.823   2.044  11.963  0.1673 -0.6389 -1.0825
  284MPD2    C1 4283   0.962   2.061  11.969 -0.2588 -0.4240 -0.8849
  284MPD2    C2 4284   1.032   2.013  12.078 -0.2925 -0.2415 -0.6150
  284MPD2    C3 4285   0.963   1.950  12.182 -0.2059  0.5852 -0.0213
  284MPD2    C4 4286   0.831   1.908  12.159 -0.1396  0.1223 -0.6126
  284MPD2    C5 4287   0.762   1.965  12.055 -0.6833  0.2784 -0.6717
  284MPD2     H 4288   1.139   2.027  12.091 -0.2528  0.4294 -1.7624
  284MPD2    H1 4289   0.767   1.872  12.238  2.0934 -0.5900  0.8718
  284MPD2    H2 4290   0.759   2.079  11.882  0.3662  1.7303 -0.2244
  284MPD2    H3 4291   0.656   1.944  12.040 -0.7654 -0.6570  1.2785
  284MPD2     N 4292   1.043   1.904  12.291 -0.1463  0.1392  0.8126
  284MPD2    H5 4293   1.144   1.912  12.284 -0.1966 -1.6080 -1.7418
  284MPD2    N1 4294   1.036   2.129  11.866  0.2315  0.2761 -0.1858
  284MPD2    H7 4295   1.136   2.146  11.878  1.0235 -1.5930 -4.0666
  285TMC3    C1 4296   1.082   2.188  11.637 -0.3475  0.5649  0.0895
  285TMC3    C2 4297   1.091   2.119  11.528 -0.4368 -0.2189  0.4571
  285TMC3    C3 4298   1.205   2.128  11.455  0.0703 -0.1291  0.1618
  285TMC3    C4 4299   1.184   2.246  11.701 -0.1576 -0.0410 -0.0659
  285TMC3    C5 4300   1.301   2.261  11.629  0.4126  0.2635 -0.5603
  285TMC3    C6 4301   1.313   2.204  11.498 -0.2228  0.2198 -0.3279
  285TMC3     C 4302   0.997   2.131  11.740 -0.8520 -0.2458  0.0533
  285TMC3     O 4303   0.903   2.067  11.692 -0.8850 -0.4101 -0.2779
  285TMC3     H 4304   1.004   2.071  11.486 -0.1635 -0.4066  0.0958
  285TMC3    H1 4305   1.174   2.305  11.791  0.5806 -2.7353  1.7694
  285TMC3    H2 4306   1.393   2.240  11.434 -0.9499  1.3788 -0.5871
  285TMC3    C7 4307   1.400   2.355  11.676 -0.4698 -0.3551 -0.6276
  285TMC3    C8 4308   1.236   2.005  11.381 -0.2416  0.1424  0.9513
  285TMC3    O1 4309   1.462   2.424  11.593 -0.3796 -0.7809 -0.3333
  285TMC3    O2 4310   1.146   1.924  11.377  0.0345 -0.2812 -0.8782
  286MPD2     C 4311   0.361   0.312   2.275  0.4973  0.3468  0.3764
  286MPD2    C1 4312   0.397   0.403   2.175 -0.3420  0.4520  0.1705
  286MPD2    C2 4313   0.507   0.373   2.100  0.9311  0.0589 -0.0075
  286MPD2    C3 4314   0.581   0.260   2.117 -0.2757 -0.5761  0.3354
  286MPD2    C4 4315   0.544   0.186   2.227 -0.1031  0.0060  0.2165
  286MPD2    C5 4316   0.440   0.205   2.301 -0.1581 -0.0235 -0.2135
  286MPD2     H 4317   0.542   0.435   2.017 -0.1009 -0.1363 -0.5963
  286MPD2    H1 4318   0.591   0.088   2.232  0.6134  0.2433 -1.5851
  286MPD2    H2 4319   0.276   0.326   2.340 -0.1975  1.2422 -0.7174
  286MPD2    H3 4320   0.411   0.126   2.369 -0.9539  0.9673  0.6041
  286MPD2     N 4321   0.687   0.206   2.034 -0.2879 -0.5476 -0.1761
  286MPD2    H5 4322   0.741   0.129   2.073  0.4258  0.1779  0.2626
  286MPD2    N1 4323   0.323   0.520   2.149 -0.1800 -0.0921 -0.7250
  286MPD2    H7 4324   0.364   0.589   2.087 -0.2400  0.0774 -0.5746
  287TMC3    C1 4325   0.793   0.170   1.821 -0.0560 -0.0031  0.0247
  287TMC3    C2 4326   0.748   0.138   1.694  0.2299  0.1678 -0.1247
  287TMC3    C3 4327   0.827   0.050   1.627  0.4473  0.3010  0.3983
  287TMC3    C4 4328   0.907   0.122   1.873  0.0728 -0.2292  0.8675
  287TMC3    C5 4329   0.986   0.041   1.797  0.3432  0.0737 -0.1540
  287TMC3    C6 4330   0.943   4.712   1.675  0.4966 -0.3110  0.1769
  287TMC3     C 4331   0.694   0.246   1.904 -0.1615  0.3422 -0.6999
  287TMC3     O 4332   0.613   0.317   1.848 -0.1032 -0.2677 -0.0381
  287TMC3     H 4333   0.647   0.165   1.667  0.5813  1.2497 -0.3801
  287TMC3    H1 4334   0.930   0.137   1.978  0.8063  0.8859  0.5508
  287TMC3    H2 4335   0.991   4.645   1.605 -2.0749  0.2607 -2.0995
  287TMC3    C7 4336   1.096   4.703   1.859 -0.2560  0.3626  0.9854
  287TMC3    C8 4337   0.778   4.715   1.505 -0.5713 -0.6768 -0.3639
  287TMC3    O1 4338   1.107   4.713   1.979  0.1853 -0.1872 -0.2423
  287TMC3    O2 4339   0.800   4.596   1.485  0.0664 -0.2727 -0.4766
  288TMC3    C1 4340   3.089   0.537  14.606 -0.6668 -0.5010  0.4301
  288TMC3    C2 4341   2.976   0.517  14.677  0.4217  0.4179  0.2052
  288TMC3    C3 4342   2.878   0.612  14.659 -0.7543  0.0878 -0.4390
  288TMC3    C4 4343   3.110   0.644  14.520  0.2696  0.0924  0.7486
  288TMC3    C5 4344   3.012   0.737  14.509  0.6311  0.8207  0.2329
  288TMC3    C6 4345   2.897   0.723  14.581 -0.1495 -0.3726 -0.1519
  288TMC3     C 4346   3.205   0.473  14.666  0.1953  0.7254 -0.1833
  288TMC3     O 4347   3.177   0.387  14.749 -0.4164 -0.9721 -0.4060
  288TMC3     H 4348   2.961   0.436  14.748 -0.2306  1.5452  1.3465
  288TMC3    H1 4349   3.198   0.649  14.457  0.7336  0.5517  1.4291
  288TMC3    H2 4350   2.821   0.800  14.584  0.5024  0.2207  0.8108
  288TMC3    C7 4351   3.011   0.798  14.378 -0.4149 -0.0954  0.0511
  288TMC3    C8 4352   2.759   0.614  14.748 -0.4491 -0.4233 -0.4106
  288TMC3    O1 4353   3.124   0.814  14.334 -0.0662 -0.5446  0.4384
  288TMC3    O2 4354   2.716   0.722  14.785  0.5759 -0.1668  0.3458
  289MPD2     C 4355   2.819   4.212  14.734 -0.1334 -0.2024  0.5528
  289MPD2    C1 4356   2.830   4.334  14.673 -0.2646  0.2137  0.1742
  289MPD2    C2 4357   2.728   4.379  14.593 -0.6659 -0.1819  0.4084
  289MPD2    C3 4358   2.619   4.297  14.562 -0.3514 -0.4706 -0.4278
  289MPD2    C4 4359   2.609   4.166  14.618  0.1410 -0.5242  0.1595
  289MPD2    C5 4360   2.710   4.125  14.705  0.0411  0.5623  0.0129
  289MPD2     H 4361   2.735   4.479  14.551  1.6195  0.0695  1.4015
  289MPD2    H1 4362   2.526   4.102  14.592 -0.8557  0.4322  0.9949
  289MPD2    H2 4363   2.910   4.179  14.782 -0.6725 -0.6838  1.2364
  289MPD2    H3 4364   2.703   4.024  14.744  1.4266  0.5390  0.1885
  289MPD2     N 4365   2.523   4.333  14.465  0.2789 -0.0036 -0.3526
  289MPD2    H5 4366   2.455   4.265  14.430  0.3325 -0.5756  0.6415
  289MPD2    N1 4367   2.949   4.417  14.710 -0.2964 -0.4722  0.5104
  289MPD2    H7 4368   3.010   4.390  14.787  0.0175  3.2824  1.6023
  290TMC3    C1 4369   2.445   4.457  14.277  0.6273  0.8078  0.2902
  290TMC3    C2 4370   2.408   4.580  14.232  0.0565  0.3456 -0.0275
  290TMC3    C3 4371   2.386   4.595  14.101  0.8920 -0.9695  0.2659
  290TMC3    C4 4372   2.468   4.359  14.185  0.0359 -0.1981  0.5621
  290TMC3    C5 4373   2.443   4.377  14.055 -0.8896  0.4984 -0.3791
  290TMC3    C6 4374   2.407   4.494  14.007  0.4554  0.2935 -0.5552
  290TMC3     C 4375   2.514   4.458  14.401  0.3647  0.2657 -0.3958
  290TMC3     O 4376   2.560   4.565  14.429 -0.0252  0.3763  0.0417
  290TMC3     H 4377   2.381   4.652  14.308 -0.2266 -1.0408  1.1829
  290TMC3    H1 4378   2.524   4.270  14.211  0.3267 -0.1159  0.2353
  290TMC3    H2 4379   2.363   4.505  13.909 -0.5780  2.0598  0.1051
  290TMC3    C7 4380   2.411   4.258  13.981 -0.6260  0.2472  1.0314
  290TMC3    C8 4381   2.305   4.714  14.068  0.8908 -0.7305  0.4967
  290TMC3    O1 4382   2.436   4.259  13.863 -0.3041  0.2841  0.0519
  290TMC3    O2 4383   2.222   4.710  13.978  0.6247  0.6761  0.0229
  291MPD2     C 4384   1.289   4.495   0.686 -0.3530  0.1739 -0.2673
  291MPD2    C1 4385   1.356   4.398   0.616  0.1951 -0.2564  0.0213
  291MPD2    C2 4386   1.439   4.449   0.519  0.0024  0.5112  0.3803
  291MPD2    C3 4387   1.467   4.584   0.510  0.4078 -0.2083 -0.4556
  291MPD2    C4 4388   1.395   4.677   0.577 -0.5153  0.4724  0.4620
  291MPD2    C5 4389   1.313   4.627   0.668 -0.5707  0.1814 -0.5060
  291MPD2     H 4390   1.484   4.376   0.453 -1.1936  0.2625 -0.1638
  291MPD2    H1 4391   1.413   0.061   0.561  0.5893 -0.0658 -1.8939
  291MPD2    H2 4392   1.217   4.470   0.762  1.4026  0.7231  1.5727
  291MPD2    H3 4393   1.246   4.696   0.719 -0.4562 -0.6054  0.7037
  291MPD2     N 4394   1.577   4.631   0.438  0.5629 -0.2612 -0.6532
  291MPD2    H5 4395   1.595   0.009   0.441  1.5454 -0.5639  3.3342
  291MPD2    N1 4396   1.330   4.261   0.637 -0.2215 -0.1768 -0.4325
  291MPD2    H7 4397   1.293   4.234   0.728  3.3327 -1.0157  0.7536
  292TMC3    C1 4398   1.340   4.033   0.608  0.1458 -0.1997 -0.8580
  292TMC3    C2 4399   1.304   4.036   0.742 -0.8801  0.1244  0.8737
  292TMC3    C3 4400   1.225   3.945   0.799 -0.0287 -0.4731  0.7057
  292TMC3    C4 4401   1.285   3.934   0.530  0.3050  0.0814  0.2633
  292TMC3    C5 4402   1.196   3.843   0.589  0.2050 -0.2949 -0.0546
  292TMC3    C6 4403   1.163   3.853   0.721  0.6498  0.1154  0.4633
  292TMC3     C 4404   1.363   4.160   0.544 -0.5676  0.0579 -0.4048
  292TMC3     O 4405   1.351   4.157   0.425  0.2529 -0.0142  0.2545
  292TMC3     H 4406   1.357   4.101   0.810 -1.2955  1.5459 -0.1628
  292TMC3    H1 4407   1.305   3.926   0.424  2.3657 -0.9877  0.7171
  292TMC3    H2 4408   1.099   3.779   0.766  2.7557 -1.2692  1.1981
  292TMC3    C7 4409   1.112   3.764   0.510 -0.2992 -0.2183 -0.0300
  292TMC3    C8 4410   1.184   3.972   0.944 -0.5997 -0.0044  0.1918
  292TMC3    O1 4411   0.997   3.759   0.550 -0.4956 -0.1228 -0.3661
  292TMC3    O2 4412   1.233   4.071   0.993  0.0077  0.0468 -0.0055
  293MPD2     C 4413   3.851   1.087  12.899 -0.1052  0.7283 -0.1745
  293MPD2    C1 4414   3.734   1.027  12.918  0.4795  0.5885 -0.8208
  293MPD2    C2 4415   3.687   1.007  13.050 -0.9273 -0.7781  0.2377
  293MPD2    C3 4416   3.751   1.077  13.155 -0.1622 -0.1020 -0.4890
  293MPD2    C4 4417   3.857   1.153  13.126  0.5262  0.0214 -0.1527
  293MPD2    C5 4418   3.912   1.157  13.001 -0.2376 -0.2639 -0.3633
  293MPD2     H 4419   3.595   0.952  13.066 -2.2978  1.3524 -0.4451
  293MPD2    H1 4420   3.908   1.211  13.202  1.2388  1.0437 -1.4022
  293MPD2    H2 4421   3.905   1.087  12.805  1.0461  1.9610  0.4945
  293MPD2    H3 4422   4.003   1.214  12.987  1.6052 -2.5722  2.0664
  293MPD2     N 4423   3.696   1.077  13.287 -0.1025  0.3255  0.5957
  293MPD2    H5 4424   3.744   1.126  13.362  2.6137 -2.6816  0.8465
  293MPD2    N1 4425   3.666   0.981  12.806 -0.4215  0.2335 -0.1844
  293MPD2    H7 4426   3.704   0.999  12.714  0.7868  1.9096  0.6590
  294TMC3    C1 4427   3.503   0.895  12.654  0.2438 -0.0462 -1.1020
  294TMC3    C2 4428   3.445   0.775  12.620 -0.2629  0.0230  0.0934
  294TMC3    C3 4429   3.400   0.769  12.493 -0.2887 -0.1866 -0.0890
  294TMC3    C4 4430   3.511   1.005  12.574  0.1454 -0.1852  0.4105
  294TMC3    C5 4431   3.479   0.981  12.441 -0.0605 -0.6052 -0.5875
  294TMC3    C6 4432   3.417   0.864  12.402 -0.0347  0.2230 -0.2136
  294TMC3     C 4433   3.546   0.912  12.797 -0.2831  0.5835 -0.4083
  294TMC3     O 4434   3.474   0.859  12.881  0.8086 -0.0400 -0.4079
  294TMC3     H 4435   3.435   0.692  12.689 -1.0158 -1.4773 -1.8054
  294TMC3    H1 4436   3.553   1.098  12.611 -1.0934  0.1090  1.0494
  294TMC3    H2 4437   3.391   0.846  12.298 -0.4334  0.3123 -0.1306
  294TMC3    C7 4438   3.527   1.061  12.329 -0.1600  0.2939 -0.8978
  294TMC3    C8 4439   3.378   0.633  12.448  0.0728  0.2420 -0.5695
  294TMC3    O1 4440   3.524   1.184  12.329 -0.3327  0.2688 -0.2563
  294TMC3    O2 4441   3.416   0.541  12.521 -0.3647  0.2817  0.0697
  295MPD2     C 4442   3.481   4.076   0.455  0.1949 -0.0030 -0.1508
  295MPD2    C1 4443   3.604   4.025   0.443  0.2054 -0.4722  0.5663
  295MPD2    C2 4444   3.670   3.978   0.557 -0.0389 -0.2077 -0.0332
  295MPD2    C3 4445   3.612   3.999   0.682 -0.2026 -0.6934 -0.1772
  295MPD2    C4 4446   3.494   4.068   0.689  0.4155  0.1214 -0.2772
  295MPD2    C5 4447   3.430   4.106   0.576  0.2230 -0.4703 -0.5300
  295MPD2     H 4448   3.754   3.910   0.545  1.6933  2.0206 -0.4838
  295MPD2    H1 4449   3.461   4.099   0.787 -0.9488 -0.8617 -0.4216
  295MPD2    H2 4450   3.434   4.124   0.370 -0.0019 -1.2570 -0.7569
  295MPD2    H3 4451   3.331   4.149   0.583 -0.3375 -1.6396 -1.0941
  295MPD2     N 4452   3.679   3.954   0.802 -0.1382  0.2984 -0.2077
  295MPD2    H5 4453   3.642   3.987   0.890 -0.5510 -0.7390  0.0035
  295MPD2    N1 4454   3.671   3.995   0.322  0.1436  0.6558  0.5244
  295MPD2    H7 4455   3.759   3.945   0.327 -0.4417 -0.4860 -0.3225
  296TMC3    C1 4456   3.832   3.853   0.957 -0.5645  0.4648 -1.0674
  296TMC3    C2 4457   3.727   3.842   1.046 -0.8179 -0.3621 -0.0890
  296TMC3    C3 4458   3.745   3.762   1.156  0.6374 -0.5009 -0.2858
  296TMC3    C4 4459   3.952   3.795   0.983  0.3155 -0.0634 -0.0044
  296TMC3    C5 4460   3.964   3.716   1.088  0.6533  0.4686  0.3089
  296TMC3    C6 4461   3.861   3.699   1.175  0.1450  0.2522 -0.4800
  296TMC3     C 4462   3.806   3.892   0.816 -0.1194 -0.2958  0.7665
  296TMC3     O 4463   3.897   3.871   0.735  0.6751  0.3832 -0.6149
  296TMC3     H 4464   3.625   3.870   1.020 -1.0805 -1.6518 -0.4279
  296TMC3    H1 4465   4.038   3.819   0.922 -0.4574 -0.5013 -1.2675
  296TMC3    H2 4466   3.868   3.631   1.259  0.1307  0.2164 -0.5075
  296TMC3    C7 4467   4.097   3.668   1.129 -0.7627  0.7076  0.0354
  296TMC3    C8 4468   3.652   3.789   1.266 -0.1072 -0.5979 -0.2565
  296TMC3    O1 4469   4.188   3.746   1.097 -0.0370 -0.3440  0.5712
  296TMC3    O2 4470   3.544   3.842   1.240 -0.1417  0.2871  0.3359
  297MPD2     C 4471   1.416   1.054  16.736 -0.4740  0.7573  0.3262
  297MPD2    C1 4472   1.393   1.138  16.634 -0.1470 -0.3733 -0.1271
  297MPD2    C2 4473   1.492   1.222  16.590  0.2587  0.6289 -0.9323
  297MPD2    C3 4474   1.604   1.244  16.671 -0.5058 -0.4104 -0.6417
  297MPD2    C4 4475   1.617   1.164  16.785  0.0580  1.0030 -0.0730
  297MPD2    C5 4476   1.528   1.070  16.815  0.1101 -0.3759 -0.3080
  297MPD2     H 4477   1.471   1.264  16.493 -1.1875 -0.3281 -1.0412
  297MPD2    H1 4478   1.711   1.158  16.839 -0.2165  0.0958  0.3128
  297MPD2    H2 4479   1.350   0.976  16.774  0.5430 -0.5795 -0.6678
  297MPD2    H3 4480   1.538   1.001  16.898  2.6115 -2.1966 -2.0917
  297MPD2     N 4481   1.711   1.331  16.636 -0.1062 -0.0212 -0.7328
  297MPD2    H5 4482   1.711   1.384  16.549 -2.9620  0.6424 -0.3233
  297MPD2    N1 4483   1.273   1.136  16.560 -0.4557  0.1954 -0.0335
  297MPD2    H7 4484   1.285   1.177  16.467  0.7130 -1.1516 -0.4745
  298TMC3    C1 4485   1.048   1.181  16.534 -0.1219 -1.1727  0.4508
  298TMC3    C2 4486   1.071   1.168  16.396 -0.5945 -0.7222  0.1326
  298TMC3    C3 4487   1.075   1.283  16.322 -0.4853 -0.1608  0.0719
  298TMC3    C4 4488   1.031   1.299  16.589 -0.1768 -0.2032 -0.2127
  298TMC3    C5 4489   1.035   1.411  16.514  0.1161  0.6120  0.1588
  298TMC3    C6 4490   1.051   1.401  16.376  0.1975  0.0758 -0.5287
  298TMC3     C 4491   1.142   1.108  16.606 -0.2949  0.4286 -0.7599
  298TMC3     O 4492   1.113   1.070  16.717 -0.3737  0.3309 -0.0373
  298TMC3     H 4493   1.085   1.071  16.351  0.8460 -0.6007  0.3218
  298TMC3    H1 4494   1.019   1.308  16.696  1.0362  0.3203 -0.1229
  298TMC3    H2 4495   1.046   1.493  16.319 -0.6873  2.0132  2.7018
  298TMC3    C7 4496   1.057   1.539  16.585  0.5904  0.1279  0.1174
  298TMC3    C8 4497   1.097   1.270  16.182 -0.9888  0.2053  0.0129
  298TMC3    O1 4498   1.024   1.535  16.701 -0.4392  0.3602 -0.5902
  298TMC3    O2 4499   1.127   1.156  16.146 -0.1851 -0.4259 -0.0507
  299MPD2     C 4500   2.059   0.545  11.157 -0.3103  0.3690 -0.1580
  299MPD2    C1 4501   2.123   0.643  11.078  0.6792 -0.0684  0.0084
  299MPD2    C2 4502   2.069   0.679  10.955 -0.7775  0.1520  0.2905
  299MPD2    C3 4503   1.970   0.600  10.905 -0.2954  0.4550  0.7821
  299MPD2    C4 4504   1.913   0.498  10.978 -0.4831 -0.0747 -1.0348
  299MPD2    C5 4505   1.962   0.470  11.105  0.2953  0.3082  0.3445
  299MPD2     H 4506   2.111   0.764  10.903 -0.6945  0.9724  1.6821
  299MPD2    H1 4507   1.839   0.433  10.934 -2.8919  0.3887  2.3586
  299MPD2    H2 4508   2.094   0.520  11.256  0.3284  1.8062 -0.0278
  299MPD2    H3 4509   1.906   0.394  11.159  2.0304  0.4187  2.2992
  299MPD2     N 4510   1.914   0.616  10.776  0.0509  0.0034 -0.0156
  299MPD2    H5 4511   1.827   0.569  10.749  0.9472 -0.9685 -1.2176
  299MPD2    N1 4512   2.235   0.709  11.131  0.1987 -0.0155 -0.1870
  299MPD2    H7 4513   2.271   0.688  11.223  0.3220  2.3823  0.3024
  300TMC3    C1 4514   1.905   0.689  10.550  0.7892 -0.4576 -0.4339
  300TMC3    C2 4515   1.976   0.745  10.448 -0.1505  0.1482  0.4920
  300TMC3    C3 4516   1.918   0.805  10.343  0.0998 -0.0286 -0.5829
  300TMC3    C4 4517   1.771   0.710  10.557  0.3265 -0.3580  0.1755
  300TMC3    C5 4518   1.711   0.765  10.449  0.7531 -0.0146 -0.3680
  300TMC3    C6 4519   1.783   0.815  10.340  0.4167 -0.1835  0.0825
  300TMC3     C 4520   1.981   0.675  10.672  0.6710  1.1531  0.4589
  300TMC3     O 4521   2.088   0.735  10.675  0.2311  0.2392  0.0920
  300TMC3     H 4522   2.079   0.710  10.440 -0.1354  0.7460 -1.7709
  300TMC3    H1 4523   1.723   0.673  10.647 -2.4987  0.1422 -1.1262
  300TMC3    H2 4524   1.730   0.875  10.267 -1.5314 -0.6309  1.1403
  300TMC3    C7 4525   1.570   0.796  10.453  0.1305  0.0572  0.5030
  300TMC3    C8 4526   2.000   0.922  10.307  0.2797  0.2244 -0.6683
  300TMC3    O1 4527   1.506   0.792  10.349 -0.0904  0.2789  0.1731
  300TMC3    O2 4528   2.095   0.949  10.378  0.3548 -0.7212 -0.3854
  301MPD2     C 4529   4.543   2.826   1.287 -0.1747  0.9346 -0.2826
  301MPD2    C1 4530   4.440   2.765   1.219 -0.3490 -0.0423 -0.6054
  301MPD2    C2 4531   4.428   2.626   1.219 -0.0717 -0.3834 -0.0434
  301MPD2    C3 4532   4.510   2.546   1.300 -0.0421  0.4601  0.8329
  301MPD2    C4 4533   4.608   2.611   1.370  0.1793  0.1502 -0.2424
  301MPD2    C5 4534   4.631   2.744   1.355  0.0389  0.2179  0.4644
  301MPD2     H 4535   4.347   2.585   1.159  2.5785 -3.4474 -1.5448
  301MPD2    H1 4536   4.658   2.548   1.442  0.2171  1.5696  0.9633
  301MPD2    H2 4537   4.558   2.932   1.268  1.4803  0.6501 -0.5444
  301MPD2    H3 4538   4.720   2.791   1.393  1.3195 -1.8414  0.0256
  301MPD2     N 4539   4.497   2.408   1.318 -0.0016  0.1213 -0.2036
  301MPD2    H5 4540   4.568   2.362   1.375 -0.2173  0.4637  0.3353
  301MPD2    N1 4541   4.336   2.836   1.152 -0.2384  0.6091  0.2534
  301MPD2    H7 4542   4.268   2.779   1.103  1.4522  0.4165 -1.8877
  302TMC3    C1 4543   4.404   2.192   1.274 -0.3262 -0.6619 -0.5411
  302TMC3    C2 4544   4.503   2.130   1.348 -0.1391  0.0107 -0.0815
  302TMC3    C3 4545   4.493   1.997   1.354 -0.4547  0.7501  0.5452
  302TMC3    C4 4546   4.310   2.127   1.208  0.3655 -0.0338 -0.3577
  302TMC3    C5 4547   4.323   1.993   1.205 -0.4932 -0.5965  0.0289
  302TMC3    C6 4548   4.402   1.925   1.290 -0.9184 -0.0238 -0.1184
  302TMC3     C 4549   4.398   2.335   1.254 -0.6527  0.2850  0.1482
  302TMC3     O 4550   4.294   2.374   1.202  0.3658 -0.5447  0.0112
  302TMC3     H 4551   4.582   2.177   1.405 -1.6421  0.3711  1.7125
  302TMC3    H1 4552   4.251   2.176   1.131  0.9498 -0.7244 -1.2440
  302TMC3    H2 4553   4.422   1.819   1.279  0.1497 -0.0813  2.4140
  302TMC3    C7 4554   4.205   1.916   1.159 -1.0085  0.5732  0.1342
  302TMC3    C8 4555   4.569   1.930   1.455  0.3495  0.4541 -0.1622
  302TMC3    O1 4556   4.214   1.794   1.169  1.0037 -0.2889 -0.2830
  302TMC3    O2 4557   4.667   1.985   1.498 -0.5433 -0.1212 -0.6116
  303MPD2     C 4558   0.309   0.222  10.212  0.3019  0.5409  0.0325
  303MPD2    C1 4559   0.186   0.239  10.270 -0.0246  0.1927 -0.6997
  303MPD2    C2 4560   0.086   0.150  10.226 -0.2112 -0.0861  0.3401
  303MPD2    C3 4561   0.108   0.057  10.126  0.5439  0.1614 -0.0505
  303MPD2    C4 4562   0.237   0.042  10.072  0.0739 -0.3872  0.4078
  303MPD2    C5 4563   0.333   0.127  10.116  0.2987 -0.8024 -0.5629
  303MPD2     H 4564   4.706   0.160  10.261 -0.5084 -1.1335 -0.2284
  303MPD2    H1 4565   0.261   4.678  10.010  0.0024  0.1118 -0.3043
  303MPD2    H2 4566   0.389   0.279  10.257  0.0229  0.3382  0.7925
  303MPD2    H3 4567   0.437   0.112  10.089  0.2641 -0.5038 -0.8561
  303MPD2     N 4568   4.717   4.709  10.068 -0.0079 -0.4565  0.1761
  303MPD2    H5 4569   0.015   4.685   9.971  2.0933 -0.1403  0.5158
  303MPD2    N1 4570   0.167   0.346  10.350  0.1244 -0.2634  0.5883
  303MPD2    H7 4571   0.242   0.414  10.345  0.1580 -0.3820 -0.4186
  304TMC3    C1 4572   0.059   0.485  10.501 -0.6558  0.0079 -0.0376
  304TMC3    C2 4573   0.126   0.597  10.456 -0.4487  0.2097 -0.2263
  304TMC3    C3 4574   0.096   0.715  10.523 -0.0594  0.9939 -0.1584
  304TMC3    C4 4575   4.715   0.481  10.620 -0.5401  0.2205  0.2467
  304TMC3    C5 4576   4.714   0.601  10.692 -0.0722  0.3870 -0.1509
  304TMC3    C6 4577   0.043   0.713  10.649  0.4914  0.1119 -0.0339
  304TMC3     C 4578   0.055   0.364  10.424  0.1553 -0.4164  0.3416
  304TMC3     O 4579   4.686   0.283  10.448 -0.3712  0.3362  0.4678
  304TMC3     H 4580   0.173   0.606  10.359  0.7063  0.2482  0.3363
  304TMC3    H1 4581   4.661   0.392  10.649 -1.0400  0.5338  0.2843
  304TMC3    H2 4582   0.019   0.805  10.700 -0.8495  0.4424 -1.2379
  304TMC3    C7 4583   4.600   0.625  10.775 -0.0685  0.1235  0.0913
  304TMC3    C8 4584   0.036   0.808  10.438  0.3268  0.3308 -0.5864
  304TMC3    O1 4585   4.544   0.734  10.761  0.3542  0.3699  0.1368
  304TMC3    O2 4586   0.086   0.827  10.327  0.1641  0.1405 -0.1423
  305MPD2     C 4587   2.362   2.863  14.041 -0.1808  0.5845  1.0202
  305MPD2    C1 4588   2.419   2.768  14.131  0.6300  0.6728  0.3655
  305MPD2    C2 4589   2.411   2.634  14.105 -0.7193 -0.2399  0.3870
  305MPD2    C3 4590   2.360   2.598  13.979 -0.2007  0.6880 -0.5011
  305MPD2    C4 4591   2.302   2.689  13.891 -0.8315 -0.5691  0.2104
  305MPD2    C5 4592   2.311   2.822  13.922 -0.4901 -0.0368 -0.6947
  305MPD2     H 4593   2.434   2.556  14.177  2.8789  1.2837  0.8960
  305MPD2    H1 4594   2.263   2.661  13.794  0.4513 -2.3922  0.2280
  305MPD2    H2 4595   2.370   2.969  14.061  1.7180  0.5421  0.4828
  305MPD2    H3 4596   2.263   2.896  13.861  0.6233  2.2533  1.1853
  305MPD2     N 4597   2.357   2.462  13.936 -0.3584 -0.0037  0.4850
  305MPD2    H5 4598   2.329   2.444  13.840  0.9245  0.2250  0.0808
  305MPD2    N1 4599   2.470   2.828  14.254  0.0268 -0.0742 -0.4326
  305MPD2    H7 4600   2.468   2.930  14.255  1.4329 -0.0599  0.4615
  306TMC3    C1 4601   2.530   2.837  14.481 -0.8212  0.4017 -0.0940
  306TMC3    C2 4602   2.501   2.780  14.608 -0.2918  0.2871  0.0497
  306TMC3    C3 4603   2.541   2.841  14.722 -0.2807  0.1956  0.3658
  306TMC3    C4 4604   2.599   2.957  14.475  0.6458  0.1701  0.2626
  306TMC3    C5 4605   2.628   3.023  14.594  0.3204  0.1568  0.6703
  306TMC3    C6 4606   2.605   2.958  14.712  0.5769 -0.5477  0.5756
  306TMC3     C 4607   2.500   2.749  14.367  0.1896  0.5145  0.1634
  306TMC3     O 4608   2.481   2.634  14.387  0.0035 -0.3942 -0.9679
  306TMC3     H 4609   2.453   2.683  14.611  0.2104  0.0219 -0.4611
  306TMC3    H1 4610   2.626   2.995  14.377 -0.2005  2.3974  0.8903
  306TMC3    H2 4611   2.635   3.009  14.803 -1.7677  1.1498  0.4119
  306TMC3    C7 4612   2.720   3.137  14.586  0.3176 -0.1958 -0.3670
  306TMC3    C8 4613   2.571   2.754  14.833 -0.0091  0.7855  0.0873
  306TMC3    O1 4614   2.768   3.151  14.477 -0.0903  0.0912 -0.4932
  306TMC3    O2 4615   2.638   2.650  14.809 -0.2049  0.0573  0.3338
  307MPD2     C 4616   0.081   0.598   0.916 -0.4838 -0.5961  0.3107
  307MPD2    C1 4617   0.046   0.716   0.858 -0.5389 -0.5558  0.4946
  307MPD2    C2 4618   0.022   0.828   0.936 -0.0894 -0.6894 -0.1193
  307MPD2    C3 4619   0.026   0.828   1.075 -0.2725 -0.3752 -0.4229
  307MPD2    C4 4620   0.059   0.704   1.124  0.9735  0.6500 -0.0725
  307MPD2    C5 4621   0.083   0.590   1.048  0.6418 -0.4842 -0.4811
  307MPD2     H 4622   0.005   0.926   0.891  0.4573 -0.0616  1.0353
  307MPD2    H1 4623   0.082   0.684   1.228 -0.1394  0.4846  0.1388
  307MPD2    H2 4624   0.098   0.504   0.863  1.6846 -0.2715  0.4175
  307MPD2    H3 4625   0.095   0.491   1.091  0.6013 -0.8956 -1.4173
  307MPD2     N 4626   0.004   0.947   1.149 -0.8419 -0.2289  0.4113
  307MPD2    H5 4627   4.706   1.034   1.099 -1.7779  0.6270  2.2748
  307MPD2    N1 4628   0.033   0.731   0.718 -0.2847  0.1282 -0.1752
  307MPD2    H7 4629   0.018   0.822   0.678 -1.7652 -0.4274 -0.8883
  308TMC3    C1 4630   4.501   1.224   1.360 -0.0961  0.1225 -0.1652
  308TMC3    C2 4631   4.558   1.289   1.464 -0.7596 -0.3925  0.6138
  308TMC3    C3 4632   4.682   1.254   1.502  0.5689 -0.7651 -0.2863
  308TMC3    C4 4633   4.561   1.116   1.303  0.5636 -0.5590  0.8327
  308TMC3    C5 4634   4.685   1.075   1.350 -0.4721  0.9967 -0.2227
  308TMC3    C6 4635   0.029   1.143   1.454 -0.2757  0.4858  0.6653
  308TMC3     C 4636   4.405   1.301   1.283  0.0490 -0.0824 -0.1343
  308TMC3     O 4637   4.403   1.422   1.299 -0.1865  0.1415 -0.0605
  308TMC3     H 4638   4.515   1.381   1.501 -0.7500  0.4320 -1.4404
  308TMC3    H1 4639   4.507   1.068   1.223  3.0145  0.3925 -1.3644
  308TMC3    H2 4640   0.132   1.135   1.485 -0.3294 -0.4624  0.5941
  308TMC3    C7 4641   0.021   0.959   1.285 -0.1074 -0.6008  0.4607
  308TMC3    C8 4642   0.054   1.372   1.495 -0.4768 -0.1257 -0.0328
  308TMC3    O1 4643   0.099   0.896   1.358  0.2022 -0.0863  0.3292
  308TMC3    O2 4644   0.170   1.368   1.541  0.5048  0.3527  0.4309
  309MPD2     C 4645   4.136   1.456  17.669 -0.1661  0.4109 -0.2105
  309MPD2    C1 4646   4.077   1.411  17.548 -0.4713 -0.2793  0.2060
  309MPD2    C2 4647   3.942   1.364  17.549  0.3740 -0.7067 -0.5020
  309MPD2    C3 4648   3.877   1.366  17.666  0.2972  0.3102  0.7086
  309MPD2    C4 4649   3.936   1.421   0.091 -0.0979  0.2136  0.2848
  309MPD2    C5 4650   4.063   1.466   0.093 -0.3229 -0.9207  0.5459
  309MPD2     H 4651   3.899   1.334  17.454  0.5952  1.1811 -1.2062
  309MPD2    H1 4652   3.878   1.433   0.182 -1.5375  0.4031 -0.6599
  309MPD2    H2 4653   4.235   1.500  17.673 -0.6298  1.5505 -1.0835
  309MPD2    H3 4654   4.110   1.506   0.182  2.3854  1.2102 -1.8371
  309MPD2     N 4655   3.736   1.332  17.672  0.5999 -0.0961  0.0285
  309MPD2    H5 4656   3.687   1.373   0.061 -2.8518 -0.0023 -2.1527
  309MPD2    N1 4657   4.144   1.431  17.421  0.4578  0.1863  0.3238
  309MPD2    H7 4658   4.090   1.413  17.337  1.9161 -2.4659 -0.0576
  310TMC3    C1 4659   4.332   1.480  17.277  0.1228  0.0917 -0.3743
  310TMC3    C2 4660   4.242   1.504  17.169  0.5236  0.2224 -0.3088
  310TMC3    C3 4661   4.291   1.492  17.047 -0.2801  0.3871 -0.4900
  310TMC3    C4 4662   4.465   1.469  17.257 -0.3372 -0.2865  0.4166
  310TMC3    C5 4663   4.511   1.471  17.132  0.0667  0.4519 -0.1681
  310TMC3    C6 4664   4.423   1.483  17.021  0.5026 -0.0850 -0.1340
  310TMC3     C 4665   4.279   1.463  17.412  0.2663 -1.0797 -0.3713
  310TMC3     O 4666   4.362   1.452  17.498  0.8727 -0.2608 -0.5568
  310TMC3     H 4667   4.135   1.508  17.182  0.5870 -0.4469  0.4275
  310TMC3    H1 4668   4.528   1.456  17.345 -2.3382 -0.5720  1.8053
  310TMC3    H2 4669   4.467   1.475  16.922  0.5737  0.8352 -0.1799
  310TMC3    C7 4670   4.642   1.412  17.097  0.7268 -0.1195 -0.1829
  310TMC3    C8 4671   4.205   1.497  16.932  0.0284  0.3379  0.2453
  310TMC3    O1 4672   4.656   1.370  16.982 -0.2669  0.1693 -0.0465
  310TMC3    O2 4673   4.242   1.443  16.831 -0.7623 -0.1290 -0.2017
  311MPD2     C 4674   1.648   2.039  13.060  0.7252 -0.6324 -0.4407
  311MPD2    C1 4675   1.654   2.166  13.117 -0.3960  0.2472  0.8824
  311MPD2    C2 4676   1.526   2.231  13.142 -0.0980  0.5947 -0.0876
  311MPD2    C3 4677   1.405   2.167  13.133 -0.8127  0.3250  0.7321
  311MPD2    C4 4678   1.402   2.027  13.092  0.1027 -0.4076 -0.1148
  311MPD2    C5 4679   1.525   1.973  13.050 -0.2240 -0.2359  0.8847
  311MPD2     H 4680   1.524   2.335  13.171 -2.6344  0.4695  0.1458
  311MPD2    H1 4681   1.312   1.968  13.087 -0.1686  0.0202 -0.3166
  311MPD2    H2 4682   1.731   1.984  13.017 -0.9908 -2.6525 -1.2291
  311MPD2    H3 4683   1.525   1.876  13.002  2.4295 -0.9097  2.2291
  311MPD2     N 4684   1.289   2.236  13.179  0.4408 -0.0338  0.2111
  311MPD2    H5 4685   1.308   2.330  13.212 -0.9141 -0.1501  1.3070
  311MPD2    N1 4686   1.776   2.242  13.119 -0.3413  0.5237  0.2048
  311MPD2    H7 4687   1.773   2.343  13.128  2.0158  0.4571  2.1177
  312TMC3    C1 4688   1.076   2.272  13.235 -1.1163 -0.6309 -0.9420
  312TMC3    C2 4689   0.949   2.264  13.188 -0.2839 -0.5470  0.5563
  312TMC3    C3 4690   0.885   2.388  13.175 -0.2504 -0.9283  0.2130
  312TMC3    C4 4691   1.119   2.380  13.305 -0.0764  0.2218  0.3450
  312TMC3    C5 4692   1.035   2.485  13.310 -0.0970 -0.6294  0.9582
  312TMC3    C6 4693   0.925   2.502  13.228 -0.6114 -0.3008  0.5104
  312TMC3     C 4694   1.165   2.175  13.196  0.1315  0.3911  0.0486
  312TMC3     O 4695   1.119   2.066  13.167  0.3062  0.2483 -0.4418
  312TMC3     H 4696   0.922   2.181  13.123  1.2934 -1.1688  0.7078
  312TMC3    H1 4697   1.211   2.387  13.362  0.2191 -0.7284 -0.0141
  312TMC3    H2 4698   0.871   2.596  13.221 -0.5331 -0.1301  2.2550
  312TMC3    C7 4699   1.070   2.595  13.393  0.2583  0.2219 -0.4795
  312TMC3    C8 4700   0.759   2.385  13.100  0.6262  0.4894  0.0293
  312TMC3    O1 4701   1.059   2.706  13.347  0.1733  0.0038 -0.3072
  312TMC3    O2 4702   0.701   2.276  13.089  0.1863 -0.3960 -0.2020
  313MPD2     C 4703   2.189   1.919  10.462  0.0265  0.5198 -0.0553
  313MPD2    C1 4704   2.082   1.879  10.539  0.6573 -0.6477 -0.2351
  313MPD2    C2 4705   2.000   1.777  10.488 -0.5197  0.7243 -0.0463
  313MPD2    C3 4706   2.035   1.714  10.372  0.9728  0.0080  0.3748
  313MPD2    C4 4707   2.148   1.746  10.303 -0.2310 -0.0616  0.4359
  313MPD2    C5 4708   2.228   1.849  10.349 -0.0414  0.1019  0.1109
  313MPD2     H 4709   1.905   1.746  10.531 -0.1474  0.4628  0.5969
  313MPD2    H1 4710   2.177   1.689  10.216 -2.4006  0.6282 -0.7449
  313MPD2    H2 4711   2.253   2.000  10.494  1.4484 -0.4837 -0.3708
  313MPD2    H3 4712   2.327   1.863  10.307  0.0759 -0.6368  0.1418
  313MPD2     N 4713   1.941   1.617  10.334  0.0355  0.0016 -0.5507
  313MPD2    H5 4714   1.873   1.602  10.408 -1.6549 -1.9919 -2.5160
  313MPD2    N1 4715   2.032   1.943  10.649  0.0659  0.1802 -0.4158
  313MPD2    H7 4716   1.939   1.918  10.680  0.3989  0.0142  0.4250
  314TMC3    C1 4717   2.009   2.082  10.830  0.0342  0.7427  0.4321
  314TMC3    C2 4718   2.038   2.043  10.958 -0.2297 -0.0685 -0.4049
  314TMC3    C3 4719   1.939   2.072  11.049  0.1886 -0.3382 -0.6825
  314TMC3    C4 4720   1.893   2.137  10.788  0.5836 -0.3771 -0.3132
  314TMC3    C5 4721   1.792   2.149  10.882 -0.0766 -1.0035 -0.8722
  314TMC3    C6 4722   1.816   2.119  11.014 -0.3769 -0.5509 -0.6936
  314TMC3     C 4723   2.093   2.041  10.721 -0.1322  0.5262  0.4729
  314TMC3     O 4724   2.212   2.065  10.730  0.6372 -0.0483  0.1949
  314TMC3     H 4725   2.139   2.013  10.984 -0.4512 -1.8233 -1.5979
  314TMC3    H1 4726   1.871   2.169  10.687  2.3206  0.3635 -0.4578
  314TMC3    H2 4727   1.741   2.139  11.090  0.1970  1.7798 -0.7525
  314TMC3    C7 4728   1.686   2.239  10.858  0.1672 -0.2101  0.0616
  314TMC3    C8 4729   1.954   2.070  11.196  0.1660 -0.4170 -0.0804
  314TMC3    O1 4730   1.636   2.292  10.956 -0.3023  0.4198 -0.4039
  314TMC3    O2 4731   1.860   2.042  11.269 -0.3054 -0.6712  0.3616
  315MPD2     C 4732   0.497   1.078   0.069  0.1888  0.4949 -0.5661
  315MPD2    C1 4733   0.479   1.126   0.204  0.3558  1.2095  0.2739
  315MPD2    C2 4734   0.544   1.241   0.235 -0.0843 -0.0089 -0.0129
  315MPD2    C3 4735   0.627   1.301   0.144 -0.5698  0.5396  0.4174
  315MPD2    C4 4736   0.658   1.248   0.022 -0.0590  0.1849 -0.2779
  315MPD2    C5 4737   0.579   1.147  17.667  0.7125 -0.6663 -0.4235
  315MPD2     H 4738   0.521   1.302   0.322  1.3183  1.9851 -1.0620
  315MPD2    H1 4739   0.723   1.296  17.639 -0.1398  2.2310  1.0388
  315MPD2    H2 4740   0.462   0.979   0.042  2.3001 -1.1487  2.7293
  315MPD2    H3 4741   0.587   1.104  17.568 -3.0698 -1.2067 -0.4744
  315MPD2     N 4742   0.690   1.415   0.194 -0.3716  0.4441 -0.6001
  315MPD2    H5 4743   0.651   1.443   0.284  1.5490  2.7245 -0.4864
  315MPD2    N1 4744   0.410   1.066   0.315  0.1893  0.4556 -0.1841
  315MPD2    H7 4745   0.412   1.117   0.403 -0.4582 -0.2876  0.2594
  316TMC3    C1 4746   0.842   1.581   0.235 -0.7962  0.4106  0.2347
  316TMC3    C2 4747   0.839   1.552   0.372 -0.1004 -0.4291 -0.0507
  316TMC3    C3 4748   0.876   1.652   0.460 -0.2974  0.5363  0.5379
  316TMC3    C4 4749   0.873   1.707   0.190 -0.0277  0.1789 -0.2391
  316TMC3    C5 4750   0.888   1.805   0.280  0.2714  0.4232 -0.5259
  316TMC3    C6 4751   0.881   1.782   0.421 -0.0780  0.1018  0.1978
  316TMC3     C 4752   0.787   1.492   0.139 -0.4643 -0.3226 -0.2297
  316TMC3     O 4753   0.831   1.496   0.023  0.1526  0.2733 -0.2916
  316TMC3     H 4754   0.810   1.453   0.406 -0.7020  1.1116  3.8821
  316TMC3    H1 4755   0.876   1.734   0.085 -0.0597  0.8667 -0.0639
  316TMC3    H2 4756   0.911   1.865   0.483 -1.9162  1.1011 -0.2512
  316TMC3    C7 4757   0.909   1.943   0.241  0.6172  0.4887  0.3874
  316TMC3    C8 4758   0.830   1.644   0.602  1.0950  0.2360 -0.1967
  316TMC3    O1 4759   0.920   2.026   0.332  0.0631 -0.6413 -0.2191
  316TMC3    O2 4760   0.756   1.733   0.647  0.2479  0.6175  0.6606
  317MPD2     C 4761   2.975   4.190  12.334 -0.4954  0.2608  0.2706
  317MPD2    C1 4762   3.099   4.129  12.321 -0.4990  0.8807 -0.2586
  317MPD2    C2 4763   3.167   4.088  12.439  0.3415 -0.4121 -0.1437
  317MPD2    C3 4764   3.109   4.099  12.564  1.1374 -0.0095  0.1982
  317MPD2    C4 4765   2.992   4.168  12.575 -0.3484 -0.0082 -0.1221
  317MPD2    C5 4766   2.928   4.217  12.464 -0.2610 -0.5474 -0.0131
  317MPD2     H 4767   3.261   4.039  12.417 -1.8066 -4.4403 -0.2965
  317MPD2    H1 4768   2.952   4.190  12.673  1.6473 -0.4972  0.8026
  317MPD2    H2 4769   2.929   4.240  12.249 -0.2605 -1.3768 -0.8276
  317MPD2    H3 4770   2.836   4.274  12.471  0.7961  1.2537 -0.9983
  317MPD2     N 4771   3.184   4.032  12.665  0.0914  0.5056  1.0176
  317MPD2    H5 4772   3.268   3.983  12.636 -0.7067  0.7506 -1.7664
  317MPD2    N1 4773   3.167   4.109  12.196  0.8300 -0.4944  0.2182
  317MPD2    H7 4774   3.266   4.088  12.204  0.3303 -3.6122 -1.9868
  318TMC3    C1 4775   3.269   3.985  12.876 -0.2016 -0.0478  0.1603
  318TMC3    C2 4776   3.220   3.888  12.961 -0.1859 -0.4518 -0.5620
  318TMC3    C3 4777   3.299   3.777  12.986  0.1573  0.5591  0.0779
  318TMC3    C4 4778   3.390   3.976  12.814  0.8613 -0.5454 -0.2646
  318TMC3    C5 4779   3.470   3.876  12.863  0.1828 -0.3240  0.1157
  318TMC3    C6 4780   3.428   3.775  12.945 -0.4028 -0.2285  0.5801
  318TMC3     C 4781   3.158   4.033  12.796 -0.0055 -1.1246 -0.0901
  318TMC3     O 4782   3.058   4.073  12.852 -0.3359  0.2565  0.1105
  318TMC3     H 4783   3.121   3.890  13.005 -0.4788 -0.2844 -1.2307
  318TMC3    H1 4784   3.430   4.048  12.743 -0.3089  1.2616  0.8814
  318TMC3    H2 4785   3.503   3.700  12.968  0.4008 -0.0329 -1.3676
  318TMC3    C7 4786   3.605   3.879  12.812  0.1564 -0.3514  0.2008
  318TMC3    C8 4787   3.251   3.670  13.064  0.4625  0.3096 -0.2235
  318TMC3    O1 4788   3.619   3.945  12.709 -0.0594  0.0176  0.0149
  318TMC3    O2 4789   3.334   3.585  13.097 -0.1311 -0.3497 -0.1770
  319MPD2     C 4790   2.644   0.795  17.357  0.1366  0.3436 -0.3939
  319MPD2    C1 4791   2.751   0.713  17.324  0.1102  0.4424  0.2135
  319MPD2    C2 4792   2.747   0.650  17.207  0.3015 -0.3583  1.1459
  319MPD2    C3 4793   2.646   0.664  17.114 -0.0358  0.6955  0.0511
  319MPD2    C4 4794   2.537   0.745  17.143  0.5182 -0.3276 -0.2893
  319MPD2    C5 4795   2.547   0.812  17.262  0.2524  0.6241 -0.1609
  319MPD2     H 4796   2.831   0.582  17.199  0.7752  0.2335  1.0954
  319MPD2    H1 4797   2.455   0.764  17.076  0.0288  1.2220  0.7314
  319MPD2    H2 4798   2.646   0.848  17.451  0.8837 -1.2449  0.4898
  319MPD2    H3 4799   2.467   0.884  17.274 -0.9020 -0.6561 -0.2204
  319MPD2     N 4800   2.639   0.589  16.991  0.3431 -0.6985  0.1021
  319MPD2    H5 4801   2.557   0.608  16.934  0.1274  0.9296  0.9419
  319MPD2    N1 4802   2.851   0.665  17.409 -0.5751  0.3379 -0.2371
  319MPD2    H7 4803   2.911   0.596  17.365 -0.5799 -0.7760  1.4989
  320TMC3    C1 4804   2.693   0.449  16.822  0.9609  0.2133  0.2477
  320TMC3    C2 4805   2.681   0.550  16.726  0.0232 -0.6848 -0.3442
  320TMC3    C3 4806   2.688   0.510  16.591 -0.4304 -0.1772 -0.1253
  320TMC3    C4 4807   2.730   0.322  16.790  0.2879 -0.2091 -0.4643
  320TMC3    C5 4808   2.748   0.300  16.658  0.4604  0.1402 -0.1787
  320TMC3    C6 4809   2.725   0.388  16.560 -0.0832 -0.3933 -0.3535
  320TMC3     C 4810   2.726   0.492  16.952 -0.0623 -0.0004 -0.1861
  320TMC3     O 4811   2.810   0.430  17.014 -0.9910 -0.3311  0.3863
  320TMC3     H 4812   2.664   0.654  16.754  0.0281 -0.2687 -1.8870
  320TMC3    H1 4813   2.746   0.247  16.866  0.3511 -0.3151 -0.5821
  320TMC3    H2 4814   2.733   0.347  16.460  0.0575 -1.8716  0.2514
  320TMC3    C7 4815   2.794   0.169  16.619  0.2449 -0.2584 -0.1232
  320TMC3    C8 4816   2.650   0.599  16.490  0.4646 -0.5697 -0.5162
  320TMC3    O1 4817   2.757   0.140  16.505 -0.0911 -0.0108 -0.1931
  320TMC3    O2 4818   2.652   0.718  16.513 -0.0177 -0.3108  0.1183
  321TMC3    C1 4819   2.996   0.621  17.591  0.1167 -0.1366 -0.5570
  321TMC3    C2 4820   3.019   0.492  17.578  0.5767 -0.0254 -0.0825
  321TMC3    C3 4821   3.111   0.422  17.653 -0.4990 -0.2044  0.3325
  321TMC3    C4 4822   3.041   0.683   0.013 -0.0837 -0.4421 -0.3057
  321TMC3    C5 4823   3.141   0.625   0.082  0.1982  0.3032 -0.5325
  321TMC3    C6 4824   3.169   0.492   0.063  0.0789  0.4846  0.3563
  321TMC3     C 4825   2.867   0.674  17.543 -0.4332  0.1247  0.1958
  321TMC3     O 4826   2.787   0.731  17.616  0.0083 -0.3087 -0.5116
  321TMC3     H 4827   2.979   0.445  17.489 -0.5918  1.1907 -0.2011
  321TMC3    H1 4828   3.040   0.791   0.012  0.7037 -0.4307  0.2853
  321TMC3    H2 4829   3.243   0.446   0.128  0.3873 -0.7536 -0.8829
  321TMC3    C7 4830   3.265   0.707   0.085 -1.0128  0.0196  0.4264
  321TMC3    C8 4831   3.212   0.352  17.576 -0.5491  0.0508 -0.4896
  321TMC3    O1 4832   3.278   0.819   0.131 -1.1427  0.1353 -0.2867
  321TMC3    O2 4833   3.325   0.370  17.622  0.1262 -0.0223  0.3526
  322MPD2     C 4834   2.224   2.163  14.218  0.0878 -0.3592 -0.1264
  322MPD2    C1 4835   2.297   2.096  14.311  0.3441 -0.5758  0.6471
  322MPD2    C2 4836   2.323   1.963  14.307  0.6490  0.2193  1.2813
  322MPD2    C3 4837   2.256   1.889  14.212 -0.1066  0.0923 -0.0793
  322MPD2    C4 4838   2.180   1.947  14.118  1.0256  0.0482  0.0571
  322MPD2    C5 4839   2.159   2.085  14.124  0.0894 -0.7102 -0.1651
  322MPD2     H 4840   2.393   1.919  14.378  0.1395 -0.8570  1.1245
  322MPD2    H1 4841   2.123   1.898  14.041  3.1153 -2.2364 -0.0428
  322MPD2    H2 4842   2.200   2.268  14.231 -0.3750 -0.5657  0.7267
  322MPD2    H3 4843   2.095   2.126  14.047  2.9956  1.6602 -1.3172
  322MPD2     N 4844   2.300   1.755  14.219 -0.7207 -0.1565 -0.4512
  322MPD2    H5 4845   2.359   1.733  14.299 -0.8246 -1.4791 -0.7295
  322MPD2    N1 4846   2.347   2.179  14.414  0.7005 -0.2074  0.2043
  322MPD2    H7 4847   2.315   2.275  14.411 -1.6774 -0.9783  0.0919
  323TMC3    C1 4848   2.459   2.232  14.611  0.2487  0.7611  0.1894
  323TMC3    C2 4849   2.545   2.305  14.538  0.1407  0.3832  0.5037
  323TMC3    C3 4850   2.658   2.352  14.593  0.5849 -0.6544 -0.0574
  323TMC3    C4 4851   2.483   2.209  14.745  0.3533  0.0033  0.5790
  323TMC3    C5 4852   2.596   2.261  14.803 -0.2650 -0.4112  0.0167
  323TMC3    C6 4853   2.687   2.328  14.726 -0.3836 -0.2245 -0.3053
  323TMC3     C 4854   2.382   2.136  14.538  0.4515 -1.3200  0.5968
  323TMC3     O 4855   2.373   2.024  14.590  0.0839 -0.0844  0.5097
  323TMC3     H 4856   2.528   2.320  14.432 -0.6032 -0.2974  0.5232
  323TMC3    H1 4857   2.419   2.136  14.793 -0.2647  1.7043  2.3567
  323TMC3    H2 4858   2.787   2.345  14.765 -0.3471 -1.3323  0.1060
  323TMC3    C7 4859   2.669   2.185  14.904 -0.1918 -0.2073 -0.5393
  323TMC3    C8 4860   2.735   2.440  14.507  0.7605  0.2106 -0.3036
  323TMC3    O1 4861   2.769   2.131  14.863  1.0099 -0.0225  0.3067
  323TMC3    O2 4862   2.754   2.396  14.393  0.1020 -0.1821 -0.4297
  324MPD2     C 4863   4.342   3.791  14.858 -0.6154  0.1578  0.4656
  324MPD2    C1 4864   4.373   3.818  14.727  0.2555  0.8404  1.1666
  324MPD2    C2 4865   4.266   3.852  14.646 -0.6448  0.2403 -0.6495
  324MPD2    C3 4866   4.140   3.848  14.697  0.1173  0.0338  0.1693
  324MPD2    C4 4867   4.116   3.837  14.830  0.4623  0.2368  0.4301
  324MPD2    C5 4868   4.219   3.803  14.914 -1.1796 -0.1010  0.3802
  324MPD2     H 4869   4.285   3.875  14.542  0.3245  0.5961 -0.3998
  324MPD2    H1 4870   4.017   3.833  14.875 -0.2146  1.4656 -0.9699
  324MPD2    H2 4871   4.416   3.757  14.929  1.3846  1.5621 -0.9433
  324MPD2    H3 4872   4.191   3.770  15.013 -0.0483  0.1846  0.7891
  324MPD2     N 4873   4.023   3.857  14.609 -0.1832  0.2233  0.0869
  324MPD2    H5 4874   3.934   3.861  14.657 -0.6700 -0.8502 -0.7028
  324MPD2    N1 4875   4.506   3.821  14.670 -0.4005 -0.2377  0.6769
  324MPD2    H7 4876   4.510   3.829  14.569  1.5113 -3.9670  0.4550
  325TMC3    C1 4877   3.876   3.833  14.434  0.0925 -0.1832  0.0905
  325TMC3    C2 4878   3.845   3.733  14.342  0.7719  0.5372 -0.0329
  325TMC3    C3 4879   3.711   3.724  14.302 -0.4208 -0.0145 -0.3179
  325TMC3    C4 4880   3.784   3.913  14.484  0.8844  0.2863 -0.3745
  325TMC3    C5 4881   3.666   3.918  14.417  0.1146  0.4480 -0.1728
  325TMC3    C6 4882   3.620   3.815  14.339  0.5572 -0.6271 -0.5858
  325TMC3     C 4883   4.016   3.828  14.477 -0.3605 -0.2368 -0.0081
  325TMC3     O 4884   4.107   3.784  14.404  0.7470 -0.3011 -0.5220
  325TMC3     H 4885   3.917   3.663  14.303 -0.6216 -0.4839 -0.7298
  325TMC3    H1 4886   3.827   3.998  14.537  0.4479 -0.2123  0.7836
  325TMC3    H2 4887   3.519   3.814  14.302 -0.0215  2.6853  0.8544
  325TMC3    C7 4888   3.566   4.012  14.471 -1.0184 -0.3174  0.6095
  325TMC3    C8 4889   3.684   3.641  14.187 -0.1547 -0.2810  0.1720
  325TMC3    O1 4890   3.585   4.068  14.575 -0.2299  0.9866 -0.2156
  325TMC3    O2 4891   3.766   3.556  14.160  0.5283  1.0729 -0.2999
  326MPD2     C 4892   0.857   3.884  10.841  0.3518 -0.4303  0.3104
  326MPD2    C1 4893   0.749   3.973  10.828  0.3869  0.3044  0.0994
  326MPD2    C2 4894   0.784   4.100  10.794  0.4150  1.4925  0.0908
  326MPD2    C3 4895   0.911   4.135  10.763  0.2911  0.0399 -0.3155
  326MPD2    C4 4896   1.013   4.041  10.768 -0.4437  0.3365  0.3512
  326MPD2    C5 4897   0.985   3.917  10.806 -0.0295 -0.7356 -1.0589
  326MPD2     H 4898   0.704   4.173  10.791  0.4660  1.5231 -0.5437
  326MPD2    H1 4899   1.115   4.057  10.736 -0.5951  0.1482 -0.2276
  326MPD2    H2 4900   0.854   3.779  10.868  0.0817 -0.6882 -0.7378
  326MPD2    H3 4901   1.065   3.844  10.806 -0.3213 -1.0646  0.8466
  326MPD2     N 4902   0.943   4.262  10.716 -0.1798  0.4536 -0.0691
  326MPD2    H5 4903   1.037   4.281  10.683  0.8806 -0.2367  2.5659
  326MPD2    N1 4904   0.615   3.939  10.856  0.1837 -0.2445  0.3210
  326MPD2    H7 4905   0.562   4.020  10.887  0.1550 -0.2939  0.4016
  327TMC3    C1 4906   0.432   3.841  10.941  0.4929 -0.5715  0.3450
  327TMC3    C2 4907   0.362   3.934  10.875  0.1908  0.3871 -0.3656
  327TMC3    C3 4908   0.248   3.985  10.935  0.7211  0.1364  0.0065
  327TMC3    C4 4909   0.400   3.803  11.065 -0.0244 -0.3831 -0.5682
  327TMC3    C5 4910   0.295   3.859  11.134 -0.0116 -0.1995  0.4265
  327TMC3    C6 4911   0.218   3.961  11.067 -0.5799  0.7448 -0.3145
  327TMC3     C 4912   0.567   3.819  10.893  0.4883 -0.2405 -1.1217
  327TMC3     O 4913   0.624   3.712  10.912 -0.3293  0.0183 -0.0895
  327TMC3     H 4914   0.391   3.970  10.777 -0.9662  1.5453 -0.2785
  327TMC3    H1 4915   0.467   3.732  11.112 -0.2493  2.0347  3.4145
  327TMC3    H2 4916   0.142   4.017  11.121  2.0050  1.1564  2.9503
  327TMC3    C7 4917   0.288   3.842  11.278 -0.1817  0.0689 -0.5018
  327TMC3    C8 4918   0.187   4.088  10.860 -0.3486  0.2448  0.1060
  327TMC3    O1 4919   0.185   3.841  11.341  0.4211 -0.4467 -0.0489
  327TMC3    O2 4920   0.219   4.101  10.745 -0.0328  0.5444 -0.2835
  328MPD2     C 4921   2.724   4.080   0.044 -0.0108 -0.1410 -0.1405
  328MPD2    C1 4922   2.673   3.995  17.629  0.0710  0.3426 -0.1382
  328MPD2    C2 4923   2.683   4.022  17.491  0.1188 -0.5776  0.0010
  328MPD2    C3 4924   2.741   4.138  17.454 -0.1129  0.2440 -0.6955
  328MPD2    C4 4925   2.805   4.225  17.548  0.0876  0.2622 -0.1461
  328MPD2    C5 4926   2.783   4.194  17.688  0.3929 -0.0195  1.1706
  328MPD2     H 4927   2.645   3.957  17.414  0.3453 -0.8391  0.1118
  328MPD2    H1 4928   2.844   4.322  17.520 -0.8525  0.3746 -1.0671
  328MPD2    H2 4929   2.731   4.055   0.149 -3.6671 -0.7048 -0.0297
  328MPD2    H3 4930   2.811   4.259   0.080  0.3109  1.3872  0.0704
  328MPD2     N 4931   2.725   4.195  17.318 -0.1973  0.1272  0.1401
  328MPD2    H5 4932   2.752   4.292  17.306  0.3854  0.1639  1.6478
  328MPD2    N1 4933   2.609   3.884  17.682 -0.4209 -0.0822  0.1128
  328MPD2    H7 4934   2.596   3.877   0.093 -2.6410  2.8866  0.0157
  329TMC3    C1 4935   2.470   3.703   0.004  0.1230 -0.5991  0.3701
  329TMC3    C2 4936   2.373   3.772   0.071  0.0473 -0.3488  0.2905
  329TMC3    C3 4937   2.245   3.728   0.052  0.6719  0.3061 -0.6812
  329TMC3    C4 4938   2.450   3.578  17.638 -0.3664  0.5012  0.8241
  329TMC3    C5 4939   2.320   3.542  17.629 -0.2259  0.4491 -0.6552
  329TMC3    C6 4940   2.215   3.606  17.687  0.1580 -0.3315 -0.5539
  329TMC3     C 4941   2.551   3.788  17.611  0.0886  0.1740 -0.4617
  329TMC3     O 4942   2.560   3.758  17.495 -0.1118 -0.0022  0.5536
  329TMC3     H 4943   2.393   3.876   0.094 -1.5089  0.1296 -0.5449
  329TMC3    H1 4944   2.523   3.531  17.574 -2.4258  0.0031 -1.1514
  329TMC3    H2 4945   2.117   3.560  17.681  0.5883 -1.5251  1.4809
  329TMC3    C7 4946   2.313   3.400  17.621  0.9335  0.4250  0.7569
  329TMC3    C8 4947   2.142   3.828   0.023 -0.2830  0.5779 -0.3267
  329TMC3    O1 4948   2.202   3.358  17.589 -0.2934 -0.1025  0.0726
  329TMC3    O2 4949   2.054   3.804  17.634 -0.6891 -0.2834  0.2754
  330TMC3    C1 4950   1.463   3.300  10.032  0.1810 -0.5920  0.8062
  330TMC3    C2 4951   1.393   3.247   9.929  0.3568 -0.3490  0.2118
  330TMC3    C3 4952   1.401   3.116   9.907  0.2082 -0.1603  0.4898
  330TMC3    C4 4953   1.543   3.224  10.110  0.2345  0.1879 -0.1160
  330TMC3    C5 4954   1.548   3.086  10.085 -0.3652 -1.0028 -0.4083
  330TMC3    C6 4955   1.485   3.031   9.977  0.3594 -0.3137  0.2542
  330TMC3     C 4956   1.446   3.439  10.070 -0.6197  0.3278  0.3129
  330TMC3     O 4957   1.537   3.501  10.123  0.2878 -0.7307  0.1142
  330TMC3     H 4958   1.356   3.317   9.856 -1.5753 -0.5283  1.0227
  330TMC3    H1 4959   1.565   3.272  10.205  0.4767  0.5335 -0.3473
  330TMC3    H2 4960   1.507   2.927   9.953 -0.4068 -0.2156 -0.8978
  330TMC3    C7 4961   1.553   3.001  10.202  0.6426  0.2286  0.5947
  330TMC3    C8 4962   1.330   3.062   9.794  0.3940 -0.6313  0.8840
  330TMC3    O1 4963   1.503   2.892  10.192  0.2492 -0.4061 -0.2510
  330TMC3    O2 4964   1.286   3.137   9.708 -0.4141 -0.0678 -0.4067
  331MPD2     C 4965   3.140   2.208  12.818  0.4505 -0.5248 -0.4569
  331MPD2    C1 4966   3.256   2.262  12.762 -0.5012  0.0047  0.2719
  331MPD2    C2 4967   3.361   2.188  12.743  0.1921  0.5175 -0.1932
  331MPD2    C3 4968   3.363   2.050  12.768 -0.3052  0.3518 -0.0755
  331MPD2    C4 4969   3.256   1.994  12.835  0.2447 -0.0616 -0.1138
  331MPD2    C5 4970   3.151   2.079  12.871 -0.5572 -0.0569  0.5803
  331MPD2     H 4971   3.449   2.232  12.699 -0.3231  1.0438 -0.7067
  331MPD2    H1 4972   3.249   1.891  12.870 -0.4913  0.3656  1.0140
  331MPD2    H2 4973   3.048   2.265  12.823  0.3374 -0.9840  2.3728
  331MPD2    H3 4974   3.073   2.035  12.931 -0.6795  1.8426  1.8136
  331MPD2     N 4975   3.468   1.971  12.720 -0.7558  0.4454 -0.2317
  331MPD2    H5 4976   3.539   2.031  12.680 -2.6919  2.5377 -0.5776
  331MPD2    N1 4977   3.260   2.398  12.714  0.3913 -0.2832  0.3189
  331MPD2    H7 4978   3.351   2.435  12.690  0.4287 -1.0495 -0.7553
  332TMC3    C1 4979   3.609   1.804  12.656 -0.4763 -0.0191  0.1218
  332TMC3    C2 4980   3.657   1.866  12.545  0.3536  0.3735 -0.1724
  332TMC3    C3 4981   3.794   1.856  12.517  0.0618  0.2771 -0.0139
  332TMC3    C4 4982   3.693   1.746  12.752 -0.0272 -0.2344  0.8586
  332TMC3    C5 4983   3.825   1.753  12.726 -0.3448  0.0224  0.6074
  332TMC3    C6 4984   3.878   1.799  12.607 -0.0102  0.1106 -0.3221
  332TMC3     C 4985   3.487   1.836  12.727 -0.1117  0.4500  0.2685
  332TMC3     O 4986   3.434   1.754  12.805  0.0582  0.6568 -0.4611
  332TMC3     H 4987   3.589   1.926  12.485  0.1619 -1.3431 -1.6759
  332TMC3    H1 4988   3.660   1.724  12.853 -1.1540  1.3806  0.8475
  332TMC3    H2 4989   3.984   1.797  12.586 -0.2673  0.2502 -1.6672
  332TMC3    C7 4990   3.905   1.756  12.851 -0.5435  0.0331 -0.2741
  332TMC3    C8 4991   3.847   1.929  12.408 -0.3157  0.1593 -0.3468
  332TMC3    O1 4992   3.867   1.696  12.952 -0.8330  0.0777 -0.7743
  332TMC3    O2 4993   3.968   1.938  12.411 -0.1072 -0.1037  0.0211
  333MPD2     C 4994   3.951   2.420  11.523  0.7721 -0.3152  0.3412
  333MPD2    C1 4995   4.035   2.327  11.472 -0.4203  0.4483  0.0497
  333MPD2    C2 4996   4.006   2.190  11.483  0.3158 -0.2656 -0.6113
  333MPD2    C3 4997   3.898   2.149  11.554 -0.3091 -0.1359  0.7097
  333MPD2    C4 4998   3.822   2.244  11.618 -0.3419 -0.2103  0.2301
  333MPD2    C5 4999   3.843   2.378  11.595  0.6893  0.1843  0.2619
  333MPD2     H 5000   4.071   2.124  11.427  0.0075  0.1586 -1.4807
  333MPD2    H1 5001   3.725   2.211  11.653 -0.4491  0.1994  0.3225
  333MPD2    H2 5002   3.953   2.526  11.503 -0.5960 -0.2950  0.3305
  333MPD2    H3 5003   3.774   2.452  11.635 -2.3519 -3.1096  1.1749
  333MPD2     N 5004   3.870   2.009  11.557 -0.6890 -1.1889 -0.1343
  333MPD2    H5 5005   3.921   1.954  11.489 -0.3654 -1.4142  0.2879
  333MPD2    N1 5006   4.139   2.389  11.403 -0.1612  0.3360 -0.4656
  333MPD2    H7 5007   4.147   2.490  11.408  0.7132  0.1788  1.1098
  334TMC3    C1 5008   4.336   2.414  11.281 -0.5782  0.5892 -0.5124
  334TMC3    C2 5009   4.451   2.363  11.225  0.5485  1.2557  0.8388
  334TMC3    C3 5010   4.554   2.446  11.196 -0.4511 -0.3229  0.3220
  334TMC3    C4 5011   4.315   2.544  11.286 -0.0606  0.8467  0.0074
  334TMC3    C5 5012   4.420   2.626  11.248  0.2763 -0.1983  0.2775
  334TMC3    C6 5013   4.541   2.579  11.212  0.9313  0.5358  0.2133
  334TMC3     C 5014   4.236   2.323  11.329 -1.0059  1.0510 -0.2674
  334TMC3     O 5015   4.248   2.203  11.311  0.1674  0.3826  0.4071
  334TMC3     H 5016   4.460   2.256  11.240  2.0125  1.3931  0.9586
  334TMC3    H1 5017   4.220   2.588  11.313 -0.5956 -0.7348  0.7437
  334TMC3    H2 5018   4.615   2.649  11.173  1.9745 -0.5984  0.1400
  334TMC3    C7 5019   4.388   2.771  11.249 -0.1345  0.1452 -0.0108
  334TMC3    C8 5020   4.649   2.398  11.100 -0.3997  0.3607 -0.0355
  334TMC3    O1 5021   4.488   2.841  11.278  0.2019 -0.5145 -0.1608
  334TMC3    O2 5022   4.613   2.320  11.017 -0.1923 -0.1703  0.5942
  335TMC3    C1 5023   3.501   3.809  17.418 -0.3784 -0.7359  0.0886
  335TMC3    C2 5024   3.402   3.811  17.322 -0.0868  0.6437 -0.4053
  335TMC3    C3 5025   3.422   3.902  17.224  0.1154 -0.4903  0.2755
  335TMC3    C4 5026   3.609   3.891  17.413  0.7508 -0.7897  0.4593
  335TMC3    C5 5027   3.621   3.981  17.315 -0.0122 -0.0210 -0.0466
  335TMC3    C6 5028   3.533   3.981  17.211 -0.5310  0.4344  0.1606
  335TMC3     C 5029   3.503   3.718  17.525  0.0234  0.6143 -0.1559
  335TMC3     O 5030   3.391   3.706  17.573  0.2978  0.8119  0.3837
  335TMC3     H 5031   3.317   3.744  17.333  0.4738 -0.1120 -0.6938
  335TMC3    H1 5032   3.684   3.886  17.491 -0.3691  2.3200  1.7674
  335TMC3    H2 5033   3.556   4.045  17.127  0.7655  0.3806  0.4794
  335TMC3    C7 5034   3.747   4.051  17.295  0.2716  0.4588  0.4672
  335TMC3    C8 5035   3.378   3.859  17.092 -1.2853 -0.0111  0.2068
  335TMC3    O1 5036   3.848   4.003  17.345 -0.1057 -0.4503 -0.2633
  335TMC3    O2 5037   3.435   3.905  16.992  0.4864  0.3233 -0.2383
  336MPD2     C 5038   3.390   2.011  16.679 -0.1120  0.1329  0.3396
  336MPD2    C1 5039   3.339   1.907  16.602  0.1812 -0.4274 -0.0331
  336MPD2    C2 5040   3.333   1.778  16.660 -0.2999  0.7795 -0.7962
  336MPD2    C3 5041   3.377   1.755  16.790  0.0333  0.2185 -0.0065
  336MPD2    C4 5042   3.443   1.853  16.859 -0.0264  0.5218 -0.0132
  336MPD2    C5 5043   3.447   1.981  16.798  0.7147  0.0109 -0.4862
  336MPD2     H 5044   3.285   1.700  16.601  1.1610  1.0006 -2.2637
  336MPD2    H1 5045   3.468   1.840  16.964  0.5308  0.5119 -0.1477
  336MPD2    H2 5046   3.395   2.114  16.645 -0.1883  0.1790  0.4658
  336MPD2    H3 5047   3.493   2.066  16.847 -0.9561  0.9189 -0.5048
  336MPD2     N 5048   3.363   1.633  16.856  0.7431 -0.4026 -0.6305
  336MPD2    H5 5049   3.433   1.606  16.925  2.6942 -1.0200 -2.8450
  336MPD2    N1 5050   3.302   1.922  16.464 -0.2212  0.5839  0.1705
  336MPD2    H7 5051   3.288   1.832  16.419 -1.5768  0.3683  1.0153
  337TMC3    C1 5052   3.206   2.001  16.269 -0.5908 -0.6517 -0.0416
  337TMC3    C2 5053   3.103   2.074  16.225  0.4231  0.1717  0.1213
  337TMC3    C3 5054   3.065   2.053  16.096 -0.0441 -0.3787 -0.0999
  337TMC3    C4 5055   3.279   1.922  16.189  0.3566 -0.1216 -0.5018
  337TMC3    C5 5056   3.247   1.915  16.057 -0.7412  0.5487  0.1744
  337TMC3    C6 5057   3.139   1.983  16.008  0.3228 -0.3730 -0.8727
  337TMC3     C 5058   3.270   2.037  16.395 -0.8358  0.0296  0.0975
  337TMC3     O 5059   3.250   2.150  16.437  0.0092  0.2719 -0.5504
  337TMC3     H 5060   3.049   2.142  16.290  0.2582 -0.8396  1.0467
  337TMC3    H1 5061   3.364   1.862  16.219  0.2368  0.0030  0.0873
  337TMC3    H2 5062   3.130   1.987  15.900  1.6734  1.9681 -0.8777
  337TMC3    C7 5063   3.319   1.830  15.963  0.3235 -0.7659 -0.0157
  337TMC3    C8 5064   2.937   2.116  16.060  0.6031  0.3348 -0.9666
  337TMC3    O1 5065   3.264   1.810  15.856 -0.7057  0.5275 -0.0362
  337TMC3    O2 5066   2.901   2.214  16.115  0.2683 -0.4819 -0.0049
  338MPD2     C 5067   3.461   0.541   1.089 -0.1101 -0.7744 -0.0215
  338MPD2    C1 5068   3.384   0.642   1.034  0.3433 -0.1957 -0.1054
  338MPD2    C2 5069   3.249   0.614   1.029  0.4222  0.0398 -0.0750
  338MPD2    C3 5070   3.199   0.486   1.055  0.5890  0.5950 -0.1845
  338MPD2    C4 5071   3.283   0.389   1.106 -0.0668 -0.1537 -0.3300
  338MPD2    C5 5072   3.415   0.413   1.122 -0.4522  0.0950  0.0237
  338MPD2     H 5073   3.173   0.689   1.016 -0.5909 -0.9007  0.4337
  338MPD2    H1 5074   3.251   0.294   1.148  4.0555 -1.5656 -0.3822
  338MPD2    H2 5075   3.568   0.555   1.098 -0.4755  1.5464  0.7508
  338MPD2    H3 5076   3.482   0.345   1.173  0.3100 -0.4091 -1.6619
  338MPD2     N 5077   3.062   0.463   1.015 -0.3687 -0.1053 -0.7909
  338MPD2    H5 5078   3.024   0.542   0.963 -1.0780 -1.3741 -2.1984
  338MPD2    N1 5079   3.433   0.762   0.991 -0.7911 -0.2695  0.1247
  338MPD2    H7 5080   3.365   0.837   0.983 -0.8649 -0.1552  1.7849
  339TMC3    C1 5081   2.849   0.344   0.961 -0.3267 -0.1413 -0.1249
  339TMC3    C2 5082   2.744   0.286   1.030 -0.0531  0.0172 -0.2041
  339TMC3    C3 5083   2.620   0.312   0.995 -0.2669 -0.7282  0.6478
  339TMC3    C4 5084   2.832   0.425   0.852 -0.2067 -0.2611  0.3112
  339TMC3    C5 5085   2.702   0.445   0.808  0.0270  0.1909  0.0584
  339TMC3    C6 5086   2.597   0.390   0.880 -0.1771 -0.0810  0.8584
  339TMC3     C 5087   2.982   0.347   1.026  0.2254  0.1637 -0.6842
  339TMC3     O 5088   3.009   0.264   1.110 -0.3622 -0.0505  0.0582
  339TMC3     H 5089   2.761   0.237   1.125  0.3870  1.1866  0.3169
  339TMC3    H1 5090   2.911   0.481   0.803  2.4336 -2.0929  2.4797
  339TMC3    H2 5091   2.500   0.413   0.838  0.3009  1.3418  0.5610
  339TMC3    C7 5092   2.678   0.555   0.725 -0.4011  1.4076  0.1141
  339TMC3    C8 5093   2.504   0.274   1.073 -1.1469  0.3229  0.7785
  339TMC3    O1 5094   2.615   0.649   0.773  0.4577  0.3568 -0.2731
  339TMC3    O2 5095   2.396   0.297   1.020  0.1076  0.5829  0.6546
  340MPD2     C 5096   3.804   3.124  10.159 -0.3546  0.0030  0.9484
  340MPD2    C1 5097   3.935   3.155  10.136 -0.2184 -0.0780  0.1885
  340MPD2    C2 5098   4.004   3.226  10.220 -0.5283  0.3803  0.5500
  340MPD2    C3 5099   3.943   3.273  10.336 -0.1557  0.1426 -0.1834
  340MPD2    C4 5100   3.809   3.244  10.373  0.4541  0.3970 -0.4551
  340MPD2    C5 5101   3.743   3.156  10.281 -0.2400 -0.7067 -0.6582
  340MPD2     H 5102   4.112   3.233  10.210 -0.5655  3.1679  1.9448
  340MPD2    H1 5103   3.763   3.286  10.462 -0.4112  1.7427 -1.5299
  340MPD2    H2 5104   3.758   3.068  10.078  0.6453 -0.3633  0.6324
  340MPD2    H3 5105   3.640   3.127  10.302 -1.4699  1.6281 -3.4216
  340MPD2     N 5106   4.019   3.353  10.422 -0.6228 -0.1894  0.3034
  340MPD2    H5 5107   3.981   3.385  10.510 -0.9181  0.0563  0.0899
  340MPD2    N1 5108   3.993   3.101  10.018 -0.1874 -0.2748 -0.3367
  340MPD2    H7 5109   3.935   3.039   9.962 -0.9866 -0.5488  0.7779
  341TMC3    C1 5110   4.153   3.042   9.853  0.0566  0.1696  0.3425
  341TMC3    C2 5111   4.133   2.905   9.880 -0.0777  0.4537  0.4892
  341TMC3    C3 5112   4.243   2.824   9.863  0.0900  0.1023  0.0400
  341TMC3    C4 5113   4.277   3.083   9.800 -0.0117 -0.2093  0.1730
  341TMC3    C5 5114   4.381   2.993   9.805  0.3317  0.4277 -0.1463
  341TMC3    C6 5115   4.367   2.864   9.840 -0.7072 -0.5598 -0.2670
  341TMC3     C 5116   4.117   3.126   9.961 -0.7572 -0.2034 -0.4711
  341TMC3     O 5117   4.207   3.205   9.994  0.8041  0.0162 -0.6212
  341TMC3     H 5118   4.039   2.857   9.904  1.9085 -2.4862  2.3138
  341TMC3    H1 5119   4.291   3.188   9.778  0.9575 -0.2589  0.5262
  341TMC3    H2 5120   4.456   2.802   9.829 -1.2215 -1.1003 -1.3637
  341TMC3    C7 5121   4.509   3.048   9.782  0.0171  0.0674 -0.8463
  341TMC3    C8 5122   4.234   2.692   9.920 -0.4568 -0.2085  0.4900
  341TMC3    O1 5123   4.593   2.992   9.851 -0.3522 -0.1239  0.6889
  341TMC3    O2 5124   4.123   2.643   9.906  0.7169  0.5280 -0.3619
  342MPD2     C 5125   1.480   2.328   0.587  0.1139  0.1210 -0.1885
  342MPD2    C1 5126   1.508   2.319   0.448 -0.1925  0.0299 -0.5018
  342MPD2    C2 5127   1.489   2.432   0.375  0.0463 -0.5174  0.9585
  342MPD2    C3 5128   1.450   2.559   0.422  0.1708 -0.0048  0.8939
  342MPD2    C4 5129   1.417   2.553   0.551  0.6823  0.2368 -0.1918
  342MPD2    C5 5130   1.437   2.445   0.633 -0.3096  0.8077 -0.3218
  342MPD2     H 5131   1.524   2.421   0.273 -0.1350 -0.3541  0.8790
  342MPD2    H1 5132   1.383   2.644   0.598 -0.1591 -0.8618  1.3404
  342MPD2    H2 5133   1.503   2.246   0.655  3.0032 -0.8571 -2.3168
  342MPD2    H3 5134   1.422   2.465   0.738  0.4696 -2.4711  0.4158
  342MPD2     N 5135   1.449   2.679   0.345  0.9312 -0.0713  0.4473
  342MPD2    H5 5136   1.424   2.762   0.399 -0.6454  0.1844 -0.6764
  342MPD2    N1 5137   1.551   2.198   0.384 -0.0212  0.0099 -0.4821
  342MPD2    H7 5138   1.591   2.204   0.291 -2.8882  1.7822 -1.6188
  343TMC3    C1 5139   1.627   1.980   0.362  0.5926 -0.3425 -0.2567
  343TMC3    C2 5140   1.756   2.009   0.334  0.8889 -0.2008  0.1237
  343TMC3    C3 5141   1.830   1.906   0.280  0.2264  0.4638  0.1510
  343TMC3    C4 5142   1.582   1.853   0.359  0.3649 -0.2592  0.2475
  343TMC3    C5 5143   1.661   1.754   0.322 -0.2523  0.3242  0.2585
  343TMC3    C6 5144   1.785   1.776   0.278  0.5330  0.3271 -0.1313
  343TMC3     C 5145   1.550   2.076   0.437  0.1236 -0.0734 -0.0789
  343TMC3     O 5146   1.473   2.036   0.523 -0.3777 -0.1053  0.0543
  343TMC3     H 5147   1.787   2.110   0.311 -0.4123  0.1279 -0.1485
  343TMC3    H1 5148   1.481   1.835   0.394  0.0304  2.0944  0.4715
  343TMC3    H2 5149   1.847   1.697   0.237 -2.4154 -2.0134 -0.0588
  343TMC3    C7 5150   1.614   1.617   0.343  0.4348 -0.9075  0.3661
  343TMC3    C8 5151   1.942   1.958   0.196 -0.2627 -0.8189  0.1357
  343TMC3    O1 5152   1.661   1.511   0.292  0.0251  0.1731 -0.1409
  343TMC3    O2 5153   1.997   2.061   0.215  0.7445 -0.5969 -0.3014
  344MPD2     C 5154   2.522   1.224  10.704  0.6371  0.3388  0.1414
  344MPD2    C1 5155   2.617   1.217  10.813  0.5379 -0.0018 -0.0741
  344MPD2    C2 5156   2.733   1.294  10.808  0.3174  0.9625 -0.1620
  344MPD2    C3 5157   2.761   1.363  10.689 -0.6843 -0.3398  0.2512
  344MPD2    C4 5158   2.669   1.362  10.584 -0.2884 -0.9156 -0.3591
  344MPD2    C5 5159   2.555   1.300  10.592 -0.1867 -0.2082  0.6074
  344MPD2     H 5160   2.800   1.298  10.892 -0.6657  0.1132  0.6687
  344MPD2    H1 5161   2.688   1.416  10.492  3.7813 -1.4889  0.1400
  344MPD2    H2 5162   2.427   1.170  10.705 -0.2547  1.8964 -0.8450
  344MPD2    H3 5163   2.476   1.315  10.519 -0.2283  1.4441  0.9739
  344MPD2     N 5164   2.894   1.417  10.676  0.3917  0.1137 -0.0548
  344MPD2    H5 5165   2.954   1.424  10.757 -1.3710  1.8348  1.1169
  344MPD2    N1 5166   2.576   1.133  10.920  0.3243  0.7020  0.6461
  344MPD2    H7 5167   2.506   1.068  10.886  1.4121 -0.8708  1.4320
  345TMC3    C1 5168   3.088   1.513  10.556 -0.0492  0.3342 -0.1132
  345TMC3    C2 5169   3.137   1.589  10.655 -0.4361  0.3138 -0.2393
  345TMC3    C3 5170   3.248   1.669  10.632  0.1986  0.0141  0.0372
  345TMC3    C4 5171   3.141   1.511  10.425  0.0813 -0.4025 -0.2104
  345TMC3    C5 5172   3.251   1.590  10.405 -0.3190  0.9646 -0.1410
  345TMC3    C6 5173   3.304   1.668  10.506  0.7116 -0.1578 -0.3314
  345TMC3     C 5174   2.949   1.467  10.563 -0.5406 -0.0440 -0.1862
  345TMC3     O 5175   2.893   1.478  10.456 -0.2409 -0.6636 -0.2384
  345TMC3     H 5176   3.094   1.585  10.754 -2.9966 -2.1191 -1.4629
  345TMC3    H1 5177   3.103   1.456  10.340 -0.6615  0.7615 -0.6273
  345TMC3    H2 5178   3.384   1.737  10.484  0.5851  0.6738  1.8406
  345TMC3    C7 5179   3.282   1.641  10.270 -0.3279  0.3053  0.1075
  345TMC3    C8 5180   3.289   1.768  10.725  0.4712 -0.0247 -0.4529
  345TMC3    O1 5181   3.382   1.712  10.255 -0.0322 -0.0238 -0.0317
  345TMC3    O2 5182   3.353   1.863  10.687 -0.0823 -0.4317 -0.3497
  346MPD2     C 5183   3.211   3.736  13.404  0.2902 -1.4576  0.4141
  346MPD2    C1 5184   3.288   3.781  13.512  0.3684 -0.2218  0.4733
  346MPD2    C2 5185   3.251   3.899  13.572  0.3958  0.3176  0.3026
  346MPD2    C3 5186   3.130   3.967  13.546  0.3170  0.5917 -0.5091
  346MPD2    C4 5187   3.054   3.919  13.438  0.2617 -0.1359  0.2129
  346MPD2    C5 5188   3.099   3.807  13.371 -0.3540 -0.0156 -0.6460
  346MPD2     H 5189   3.314   3.940  13.650  1.7193 -1.9201  0.4040
  346MPD2    H1 5190   2.961   3.964  13.408  0.8913  0.8414 -0.2771
  346MPD2    H2 5191   3.241   3.654  13.341 -0.0103 -0.5899 -0.8644
  346MPD2    H3 5192   3.033   3.765  13.296  0.0842 -1.5362 -0.1738
  346MPD2     N 5193   3.086   4.061  13.638  0.5527 -0.2777  0.4240
  346MPD2    H5 5194   3.141   4.073  13.722  2.6953  2.1329 -1.3339
  346MPD2    N1 5195   3.398   3.712  13.563 -0.3414 -0.2195  0.1274
  346MPD2    H7 5196   3.459   3.761  13.628  0.8993 -0.6668 -0.7052
  347TMC3    C1 5197   2.928   4.177  13.763  0.1230  0.5163  0.3338
  347TMC3    C2 5198   3.024   4.228  13.848  0.0863  0.5605 -0.1145
  347TMC3    C3 5199   2.988   4.244  13.985  0.5797  0.1162 -0.3949
  347TMC3    C4 5200   2.808   4.136  13.815  0.4390 -0.2358 -0.2087
  347TMC3    C5 5201   2.779   4.140  13.951  0.1762  0.1239  0.2530
  347TMC3    C6 5202   2.866   4.201  14.032  0.2847  0.5183 -0.1081
  347TMC3     C 5203   2.959   4.124  13.639  0.3820  0.7813 -0.1819
  347TMC3     O 5204   2.866   4.110  13.563 -0.1501 -0.6150 -0.3438
  347TMC3     H 5205   3.125   4.251  13.815  0.8037  0.2227  1.7906
  347TMC3    H1 5206   2.756   4.065  13.751 -0.9489  1.9405 -1.4654
  347TMC3    H2 5207   2.832   4.213  14.134  2.3374  0.4028  0.5893
  347TMC3    C7 5208   2.714   4.026  14.015  0.4246 -0.3831 -0.2572
  347TMC3    C8 5209   3.098   4.231  14.084  0.0053  0.8065  0.6010
  347TMC3    O1 5210   2.757   3.998  14.127  0.8719 -0.2206  0.1869
  347TMC3    O2 5211   3.209   4.215  14.038  0.1912  0.5797  0.3308
  348MPD2     C 5212   1.532   2.824  12.546  0.0973 -0.4074 -0.5752
  348MPD2    C1 5213   1.647   2.898  12.546  0.1036  0.9431 -0.2357
  348MPD2    C2 5214   1.664   2.991  12.443  0.0039 -0.4702 -0.0131
  348MPD2    C3 5215   1.556   3.011  12.354  0.3831 -0.3055  0.5363
  348MPD2    C4 5216   1.445   2.935  12.360 -0.3604  0.6143 -0.3986
  348MPD2    C5 5217   1.435   2.839  12.454 -0.6095  0.3893 -0.6716
  348MPD2     H 5218   1.751   3.054  12.429 -1.0962  1.2824  1.0314
  348MPD2    H1 5219   1.368   2.927  12.284  0.4276  0.1799 -1.1471
  348MPD2    H2 5220   1.512   2.740  12.613 -0.6402  0.2504  0.0239
  348MPD2    H3 5221   1.353   2.768  12.457  0.7473 -1.3222 -4.2996
  348MPD2     N 5222   1.556   3.115  12.258 -0.7464  0.3394 -0.4626
  348MPD2    H5 5223   1.473   3.123  12.200 -1.4654  0.7107  0.6186
  348MPD2    N1 5224   1.755   2.878  12.637 -0.1847 -0.7977 -0.4713
  348MPD2    H7 5225   1.836   2.938  12.621 -0.0428 -0.7102  0.6096
  349TMC3    C1 5226   1.895   2.730  12.763 -0.3684 -0.0519  0.0916
  349TMC3    C2 5227   1.905   2.595  12.764  0.3113 -0.0927  0.1158
  349TMC3    C3 5228   2.015   2.535  12.717 -0.4862 -0.5775  0.3856
  349TMC3    C4 5229   1.997   2.800  12.710 -0.7930  0.2623 -0.1550
  349TMC3    C5 5230   2.109   2.734  12.650  0.4453 -0.3770 -0.4025
  349TMC3    C6 5231   2.112   2.593  12.645  0.3599 -0.2255 -0.3183
  349TMC3     C 5232   1.759   2.771  12.732  0.4919  0.4069  0.3968
  349TMC3     O 5233   1.659   2.708  12.764  0.0372  0.0456 -0.4021
  349TMC3     H 5234   1.824   2.543  12.813  0.3642 -0.2851  0.0007
  349TMC3    H1 5235   1.994   2.908  12.715 -0.4668  0.1893  1.6316
  349TMC3    H2 5236   2.189   2.530  12.602  0.4354 -0.5651  0.3125
  349TMC3    C7 5237   2.149   2.798  12.526  0.0789 -0.6405 -0.5061
  349TMC3    C8 5238   2.004   2.392  12.732 -0.1970 -0.4695 -0.1458
  349TMC3    O1 5239   2.162   2.732  12.422  0.6175  0.6363 -0.2634
  349TMC3    O2 5240   1.918   2.360  12.808  0.1751  0.1064  0.6303
  350MPD2     C 5241   1.209   1.156   9.642 -0.8717  0.7294  0.5231
  350MPD2    C1 5242   1.228   1.087   9.758 -0.3058  0.5317  0.4776
  350MPD2    C2 5243   1.309   1.135   9.851 -0.1316  0.8534  0.4932
  350MPD2    C3 5244   1.376   1.252   9.841  0.3669 -0.2580 -0.9461
  350MPD2    C4 5245   1.374   1.314   9.718 -0.5294 -0.0313  0.3846
  350MPD2    C5 5246   1.285   1.264   9.624  0.6180  0.3240  0.7211
  350MPD2     H 5247   1.304   1.093   9.951 -0.6215  1.9427  0.9357
  350MPD2    H1 5248   1.431   1.402   9.694 -0.1481 -0.7758 -1.4006
  350MPD2    H2 5249   1.135   1.131   9.567  0.9150  0.8208 -1.2929
  350MPD2    H3 5250   1.266   1.329   9.539  0.5223 -0.9057 -0.1825
  350MPD2     N 5251   1.457   1.289   9.951  0.1460 -0.4006  0.0785
  350MPD2    H5 5252   1.478   1.230  10.031 -1.9769 -1.1119  0.1234
  350MPD2    N1 5253   1.173   0.962   9.789  0.1521 -0.0160  0.0969
  350MPD2    H7 5254   1.215   0.905   9.862 -2.3426 -1.6880  0.2082
  351TMC3    C1 5255   1.028   0.771   9.742 -0.0155  0.0867 -0.1406
  351TMC3    C2 5256   1.139   0.688   9.768 -0.9110 -0.4630 -0.4323
  351TMC3    C3 5257   1.105   0.564   9.804  0.7021  0.0685  0.5178
  351TMC3    C4 5258   0.903   0.731   9.734 -0.6562  0.2130 -0.4720
  351TMC3    C5 5259   0.881   0.598   9.765 -0.2717 -0.2690 -0.0143
  351TMC3    C6 5260   0.982   0.523   9.804  0.0551 -0.1899 -0.0384
  351TMC3     C 5261   1.052   0.915   9.731 -0.0484 -0.1710  0.3312
  351TMC3     O 5262   0.967   0.987   9.680  0.9467  0.5674 -0.3844
  351TMC3     H 5263   1.240   0.724   9.754 -1.2619  0.5773 -0.2661
  351TMC3    H1 5264   0.827   0.808   9.723 -0.5313  0.2873 -0.8160
  351TMC3    H2 5265   0.958   0.431   9.855 -0.8020 -0.1325 -0.3453
  351TMC3    C7 5266   0.748   0.547   9.807  0.5650 -0.1812 -0.3849
  351TMC3    C8 5267   1.211   0.467   9.799 -0.5488 -0.0658  0.3190
  351TMC3    O1 5268   0.741   0.466   9.897 -0.5007  0.3807  0.2107
  351TMC3    O2 5269   1.326   0.503   9.822 -0.3264  0.0256  0.1214
  352MPD2     C 5270   3.802   3.561   0.625 -0.4756  0.4769  0.1439
  352MPD2    C1 5271   3.746   3.545   0.749 -0.1483 -0.5434 -0.0628
  352MPD2    C2 5272   3.810   3.477   0.841  0.1040 -0.7071 -0.2561
  352MPD2    C3 5273   3.934   3.411   0.815 -0.8879  0.2867  0.2392
  352MPD2    C4 5274   3.977   3.426   0.689  0.2011 -0.1634  0.4500
  352MPD2    C5 5275   3.926   3.510   0.600  0.2477  0.5674 -0.0937
  352MPD2     H 5276   3.754   3.458   0.932  0.0323 -0.9598 -0.3521
  352MPD2    H1 5277   4.070   3.376   0.664 -0.6662  0.0171 -3.1688
  352MPD2    H2 5278   3.744   3.617   0.552  1.0003 -1.2388 -2.3429
  352MPD2    H3 5279   3.976   3.526   0.505 -0.6432  0.6243 -0.5517
  352MPD2     N 5280   3.999   3.318   0.895 -0.1119 -0.1863 -0.3477
  352MPD2    H5 5281   4.070   3.264   0.847  1.6132  2.2380 -0.5071
  352MPD2    N1 5282   3.618   3.597   0.764 -0.5171 -0.1194  0.8657
  352MPD2    H7 5283   3.592   3.651   0.682 -0.4481 -2.1506 -0.4860
  353TMC3    C1 5284   4.018   3.165   1.070 -0.3935  0.5286 -0.5974
  353TMC3    C2 5285   4.152   3.129   1.066 -0.3150 -0.8517 -0.3828
  353TMC3    C3 5286   4.184   3.000   1.108  0.6685  0.7337  0.7944
  353TMC3    C4 5287   3.919   3.081   1.122 -0.5817 -0.0876  0.9100
  353TMC3    C5 5288   3.962   2.952   1.141 -0.5821  0.0184 -0.0658
  353TMC3    C6 5289   4.091   2.913   1.153  0.6081 -0.2515  0.0342
  353TMC3     C 5290   3.966   3.295   1.029 -0.1655  0.9645 -0.1129
  353TMC3     O 5291   3.889   3.354   1.101 -0.3946  0.2762  0.5784
  353TMC3     H 5292   4.227   3.203   1.041 -0.4813 -1.0912 -1.6002
  353TMC3    H1 5293   3.819   3.109   1.093 -0.9706 -1.0912  1.3220
  353TMC3    H2 5294   4.098   2.820   1.209 -0.1004 -1.0743 -1.2275
  353TMC3    C7 5295   3.864   2.854   1.173  0.5087 -0.0504  0.3779
  353TMC3    C8 5296   4.317   2.971   1.147 -0.3216 -0.1004 -0.4695
  353TMC3    O1 5297   3.890   2.735   1.166  0.2886  0.3142  0.5101
  353TMC3    O2 5298   4.398   3.058   1.168  0.2288 -0.0840 -0.5049
  354TMC3    C1 5299   0.648   4.265  13.454  0.0026  0.1683  0.0011
  354TMC3    C2 5300   0.572   4.363  13.398 -0.6986 -0.1250  0.0740
  354TMC3    C3 5301   0.577   4.383  13.263 -0.0702  0.2965  0.0563
  354TMC3    C4 5302   0.734   4.193  13.380 -0.1680  0.1621 -0.0713
  354TMC3    C5 5303   0.754   4.226  13.249 -0.2697 -0.2471  0.7645
  354TMC3    C6 5304   0.668   4.310  13.186  0.0285 -0.0037 -0.3099
  354TMC3     C 5305   0.645   4.231  13.593  0.0429  0.1030  0.1148
  354TMC3     O 5306   0.670   4.121  13.639 -0.4991 -0.7573  0.5885
  354TMC3     H 5307   0.491   4.407  13.456 -0.6293 -0.1375  0.1795
  354TMC3    H1 5308   0.811   4.141  13.436  0.3373  0.8791 -0.1088
  354TMC3    H2 5309   0.659   4.331  13.080  2.4149  0.3495 -0.4380
  354TMC3    C7 5310   0.848   4.146  13.176 -0.6016 -0.4666 -0.0514
  354TMC3    C8 5311   0.509   4.493  13.205 -0.5003  0.0682 -0.2388
  354TMC3    O1 5312   0.894   4.056  13.240 -0.7064  0.3096  0.0986
  354TMC3    O2 5313   0.477   4.478  13.084  0.1766 -0.5878  1.0580
  355MPD2     C 5314   1.009   0.443  11.965 -0.6087 -0.0521 -0.1098
  355MPD2    C1 5315   1.099   0.384  11.876  0.3313 -0.0121  0.6896
  355MPD2    C2 5316   1.144   0.253  11.905  0.1255  0.8723 -0.0891
  355MPD2    C3 5317   1.124   0.199  12.034 -0.0786 -0.6052 -0.3995
  355MPD2    C4 5318   1.058   0.272  12.126  0.9484  0.0453  0.2847
  355MPD2    C5 5319   0.999   0.388  12.088  1.0770 -0.0171 -0.7451
  355MPD2     H 5320   1.215   0.209  11.836 -0.7447 -0.1725 -0.3084
  355MPD2    H1 5321   1.055   0.255  12.233  1.4593  3.2362  0.7850
  355MPD2    H2 5322   0.957   0.537  11.951  0.1095  0.5567  1.2512
  355MPD2    H3 5323   0.948   0.440  12.169  1.7140 -1.4233  0.5679
  355MPD2     N 5324   1.199   0.090  12.084  0.3910 -0.0902 -0.1493
  355MPD2    H5 5325   1.228   0.101  12.180 -0.2674  1.6427 -0.1405
  355MPD2    N1 5326   1.121   0.446  11.749 -0.7596 -0.2235  0.1927
  355MPD2    H7 5327   1.085   0.541  11.740  0.7495  0.4715  1.5296
  356TMC3    C1 5328   1.419   0.097  12.008 -0.3102 -0.3594 -0.2137
  356TMC3    C2 5329   1.451   0.136  11.881 -0.2380 -0.4852  0.4276
  356TMC3    C3 5330   1.506   0.260  11.863  0.5609 -0.6974  0.4416
  356TMC3    C4 5331   1.449   0.172  12.116  0.0406  0.1451  0.0072
  356TMC3    C5 5332   1.506   0.291  12.095  0.2327  1.0059  0.8416
  356TMC3    C6 5333   1.536   0.341  11.972  0.3065 -0.3041  0.5228
  356TMC3     C 5334   1.287   0.029  12.005  0.1876  0.2449  0.2124
  356TMC3     O 5335   1.254   4.687  11.907 -0.6196 -0.3527 -0.3398
  356TMC3     H 5336   1.437   0.074  11.793 -0.8029  0.9179 -0.4726
  356TMC3    H1 5337   1.419   0.133  12.213 -0.2539 -1.5000 -0.7513
  356TMC3    H2 5338   1.615   0.414  11.966 -0.2062  0.1608 -0.5509
  356TMC3    C7 5339   1.567   0.353  12.205  0.9647  0.4685  0.0798
  356TMC3    C8 5340   1.560   0.294  11.737  0.0894  0.2541 -0.1159
  356TMC3    O1 5341   1.564   0.294  12.312  0.0076  0.0199 -0.6029
  356TMC3    O2 5342   1.571   0.199  11.662 -0.0551  0.0679 -0.1971
  357MPD2     C 5343   4.587   0.591   1.881 -0.0200 -0.1864 -0.5564
  357MPD2    C1 5344   4.613   0.455   1.914 -0.7170  0.7615  0.1513
  357MPD2    C2 5345   4.509   0.372   1.972  0.4378  0.1556  0.4235
  357MPD2    C3 5346   4.392   0.427   2.007 -0.4691  0.0051  0.1937
  357MPD2    C4 5347   4.366   0.556   1.969  0.2204 -0.2437 -0.2960
  357MPD2    C5 5348   4.460   0.631   1.903 -0.0229 -0.9366  0.3555
  357MPD2     H 5349   4.537   0.269   1.995  3.4001  0.4484 -1.9060
  357MPD2    H1 5350   4.271   0.600   1.996  0.1170  0.8426 -2.3870
  357MPD2    H2 5351   4.656   0.643   1.816  1.4214 -1.8783 -0.3971
  357MPD2    H3 5352   4.422   0.730   1.879 -0.5578 -0.9875  0.9751
  357MPD2     N 5353   4.284   0.353   2.064 -0.2793  0.1437  0.7388
  357MPD2    H5 5354   4.192   0.395   2.068  0.1405  1.1089  0.2944
  357MPD2    N1 5355   0.007   0.399   1.861  0.2164  0.4460  0.1265
  357MPD2    H7 5356   0.061   0.461   1.801  2.3179 -1.4166  0.0961
  358TMC3    C1 5357   0.169   0.255   1.816  0.7300  0.4735 -0.0259
  358TMC3    C2 5358   0.161   0.265   1.682  0.9010  0.5928  0.1478
  358TMC3    C3 5359   0.250   0.202   1.596  0.1626 -0.4989 -0.0335
  358TMC3    C4 5360   0.268   0.176   1.871 -0.5605  0.1999 -0.0491
  358TMC3    C5 5361   0.350   0.105   1.785 -0.3913 -0.0740  0.4748
  358TMC3    C6 5362   0.344   0.118   1.648  0.8911  0.3081 -0.3146
  358TMC3     C 5363   0.050   0.278   1.892 -0.6639 -0.7986 -0.0222
  358TMC3     O 5364   0.025   0.202   1.983  0.2176 -0.4741  0.5992
  358TMC3     H 5365   0.065   0.299   1.644  1.0780  0.4287 -0.4370
  358TMC3    H1 5366   0.274   0.185   1.979  0.0479 -0.0279 -0.0620
  358TMC3    H2 5367   0.404   0.052   1.587  1.5257  0.8865 -0.3177
  358TMC3    C7 5368   0.450   0.017   1.849  0.0401 -0.2607  0.3233
  358TMC3    C8 5369   0.220   0.211   1.449 -0.4894  0.4546  0.6920
  358TMC3    O1 5370   0.534   4.689   1.772 -0.9559 -0.5987 -0.4641
  358TMC3    O2 5371   0.148   0.304   1.420  0.2356  0.0079 -0.0755
  359MPD2     C 5372   1.102   4.002  12.475  0.3347  0.1519 -0.2994
  359MPD2    C1 5373   1.148   3.884  12.527  0.3862  0.5216  0.6432
  359MPD2    C2 5374   1.062   3.782  12.561  0.3597  0.2922  0.1181
  359MPD2    C3 5375   0.928   3.791  12.524  0.9733 -0.3761 -0.5086
  359MPD2    C4 5376   0.883   3.905  12.465  0.1831 -0.1385  0.5763
  359MPD2    C5 5377   0.968   4.016  12.449 -0.3424 -0.0056  0.0335
  359MPD2     H 5378   1.096   3.691  12.609 -1.9016 -0.2779  0.6431
  359MPD2    H1 5379   0.777   3.921  12.450  0.2932  1.1302  1.1194
  359MPD2    H2 5380   1.168   4.079  12.439 -1.4644  2.4135  1.2263
  359MPD2    H3 5381   0.922   4.107  12.412  0.4143  0.1939 -0.4208
  359MPD2     N 5382   0.850   3.681  12.563 -0.3118  1.1814 -0.1254
  359MPD2    H5 5383   0.884   3.615  12.632 -1.4812  2.2400  1.4638
  359MPD2    N1 5384   1.288   3.862  12.543  0.3705  0.1674 -0.3897
  359MPD2    H7 5385   1.312   3.769  12.577 -0.3405  0.0611 -0.1867
  360TMC3    C1 5386   1.518   3.872  12.495 -0.2657 -0.6256 -0.3507
  360TMC3    C2 5387   1.618   3.960  12.455 -0.1901 -0.0368 -0.2051
  360TMC3    C3 5388   1.709   3.917  12.367 -0.3816  0.0726  0.2834
  360TMC3    C4 5389   1.513   3.747  12.444  0.0848 -0.5265  0.5695
  360TMC3    C5 5390   1.603   3.717  12.346  0.2017 -0.1075 -0.8043
  360TMC3    C6 5391   1.710   3.792  12.311  0.5785 -0.7474 -0.0745
  360TMC3     C 5392   1.390   3.947  12.516  0.3001  0.0054  0.4880
  360TMC3     O 5393   1.382   4.064  12.501 -0.3101  0.3771  0.1685
  360TMC3     H 5394   1.610   4.066  12.475 -1.9771 -0.4332  1.1789
  360TMC3    H1 5395   1.432   3.683  12.479 -1.1770  1.4036  1.1738
  360TMC3    H2 5396   1.769   3.769  12.223 -0.5391  1.6066 -1.4136
  360TMC3    C7 5397   1.551   3.633  12.244 -0.7098 -0.4731 -1.2148
  360TMC3    C8 5398   1.811   4.017  12.323 -0.1218 -0.2361 -0.4601
  360TMC3    O1 5399   1.569   3.684  12.136  0.4777  0.0897  0.3450
  360TMC3    O2 5400   1.772   4.132  12.324 -0.2558 -0.0333 -0.3645
  361MPD2     C 5401   2.145   2.332  17.006 -0.3734 -0.6012  1.1048
  361MPD2    C1 5402   2.202   2.452  17.045  0.3109  0.0362 -0.3993
  361MPD2    C2 5403   2.337   2.465  17.044  0.2941  0.4893  0.0354
  361MPD2    C3 5404   2.420   2.356  17.020 -0.2572 -0.6791  1.0339
  361MPD2    C4 5405   2.356   2.238  16.973  0.1066 -0.5568  0.0336
  361MPD2    C5 5406   2.222   2.219  16.966 -0.0292 -0.4276  0.5825
  361MPD2     H 5407   2.387   2.557  17.070 -1.0837  1.2325  0.0011
  361MPD2    H1 5408   2.414   2.150  16.949 -0.1732 -0.7823  0.1733
  361MPD2    H2 5409   2.037   2.331  17.018 -0.4270  1.7519  0.8856
  361MPD2    H3 5410   2.189   2.121  16.934 -2.2317  1.8293 -4.0183
  361MPD2     N 5411   2.560   2.340  17.046  0.0550  0.1568 -0.2249
  361MPD2    H5 5412   2.597   2.247  17.028 -1.7479 -0.5315 -0.3582
  361MPD2    N1 5413   2.120   2.562  17.087  0.3849  0.1740 -0.6334
  361MPD2    H7 5414   2.161   2.651  17.059  1.4254 -0.9601 -2.6513
  362TMC3    C1 5415   1.932   2.690  17.148  0.7616  0.4023 -0.1899
  362TMC3    C2 5416   1.822   2.700  17.229  0.2015 -0.1236  0.3632
  362TMC3    C3 5417   1.742   2.807  17.221 -0.3041 -0.7266 -0.1176
  362TMC3    C4 5418   1.956   2.780  17.045 -0.2071 -0.4571 -0.4930
  362TMC3    C5 5419   1.870   2.888  17.032  0.2639 -0.0351  0.5594
  362TMC3    C6 5420   1.761   2.902  17.121 -0.3593 -0.0812  0.4399
  362TMC3     C 5421   1.998   2.556  17.147  0.6559  0.8910 -0.2284
  362TMC3     O 5422   1.953   2.464  17.213  0.1608 -0.1036 -0.1903
  362TMC3     H 5423   1.814   2.630  17.312  1.9757 -1.1935 -0.3825
  362TMC3    H1 5424   2.039   2.776  16.975  0.4050 -0.8007  0.2650
  362TMC3    H2 5425   1.698   2.987  17.099  0.3261 -0.3411 -2.5989
  362TMC3    C7 5426   1.876   2.973  16.909 -0.4024  0.1584 -0.2961
  362TMC3    C8 5427   1.620   2.791  17.301 -0.4363 -0.0602  0.5838
  362TMC3    O1 5428   1.987   3.010  16.878 -0.0093 -0.1900  0.2593
  362TMC3    O2 5429   1.618   2.703  17.389  0.3295  0.4480 -0.4582
  363TMC3    C1 5430   1.415   4.711   9.432  0.8261  0.0233 -0.2524
  363TMC3    C2 5431   1.542   4.705   9.499 -0.0094  0.2938  0.2331
  363TMC3    C3 5432   1.610   0.103   9.526 -0.1234  0.3400 -0.8550
  363TMC3    C4 5433   1.353   0.105   9.410  0.2275  0.2703 -0.1822
  363TMC3    C5 5434   1.424   0.220   9.448  0.0042 -0.2749  0.0875
  363TMC3    C6 5435   1.554   0.219   9.490 -0.0232  0.2556  0.3865
  363TMC3     C 5436   1.349   4.580   9.415  0.3027  0.6087  0.1773
  363TMC3     O 5437   1.391   4.483   9.477 -0.6821 -0.5843  0.0190
  363TMC3     H 5438   1.583   4.609   9.529 -1.1767 -0.2059  0.2567
  363TMC3    H1 5439   1.249   0.117   9.380  0.7495  3.5211 -0.6622
  363TMC3    H2 5440   1.611   0.311   9.498  0.0611  0.3656 -1.3503
  363TMC3    C7 5441   1.354   0.350   9.437 -0.0077  0.1691  0.2538
  363TMC3    C8 5442   1.749   0.106   9.586 -0.0766  0.1503 -0.1627
  363TMC3    O1 5443   1.247   0.352   9.375  0.0589  0.1493 -0.4408
  363TMC3    O2 5444   1.807   0.204   9.616  0.2813  0.5964  0.2028
  364MPD2     C 5445   4.570   4.471  10.753 -0.7142 -0.4889 -0.2084
  364MPD2    C1 5446   4.702   4.455  10.717  0.2399  0.1652  0.0749
  364MPD2    C2 5447   0.052   4.344  10.769  0.2064 -0.6752  0.9526
  364MPD2    C3 5448   4.717   4.255  10.862  0.2396 -0.2606  0.1267
  364MPD2    C4 5449   4.590   4.278  10.903  0.0306 -0.7236 -0.1749
  364MPD2    C5 5450   4.518   4.386  10.848  1.1708 -0.5718 -0.2811
  364MPD2     H 5451   0.153   4.329  10.734 -0.3900 -2.5589  0.0495
  364MPD2    H1 5452   4.549   4.209  10.976  2.5412 -1.7368  0.2761
  364MPD2    H2 5453   4.517   4.555  10.708 -0.6718  1.2024  2.8618
  364MPD2    H3 5454   4.416   4.386  10.885 -0.2350  1.9763 -4.1936
  364MPD2     N 5455   0.062   4.142  10.912  0.0628 -0.0318 -0.2502
  364MPD2    H5 5456   0.007   4.092  10.981  0.3314 -0.9365 -0.6912
  364MPD2    N1 5457   0.040   4.543  10.626 -0.4978  0.2123 -0.6498
  364MPD2    H7 5458   4.706   4.624  10.599 -0.9009  0.0805 -0.2199
  365TMC3    C1 5459   0.210   4.661  10.510 -0.2743 -0.4868 -0.4668
  365TMC3    C2 5460   0.318   4.653  10.425 -0.5753  0.4384  0.4280
  365TMC3    C3 5461   0.416   0.031  10.430  0.1220 -0.5070  0.1478
  365TMC3    C4 5462   0.202   0.045  10.598  0.0252 -0.4802  0.5472
  365TMC3    C5 5463   0.293   0.142  10.593  0.2252  0.5747  0.5527
  365TMC3    C6 5464   0.403   0.144  10.508  0.5102 -0.5725 -0.0227
  365TMC3     C 5465   0.167   4.541  10.577 -0.7901  0.6863  0.6011
  365TMC3     O 5466   0.256   4.454  10.581 -0.2042 -0.2795 -0.1165
  365TMC3     H 5467   0.325   4.562  10.366  1.5877  1.1301 -0.3547
  365TMC3    H1 5468   0.128   0.033  10.676 -0.7206 -0.7100 -0.1924
  365TMC3    H2 5469   0.484   0.210  10.539  0.9429 -0.4341 -1.4523
  365TMC3    C7 5470   0.283   0.232  10.708 -0.0976  0.7334 -0.0550
  365TMC3    C8 5471   0.560   4.710  10.405  0.6540  0.2264  0.1417
  365TMC3    O1 5472   0.224   0.182  10.807  0.6811  0.7231 -0.0965
  365TMC3    O2 5473   0.650   0.069  10.401  0.1863 -0.0874  0.2165
  366MPD2     C 5474   3.188   0.501  15.751 -0.3902 -0.5888  0.6175
  366MPD2    C1 5475   3.191   0.605  15.844  0.8190  0.1387 -0.1901
  366MPD2    C2 5476   3.312   0.655  15.884 -0.5181 -0.1655  0.3078
  366MPD2    C3 5477   3.425   0.605  15.827 -0.1941 -0.6158 -0.6300
  366MPD2    C4 5478   3.421   0.511  15.734  0.3532 -0.1064 -0.2030
  366MPD2    C5 5479   3.299   0.453  15.694  0.4483 -0.1586 -0.2904
  366MPD2     H 5480   3.309   0.734  15.958  0.8365  0.1803 -0.0021
  366MPD2    H1 5481   3.514   0.469  15.697  0.6996  0.1416  0.3890
  366MPD2    H2 5482   3.095   0.453  15.724 -0.2439 -0.7972  0.4855
  366MPD2    H3 5483   3.298   0.369  15.625  1.3328 -1.2469  1.0143
  366MPD2     N 5484   3.544   0.681  15.857 -0.0062  0.8018  0.4292
  366MPD2    H5 5485   3.547   0.739  15.940 -0.4634 -0.2538  1.1898
  366MPD2    N1 5486   3.075   0.678  15.882  0.3321 -0.4345 -0.0262
  366MPD2    H7 5487   3.094   0.754  15.947  0.3543 -1.2111  0.8760
  367TMC3    C1 5488   2.885   0.815  15.832 -0.2735 -0.9954  0.2971
  367TMC3    C2 5489   2.968   0.910  15.897 -0.6157 -0.0085 -0.0271
  367TMC3    C3 5490   2.987   1.036  15.842  0.5707  0.2118  0.4091
  367TMC3    C4 5491   2.819   0.857  15.712  0.2862  0.0191 -0.4404
  367TMC3    C5 5492   2.848   0.973  15.661  0.1169 -0.5332 -0.0670
  367TMC3    C6 5493   2.933   1.061  15.722 -0.1719  0.0020 -0.2902
  367TMC3     C 5494   2.953   0.685  15.811 -0.1076  0.7047 -0.0509
  367TMC3     O 5495   2.923   0.626  15.710  0.3047  0.7532 -0.3624
  367TMC3     H 5496   3.002   0.905  16.000  0.4989 -1.3290 -0.4645
  367TMC3    H1 5497   2.764   0.781  15.658  1.4294  0.2086 -1.8636
  367TMC3    H2 5498   2.976   1.147  15.672 -0.9844  0.4790 -0.1771
  367TMC3    C7 5499   2.748   1.052  15.593  0.4844  0.6559 -0.2921
  367TMC3    C8 5500   3.093   1.111  15.901  0.6263  1.0514 -0.0725
  367TMC3    O1 5501   2.761   1.174  15.586  0.2160 -0.1173 -0.6038
  367TMC3    O2 5502   3.160   1.057  15.986  0.3702 -0.3005  0.4898
  368MPD2     C 5503   0.119   2.934  13.677 -0.0879  0.1823  0.2062
  368MPD2    C1 5504   0.138   2.924  13.537  0.0911  0.4018  0.5506
  368MPD2    C2 5505   0.271   2.911  13.501  0.0911  0.4499 -0.5641
  368MPD2    C3 5506   0.378   2.912  13.590  0.2070  0.8700 -0.2362
  368MPD2    C4 5507   0.357   2.926  13.726  0.4434  0.2196  0.0380
  368MPD2    C5 5508   0.222   2.923  13.759 -0.0198  0.5346  0.1447
  368MPD2     H 5509   0.282   2.890  13.396  1.8624 -1.3352 -0.0186
  368MPD2    H1 5510   0.438   2.935  13.796  2.1035  1.2627 -2.0224
  368MPD2    H2 5511   0.020   2.950  13.720 -0.1348  0.2219  0.0824
  368MPD2    H3 5512   0.195   2.935  13.863 -1.9914  1.0965 -0.4320
  368MPD2     N 5513   0.510   2.906  13.541 -0.0224  0.5457 -0.7098
  368MPD2    H5 5514   0.580   2.914  13.614 -0.9968  2.2919  0.0239
  368MPD2    N1 5515   0.031   2.923  13.443 -0.4378 -0.2093 -0.3020
  368MPD2    H7 5516   4.659   2.902  13.473  0.5411 -0.9996  2.1598
  369TMC3    C1 5517   4.647   2.936  13.237 -0.5064  0.0780  0.0821
  369TMC3    C2 5518   4.638   3.018  13.126 -0.8062  0.5815  0.5601
  369TMC3    C3 5519   4.518   3.020  13.060  0.0458  1.1186 -0.7650
  369TMC3    C4 5520   4.549   2.842  13.267 -0.2774  0.3632  0.7303
  369TMC3    C5 5521   4.440   2.843  13.184  0.1681  0.7339 -0.4515
  369TMC3    C6 5522   4.427   2.923  13.072 -0.1387  0.6076  0.0129
  369TMC3     C 5523   0.045   2.944  13.308  0.1552  0.3142  0.2099
  369TMC3     O 5524   0.139   2.997  13.250  0.0702  0.0219  0.2775
  369TMC3     H 5525   4.689   3.114  13.129  1.7860 -0.7502 -1.4782
  369TMC3    H1 5526   4.552   2.775  13.352 -1.2027 -0.1011  0.4017
  369TMC3    H2 5527   4.333   2.936  13.019 -1.1762 -1.8498  1.2189
  369TMC3    C7 5528   4.332   2.757  13.232 -0.6785 -0.2207 -0.5050
  369TMC3    C8 5529   4.507   3.088  12.935 -1.2050  0.8559  0.3804
  369TMC3    O1 5530   4.345   2.719  13.349 -0.5628  0.4667 -0.0870
  369TMC3    O2 5531   4.413   3.065  12.861 -0.0391 -0.0494 -0.0847
  370TMC3    C1 5532   3.703   3.455  16.403  0.4657  0.2341  0.7606
  370TMC3    C2 5533   3.629   3.367  16.482  0.3657  0.3538  0.0196
  370TMC3    C3 5534   3.609   3.241  16.442 -0.1544 -0.4262 -0.0983
  370TMC3    C4 5535   3.747   3.411  16.282 -0.0045  0.4672 -0.3023
  370TMC3    C5 5536   3.741   3.277  16.252  0.6139 -0.0628  0.1288
  370TMC3    C6 5537   3.676   3.191  16.333  0.0749 -0.0213 -0.9627
  370TMC3     C 5538   3.765   3.568  16.473  0.4827  0.1520  0.6095
  370TMC3     O 5539   3.729   3.585  16.589  0.1007  0.2814 -0.3167
  370TMC3     H 5540   3.588   3.398  16.577  0.6259 -0.7096  0.4826
  370TMC3    H1 5541   3.800   3.481  16.218  2.0158  0.2497  1.1061
  370TMC3    H2 5542   3.642   3.091  16.306  0.3620  0.4778 -3.1813
  370TMC3    C7 5543   3.815   3.225  16.139 -0.6963  0.5215  0.1477
  370TMC3    C8 5544   3.570   3.140  16.540 -0.6597  0.3593 -1.1789
  370TMC3    O1 5545   3.877   3.309  16.079  0.3714  0.7826  0.0544
  370TMC3    O2 5546   3.607   3.024  16.529 -0.2599  0.4848  0.0983
  371TMC3    C1 5547   0.393   1.803  15.465 -0.5775  0.0800  0.2030
  371TMC3    C2 5548   0.256   1.789  15.484 -0.1635 -0.3430 -0.1034
  371TMC3    C3 5549   0.164   1.879  15.448 -0.5117 -0.1609  0.2534
  371TMC3    C4 5550   0.425   1.907  15.379 -0.4094  0.0123 -0.1341
  371TMC3    C5 5551   0.330   1.999  15.347  0.3734 -0.2292 -0.0219
  371TMC3    C6 5552   0.199   1.990  15.384  0.7038 -0.0597  0.5012
  371TMC3     C 5553   0.494   1.702  15.479 -1.0653 -0.2405 -0.0590
  371TMC3     O 5554   0.606   1.713  15.431 -0.3868 -0.5254 -0.3732
  371TMC3     H 5555   0.211   1.702  15.529 -3.6054  1.8181  0.6060
  371TMC3    H1 5556   0.525   1.931  15.343  0.9643 -0.8252  3.1028
  371TMC3    H2 5557   0.137   2.069  15.343 -1.4438 -2.8936 -1.6992
  371TMC3    C7 5558   0.370   2.093  15.248 -0.6225 -0.2030  0.2107
  371TMC3    C8 5559   0.047   1.877  15.531 -0.5764  0.1693 -0.4608
  371TMC3    O1 5560   0.302   2.195  15.247 -0.0821 -1.0025  0.3783
  371TMC3    O2 5561   4.708   1.771  15.526 -0.4121 -0.1394  0.2038
  372MPD2     C 5562   4.438   3.205  13.348 -0.0573 -0.0558 -0.2884
  372MPD2    C1 5563   4.535   3.196  13.452  0.0974 -0.0727 -0.3522
  372MPD2    C2 5564   4.499   3.119  13.559 -0.4688  0.1855 -0.4052
  372MPD2    C3 5565   4.381   3.045  13.565  0.4801  0.1803 -0.7016
  372MPD2    C4 5566   4.293   3.062  13.466  0.2082 -0.1303  0.2205
  372MPD2    C5 5567   4.317   3.139  13.357  0.5749 -0.1926  0.3750
  372MPD2     H 5568   4.572   3.088  13.633  0.6159  0.2966 -1.4202
  372MPD2    H1 5569   4.196   3.012  13.461  0.0286  0.1262  1.1337
  372MPD2    H2 5570   4.462   3.257  13.256  0.6504 -0.0629 -0.1095
  372MPD2    H3 5571   4.257   3.151  13.268  0.7119  1.6422  0.5214
  372MPD2     N 5572   4.362   2.958  13.675 -0.2860  0.5847  0.7374
  372MPD2    H5 5573   4.432   2.977  13.746  3.1532  0.2078 -2.5449
  372MPD2    N1 5574   4.661   3.264  13.439  0.0563 -0.0639 -0.6953
  372MPD2    H7 5575   0.007   3.259  13.515 -0.1686  2.0441 -0.3768
  373TMC3    C1 5576   4.267   2.789  13.809 -0.2693 -1.3063 -0.0872
  373TMC3    C2 5577   4.271   2.853  13.924  0.2377 -0.4117  0.5852
  373TMC3    C3 5578   4.301   2.772  14.028 -0.4112  0.2621 -0.1843
  373TMC3    C4 5579   4.271   2.652  13.788  0.0358  0.5803 -0.2121
  373TMC3    C5 5580   4.306   2.577  13.898 -0.0794  0.4987 -0.6667
  373TMC3    C6 5581   4.330   2.638  14.013  0.1332  1.1363  0.5146
  373TMC3     C 5582   4.267   2.857  13.683 -0.0665  0.0849 -0.0708
  373TMC3     O 5583   4.177   2.823  13.608 -0.2513 -0.0253 -0.1623
  373TMC3     H 5584   4.243   2.957  13.924  1.1360 -0.1689 -2.1703
  373TMC3    H1 5585   4.258   2.609  13.690 -0.0909 -0.5013  0.2833
  373TMC3    H2 5586   4.381   2.584  14.092 -0.2308 -0.4677 -0.3390
  373TMC3    C7 5587   4.385   2.460  13.860  0.6451  0.4349 -0.3415
  373TMC3    C8 5588   4.329   2.842  14.155 -0.2018 -0.3170 -0.4441
  373TMC3    O1 5589   4.393   2.431  13.740  0.2194 -0.3986  0.6598
  373TMC3    O2 5590   4.404   2.786  14.231 -0.2033  0.1774  0.4721
  374TMC3    C1 5591   0.864   2.106  10.464  0.3054  0.3918 -0.6352
  374TMC3    C2 5592   0.890   2.238  10.450  0.5568 -0.1604  0.2418
  374TMC3    C3 5593   0.827   2.307  10.347 -0.4878 -0.5891 -0.4636
  374TMC3    C4 5594   0.784   2.036  10.379  0.1764 -0.3518 -1.1987
  374TMC3    C5 5595   0.719   2.113  10.287  0.3750 -0.0023 -0.3557
  374TMC3    C6 5596   0.744   2.245  10.259 -0.1870  0.7108 -0.1067
  374TMC3     C 5597   0.924   2.030  10.574  0.0356  0.1955 -0.1581
  374TMC3     O 5598   0.860   1.937  10.629  0.3504 -0.4142  0.4486
  374TMC3     H 5599   0.955   2.288  10.521  0.4536 -0.2004  0.3650
  374TMC3    H1 5600   0.767   1.930  10.397 -0.6417  0.2146  1.4995
  374TMC3    H2 5601   0.690   2.300  10.183 -0.8087 -2.2260 -1.8078
  374TMC3    C7 5602   0.610   2.046  10.211  0.2075  0.2804 -0.1231
  374TMC3    C8 5603   0.865   2.445  10.313  0.5027  0.0767  0.5509
  374TMC3    O1 5604   0.577   2.104  10.109  0.4327  0.1205  0.3735
  374TMC3    O2 5605   0.846   2.490  10.200 -0.0634 -0.2353  0.6151
  375MPD2     C 5606   4.540   3.600  17.047 -0.1364 -0.1594 -0.4402
  375MPD2    C1 5607   4.644   3.690  17.017 -0.0462  0.4511  0.9062
  375MPD2    C2 5608   0.033   3.646  16.952 -0.4581 -0.5222  0.4202
  375MPD2    C3 5609   0.051   3.514  16.913 -1.1644  0.0195 -0.7549
  375MPD2    C4 5610   4.681   3.417  16.950  0.4643  0.2464 -0.3832
  375MPD2    C5 5611   4.565   3.465  17.014  0.1475 -0.3218  0.2403
  375MPD2     H 5612   0.092   3.724  16.905  0.9856 -0.8874  1.6289
  375MPD2    H1 5613   4.686   3.311  16.928  1.0885 -0.2385  2.0820
  375MPD2    H2 5614   4.451   3.633  17.099  0.2650  0.9467 -0.4364
  375MPD2    H3 5615   4.486   3.397  17.046 -0.8582  1.4881  1.5595
  375MPD2     N 5616   0.169   3.481  16.847  0.3302  0.4063  0.0591
  375MPD2    H5 5617   0.160   3.386  16.813 -0.1502  1.1260 -1.7973
  375MPD2    N1 5618   4.629   3.829  17.026  0.3270 -0.4382 -0.2470
  375MPD2    H7 5619   4.702   3.888  16.987 -0.9253  1.8567  0.8843
  376TMC3    C1 5620   0.377   3.483  16.736  0.1688 -0.7589 -0.2593
  376TMC3    C2 5621   0.513   3.503  16.752 -0.7951 -0.3633  0.1759
  376TMC3    C3 5622   0.592   3.510  16.636 -0.0574  0.3062  0.2610
  376TMC3    C4 5623   0.321   3.470  16.611 -0.4684  0.3688  0.0586
  376TMC3    C5 5624   0.402   3.484  16.500  0.4139 -0.2950  0.6065
  376TMC3    C6 5625   0.534   3.507  16.513  0.0863  0.4372 -0.1466
  376TMC3     C 5626   0.292   3.545  16.837 -0.1117  0.0216 -0.1250
  376TMC3     O 5627   0.331   3.653  16.882 -0.2175  0.1107  0.1699
  376TMC3     H 5628   0.556   3.507  16.851  0.7228  1.7183 -0.5745
  376TMC3    H1 5629   0.216   3.456  16.590 -0.3908  0.3678 -0.3278
  376TMC3    H2 5630   0.594   3.504  16.423 -2.2841 -0.6042 -1.7054
  376TMC3    C7 5631   0.337   3.519  16.372 -0.0142 -0.0765 -0.4943
  376TMC3    C8 5632   0.736   3.527  16.637  0.7444  0.2728  0.3645
  376TMC3    O1 5633   0.406   3.591  16.303 -0.1946  0.1995 -0.4312
  376TMC3    O2 5634   0.791   3.554  16.529  0.3316 -0.2347 -0.5422
  377MPD2     C 5635   3.608   3.115  13.174  0.2598 -0.0376 -0.0599
  377MPD2    C1 5636   3.502   3.113  13.082 -0.4474  0.2881  0.4488
  377MPD2    C2 5637   3.376   3.071  13.114  0.6566 -0.3534  0.2201
  377MPD2    C3 5638   3.350   3.051  13.247 -0.3217 -0.0169  0.5175
  377MPD2    C4 5639   3.453   3.059  13.339 -0.1826  0.5185 -0.3052
  377MPD2    C5 5640   3.580   3.090  13.305  0.5185  0.2081 -0.6321
  377MPD2     H 5641   3.297   3.061  13.041 -1.1544 -1.0933  2.2933
  377MPD2    H1 5642   3.439   3.020  13.439  1.3392  0.0900 -0.2690
  377MPD2    H2 5643   3.704   3.140  13.132 -0.4793 -0.2143 -1.8288
  377MPD2    H3 5644   3.661   3.089  13.378 -1.2734  1.1901  1.3629
  377MPD2     N 5645   3.233   3.009  13.306  0.2485  0.7977 -0.1006
  377MPD2    H5 5646   3.228   3.002  13.407 -1.0158  1.1263 -0.1386
  377MPD2    N1 5647   3.543   3.152  12.953  0.1043 -0.1246  0.1824
  377MPD2    H7 5648   3.640   3.181  12.944  0.4553 -1.1052  0.8320
  378TMC3    C1 5649   3.533   3.237  12.503 -0.0711  0.7205 -0.6030
  378TMC3    C2 5650   3.462   3.218  12.621 -0.0926  0.3886  0.6089
  378TMC3    C3 5651   3.537   3.177  12.724  1.1996  0.0278 -0.3481
  378TMC3    C4 5652   3.667   3.226  12.486  0.9037 -0.2040 -0.4093
  378TMC3    C5 5653   3.737   3.193  12.599  0.4138 -0.3391  0.2074
  378TMC3    C6 5654   3.674   3.177  12.714 -0.4577 -0.8255 -0.0874
  378TMC3     C 5655   3.456   3.236  12.380  0.9039 -0.2752 -0.5100
  378TMC3     O 5656   3.345   3.282  12.381  0.0627  0.0863  0.0432
  378TMC3     H 5657   3.359   3.247  12.635  0.1103  1.4427 -0.1205
  378TMC3    H1 5658   3.714   3.244  12.390  0.6478 -0.2289 -0.5401
  378TMC3    H2 5659   3.733   3.135  12.794 -0.8621 -2.6648 -0.7700
  378TMC3    C7 5660   3.885   3.178  12.595  0.4897 -0.1135  0.8713
  378TMC3    C8 5661   3.464   3.143  12.844 -0.1369 -0.1161  0.0472
  378TMC3    O1 5662   3.953   3.214  12.692  0.3316  0.1437 -0.0678
  378TMC3    O2 5663   3.348   3.110  12.836 -0.7031 -0.0425  0.1631
  379MPD2     C 5664   3.762   1.692  16.745  0.4940  0.8184  0.1375
  379MPD2    C1 5665   3.862   1.626  16.684 -0.3782 -0.5185  0.3179
  379MPD2    C2 5666   3.974   1.585  16.750 -0.2397 -0.0728 -0.3372
  379MPD2    C3 5667   3.991   1.614  16.887  0.1221 -0.4001 -0.2466
  379MPD2    C4 5668   3.894   1.698  16.941  0.3649 -0.4032 -0.5870
  379MPD2    C5 5669   3.776   1.724  16.875 -0.1687 -0.3205  0.1457
  379MPD2     H 5670   4.055   1.531  16.701  2.3597  1.6905  1.9886
  379MPD2    H1 5671   3.905   1.727  17.044 -1.4374  0.9676 -0.7811
  379MPD2    H2 5672   3.674   1.722  16.690  1.0082 -1.3387 -1.8356
  379MPD2    H3 5673   3.689   1.768  16.923  0.0772  2.4168 -1.9374
  379MPD2     N 5674   4.101   1.581  16.959 -0.3681  0.2141 -0.1841
  379MPD2    H5 5675   4.100   1.621  17.053  0.5716 -0.4745  0.1134
  379MPD2    N1 5676   3.830   1.580  16.549 -0.2563 -1.0844  0.0223
  379MPD2    H7 5677   3.746   1.619  16.506 -0.4129 -1.1448  0.2737
  380TMC3    C1 5678   3.835   1.436  16.367  0.4970 -0.2722  0.5818
  380TMC3    C2 5679   3.911   1.391  16.262 -0.2973 -0.0023  0.5988
  380TMC3    C3 5680   3.848   1.381  16.139 -1.0002 -0.1829 -0.0612
  380TMC3    C4 5681   3.701   1.461  16.351 -0.0000 -0.0236 -0.6928
  380TMC3    C5 5682   3.645   1.450  16.231 -0.7686  0.2093  0.5014
  380TMC3    C6 5683   3.711   1.407  16.118  0.4070 -0.4897  0.0902
  380TMC3     C 5684   3.910   1.499  16.474 -0.6492  0.2353  0.8913
  380TMC3     O 5685   4.013   1.441  16.500  0.2317 -0.5972  0.4902
  380TMC3     H 5686   4.017   1.370  16.273  0.0097  1.6910  0.8931
  380TMC3    H1 5687   3.639   1.510  16.425 -1.1345  0.6486 -2.0975
  380TMC3    H2 5688   3.668   1.413  16.019 -1.9229  0.7468  1.1833
  380TMC3    C7 5689   3.513   1.497  16.213  0.0033 -0.1680  0.0211
  380TMC3    C8 5690   3.921   1.345  16.019  0.1986  0.6718  0.2275
  380TMC3    O1 5691   3.470   1.594  16.273  0.6404 -0.4296  0.3143
  380TMC3    O2 5692   3.870   1.361  15.910 -0.2916 -0.2750 -0.0889
  381TMC3    C1 5693   3.881   2.488  16.598 -0.8619 -0.4481 -0.0247
  381TMC3    C2 5694   3.938   2.607  16.576  0.0499 -0.2498 -0.3753
  381TMC3    C3 5695   3.860   2.711  16.615 -0.1970 -0.4410  0.0627
  381TMC3    C4 5696   3.752   2.468  16.644  0.2654  0.4186  0.3010
  381TMC3    C5 5697   3.670   2.580  16.664  0.1758  0.3667 -0.0720
  381TMC3    C6 5698   3.730   2.704  16.654  0.2836 -0.4680  0.2353
  381TMC3     C 5699   3.938   2.381  16.514 -0.3815  0.2800  0.1210
  381TMC3     O 5700   3.918   2.268  16.562 -0.2578 -0.0251 -0.6040
  381TMC3     H 5701   4.042   2.620  16.548 -0.2121 -0.5799 -1.5036
  381TMC3    H1 5702   3.713   2.370  16.669  2.0849 -0.2913  0.3525
  381TMC3    H2 5703   3.673   2.791  16.685  1.1981  0.2787 -0.1712
  381TMC3    C7 5704   3.605   2.560  16.797 -0.6601 -0.1300 -0.0826
  381TMC3    C8 5705   3.919   2.838  16.596  0.3642 -0.3940 -0.0268
  381TMC3    O1 5706   3.651   2.467  16.863 -0.1052 -0.0826 -0.0507
  381TMC3    O2 5707   4.013   2.843  16.519  0.4817 -0.3148 -0.2296
  382MPD2     C 5708   1.968   0.421   0.173  0.1851  0.3957 -0.0462
  382MPD2    C1 5709   2.103   0.448   0.146  0.2149 -1.0880  0.6410
  382MPD2    C2 5710   2.179   0.360   0.075  0.2483  0.1843  0.0070
  382MPD2    C3 5711   2.132   0.232   0.036  0.2851 -0.4392 -0.6336
  382MPD2    C4 5712   1.999   0.209   0.074  0.6461 -0.3061 -0.4345
  382MPD2    C5 5713   1.922   0.305   0.133 -0.6862  0.0713  0.0826
  382MPD2     H 5714   2.278   0.390   0.044 -0.3396  1.5624 -0.5431
  382MPD2    H1 5715   1.952   0.115   0.048 -0.6082  0.0552  0.5211
  382MPD2    H2 5716   1.893   0.489   0.212  0.0741 -0.3744  1.0819
  382MPD2    H3 5717   1.816   0.284   0.145 -0.7560  0.9405  0.9556
  382MPD2     N 5718   2.210   0.125  17.668 -0.5379 -0.0182  0.1478
  382MPD2    H5 5719   2.172   0.033  17.650 -0.0598 -0.0782 -0.5289
  382MPD2    N1 5720   2.172   0.569   0.180 -0.1434  0.0883 -0.9191
  382MPD2    H7 5721   2.266   0.589   0.147  1.2425 -2.1138  1.7007
  383TMC3    C1 5722   2.380   0.005  17.567  0.1712 -0.0044  0.4602
  383TMC3    C2 5723   2.287   4.653  17.506  0.7273 -0.0361 -0.1590
  383TMC3    C3 5724   2.321   4.546  17.421  0.1670  0.9257 -0.0192
  383TMC3    C4 5725   2.511   4.705  17.541  0.1746  0.0129 -0.2981
  383TMC3    C5 5726   2.545   4.595  17.469  0.3944 -0.5939  0.0524
  383TMC3    C6 5727   2.457   4.515  17.406 -0.1593 -0.0419 -0.5839
  383TMC3     C 5728   2.344   0.136  17.632 -0.0996 -0.2813  0.0774
  383TMC3     O 5729   2.429   0.219  17.653  0.1758  0.3198 -0.0723
  383TMC3     H 5730   2.180   4.668  17.513  0.8765  0.5024  1.0430
  383TMC3    H1 5731   2.580   0.035  17.607 -1.3425 -0.2689  1.4856
  383TMC3    H2 5732   2.501   4.433  17.351 -2.0518 -1.0612 -0.5985
  383TMC3    C7 5733   2.683   4.562  17.455 -0.1559  0.0109 -0.6458
  383TMC3    C8 5734   2.215   4.465  17.351  0.2501  0.0342 -0.0187
  383TMC3    O1 5735   2.702   4.471  17.380  0.1432  0.0112 -0.1660
  383TMC3    O2 5736   2.104   4.512  17.337  0.0789  0.2478 -0.0593
  384MPD2     C 5737   4.420   1.292  12.101  0.0160 -0.1643 -0.2548
  384MPD2    C1 5738   4.455   1.267  12.230 -0.0240  0.2286  0.3555
  384MPD2    C2 5739   4.559   1.179  12.260  0.2298  0.1847  0.1023
  384MPD2    C3 5740   4.639   1.122  12.156  0.1892 -0.1307  0.7634
  384MPD2    C4 5741   4.585   1.133  12.024 -0.5073  0.0697 -0.5692
  384MPD2    C5 5742   4.481   1.222  11.998 -0.5382  0.2875 -0.4934
  384MPD2     H 5743   4.581   1.151  12.362 -1.1236 -2.5003 -0.3277
  384MPD2    H1 5744   4.626   1.080  11.938 -1.1416 -0.0406 -0.8072
  384MPD2    H2 5745   4.342   1.359  12.070 -0.3481  0.4106  1.9452
  384MPD2    H3 5746   4.453   1.236  11.894  1.7963 -1.6399 -1.3833
  384MPD2     N 5747   0.022   1.037  12.194 -0.1883  0.3414 -0.6608
  384MPD2    H5 5748   0.058   0.966  12.131 -2.4254 -2.0803  0.8063
  384MPD2    N1 5749   4.379   1.314  12.341 -0.0388  0.2424 -0.3528
  384MPD2    H7 5750   4.417   1.302  12.435 -1.0143  2.0581  0.2653
  385TMC3    C1 5751   0.158   0.922  12.352  0.0050 -0.5098 -0.3343
  385TMC3    C2 5752   0.099   0.808  12.292 -0.2665  0.0880 -0.1032
  385TMC3    C3 5753   0.031   0.718  12.368 -0.0269 -0.0240  0.8471
  385TMC3    C4 5754   0.175   0.927  12.486  0.4429 -0.1827  0.3083
  385TMC3    C5 5755   0.100   0.837  12.559  0.1088  0.4422 -0.4342
  385TMC3    C6 5756   0.024   0.735  12.504  0.8030  0.2274  0.2741
  385TMC3     C 5757   0.092   1.045  12.311 -0.3197 -0.0091 -0.1930
  385TMC3     O 5758   0.090   1.139  12.391  0.3010  0.0902  0.4318
  385TMC3     H 5759   0.103   0.801  12.184  1.5060  3.3755 -0.2401
  385TMC3    H1 5760   0.239   1.001  12.534  0.0306  1.0706 -1.0592
  385TMC3    H2 5761   4.687   0.662  12.558  0.2191 -0.4483 -1.2507
  385TMC3    C7 5762   0.026   0.898  12.663 -0.2144  0.3295 -0.0749
  385TMC3    C8 5763   4.630   0.658  12.304  0.0923  0.3350  0.1389
  385TMC3    O1 5764   4.627   0.871  12.662 -0.2805 -0.2248 -0.1017
  385TMC3    O2 5765   4.534   0.654  12.377  0.1450  0.3014  0.3002
  386TMC3    C1 5766   0.334   2.816  11.588 -0.3720 -0.0757 -0.2991
  386TMC3    C2 5767   0.366   2.888  11.478  0.0821 -0.2088  0.3547
  386TMC3    C3 5768   0.292   2.999  11.444  0.5754  0.5087  0.1164
  386TMC3    C4 5769   0.227   2.856  11.661  0.5188 -0.2821  0.0506
  386TMC3    C5 5770   0.149   2.950  11.614  0.3067  0.0227  0.0227
  386TMC3    C6 5771   0.180   3.030  11.508 -0.0877  0.1493 -0.0102
  386TMC3     C 5772   0.370   2.678  11.586 -0.0146 -0.3608  0.0528
  386TMC3     O 5773   0.385   2.628  11.477  0.3995  0.5961 -0.4082
  386TMC3     H 5774   0.464   2.873  11.435 -0.1952 -0.9908  0.0106
  386TMC3    H1 5775   0.184   2.797  11.741  2.0722 -1.1585  0.2384
  386TMC3    H2 5776   0.129   3.126  11.511  0.1136  0.2210  1.3260
  386TMC3    C7 5777   0.034   2.999  11.685 -0.0866 -0.1691 -0.4868
  386TMC3    C8 5778   0.326   3.079  11.331 -0.5257 -0.2776 -0.4494
  386TMC3    O1 5779   0.039   2.994  11.805 -0.3001 -0.0148 -0.0585
  386TMC3    O2 5780   0.434   3.065  11.278 -0.2349 -0.0259 -0.3174
  387MPD2     C 5781   3.071   3.059   9.723 -0.1676  1.4381 -0.0447
  387MPD2    C1 5782   3.172   3.016   9.804 -0.0004 -0.1165  0.1866
  387MPD2    C2 5783   3.189   2.881   9.831  0.1203 -0.5921 -0.9873
  387MPD2    C3 5784   3.095   2.795   9.790  0.2849  0.9569 -0.2161
  387MPD2    C4 5785   2.997   2.832   9.692 -0.4328  0.3254 -0.3744
  387MPD2    C5 5786   2.990   2.968   9.658  0.4842  0.3701 -0.4968
  387MPD2     H 5787   3.283   2.854   9.878  1.0294  2.0271 -1.3021
  387MPD2    H1 5788   2.937   2.758   9.640 -0.0078 -2.0841  2.5255
  387MPD2    H2 5789   3.050   3.159   9.687  1.9696  1.3200 -1.6125
  387MPD2    H3 5790   2.907   3.005   9.600  0.6604 -0.0844 -1.0377
  387MPD2     N 5791   3.136   2.663   9.806 -0.4266 -0.1063 -0.0457
  387MPD2    H5 5792   3.219   2.654   9.864 -0.7564 -0.8074  0.3137
  387MPD2    N1 5793   3.280   3.098   9.842  0.1002 -0.1109  0.1926
  387MPD2    H7 5794   3.358   3.058   9.893  2.6712  0.6097 -3.1720
  388TMC3    C1 5795   3.422   3.263   9.815 -0.6307 -0.8665 -0.5310
  388TMC3    C2 5796   3.466   3.389   9.851 -0.8550  0.6125  0.5330
  388TMC3    C3 5797   3.597   3.406   9.880  0.1383 -0.1468  0.3777
  388TMC3    C4 5798   3.520   3.164   9.799  0.2366  0.2699 -0.2040
  388TMC3    C5 5799   3.652   3.193   9.805  1.0893  0.4261  0.7694
  388TMC3    C6 5800   3.692   3.309   9.854 -0.2924  0.0311 -0.1271
  388TMC3     C 5801   3.286   3.227   9.808  0.2687 -0.1920 -0.2351
  388TMC3     O 5802   3.203   3.313   9.807  0.5042 -0.1022 -0.4594
  388TMC3     H 5803   3.391   3.464   9.869 -2.5797 -0.8271 -0.5928
  388TMC3    H1 5804   3.480   3.077   9.749 -0.0487  0.4269 -0.2508
  388TMC3    H2 5805   3.798   3.330   9.859  0.2115 -2.7373  0.6548
  388TMC3    C7 5806   3.746   3.071   9.801 -0.5314  0.2489  0.1079
  388TMC3    C8 5807   3.637   3.536   9.937  0.4426  0.1801  0.6686
  388TMC3    O1 5808   3.857   3.084   9.753 -0.3405 -0.1701 -0.9537
  388TMC3    O2 5809   3.743   3.538   9.998 -0.3683  0.0810 -0.6002
  389MPD2     C 5810   2.446   1.839  11.022  0.3264 -0.4427 -0.5353
  389MPD2    C1 5811   2.347   1.764  10.980 -0.5784 -1.3582  0.3184
  389MPD2    C2 5812   2.234   1.746  11.062 -0.3475  0.7304 -0.2979
  389MPD2    C3 5813   2.227   1.787  11.194 -0.1426 -0.7446 -0.6317
  389MPD2    C4 5814   2.336   1.852  11.242 -0.1084  0.8922  0.5800
  389MPD2    C5 5815   2.446   1.880  11.154  0.1940 -0.3118 -0.2391
  389MPD2     H 5816   2.164   1.680  11.012 -0.9668  2.2015 -1.3790
  389MPD2    H1 5817   2.343   1.882  11.346  0.6083  0.8914  0.5285
  389MPD2    H2 5818   2.526   1.874  10.958  0.4926  1.5812  0.7805
  389MPD2    H3 5819   2.528   1.943  11.188  0.2919 -0.4112 -0.2896
  389MPD2     N 5820   2.115   1.764  11.282 -0.1589 -0.1811 -0.3537
  389MPD2    H5 5821   2.131   1.786  11.380  0.6034 -0.5469 -0.3934
  389MPD2    N1 5822   2.359   1.701  10.853  0.1915  0.4030  0.3093
  389MPD2    H7 5823   2.442   1.728  10.802  1.3610 -2.3032  0.8146
  390TMC3    C1 5824   1.918   1.660  11.372 -0.2591  0.8480 -0.2986
  390TMC3    C2 5825   1.825   1.558  11.357  0.0220 -0.1346 -0.1388
  390TMC3    C3 5826   1.732   1.540  11.459  0.4630  0.2135 -0.1567
  390TMC3    C4 5827   1.920   1.737  11.486  0.7777  0.2069 -0.4170
  390TMC3    C5 5828   1.830   1.704  11.585 -0.5780  0.2157 -0.2023
  390TMC3    C6 5829   1.734   1.603  11.578 -0.1723  0.2914 -0.1709
  390TMC3     C 5830   1.998   1.697  11.254  0.2097  0.0143 -0.6775
  390TMC3     O 5831   1.965   1.654  11.144 -0.1608  0.5708 -0.3665
  390TMC3     H 5832   1.814   1.504  11.263  0.9461 -0.2864 -0.1614
  390TMC3    H1 5833   1.984   1.823  11.502 -1.7472  1.9206  0.5275
  390TMC3    H2 5834   1.679   1.569  11.665 -0.9758  0.1490 -0.7443
  390TMC3    C7 5835   1.832   1.786  11.703 -0.2787  0.0870  0.1341
  390TMC3    C8 5836   1.647   1.419  11.443 -0.8857 -0.4963 -0.0334
  390TMC3    O1 5837   1.918   1.869  11.712  0.1543 -0.4504  0.6334
  390TMC3    O2 5838   1.680   1.316  11.381 -0.0612 -0.8601 -0.5479
  391MPD2     C 5839   1.204   3.023  11.737 -0.4049 -0.2329  0.2657
  391MPD2    C1 5840   1.306   3.090  11.688 -0.0753  0.2567 -0.1603
  391MPD2    C2 5841   1.321   3.109  11.552 -0.0813  0.0943 -0.1376
  391MPD2    C3 5842   1.232   3.048  11.465 -0.6222 -0.4624 -0.7765
  391MPD2    C4 5843   1.118   2.987  11.514  0.4213  0.4723  0.2118
  391MPD2    C5 5844   1.106   2.975  11.650  0.2578  0.0469  0.1089
  391MPD2     H 5845   1.406   3.163  11.513 -0.7265 -0.0682 -1.7931
  391MPD2    H1 5846   1.034   2.953  11.453  0.7596  0.2459 -0.1271
  391MPD2    H2 5847   1.179   3.020  11.843  0.3581  2.0797  0.5098
  391MPD2    H3 5848   1.015   2.944  11.700 -1.5045  1.7264 -2.0853
  391MPD2     N 5849   1.263   3.043  11.322 -0.3615 -0.1665 -0.0610
  391MPD2    H5 5850   1.351   3.088  11.298  0.3224 -1.4777  0.0179
  391MPD2    N1 5851   1.390   3.152  11.784  0.2197  0.0360  0.8919
  391MPD2    H7 5852   1.369   3.111  11.875  1.0195  0.9561  1.4887
  392TMC3    C1 5853   1.250   2.995  11.088  0.6633 -0.1682 -0.1913
  392TMC3    C2 5854   1.196   2.916  10.990  0.3464 -0.3288  0.3059
  392TMC3    C3 5855   1.223   2.933  10.851 -0.5016  0.3362  0.8146
  392TMC3    C4 5856   1.334   3.096  11.049 -0.1099  0.2700 -0.5591
  392TMC3    C5 5857   1.362   3.110  10.913 -0.2763  0.7128 -0.2112
  392TMC3    C6 5858   1.305   3.032  10.812  0.0907 -0.0179  0.4431
  392TMC3     C 5859   1.201   2.966  11.228  0.1039 -0.4184  0.9792
  392TMC3     O 5860   1.105   2.894  11.243 -0.4265  0.1551  0.4268
  392TMC3     H 5861   1.120   2.847  11.025 -1.0671  0.2557 -1.5758
  392TMC3    H1 5862   1.359   3.172  11.122 -0.5148  0.5614 -0.7233
  392TMC3    H2 5863   1.353   3.033  10.715  0.4776 -3.2944  0.5973
  392TMC3    C7 5864   1.474   3.204  10.885  0.0671  0.3112 -0.0372
  392TMC3    C8 5865   1.166   2.834  10.752  0.2649 -0.1078 -0.9241
  392TMC3    O1 5866   1.524   3.249  10.990 -0.1219  0.2289 -0.0905
  392TMC3    O2 5867   1.125   2.734  10.810  0.0296 -0.4252  0.0806
  393TMC3    C1 5868   0.841   1.211  10.757 -0.0565  0.0765  0.0312
  393TMC3    C2 5869   0.731   1.233  10.838 -0.4449 -0.2883  0.2327
  393TMC3    C3 5870   0.775   1.289  10.957 -0.1720  0.3197 -0.1254
  393TMC3    C4 5871   0.970   1.235  10.781  0.1295  0.3062 -0.4980
  393TMC3    C5 5872   1.004   1.284  10.905 -0.5603 -0.3459 -0.0351
  393TMC3    C6 5873   0.905   1.311  10.995 -0.1719  0.2991  0.3238
  393TMC3     C 5874   0.805   1.171  10.624  0.6221 -0.6611 -0.4077
  393TMC3     O 5875   0.833   1.247  10.532 -0.2345 -0.1067  0.0047
  393TMC3     H 5876   0.629   1.238  10.803  0.6585  2.2119 -2.7163
  393TMC3    H1 5877   1.047   1.198  10.715  1.3260 -0.7471  1.4625
  393TMC3    H2 5878   0.938   1.353  11.089  0.7320 -1.9153  0.9930
  393TMC3    C7 5879   1.126   1.369  10.912 -0.0869 -0.1445 -0.3177
  393TMC3    C8 5880   0.666   1.310  11.050  0.2706  0.2482 -0.6889
  393TMC3    O1 5881   1.118   1.462  10.995 -0.4431  0.6857 -0.0884
  393TMC3    O2 5882   0.563   1.248  11.026  0.0709 -0.2185  0.2328
  394TMC3    C1 5883   2.316   1.618  10.634 -0.0319 -0.0547  0.2103
  394TMC3    C2 5884   2.248   1.527  10.572  0.0086 -0.6113 -1.0880
  394TMC3    C3 5885   2.276   1.492  10.445  0.0715  0.3453 -1.2445
  394TMC3    C4 5886   2.425   1.679  10.569 -0.0906 -0.3739 -0.4029
  394TMC3    C5 5887   2.455   1.639  10.439  0.7116  0.5706 -0.0558
  394TMC3    C6 5888   2.376   1.555  10.368  0.0761  0.2614  0.4836
  394TMC3     C 5889   2.261   1.663  10.767  0.2995 -0.3617  0.1318
  394TMC3     O 5890   2.141   1.655  10.789 -0.1035 -0.2764 -0.4648
  394TMC3     H 5891   2.167   1.478  10.625 -0.2216  1.3420  0.3421
  394TMC3    H1 5892   2.482   1.751  10.628 -1.4200  0.3340  0.0144
  394TMC3    H2 5893   2.409   1.530  10.268  0.4148  1.1505  0.3720
  394TMC3    C7 5894   2.562   1.707  10.366  0.1880  0.4252 -0.2269
  394TMC3    C8 5895   2.223   1.370  10.394  0.2207 -0.3327 -0.2690
  394TMC3    O1 5896   2.542   1.719  10.246 -0.1725 -0.5417 -0.0863
  394TMC3    O2 5897   2.179   1.288  10.472  0.3899 -0.3317 -0.1814
  395TMC3    C1 5898   1.323   4.136  14.341  0.4720 -0.2182  0.0939
  395TMC3    C2 5899   1.211   4.190  14.391  0.4043  0.0266 -0.0868
  395TMC3    C3 5900   1.223   4.297  14.469  0.7165  0.1847  0.1832
  395TMC3    C4 5901   1.445   4.198  14.347 -0.2667  0.4115 -0.2870
  395TMC3    C5 5902   1.453   4.312  14.421 -0.2640 -0.0954  0.3258
  395TMC3    C6 5903   1.342   4.357  14.486 -0.3924 -1.1945  0.6188
  395TMC3     C 5904   1.317   3.996  14.372  0.5263  0.5289  0.0253
  395TMC3     O 5905   1.224   3.960  14.443  0.4829  0.1580 -0.0341
  395TMC3     H 5906   1.113   4.146  14.386  1.1116 -1.6015  0.1820
  395TMC3    H1 5907   1.535   4.150  14.312  1.4237  2.1615  1.5815
  395TMC3    H2 5908   1.355   4.436  14.559  0.6968 -1.9007  1.1878
  395TMC3    C7 5909   1.582   4.351  14.479  0.4374 -0.3680  1.2652
  395TMC3    C8 5910   1.138   4.297  14.591  0.0984 -0.0891 -0.1722
  395TMC3    O1 5911   1.588   4.408  14.592  0.2356 -0.3268 -0.2971
  395TMC3    O2 5912   1.121   4.400  14.651 -0.3630 -0.2003  0.7554
  396MPD2     C 5913   0.972   0.098   0.039 -0.3088  0.6873 -0.1847
  396MPD2    C1 5914   1.086   0.058  17.667 -0.0944 -0.3109  0.2162
  396MPD2    C2 5915   1.172   0.150  17.606  0.1505  0.0999 -0.6845
  396MPD2    C3 5916   1.139   0.287  17.615 -0.4029  0.1932  0.1511
  396MPD2    C4 5917   1.017   0.326  17.666 -0.0423  0.1023 -0.8469
  396MPD2    C5 5918   0.938   0.230   0.032  0.2451 -0.1282  0.3180
  396MPD2     H 5919   1.261   0.126  17.550  0.4666  1.3617 -0.7207
  396MPD2    H1 5920   0.984   0.427  17.684 -1.9334 -0.5698 -0.5517
  396MPD2    H2 5921   0.909   0.030   0.094  0.3468 -1.4929 -2.1485
  396MPD2    H3 5922   0.855   0.263   0.095 -0.3901  2.4896 -1.9247
  396MPD2     N 5923   1.236   0.373  17.560 -0.2657 -0.2590 -0.2610
  396MPD2    H5 5924   1.313   0.339  17.504  0.3400 -3.6807  2.6603
  396MPD2    N1 5925   1.103   4.635  17.670  0.0787  0.6273  0.2501
  396MPD2    H7 5926   1.043   4.574   0.035  0.4795 -0.8073 -0.9463
  397TMC3    C1 5927   1.183   4.437  17.590 -0.5367 -0.4336  0.0046
  397TMC3    C2 5928   1.230   4.395  17.468 -0.2511  0.3810  0.3251
  397TMC3    C3 5929   1.157   4.317  17.390 -0.8707 -0.7468 -0.2810
  397TMC3    C4 5930   1.057   4.395  17.628  0.2819 -0.2866  0.1857
  397TMC3    C5 5931   0.972   4.326  17.547 -0.3249 -0.0602  0.3283
  397TMC3    C6 5932   1.019   4.288  17.422  0.2874 -0.1801 -0.0301
  397TMC3     C 5933   1.199   4.575  17.591 -0.3515  0.1290 -0.0504
  397TMC3     O 5934   1.282   4.620  17.512 -0.5900 -0.1464  0.3225
  397TMC3     H 5935   1.337   4.405  17.459 -0.0812 -2.5770 -0.9900
  397TMC3    H1 5936   1.031   4.416   0.041 -0.3100 -1.0853  0.2049
  397TMC3    H2 5937   0.962   4.233  17.348 -1.6033  1.3875  0.2738
  397TMC3    C7 5938   0.848   4.251  17.591 -0.4903 -0.1480 -0.1342
  397TMC3    C8 5939   1.178   4.337  17.246  0.2562  0.5886  0.1049
  397TMC3    O1 5940   0.782   4.203  17.500  0.4672  0.5755 -0.3533
  397TMC3    O2 5941   1.111   4.278  17.164 -0.3587  0.1558 -0.1723
  398MPD2     C 5942   3.814   1.461   0.560 -0.2169 -0.2053 -0.2668
  398MPD2    C1 5943   3.919   1.379   0.588 -0.4772  0.0827  0.2235
  398MPD2    C2 5944   4.041   1.426   0.616 -0.5735 -0.0546  0.0147
  398MPD2    C3 5945   4.054   1.561   0.646  0.0955  0.0070  0.5565
  398MPD2    C4 5946   3.945   1.649   0.629 -1.0244 -0.0797 -0.5606
  398MPD2    C5 5947   3.826   1.594   0.596  0.5570 -0.3518 -0.1017
  398MPD2     H 5948   4.119   1.351   0.628  0.4645  0.9284 -0.5170
  398MPD2    H1 5949   3.942   1.754   0.653 -0.7704 -0.2302  0.1367
  398MPD2    H2 5950   3.716   1.424   0.531 -1.0668  2.1751 -0.4160
  398MPD2    H3 5951   3.736   1.648   0.569 -0.1613 -1.9173 -0.8354
  398MPD2     N 5952   4.189   1.600   0.676  0.0240 -0.2064  0.2267
  398MPD2    H5 5953   4.260   1.528   0.669  2.1667  1.9912 -0.6320
  398MPD2    N1 5954   3.909   1.241   0.591 -0.3250 -0.3137  0.1831
  398MPD2    H7 5955   3.991   1.187   0.618 -0.9427 -2.4383 -2.1719
  399TMC3    C1 5956   3.801   1.031   0.597 -0.2376  1.0778  0.4709
  399TMC3    C2 5957   3.900   0.989   0.681  0.4701  0.5987 -0.0922
  399TMC3    C3 5958   3.909   0.856   0.702 -0.0725 -0.4756  0.0601
  399TMC3    C4 5959   3.696   0.953   0.553  0.3558 -0.4310 -0.0540
  399TMC3    C5 5960   3.700   0.823   0.580 -0.1338 -0.2756 -0.2675
  399TMC3    C6 5961   3.807   0.776   0.648  0.5042 -0.2038  0.3139
  399TMC3     C 5962   3.795   1.169   0.563 -0.1019  0.0923  0.0829
  399TMC3     O 5963   3.695   1.205   0.503  0.3481  0.0331 -0.0543
  399TMC3     H 5964   3.972   1.052   0.732  1.5679 -0.0728 -0.7953
  399TMC3    H1 5965   3.615   0.993   0.494  0.5717 -2.2371 -1.5437
  399TMC3    H2 5966   3.808   0.673   0.684  1.3564 -0.5156 -0.6180
  399TMC3    C7 5967   3.594   0.729   0.557 -0.1519  0.5255  0.2735
  399TMC3    C8 5968   3.959   0.824   0.838  0.0237  0.3156  0.3609
  399TMC3    O1 5969   3.628   0.608   0.558 -0.2011 -0.6380  0.5564
  399TMC3    O2 5970   3.952   0.923   0.909  0.0939 -0.1928  0.3314
  400TMC3    C1 5971   2.633   4.228  17.099  0.4791  0.4675  0.4922
  400TMC3    C2 5972   2.533   4.189  17.015 -0.4325  0.3740 -0.0308
  400TMC3    C3 5973   2.450   4.285  16.968  0.8974  0.8404 -0.4307
  400TMC3    C4 5974   2.680   4.355  17.102  0.1998 -0.2698 -0.3488
  400TMC3    C5 5975   2.610   4.448  17.031  0.4049  1.0895 -0.9280
  400TMC3    C6 5976   2.488   4.416  16.970  0.2827 -0.4830 -0.0054
  400TMC3     C 5977   2.649   4.137  17.213  0.3261  0.1593 -0.7133
  400TMC3     O 5978   2.582   4.034  17.219  0.3539 -0.0467 -0.2490
  400TMC3     H 5979   2.498   4.087  17.025  0.3532  0.1632  0.6076
  400TMC3    H1 5980   2.764   4.385  17.164  0.2386  1.1686 -1.1112
  400TMC3    H2 5981   2.426   4.491  16.923 -0.3130 -0.4429  0.8395
  400TMC3    C7 5982   2.641   4.585  17.050  0.3132  1.0967  0.1130
  400TMC3    C8 5983   2.315   4.252  16.918 -0.9178  0.1069 -0.3667
  400TMC3    O1 5984   2.760   4.608  17.043  0.1245 -0.1117 -0.2664
  400TMC3    O2 5985   2.231   4.341  16.908 -0.0132 -0.4109  0.1743
  401MPD2     C 5986   0.537   3.382   1.080 -0.8375 -0.6379  0.6953
  401MPD2    C1 5987   0.620   3.276   1.106  0.6666 -0.5329 -1.1549
  401MPD2    C2 5988   0.724   3.255   1.017  0.6146 -0.2288  0.3179
  401MPD2    C3 5989   0.735   3.315   0.896 -0.2422  0.4363 -0.1365
  401MPD2    C4 5990   0.633   3.402   0.856  0.0829 -0.0669  0.4864
  401MPD2    C5 5991   0.545   3.444   0.958  0.2227  0.3507  0.5710
  401MPD2     H 5992   0.803   3.185   1.041  1.7708  0.6257 -0.9638
  401MPD2    H1 5993   0.642   3.456   0.762  0.1646 -2.5578 -0.9200
  401MPD2    H2 5994   0.464   3.408   1.156  0.2337  3.3010  0.3449
  401MPD2    H3 5995   0.473   3.523   0.937  0.3674  0.6164  1.0822
  401MPD2     N 5996   0.844   3.279   0.815  0.3752 -0.5785 -0.0182
  401MPD2    H5 5997   0.901   3.214   0.868  0.8502 -0.6923 -0.6668
  401MPD2    N1 5998   0.615   3.218   1.230  0.2426 -0.2106  0.3267
  401MPD2    H7 5999   0.557   3.266   1.299 -2.1439  2.3147 -3.4242
  402TMC3    C1 6000   0.998   3.299   0.634  0.0100 -0.0001  0.7895
  402TMC3    C2 6001   1.017   3.160   0.650 -0.0035  0.0261 -0.1020
  402TMC3    C3 6002   1.147   3.117   0.677  0.5027  1.3755  0.0936
  402TMC3    C4 6003   1.107   3.386   0.650  0.2808  0.2404  0.8854
  402TMC3    C5 6004   1.233   3.335   0.665  0.0174  1.1658 -0.1276
  402TMC3    C6 6005   1.254   3.200   0.663 -0.7206  0.3841  0.3522
  402TMC3     C 6006   0.890   3.355   0.702  0.2060  0.0704  0.1199
  402TMC3     O 6007   0.844   3.458   0.657  0.4548 -0.0368 -0.3678
  402TMC3     H 6008   0.939   3.086   0.636  0.1720  0.0618 -1.2092
  402TMC3    H1 6009   1.092   3.492   0.665  1.2589  0.3376  1.1965
  402TMC3    H2 6010   1.354   3.161   0.679 -0.7128 -0.6739 -2.2994
  402TMC3    C7 6011   1.345   3.421   0.673  0.4866  0.2579 -0.1306
  402TMC3    C8 6012   1.177   2.985   0.722  0.7877  0.0385 -0.3180
  402TMC3    O1 6013   1.450   3.384   0.619  0.0587  0.1967  0.1769
  402TMC3    O2 6014   1.278   2.971   0.790  0.0633 -0.0169  0.0689
  403MPD2     C 6015   3.607   1.571  13.678  0.5248 -0.1244 -0.1197
  403MPD2    C1 6016   3.680   1.469  13.720 -0.0571 -0.1187  0.3510
  403MPD2    C2 6017   3.780   1.484  13.817 -0.8491 -0.1334 -0.3360
  403MPD2    C3 6018   3.820   1.607  13.865  0.0883  0.1079 -0.1731
  403MPD2    C4 6019   3.744   1.712  13.821 -0.1740 -0.7178 -0.4102
  403MPD2    C5 6020   3.638   1.692  13.735  0.7348  0.0979  1.0863
  403MPD2     H 6021   3.843   1.400  13.847  1.8969  1.2639 -2.1394
  403MPD2    H1 6022   3.754   1.818  13.842 -1.5964 -0.6582 -0.0200
  403MPD2    H2 6023   3.536   1.560  13.597  2.6040  1.6202 -2.1938
  403MPD2    H3 6024   3.580   1.773  13.693  0.8227 -0.7996 -0.8000
  403MPD2     N 6025   3.933   1.616  13.952 -0.7519  0.0899  0.4790
  403MPD2    H5 6026   3.968   1.527  13.985  2.8681  1.3936  0.1525
  403MPD2    N1 6027   3.647   1.341  13.669 -0.6435  0.0705  0.0290
  403MPD2    H7 6028   3.586   1.337  13.588  1.3134 -0.8673 -1.3858
  404TMC3    C1 6029   3.622   1.103  13.672  0.4988 -0.5896 -0.7640
  404TMC3    C2 6030   3.607   0.994  13.753  0.3313  0.3798 -0.8177
  404TMC3    C3 6031   3.599   0.873  13.693  0.5319  0.3779  0.4257
  404TMC3    C4 6032   3.619   1.102  13.542 -0.3837 -0.2607 -0.6488
  404TMC3    C5 6033   3.612   0.980  13.484  0.7719 -0.1631  0.6143
  404TMC3    C6 6034   3.605   0.866  13.556  0.5359  0.3884  0.6000
  404TMC3     C 6035   3.660   1.222  13.738  0.1072  0.5398  0.7468
  404TMC3     O 6036   3.702   1.211  13.858  0.3453  0.1097 -0.0938
  404TMC3     H 6037   3.600   1.003  13.860  1.1364 -1.6668 -0.5939
  404TMC3    H1 6038   3.640   1.193  13.487 -0.5365 -0.2176 -0.6349
  404TMC3    H2 6039   3.595   0.766  13.516  1.2814  0.3532  0.4988
  404TMC3    C7 6040   3.625   0.971  13.341 -0.0731 -0.1221  0.6279
  404TMC3    C8 6041   3.641   0.751  13.771  0.6560  0.3146  0.4993
  404TMC3    O1 6042   3.587   0.867  13.285 -0.1403 -0.0781  0.3732
  404TMC3    O2 6043   3.699   0.659  13.711 -0.5298 -0.8911  0.2138
  405MPD2     C 6044   4.330   1.788  14.952 -0.4960 -0.1506 -0.0276
  405MPD2    C1 6045   4.268   1.714  14.853 -0.6043  0.4505 -0.0453
  405MPD2    C2 6046   4.141   1.745  14.806 -0.2416 -0.3506  0.0694
  405MPD2    C3 6047   4.083   1.863  14.848 -0.1301  0.0898 -0.4446
  405MPD2    C4 6048   4.148   1.940  14.944  0.4326 -0.2024  0.7342
  405MPD2    C5 6049   4.272   1.902  15.000 -0.1124  0.5684  0.6378
  405MPD2     H 6050   4.092   1.679  14.736 -0.6268 -1.5125  1.4522
  405MPD2    H1 6051   4.098   2.029  14.978 -0.2234 -0.2459 -0.1043
  405MPD2    H2 6052   4.424   1.753  14.994 -0.1416 -1.8422 -2.1966
  405MPD2    H3 6053   4.325   1.959  15.075  3.2973 -1.8105  0.0524
  405MPD2     N 6054   3.958   1.903  14.793  0.0870  0.6160  0.1888
  405MPD2    H5 6055   3.930   1.861  14.705  0.1444  0.7658  0.0981
  405MPD2    N1 6056   4.327   1.599  14.816 -0.1286  0.0445 -0.0789
  405MPD2    H7 6057   4.405   1.559  14.868  1.5532 -0.5714 -3.0622
  406TMC3    C1 6058   3.692   2.155  14.523  0.2119 -0.3089 -0.7636
  406TMC3    C2 6059   3.666   2.039  14.453  0.3891 -0.4305  0.7220
  406TMC3    C3 6060   3.710   1.921  14.502 -0.2282  0.6058 -0.4065
  406TMC3    C4 6061   3.754   2.148  14.642 -0.4682  0.0402  0.0458
  406TMC3    C5 6062   3.795   2.027  14.693  0.1743  0.0788 -0.2700
  406TMC3    C6 6063   3.766   1.912  14.627 -0.2981 -0.2014 -0.8038
  406TMC3     C 6064   3.591   2.255  14.515 -0.2056 -0.0548  0.6876
  406TMC3     O 6065   3.557   2.289  14.402 -0.9628 -0.3050  0.3325
  406TMC3     H 6066   3.603   2.046  14.365  0.7155  1.0838  0.6056
  406TMC3    H1 6067   3.784   2.237  14.697  0.1644  0.4204 -0.9181
  406TMC3    H2 6068   3.765   1.817  14.678 -0.7172  1.0239  1.4575
  406TMC3    C7 6069   3.884   2.019  14.809 -0.1119 -0.3262  0.3634
  406TMC3    C8 6070   3.694   1.800  14.419  0.2927 -0.1757 -0.3150
  406TMC3    O1 6071   3.926   2.117  14.868  0.5611 -0.4375  0.2829
  406TMC3    O2 6072   3.618   1.795  14.325 -0.0866  0.5535 -0.5632
  407MPD2     C 6073   2.513   2.714   9.608  0.6806 -0.0558  0.0053
  407MPD2    C1 6074   2.637   2.682   9.664 -0.1714  0.0748 -0.3650
  407MPD2    C2 6075   2.689   2.762   9.767  0.8420  0.2811  0.4538
  407MPD2    C3 6076   2.618   2.882   9.806  0.2841 -0.0444  0.2470
  407MPD2    C4 6077   2.502   2.914   9.738  0.0762 -0.2407 -0.5435
  407MPD2    C5 6078   2.446   2.826   9.646 -0.1640 -0.1701 -0.1561
  407MPD2     H 6079   2.786   2.751   9.815  0.8912 -0.4796  0.1724
  407MPD2    H1 6080   2.451   3.005   9.766  0.1626 -0.7046  1.1312
  407MPD2    H2 6081   2.474   2.647   9.532  0.2957  0.3594 -0.1617
  407MPD2    H3 6082   2.353   2.855   9.596 -1.2345 -1.2480  1.2275
  407MPD2     N 6083   2.670   2.982   9.886  0.7172 -0.1560 -0.1769
  407MPD2    H5 6084   2.642   3.078   9.870  2.5541  0.2691 -0.8111
  407MPD2    N1 6085   2.715   2.578   9.611 -0.0167 -0.0780 -0.1063
  407MPD2    H7 6086   2.802   2.565   9.660  1.2423  0.8158 -2.1227
  408TMC3    C1 6087   2.808   2.413   9.468 -0.6240 -0.7842 -0.2243
  408TMC3    C2 6088   2.937   2.471   9.461  0.1920  0.3070 -0.3558
  408TMC3    C3 6089   3.035   2.401   9.403 -0.4106 -0.4645 -0.2067
  408TMC3    C4 6090   2.791   2.287   9.427 -0.4375  0.2499 -0.3790
  408TMC3    C5 6091   2.896   2.214   9.386 -0.8782 -0.5693  0.2785
  408TMC3    C6 6092   3.017   2.273   9.365  0.4659 -0.3291 -0.0568
  408TMC3     C 6093   2.695   2.506   9.497 -0.0260 -0.1699 -0.5620
  408TMC3     O 6094   2.605   2.503   9.417  0.4187 -0.0845 -0.4393
  408TMC3     H 6095   2.953   2.574   9.491 -2.0830  1.0387 -1.6207
  408TMC3    H1 6096   2.699   2.239   9.459  1.0371 -2.1340  0.2654
  408TMC3    H2 6097   3.097   2.220   9.313  0.1846 -1.4895  0.6970
  408TMC3    C7 6098   2.887   2.067   9.393 -0.1429  0.1836  0.2783
  408TMC3    C8 6099   3.172   2.435   9.429 -0.4491  0.6743 -0.2972
  408TMC3    O1 6100   2.781   2.008   9.381 -0.0942  0.1324 -0.1054
  408TMC3    O2 6101   3.245   2.339   9.445  0.3959  0.3707 -0.0991
  409MPD2     C 6102   0.899   3.829  17.060  0.5667 -0.0699  0.1330
  409MPD2    C1 6103   1.013   3.785  17.134 -0.1876  0.0184  0.2492
  409MPD2    C2 6104   1.131   3.845  17.102 -0.0931  0.4750  0.1116
  409MPD2    C3 6105   1.149   3.954  17.015 -0.5689  0.0322 -0.1470
  409MPD2    C4 6106   1.029   4.002  16.950  0.2101  0.1567 -0.4467
  409MPD2    C5 6107   0.909   3.930  16.966 -0.1153 -0.0380 -0.1389
  409MPD2     H 6108   1.221   3.802  17.146  1.3427  4.4216  1.0338
  409MPD2    H1 6109   1.035   4.092  16.889  0.9846  0.6156  0.3038
  409MPD2    H2 6110   0.806   3.775  17.057  0.5486 -0.0610  0.6599
  409MPD2    H3 6111   0.817   3.951  16.913 -0.2604  1.1403  0.5896
  409MPD2     N 6112   1.265   4.027  16.981 -0.2931  0.5566  0.0246
  409MPD2    H5 6113   1.250   4.099  16.912 -0.8613  1.3387  0.9678
  409MPD2    N1 6114   1.014   3.682  17.229  0.0741 -0.6621 -0.7898
  409MPD2    H7 6115   1.103   3.651  17.265 -0.4019 -0.1419  0.8556
  410TMC3    C1 6116   1.503   4.076  16.980 -0.7601  0.9527  0.6288
  410TMC3    C2 6117   1.608   4.116  17.061  0.3333 -0.5960  0.1399
  410TMC3    C3 6118   1.692   4.214  17.012  0.0425  0.6782 -0.1740
  410TMC3    C4 6119   1.480   4.135  16.857  0.3039 -0.7234 -0.3748
  410TMC3    C5 6120   1.569   4.230  16.814 -0.8457 -0.3357  0.3214
  410TMC3    C6 6121   1.677   4.267  16.887  0.4168 -0.7178  0.1600
  410TMC3     C 6122   1.387   4.008  17.046 -0.0210  0.1864  1.1737
  410TMC3     O 6123   1.412   3.936  17.143  0.4435 -1.1453 -0.6241
  410TMC3     H 6124   1.631   4.069  17.156  1.9252 -1.5113 -0.6918
  410TMC3    H1 6125   1.400   4.110  16.789 -0.3310 -0.8479  0.4139
  410TMC3    H2 6126   1.755   4.332  16.849 -1.6411  0.4860 -2.0271
  410TMC3    C7 6127   1.577   4.247  16.673 -0.0727  0.1107 -0.4025
  410TMC3    C8 6128   1.811   4.245  17.088  0.2884  0.7159 -0.2489
  410TMC3    O1 6129   1.546   4.147  16.613  0.0679 -0.1784 -0.3249
  410TMC3    O2 6130   1.845   4.362  17.094  0.1750  1.0740  0.1274
  411MPD2     C 6131   2.133   0.202  14.678  0.8977 -0.0267 -0.0058
  411MPD2    C1 6132   2.000   0.221  14.650 -0.6977 -0.0660  0.3770
  411MPD2    C2 6133   1.943   0.154  14.541  0.0366  0.1487 -0.4135
  411MPD2    C3 6134   2.025   0.058  14.470  0.4005 -0.0797 -0.1520
  411MPD2    C4 6135   2.150   0.036  14.510 -0.1725 -0.1755 -0.5552
  411MPD2    C5 6136   2.209   0.110  14.606  0.0890  0.3458 -0.4656
  411MPD2     H 6137   1.836   0.168  14.533 -0.1332 -1.0184 -0.1954
  411MPD2    H1 6138   2.210   4.698  14.442 -0.7001 -0.3227 -0.8888
  411MPD2    H2 6139   2.192   0.250  14.755 -0.5300 -0.5423  1.4162
  411MPD2    H3 6140   2.317   0.108  14.614  0.0377 -1.1676 -0.1696
  411MPD2     N 6141   1.971   4.692  14.367 -0.3022  0.0790 -0.4924
  411MPD2    H5 6142   2.034   4.629  14.318  1.3897  2.1270 -0.9782
  411MPD2    N1 6143   1.921   0.311  14.725 -0.3527 -0.3041  1.2888
  411MPD2    H7 6144   1.824   0.333  14.703 -0.6619 -2.7436  0.2529
  412TMC3    C1 6145   1.809   4.617  14.208  0.7353 -0.1052 -1.1439
  412TMC3    C2 6146   1.697   4.663  14.145  0.1798 -0.2200 -0.0105
  412TMC3    C3 6147   1.687   4.630  14.012  0.5097 -0.0090  0.0414
  412TMC3    C4 6148   1.912   4.556  14.145 -0.3425  0.0672  0.5241
  412TMC3    C5 6149   1.892   4.515  14.017 -0.8951  0.1377  0.1349
  412TMC3    C6 6150   1.781   4.559  13.947 -0.8278 -0.6546 -0.7370
  412TMC3     C 6151   1.838   4.677  14.335 -0.1531 -0.7563 -0.1540
  412TMC3     O 6152   1.746   4.714  14.404  1.5529 -0.3239 -0.4050
  412TMC3     H 6153   1.631   0.010  14.197 -0.4897  0.2722 -1.4992
  412TMC3    H1 6154   1.993   4.517  14.206  0.5570  1.6831  0.3602
  412TMC3    H2 6155   1.763   4.547  13.841 -0.9351  1.8465 -1.0016
  412TMC3    C7 6156   2.007   4.472  13.940  0.1116 -0.1334  0.2755
  412TMC3    C8 6157   1.594   4.716  13.937 -0.8633  0.4512  0.8856
  412TMC3    O1 6158   2.078   4.385  13.993 -0.1121  0.4533 -0.0018
  412TMC3    O2 6159   1.477   4.722  13.972  0.8404  0.0324 -0.1071
  413MPD2     C 6160   3.560   2.925  15.671  0.9097  0.6622  0.7313
  413MPD2    C1 6161   3.501   2.912  15.552  0.0564 -0.4258  0.3048
  413MPD2    C2 6162   3.537   2.820  15.454 -0.6917  0.3309  0.2296
  413MPD2    C3 6163   3.644   2.734  15.492  0.1848  0.3262  0.4263
  413MPD2    C4 6164   3.714   2.763  15.603 -0.4125 -0.2093  0.3316
  413MPD2    C5 6165   3.676   2.859  15.692  0.4605 -0.1471  0.2090
  413MPD2     H 6166   3.478   2.795  15.367  0.4877 -0.0103 -0.4657
  413MPD2    H1 6167   3.807   2.710  15.620  1.9795  4.0093  0.5802
  413MPD2    H2 6168   3.528   2.995  15.748 -1.0768 -1.4241  1.7851
  413MPD2    H3 6169   3.724   2.857  15.789  0.7581 -3.2169 -0.0048
  413MPD2     N 6170   3.685   2.624  15.405 -0.4459  0.5189  0.2546
  413MPD2    H5 6171   3.634   2.618  15.318  0.1215 -1.4422  0.0551
  413MPD2    N1 6172   3.391   2.998  15.525  0.2702  0.7468 -0.2689
  413MPD2    H7 6173   3.368   3.059  15.602  2.7142  2.1316 -0.6274
  414TMC3    C1 6174   3.796   2.421  15.326  0.5793 -0.0659  0.1163
  414TMC3    C2 6175   3.857   2.305  15.371  0.0041  0.8335 -0.0202
  414TMC3    C3 6176   3.845   2.197  15.291 -0.3553 -0.3605 -0.2186
  414TMC3    C4 6177   3.755   2.444  15.199  0.3171 -0.3412 -0.3243
  414TMC3    C5 6178   3.768   2.336  15.115  0.2215 -0.5696 -0.4890
  414TMC3    C6 6179   3.793   2.214  15.168 -0.4694 -0.2741  0.1850
  414TMC3     C 6180   3.769   2.516  15.437 -0.6107  0.0742  0.6984
  414TMC3     O 6181   3.813   2.485  15.550  0.4533 -0.6720  0.0747
  414TMC3     H 6182   3.877   2.287  15.476  0.0478 -0.9556 -0.3338
  414TMC3    H1 6183   3.721   2.542  15.166 -0.3766 -0.7411 -0.7940
  414TMC3    H2 6184   3.794   2.130  15.099  0.7632 -1.0461  1.1529
  414TMC3    C7 6185   3.663   2.333  15.017  0.0111  0.6911 -0.0729
  414TMC3    C8 6186   3.938   2.093  15.308  0.1974  0.9913 -0.0293
  414TMC3    O1 6187   3.554   2.293  15.052 -0.1426  0.3669 -0.3560
  414TMC3    O2 6188   3.895   1.983  15.289 -0.2310  0.2233  0.2878
  415TMC3    C1 6189   4.489   0.000  10.012  0.1983 -0.0937  0.2263
  415TMC3    C2 6190   4.517   4.703   9.883 -0.1079 -0.4153  0.1166
  415TMC3    C3 6191   4.425   0.009   9.789  0.0927 -0.4905 -0.0274
  415TMC3    C4 6192   4.373   0.052  10.051  0.0464  0.3860  0.2392
  415TMC3    C5 6193   4.277   0.083   9.962 -0.2670 -0.4030 -0.1516
  415TMC3    C6 6194   4.295   0.057   9.818 -0.2957 -0.6038 -0.1477
  415TMC3     C 6195   4.588   4.705  10.117 -0.1985  0.6098  0.1927
  415TMC3     O 6196   4.561   4.713  10.238  0.0398  1.4102 -0.0575
  415TMC3     H 6197   4.613   4.661   9.852  0.2336  1.3078 -1.1281
  415TMC3    H1 6198   4.356   0.074  10.156 -1.7164  2.3207 -0.4541
  415TMC3    H2 6199   4.219   0.080   9.745 -1.5612 -2.2305  0.6549
  415TMC3    C7 6200   4.152   0.145   9.999  0.5583  1.0997  0.6324
  415TMC3    C8 6201   4.462   0.056   9.657  0.4019 -0.1330  0.5361
  415TMC3    O1 6202   4.062   0.124   9.914  0.0629 -0.0981 -0.3751
  415TMC3    O2 6203   4.374   0.046   9.571  0.1745  0.4221 -0.2107
  416MPD2     C 6204   1.428   4.430  11.763 -0.5452 -0.0668 -0.3486
  416MPD2    C1 6205   1.317   4.424  11.682  0.0214 -0.3851 -0.4433
  416MPD2    C2 6206   1.279   4.299  11.637 -0.2054  0.2435  0.3394
  416MPD2    C3 6207   1.357   4.188  11.662 -0.0624 -0.4921 -0.0131
  416MPD2    C4 6208   1.476   4.202  11.735 -0.3079  0.0593  0.1154
  416MPD2    C5 6209   1.512   4.321  11.782 -0.4839  0.2849  0.5287
  416MPD2     H 6210   1.190   4.292  11.576 -0.2281  0.4434  0.3520
  416MPD2    H1 6211   1.526   4.107  11.751 -0.5937 -0.0165  0.5507
  416MPD2    H2 6212   1.452   4.527  11.804  1.9200 -0.7532 -0.1188
  416MPD2    H3 6213   1.603   4.324  11.841  1.1358 -1.0884 -1.8945
  416MPD2     N 6214   1.330   4.055  11.620  0.0732 -0.8062  0.2570
  416MPD2    H5 6215   1.392   3.984  11.658 -1.4415 -0.4323  3.4408
  416MPD2    N1 6216   1.231   4.534  11.663  0.7463  0.2180  0.5135
  416MPD2    H7 6217   1.252   4.618  11.716  1.5317  1.9324 -2.4544
  417TMC3    C1 6218   1.040   4.660  11.622  0.2245 -0.5281 -0.3731
  417TMC3    C2 6219   0.989   4.667  11.747 -0.1844  0.7963  0.1602
  417TMC3    C3 6220   0.903   0.056  11.771 -0.3153  0.2831 -0.0864
  417TMC3    C4 6221   0.990   0.004  11.512  0.9638 -0.1722 -0.3419
  417TMC3    C5 6222   0.896   0.094  11.547  0.2183  0.5271 -0.3094
  417TMC3    C6 6223   0.863   0.138  11.675 -0.3336  0.4046 -0.0827
  417TMC3     C 6224   1.121   4.544  11.590 -0.0037 -0.3880 -0.5955
  417TMC3     O 6225   1.078   4.478  11.499 -0.8007 -0.4985  0.1575
  417TMC3     H 6226   1.020   4.610  11.834  0.0580  0.3690 -0.2070
  417TMC3    H1 6227   1.028   4.718  11.410  0.1803  0.1248 -0.6536
  417TMC3    H2 6228   0.802   0.226  11.694 -0.2373  0.3485  0.4983
  417TMC3    C7 6229   0.811   0.140  11.439 -0.0992 -0.4611 -0.6716
  417TMC3    C8 6230   0.842   0.074  11.902 -0.0932 -0.1845 -0.0549
  417TMC3    O1 6231   0.762   0.249  11.440  0.1052 -0.1340 -0.0133
  417TMC3    O2 6232   0.776   0.174  11.927 -0.0448  0.1819  0.2085
  418TMC3    C1 6233   4.580   1.701   0.685 -0.7267 -0.2506  0.2038
  418TMC3    C2 6234   4.449   1.673   0.661 -0.4542 -0.3814 -0.1579
  418TMC3    C3 6235   4.361   1.739   0.745 -0.1122 -0.7466 -0.3608
  418TMC3    C4 6236   4.629   1.758   0.799  0.2339  0.1027  0.1945
  418TMC3    C5 6237   4.534   1.795   0.884 -0.5596 -0.7803 -0.2216
  418TMC3    C6 6238   4.403   1.807   0.853 -0.5982 -0.5016 -0.0884
  418TMC3     C 6239   4.683   1.640   0.597  0.4551  0.2914 -0.3720
  418TMC3     O 6240   0.067   1.706   0.579  0.7292 -0.5730  0.5128
  418TMC3     H 6241   4.422   1.633   0.564  0.2343  0.7121 -0.7991
  418TMC3    H1 6242   0.015   1.754   0.813  0.3806  2.2667 -0.2277
  418TMC3    H2 6243   4.323   1.829   0.923 -0.0823  0.3029  0.2455
  418TMC3    C7 6244   4.560   1.764   1.022 -0.1385  0.6210 -0.4539
  418TMC3    C8 6245   4.219   1.722   0.718  0.2778  0.0731 -0.1691
  418TMC3    O1 6246   4.482   1.685   1.069 -0.0672  0.8482  0.5024
  418TMC3    O2 6247   4.157   1.820   0.745 -0.1987  0.0484  1.0005
  419MPD2     C 6248   3.650   4.269  12.760  1.3196 -0.1123  0.4653
  419MPD2    C1 6249   3.539   4.337  12.712 -0.0370  0.1545 -0.5734
  419MPD2    C2 6250   3.433   4.354  12.795  0.7408  0.1679 -0.1379
  419MPD2    C3 6251   3.423   4.305  12.926 -0.6301  0.0160 -0.0011
  419MPD2    C4 6252   3.534   4.236  12.965 -0.4377  0.1735 -0.2862
  419MPD2    C5 6253   3.647   4.217  12.882  0.7374 -0.9561 -0.2050
  419MPD2     H 6254   3.350   4.411  12.755  1.5422  1.5948  0.2206
  419MPD2    H1 6255   3.532   4.174  13.054 -1.1828  0.8430  0.1570
  419MPD2    H2 6256   3.735   4.251  12.696 -0.5414 -0.6661 -1.8759
  419MPD2    H3 6257   3.731   4.164  12.925  1.1049 -1.2629 -1.3028
  419MPD2     N 6258   3.306   4.324  13.002  0.2066  0.1085  0.6072
  419MPD2    H5 6259   3.229   4.358  12.945 -0.6537 -3.7207 -0.4893
  419MPD2    N1 6260   3.536   4.408  12.580  0.2884  0.0514 -0.1950
  419MPD2    H7 6261   3.450   4.452  12.550 -0.8562 -0.3328  2.5183
  420TMC3    C1 6262   3.179   4.370  13.193  0.8147 -0.0469 -0.4457
  420TMC3    C2 6263   3.080   4.436  13.122 -0.6410  0.7935  0.5136
  420TMC3    C3 6264   2.995   4.517  13.196  0.7036  0.1296 -0.3809
  420TMC3    C4 6265   3.183   4.385  13.334 -0.6929 -0.7464 -0.4020
  420TMC3    C5 6266   3.095   4.465  13.395 -0.1395  0.4657 -0.2361
  420TMC3    C6 6267   2.993   4.528  13.330  0.1552  0.4781  0.6891
  420TMC3     C 6268   3.294   4.302  13.137 -0.1298 -0.3639 -0.3124
  420TMC3     O 6269   3.381   4.253  13.204 -0.4767  0.3423  0.3125
  420TMC3     H 6270   3.088   4.438  13.014  0.6110  1.4363  0.6162
  420TMC3    H1 6271   3.266   4.339  13.387 -0.0850  1.9857  0.9850
  420TMC3    H2 6272   2.917   4.589  13.378  1.0576  1.8294  0.4070
  420TMC3    C7 6273   3.101   4.473  13.542  1.0179  0.0867  0.3659
  420TMC3    C8 6274   2.900   4.606  13.122 -0.1786 -0.7414 -0.1267
  420TMC3    O1 6275   3.180   4.388  13.586  0.3466  0.3124 -0.2008
  420TMC3    O2 6276   2.869   4.708  13.179 -0.0271  0.2259  0.2952
  421TMC3    C1 6277   4.076   1.722  14.111 -0.1803 -0.4912  0.2659
  421TMC3    C2 6278   4.092   1.819  14.206 -0.4103 -0.3636 -0.2893
  421TMC3    C3 6279   4.171   1.790  14.316 -0.0412 -0.2672  0.2633
  421TMC3    C4 6280   4.152   1.608  14.112  0.1715 -0.1674 -0.7690
  421TMC3    C5 6281   4.242   1.592  14.218  0.1063  0.0798  1.2559
  421TMC3    C6 6282   4.254   1.683  14.320  0.3897 -0.6702  0.8437
  421TMC3     C 6283   3.969   1.735  14.015 -0.1153 -0.3390  0.0736
  421TMC3     O 6284   3.931   1.852  14.003  0.2162 -0.1711 -0.6621
  421TMC3     H 6285   4.032   1.908  14.200 -1.2875 -0.9615 -0.3791
  421TMC3    H1 6286   4.149   1.547  14.023 -0.1676 -1.2034 -0.0432
  421TMC3    H2 6287   4.328   1.671  14.398  0.3811 -1.4793  0.7266
  421TMC3    C7 6288   4.338   1.486  14.205  0.2963 -0.0588  0.1124
  421TMC3    C8 6289   4.158   1.876  14.421 -0.3667  0.1298 -0.3038
  421TMC3    O1 6290   4.447   1.514  14.258 -0.3791  0.0544 -0.5202
  421TMC3    O2 6291   4.044   1.886  14.466  0.3694 -0.3432  0.2859
  422TMC3    C1 6292   2.241   2.322  13.038 -0.1959  0.0928 -0.5142
  422TMC3    C2 6293   2.228   2.443  13.088  0.5956  0.3227  0.4367
  422TMC3    C3 6294   2.116   2.487  13.144  0.5368 -0.6144  0.1454
  422TMC3    C4 6295   2.137   2.236  13.054  0.0712 -0.4049  0.2911
  422TMC3    C5 6296   2.014   2.280  13.106  1.0268 -0.5134 -0.2226
  422TMC3    C6 6297   2.003   2.408  13.148 -0.1151  0.7991 -0.4012
  422TMC3     C 6298   2.340   2.294  12.934  0.0119 -0.1781  0.0803
  422TMC3     O 6299   2.413   2.389  12.903  0.2416 -0.0540 -0.3142
  422TMC3     H 6300   2.308   2.517  13.080  2.6191 -1.9488 -0.2496
  422TMC3    H1 6301   2.148   2.134  13.017 -0.5544 -0.2121 -0.4353
  422TMC3    H2 6302   1.912   2.435  13.201  0.2479  3.3234 -1.0741
  422TMC3    C7 6303   1.898   2.188  13.087 -0.1338  0.0735 -0.6268
  422TMC3    C8 6304   2.104   2.629  13.178 -0.0392  0.2712  0.3215
  422TMC3    O1 6305   1.928   2.066  13.075  0.3490  0.5303 -0.2018
  422TMC3    O2 6306   2.209   2.683  13.218 -0.8571  0.5241  0.0550
  423MPD2     C 6307   3.098   3.916   0.338 -0.2169  0.2484  0.4796
  423MPD2    C1 6308   3.166   3.802   0.379  1.0876 -0.5676 -0.3451
  423MPD2    C2 6309   3.182   3.704   0.283  0.0960 -0.0221  0.7866
  423MPD2    C3 6310   3.150   3.717   0.150  0.1371 -0.0635  0.2274
  423MPD2    C4 6311   3.095   3.836   0.110 -0.0118 -0.3750  0.5143
  423MPD2    C5 6312   3.068   3.930   0.208 -0.1639  1.1845  0.1371
  423MPD2     H 6313   3.241   3.620   0.318  0.6434  1.0928  2.5671
  423MPD2    H1 6314   3.069   3.855   0.007 -0.2005 -1.1294  0.4231
  423MPD2    H2 6315   3.071   4.003   0.396 -0.6649  1.2204 -1.1787
  423MPD2    H3 6316   3.013   4.019   0.181 -2.0420  0.7603  2.5571
  423MPD2     N 6317   3.172   3.611   0.063  0.0109  0.4926 -0.1587
  423MPD2    H5 6318   3.180   3.634  17.654  1.6349 -1.5679 -0.5061
  423MPD2    N1 6319   3.209   3.776   0.513 -0.0441  0.2600  0.8622
  423MPD2    H7 6320   3.250   3.685   0.533 -1.4685 -0.4638  0.4846
  424TMC3    C1 6321   3.266   3.813   0.746 -0.0422 -0.2765 -0.0808
  424TMC3    C2 6322   3.368   3.723   0.745  0.5484  1.2467  0.0957
  424TMC3    C3 6323   3.416   3.677   0.863  0.3912 -0.1500 -0.2846
  424TMC3    C4 6324   3.214   3.857   0.861  1.1150  0.3028 -0.3243
  424TMC3    C5 6325   3.255   3.804   0.980 -0.1969 -0.1383  0.4144
  424TMC3    C6 6326   3.363   3.718   0.981 -0.8431 -0.0775 -0.2067
  424TMC3     C 6327   3.201   3.863   0.621 -0.2598 -0.6398 -0.1078
  424TMC3     O 6328   3.153   3.972   0.620  0.6289 -0.1524  0.2728
  424TMC3     H 6329   3.416   3.691   0.653  1.2535  0.3289  0.7718
  424TMC3    H1 6330   3.140   3.936   0.864  0.4110 -0.4104  1.0243
  424TMC3    H2 6331   3.388   3.670   1.075 -1.6217  1.1077  0.6181
  424TMC3    C7 6332   3.189   3.838   1.099 -0.5652  0.6035  0.2558
  424TMC3    C8 6333   3.548   3.610   0.881  0.4731  1.0029 -0.4329
  424TMC3    O1 6334   3.098   3.921   1.091  0.2585  0.0679 -0.4430
  424TMC3    O2 6335   3.578   3.571   0.992 -0.0727 -0.1809  0.6832
  425MPD2     C 6336   2.072   2.990  17.334  0.4764 -0.0640 -0.3908
  425MPD2    C1 6337   2.073   2.892  17.428  0.1377  1.1166 -0.8320
  425MPD2    C2 6338   1.963   2.881  17.518  0.3758  0.4927  0.2107
  425MPD2    C3 6339   1.862   2.966  17.508 -0.5405  0.3831 -0.4650
  425MPD2    C4 6340   1.866   3.062  17.409  0.6886 -0.0449  0.5694
  425MPD2    C5 6341   1.973   3.081  17.329 -0.1868 -0.2400  0.1972
  425MPD2     H 6342   1.965   2.799  17.589  4.0244 -0.9116 -1.4884
  425MPD2    H1 6343   1.779   3.125  17.398  0.8614 -0.3017 -2.1833
  425MPD2    H2 6344   2.152   2.997  17.262  0.0599 -3.5617 -1.1839
  425MPD2    H3 6345   1.965   3.154  17.250 -2.2127 -0.1518  0.4873
  425MPD2     N 6346   1.750   2.942  17.588 -0.0610 -0.3125  0.5631
  425MPD2    H5 6347   1.746   2.863  17.651 -0.5606 -0.8436 -0.1418
  425MPD2    N1 6348   2.185   2.811  17.436  0.2933 -0.4867  0.6572
  425MPD2    H7 6349   2.260   2.843  17.376  0.3155 -2.4100 -0.3479
  426TMC3    C1 6350   2.302   2.616  17.431 -0.1873  0.4648 -0.2741
  426TMC3    C2 6351   2.284   2.485  17.389  0.5061 -0.4327  0.5027
  426TMC3    C3 6352   2.382   2.397  17.398 -0.1309  0.5103  0.0924
  426TMC3    C4 6353   2.424   2.656  17.478 -0.0145 -0.1765 -0.2445
  426TMC3    C5 6354   2.526   2.560  17.473  0.6002  0.7141  0.5300
  426TMC3    C6 6355   2.506   2.437  17.424 -0.2366  0.5665 -0.3244
  426TMC3     C 6356   2.184   2.682  17.470  0.5002 -0.0121  0.4061
  426TMC3     O 6357   2.104   2.610  17.524 -0.4722 -0.2075  0.5804
  426TMC3     H 6358   2.192   2.460  17.337 -0.2353  0.4415  1.3798
  426TMC3    H1 6359   2.432   2.749  17.534  0.1235  1.1144 -2.3953
  426TMC3    H2 6360   2.590   2.369  17.414 -0.3832  0.2533  0.5440
  426TMC3    C7 6361   2.653   2.582  17.541 -0.0126 -0.5928  0.2093
  426TMC3    C8 6362   2.366   2.255  17.362  0.0617  0.5686  0.7105
  426TMC3    O1 6363   2.754   2.525  17.502 -0.6854  0.1701  0.6784
  426TMC3    O2 6364   2.465   2.186  17.358 -0.0362 -0.4222 -0.2878
  427MPD2     C 6365   1.047   0.053  14.908 -0.3758 -0.0239 -0.1009
  427MPD2    C1 6366   0.987   4.662  14.967  0.5580 -0.0748 -0.2132
  427MPD2    C2 6367   0.855   4.644  14.956 -0.6076  0.7155  0.3168
  427MPD2    C3 6368   0.783   4.717  14.873 -0.4256 -0.0840 -0.3417
  427MPD2    C4 6369   0.838   0.104  14.814  0.0932  0.5568 -0.1437
  427MPD2    C5 6370   0.966   0.138  14.831 -0.1667 -0.1496 -0.0736
  427MPD2     H 6371   0.815   4.553  14.999  2.3541 -0.0482  1.4914
  427MPD2    H1 6372   0.776   0.158  14.743 -0.1251  0.4927 -0.0035
  427MPD2    H2 6373   1.153   0.074  14.902  0.2503 -2.6881  1.7249
  427MPD2    H3 6374   1.021   0.212  14.773  0.0094  0.0321  0.3278
  427MPD2     N 6375   0.641   4.706  14.862 -0.2854 -0.0774  0.0759
  427MPD2    H5 6376   0.596   0.061  14.812  0.6944  0.7794  0.5131
  427MPD2    N1 6377   1.062   4.568  15.043 -0.3550  0.0495  0.1328
  427MPD2    H7 6378   1.008   4.495  15.089  0.6312  0.6267  2.2099
  428TMC3    C1 6379   1.260   4.483  15.154 -0.0023  0.0978 -0.1748
  428TMC3    C2 6380   1.204   4.359  15.172 -0.4189 -0.1179 -0.2750
  428TMC3    C3 6381   1.267   4.284  15.264 -0.1199 -0.1998  0.6409
  428TMC3    C4 6382   1.360   4.530  15.230 -0.1436 -0.3204  0.5253
  428TMC3    C5 6383   1.415   4.457  15.320  0.4533  0.1582  0.1064
  428TMC3    C6 6384   1.358   4.337  15.351 -0.5158 -0.6281  0.4135
  428TMC3     C 6385   1.195   4.578  15.066 -0.4681 -0.1526 -0.3378
  428TMC3     O 6386   1.272   4.660  15.016  0.0108 -0.2637  0.1900
  428TMC3     H 6387   1.130   4.321  15.103 -0.6073 -1.8510  0.8662
  428TMC3    H1 6388   1.398   4.627  15.203  1.3545 -1.0168  0.1065
  428TMC3    H2 6389   1.407   4.267  15.417  0.1911 -1.6880 -1.2391
  428TMC3    C7 6390   1.494   4.521  15.421  0.6643 -0.0623 -0.2592
  428TMC3    C8 6391   1.259   4.140  15.253 -0.3198  0.2762 -0.4306
  428TMC3    O1 6392   1.451   4.501  15.534 -0.7294  0.1985 -0.3930
  428TMC3    O2 6393   1.255   4.085  15.142 -0.0590  0.8302 -0.2001
  429MPD2     C 6394   1.483   0.030   0.118  0.2461 -0.0388  0.6684
  429MPD2    C1 6395   1.576   4.675   0.051  0.6890 -0.8626  0.1401
  429MPD2    C2 6396   1.659   0.017  17.653 -0.5781 -0.1503  0.9811
  429MPD2    C3 6397   1.658   0.159  17.638 -0.8711 -0.6538 -0.5452
  429MPD2    C4 6398   1.567   0.233   0.022 -0.4826  0.8267 -0.0227
  429MPD2    C5 6399   1.488   0.167   0.113  0.2382  0.5047 -0.6033
  429MPD2     H 6400   1.722   4.676  17.592 -4.0690 -2.2268 -0.4826
  429MPD2    H1 6401   1.565   0.341   0.023 -0.1753  0.8320  0.2174
  429MPD2    H2 6402   1.407   4.703   0.178 -0.4415  1.4941  1.0501
  429MPD2    H3 6403   1.427   0.231   0.176  0.2409 -0.4752  0.4062
  429MPD2     N 6404   1.745   0.210  17.535  0.3925  0.0440 -0.1512
  429MPD2    H5 6405   1.823   0.152  17.505  0.8302  0.1894  0.6915
  429MPD2    N1 6406   1.577   4.534   0.053  0.0808  0.1232  0.1254
  429MPD2    H7 6407   1.647   4.489  17.684 -0.8595 -1.0858 -0.0498
  430TMC3    C1 6408   1.853   0.362  17.412 -0.6571 -0.0125  0.2834
  430TMC3    C2 6409   1.857   0.475  17.340 -0.6344  0.5886  0.6571
  430TMC3    C3 6410   1.969   0.520  17.278  0.4683  0.2850 -0.0570
  430TMC3    C4 6411   1.971   0.288  17.422  0.0814  0.4259  0.6870
  430TMC3    C5 6412   2.083   0.342  17.360 -0.2486  0.7147  0.1117
  430TMC3    C6 6413   2.091   0.457  17.288  0.0574  0.5470 -0.5905
  430TMC3     C 6414   1.730   0.328  17.476  0.1339  0.9150 -0.3403
  430TMC3     O 6415   1.630   0.398  17.481  0.7346 -0.0869  0.4963
  430TMC3     H 6416   1.761   0.524  17.330 -1.6556 -1.2943  1.2408
  430TMC3    H1 6417   1.986   0.199  17.483 -1.2361  0.1329  0.5877
  430TMC3    H2 6418   2.173   0.475  17.219 -1.3213  1.0973 -2.0975
  430TMC3    C7 6419   2.177   0.241  17.324  0.0518 -0.7807 -0.1234
  430TMC3    C8 6420   1.926   0.565  17.147  0.1537 -0.6228 -0.3132
  430TMC3    O1 6421   2.136   0.145  17.259  0.0959 -0.6106  0.1747
  430TMC3    O2 6422   1.812   0.540  17.110  0.6665 -0.4761  0.0308
  431MPD2     C 6423   3.216   0.526  12.144 -0.1229  0.5375  0.5013
  431MPD2    C1 6424   3.290   0.506  12.256 -0.2174  0.0996 -0.4883
  431MPD2    C2 6425   3.361   0.389  12.270 -0.3716  0.0475 -0.0903
  431MPD2    C3 6426   3.357   0.290  12.177  0.2368  0.2902  0.4521
  431MPD2    C4 6427   3.279   0.316  12.062 -0.0929 -0.4590  0.2864
  431MPD2    C5 6428   3.210   0.435  12.046  0.0834  0.1169  0.5347
  431MPD2     H 6429   3.424   0.370  12.357 -0.5344 -1.0084 -0.1994
  431MPD2    H1 6430   3.269   0.234  11.993 -3.7469 -0.2783  0.6194
  431MPD2    H2 6431   3.162   0.619  12.133 -0.9380 -0.1543 -1.2190
  431MPD2    H3 6432   3.138   0.451  11.966 -1.8340  1.6210  2.5435
  431MPD2     N 6433   3.416   0.161  12.188  0.1159 -0.1822  0.1151
  431MPD2    H5 6434   3.409   0.106  12.103 -0.2429  2.9582 -1.8854
  431MPD2    N1 6435   3.311   0.620  12.331  0.4743 -0.3494 -0.2745
  431MPD2    H7 6436   3.261   0.706  12.307 -0.1673 -0.6343  0.0393
  432TMC3    C1 6437   3.550   4.700  12.284  0.2642 -0.3330 -0.0800
  432TMC3    C2 6438   3.597   4.669  12.167 -0.2699 -0.1192 -0.2222
  432TMC3    C3 6439   3.648   4.544  12.151  0.4917  0.1048  0.7362
  432TMC3    C4 6440   3.551   4.613  12.392  0.6825 -0.1233  0.0255
  432TMC3    C5 6441   3.615   4.492  12.380 -0.5307  0.2233 -0.6257
  432TMC3    C6 6442   3.668   4.460  12.258  0.0745 -0.5080  0.2216
  432TMC3     C 6443   3.483   0.107  12.297 -0.6289  0.0512  0.1693
  432TMC3     O 6444   3.502   0.157  12.408  0.1488  0.2004  0.2902
  432TMC3     H 6445   3.596   0.025  12.091 -0.4271  0.1429  0.0452
  432TMC3    H1 6446   3.527   4.643  12.493  0.2957  0.4853 -0.2496
  432TMC3    H2 6447   3.706   4.360  12.246  0.2636 -0.5467  1.1608
  432TMC3    C7 6448   3.642   4.405  12.495  0.2459  0.3811 -0.6978
  432TMC3    C8 6449   3.723   4.514  12.030 -0.1326  0.4000 -0.5162
  432TMC3    O1 6450   3.736   4.328  12.486 -0.0179  0.1257 -0.7532
  432TMC3    O2 6451   3.802   4.422  12.048 -0.0643  0.2852 -0.2088
  433MPD2     C 6452   2.446   3.635  11.011 -0.2255 -0.3763  0.1536
  433MPD2    C1 6453   2.415   3.515  11.081  0.3347  0.7706 -0.1183
  433MPD2    C2 6454   2.398   3.524  11.215 -0.6350  0.4404  0.1703
  433MPD2    C3 6455   2.417   3.643  11.279  0.0481  0.1797 -0.5456
  433MPD2    C4 6456   2.472   3.747  11.212  0.3415 -0.6725 -0.0671
  433MPD2    C5 6457   2.486   3.745  11.079  0.4526  0.8354 -0.1855
  433MPD2     H 6458   2.375   3.441  11.281 -0.9596 -0.1874 -0.7346
  433MPD2    H1 6459   2.517   3.837  11.253  0.7670 -1.4357  1.1314
  433MPD2    H2 6460   2.460   3.641  10.904 -0.7864 -0.9663  0.0418
  433MPD2    H3 6461   2.532   3.828  11.026 -2.7110  2.4983 -0.2944
  433MPD2     N 6462   2.406   3.635  11.419  0.2465  0.1767 -0.3202
  433MPD2    H5 6463   2.377   3.548  11.462 -1.6847  0.5934 -0.7592
  433MPD2    N1 6464   2.382   3.400  11.008 -0.5829 -0.6648 -0.1881
  433MPD2    H7 6465   2.403   3.405  10.909 -1.4589 -0.1251 -0.3499
  434TMC3    C1 6466   2.313   3.175  10.962  0.4487 -0.1394 -0.1458
  434TMC3    C2 6467   2.334   3.063  11.026  0.2573  1.1725 -0.2609
  434TMC3    C3 6468   2.423   2.977  10.964 -0.0901 -0.0056  0.0854
  434TMC3    C4 6469   2.364   3.208  10.840 -0.3358  0.8270 -0.0092
  434TMC3    C5 6470   2.437   3.111  10.776 -0.3561 -1.1076 -0.5648
  434TMC3    C6 6471   2.478   2.999  10.834 -0.6077 -0.2388  0.2134
  434TMC3     C 6472   2.324   3.288  11.061 -0.3269  0.5594  0.8332
  434TMC3     O 6473   2.265   3.270  11.166  0.0129 -0.2824 -0.3898
  434TMC3     H 6474   2.302   3.044  11.127 -1.5445 -0.1129 -1.0774
  434TMC3    H1 6475   2.333   3.299  10.790  2.5726  0.1036 -3.0994
  434TMC3    H2 6476   2.548   2.930  10.788  0.9482  0.1644  1.9847
  434TMC3    C7 6477   2.426   3.120  10.636  0.1332 -0.0279 -0.0754
  434TMC3    C8 6478   2.483   2.879  11.061 -0.4577  0.3547 -0.5405
  434TMC3    O1 6479   2.409   3.227  10.580 -0.2041  0.2771 -0.1797
  434TMC3    O2 6480   2.419   2.848  11.161 -0.0762  0.6193  0.3808
  435MPD2     C 6481   3.791   3.496  15.556  0.0388  0.1035  0.2305
  435MPD2    C1 6482   3.751   3.511  15.688 -0.6056  0.3517  0.1950
  435MPD2    C2 6483   3.840   3.477  15.786 -0.1027  0.0200  0.6200
  435MPD2    C3 6484   3.963   3.429  15.761 -0.1922 -0.0519 -0.1394
  435MPD2    C4 6485   4.009   3.432  15.632 -0.4952  1.2962  1.1563
  435MPD2    C5 6486   3.923   3.461  15.530  0.4231  0.0949  0.5583
  435MPD2     H 6487   3.807   3.480  15.889 -0.6151 -0.7232  0.4792
  435MPD2    H1 6488   4.110   3.405  15.603 -1.5202 -0.8568 -0.3996
  435MPD2    H2 6489   3.722   3.520  15.476 -0.9489  0.4133  1.1738
  435MPD2    H3 6490   3.949   3.449  15.426 -1.7819 -1.1644  0.1403
  435MPD2     N 6491   4.044   3.405  15.876 -0.0187  0.2448 -0.6392
  435MPD2    H5 6492   3.988   3.394  15.960 -1.4979  0.2596 -1.6158
  435MPD2    N1 6493   3.625   3.567  15.719 -0.0283  0.0535  0.2682
  435MPD2    H7 6494   3.590   3.559  15.814 -0.4894  0.8982  0.1618
  436TMC3    C1 6495   3.232   3.612  15.838  0.0739  1.2436 -0.5117
  436TMC3    C2 6496   3.356   3.577  15.785  0.0768 -0.1677  0.4677
  436TMC3    C3 6497   3.403   3.656  15.686  0.2254  0.0834 -0.0213
  436TMC3    C4 6498   3.178   3.731  15.810 -0.0985 -0.3463 -0.8585
  436TMC3    C5 6499   3.226   3.810  15.716  0.1826  0.5571  0.3695
  436TMC3    C6 6500   3.345   3.773  15.651 -0.4219  0.2325 -0.8490
  436TMC3     C 6501   3.174   3.529  15.944  0.3193  0.1077  0.0712
  436TMC3     O 6502   3.197   3.407  15.946  0.2952  0.1493  1.1451
  436TMC3     H 6503   3.393   3.479  15.813 -3.0693 -1.4408  0.1809
  436TMC3    H1 6504   3.083   3.757  15.854  1.1402  1.1549  0.8954
  436TMC3    H2 6505   3.395   3.839  15.581  0.3211  1.4722  0.8397
  436TMC3    C7 6506   3.167   3.941  15.708 -0.3902  0.3198  0.3586
  436TMC3    C8 6507   3.536   3.625  15.631 -0.1099 -0.2600 -0.7241
  436TMC3    O1 6508   3.102   3.981  15.804  0.1749 -0.5197 -0.3083
  436TMC3    O2 6509   3.557   3.664  15.518 -0.1841  0.7119  0.0566
  437TMC3    C1 6510   3.106   4.693  12.586 -0.0408  0.0785 -0.5321
  437TMC3    C2 6511   3.137   4.681  12.724 -1.2625  0.0816  0.2103
  437TMC3    C3 6512   3.113   0.078  12.795 -0.6771  0.3453 -0.4039
  437TMC3    C4 6513   3.029   0.077  12.534  0.0215  0.1795  0.1674
  437TMC3    C5 6514   2.998   0.178  12.617 -0.4562  0.2337  0.4378
  437TMC3    C6 6515   3.041   0.180  12.749  0.3918 -0.4183 -0.4344
  437TMC3     C 6516   3.164   4.594  12.497 -0.7329  0.1676 -0.9476
  437TMC3     O 6517   3.236   4.514  12.553 -0.6305  0.1766 -0.1140
  437TMC3     H 6518   3.200   4.605  12.768  1.6616  2.6137  0.3650
  437TMC3    H1 6519   3.000   0.099  12.432 -1.0601  0.3926  0.5195
  437TMC3    H2 6520   3.014   0.263  12.814 -1.0001 -1.2082 -0.0028
  437TMC3    C7 6521   2.980   0.307  12.554 -0.3999  0.0048  0.1817
  437TMC3    C8 6522   3.148   0.076  12.937  0.9228 -0.2872  0.8498
  437TMC3    O1 6523   2.933   0.308  12.440  0.1580  0.3004  0.2050
  437TMC3    O2 6524   3.080   0.136  13.018  0.3216 -0.2804 -0.6498
  438MPD2     C 6525   0.676   1.868  17.138 -0.2362 -0.1827  0.1488
  438MPD2    C1 6526   0.680   1.764  17.230 -0.0883 -0.6880  0.2707
  438MPD2    C2 6527   0.672   1.802  17.361  0.6412 -1.0906  0.0891
  438MPD2    C3 6528   0.640   1.936  17.404  0.7301 -0.6545 -0.1715
  438MPD2    C4 6529   0.635   2.035  17.308 -0.1272  0.2059  0.1792
  438MPD2    C5 6530   0.655   1.999  17.175  0.4359 -0.4960  0.3370
  438MPD2     H 6531   0.672   1.730  17.442 -1.8510 -1.4058 -0.1669
  438MPD2    H1 6532   0.619   2.141  17.325 -0.0967 -0.0244  1.5920
  438MPD2    H2 6533   0.682   1.845  17.032  0.9531 -1.3674  0.4647
  438MPD2    H3 6534   0.635   2.066  17.092  1.3130 -1.8419 -0.9495
  438MPD2     N 6535   0.609   1.978  17.538  0.1298 -0.1322 -0.2276
  438MPD2    H5 6536   0.592   2.075  17.561 -0.7376  0.0977 -1.8284
  438MPD2    N1 6537   0.678   1.627  17.203 -0.2480  0.0080 -0.5639
  438MPD2    H7 6538   0.689   1.565  17.283 -0.1854  0.6074 -0.0981
  439TMC3    C1 6539   0.659   1.421  17.088 -0.0364 -0.2929 -0.8362
  439TMC3    C2 6540   0.622   1.361  16.972 -0.3650 -0.0377 -0.4636
  439TMC3    C3 6541   0.662   1.227  16.965  0.1222 -1.2902 -0.0604
  439TMC3    C4 6542   0.714   1.350  17.197  0.0877  0.1739  0.1233
  439TMC3    C5 6543   0.730   1.217  17.184  0.0124  0.9477  0.0190
  439TMC3    C6 6544   0.709   1.153  17.074  0.4500 -0.7587 -0.2395
  439TMC3     C 6545   0.667   1.563  17.083 -0.0658  1.0584  0.3465
  439TMC3     O 6546   0.659   1.624  16.975 -0.1967 -0.3464  0.1142
  439TMC3     H 6547   0.595   1.425  16.888 -0.2348  0.1655 -0.3494
  439TMC3    H1 6548   0.747   1.403  17.285  1.0506  0.5068 -0.4338
  439TMC3    H2 6549   0.746   1.053  17.056  1.3807 -0.3648 -0.5469
  439TMC3    C7 6550   0.790   1.145  17.293 -0.6348  0.1469  0.0716
  439TMC3    C8 6551   0.711   1.181  16.835 -0.2230  0.5035  0.3162
  439TMC3    O1 6552   0.850   1.201  17.382  0.2750 -0.2340  0.4457
  439TMC3    O2 6553   0.792   1.088  16.841  0.0564 -0.5098  0.5828
  440MPD2     C 6554   3.667   1.739  14.973  0.4261  0.0406  0.3429
  440MPD2    C1 6555   3.699   1.740  15.105 -0.4645  0.3422  0.3411
  440MPD2    C2 6556   3.801   1.653  15.141  0.3216 -0.4617  0.4978
  440MPD2    C3 6557   3.865   1.567  15.051 -0.2648 -0.2778 -0.2849
  440MPD2    C4 6558   3.821   1.567  14.915 -0.7274  0.0881 -0.7837
  440MPD2    C5 6559   3.724   1.654  14.879  0.6695 -0.8697  0.4275
  440MPD2     H 6560   3.831   1.653  15.245  1.9851  0.9266  0.0086
  440MPD2    H1 6561   3.878   1.512  14.840  0.2439  0.2520 -0.1704
  440MPD2    H2 6562   3.575   1.787  14.944 -0.7583 -2.3352  0.1399
  440MPD2    H3 6563   3.693   1.657  14.775 -2.1627  1.9399  1.3714
  440MPD2     N 6564   3.979   1.490  15.081 -0.1904 -0.0066  1.3701
  440MPD2    H5 6565   4.030   1.451  15.003  0.5689  2.4907  0.6219
  440MPD2    N1 6566   3.652   1.830  15.203  0.0426  0.4223  0.4742
  440MPD2    H7 6567   3.703   1.832  15.291  0.9706 -0.8749 -0.0497
  441TMC3    C1 6568   4.146   1.391  15.210  0.8340  0.2224 -0.1757
  441TMC3    C2 6569   4.240   1.488  15.180  0.9374  0.9026  0.0861
  441TMC3    C3 6570   4.353   1.506  15.256 -0.4310  0.4145  0.1110
  441TMC3    C4 6571   4.165   1.309  15.326 -0.2529 -0.2329  0.5208
  441TMC3    C5 6572   4.292   1.331  15.390 -0.5886 -0.4674  0.1637
  441TMC3    C6 6573   4.387   1.414  15.354  0.2915 -0.2943 -0.1747
  441TMC3     C 6574   4.012   1.446  15.205  0.2762  0.3952  0.0930
  441TMC3     O 6575   3.962   1.472  15.312 -0.2485 -0.7693  0.1683
  441TMC3     H 6576   4.219   1.560  15.101  2.9566 -0.0155 -1.2813
  441TMC3    H1 6577   4.084   1.253  15.371 -0.4470  0.0437  0.5149
  441TMC3    H2 6578   4.477   1.420  15.413 -0.8878  0.8807  1.5174
  441TMC3    C7 6579   4.311   1.252  15.507  0.0996  0.2459 -0.0889
  441TMC3    C8 6580   4.396   1.637  15.298 -0.1392  0.2053  0.5250
  441TMC3    O1 6581   4.417   1.186  15.502  0.2446  0.0082 -0.6464
  441TMC3    O2 6582   4.510   1.647  15.342  0.1800  0.2638  0.1462
  442MPD2     C 6583   1.839   2.337  16.862 -0.3479  0.0353 -0.0830
  442MPD2    C1 6584   1.787   2.239  16.942  0.3941  0.1575 -0.0312
  442MPD2    C2 6585   1.821   2.109  16.904  0.3795 -0.1743  0.0517
  442MPD2    C3 6586   1.916   2.082  16.814  0.0604  0.6984  0.2270
  442MPD2    C4 6587   1.970   2.185  16.737 -0.5828  0.0050  0.4483
  442MPD2    C5 6588   1.925   2.309  16.765  0.2930  0.0390  0.9200
  442MPD2     H 6589   1.774   2.030  16.961 -0.1247 -0.7959 -1.2183
  442MPD2    H1 6590   2.060   2.179  16.677 -1.3291 -0.8102 -0.5771
  442MPD2    H2 6591   1.810   2.439  16.887  0.7459  0.8062 -1.9945
  442MPD2    H3 6592   1.953   2.399  16.712 -0.2411 -0.6746 -0.5722
  442MPD2     N 6593   1.950   1.954  16.762 -0.2870 -0.4364 -0.0901
  442MPD2    H5 6594   2.025   1.944  16.695  0.7432 -2.0204  1.3090
  442MPD2    N1 6595   1.702   2.267  17.054 -0.2947  0.1322  0.3577
  442MPD2    H7 6596   1.694   2.192  17.122  1.4346 -1.8643 -1.6318
  443TMC3    C1 6597   1.540   2.385  17.188 -0.2457  0.4364  0.5664
  443TMC3    C2 6598   1.425   2.461  17.170  0.1297 -0.2831  0.2764
  443TMC3    C3 6599   1.312   2.427  17.236 -0.6391  0.1405 -0.4395
  443TMC3    C4 6600   1.547   2.287  17.284  0.3116 -0.1667 -0.5693
  443TMC3    C5 6601   1.432   2.264  17.355 -0.0366 -1.0703  0.2109
  443TMC3    C6 6602   1.312   2.337  17.339 -0.2071  0.4327 -0.0447
  443TMC3     C 6603   1.638   2.388  17.082 -0.2936  0.2870 -0.0089
  443TMC3     O 6604   1.613   2.487  17.010  0.0619  0.0975  0.0168
  443TMC3     H 6605   1.428   2.545  17.102  0.5370 -0.9838 -0.5810
  443TMC3    H1 6606   1.629   2.227  17.320 -0.3368 -0.2306  0.7839
  443TMC3    H2 6607   1.225   2.288  17.380 -1.8110  1.8300 -1.7534
  443TMC3    C7 6608   1.442   2.163  17.462  0.2364  0.7760 -0.1978
  443TMC3    C8 6609   1.178   2.482  17.199  0.4557 -0.2590 -0.1437
  443TMC3    O1 6610   1.500   2.063  17.426  0.0872  0.2553  0.1885
  443TMC3    O2 6611   1.091   2.472  17.284  0.3032 -0.1067  0.0756
  444MPD2     C 6612   2.168   1.967  17.677 -0.5735 -0.5315  0.0043
  444MPD2    C1 6613   2.086   1.859   0.011  0.2304  0.4092 -0.8592
  444MPD2    C2 6614   2.108   1.743  17.637 -0.1635 -0.0475 -0.0141
  444MPD2    C3 6615   2.212   1.736  17.541  0.4377 -0.2549  0.4071
  444MPD2    C4 6616   2.281   1.855  17.508 -0.4086  0.3152 -0.2649
  444MPD2    C5 6617   2.267   1.965  17.589 -0.9014  0.2889 -0.9833
  444MPD2     H 6618   2.050   1.653  17.654 -1.0937  0.3433 -1.1438
  444MPD2    H1 6619   2.353   1.852  17.427 -2.8912 -0.5221 -2.4675
  444MPD2    H2 6620   2.154   2.059   0.042  0.9716 -1.2465  1.6134
  444MPD2    H3 6621   2.338   2.046  17.584 -0.7577  0.2267 -0.0241
  444MPD2     N 6622   2.239   1.615  17.471 -0.1880 -0.3108 -0.0394
  444MPD2    H5 6623   2.176   1.537  17.484 -2.1403  1.0983 -1.1037
  444MPD2    N1 6624   1.983   1.857   0.112 -0.0839 -0.4980 -0.0087
  444MPD2    H7 6625   1.920   1.777   0.108 -0.1643 -0.5381  1.9698
  445TMC3    C1 6626   2.353   1.451  17.338  0.1507  0.2450 -0.6392
  445TMC3    C2 6627   2.260   1.354  17.366 -0.8517  0.8220 -0.6986
  445TMC3    C3 6628   2.278   1.231  17.321  0.3931  0.6940 -0.1458
  445TMC3    C4 6629   2.463   1.413  17.264  0.5375 -0.0076  0.0979
  445TMC3    C5 6630   2.473   1.286  17.208 -0.3005 -0.7694 -0.1118
  445TMC3    C6 6631   2.373   1.195  17.230 -0.0387 -0.3370  0.7459
  445TMC3     C 6632   2.351   1.586  17.398 -0.4724 -0.4036 -0.5221
  445TMC3     O 6633   2.460   1.646  17.393  0.0599  0.2802  0.4407
  445TMC3     H 6634   2.174   1.378  17.428 -0.4286  2.2625 -0.6551
  445TMC3    H1 6635   2.535   1.493  17.249 -0.7982  1.7291  3.0253
  445TMC3    H2 6636   2.379   1.093  17.194 -0.9960 -0.0518 -0.2311
  445TMC3    C7 6637   2.571   1.268  17.097 -0.2136  0.7669  0.3200
  445TMC3    C8 6638   2.180   1.130  17.354  0.2102 -0.0966  0.2916
  445TMC3    O1 6639   2.661   1.353  17.089 -0.0953  0.0784 -0.3146
  445TMC3    O2 6640   2.184   1.028  17.283 -0.2974 -0.0883  0.1523
  446MPD2     C 6641   2.205   2.995  11.687 -0.4469 -0.0743 -0.2691
  446MPD2    C1 6642   2.200   2.908  11.586 -0.1864  0.1973  0.2764
  446MPD2    C2 6643   2.284   2.933  11.483  0.1567  0.5017 -0.5362
  446MPD2    C3 6644   2.364   3.039  11.474  0.1050 -0.2750  0.4464
  446MPD2    C4 6645   2.368   3.128  11.574 -0.2836 -0.3350 -0.4349
  446MPD2    C5 6646   2.280   3.109  11.678 -0.4157  0.6075  0.9270
  446MPD2     H 6647   2.264   2.867  11.399 -1.5599  0.4767 -0.1217
  446MPD2    H1 6648   2.432   3.215  11.585  0.0012 -0.5721 -0.2064
  446MPD2    H2 6649   2.152   2.976  11.780 -1.8351  0.8344 -0.8856
  446MPD2    H3 6650   2.286   3.174  11.765 -1.4945 -0.9563  2.1657
  446MPD2     N 6651   2.432   3.051  11.352 -0.2148  0.4156 -0.4902
  446MPD2    H5 6652   2.417   2.977  11.284  0.6510 -0.2175  0.0056
  446MPD2    N1 6653   2.125   2.795  11.578  0.3246 -0.3556 -0.1920
  446MPD2    H7 6654   2.128   2.745  11.489 -2.3547 -2.5197  0.9323
  447TMC3    C1 6655   2.633   3.120  11.237  0.0823 -0.6525 -0.4122
  447TMC3    C2 6656   2.673   3.221  11.151  0.4592  0.0438 -0.2860
  447TMC3    C3 6657   2.792   3.210  11.095  0.5969  0.1707  0.0121
  447TMC3    C4 6658   2.728   3.033  11.285  0.0053  0.2905  0.2014
  447TMC3    C5 6659   2.849   3.028  11.227  0.3450  0.3649 -0.3291
  447TMC3    C6 6660   2.887   3.112  11.125 -0.1683  0.0635  0.1808
  447TMC3     C 6661   2.523   3.155  11.329 -0.9811  0.8240 -0.3844
  447TMC3     O 6662   2.551   3.259  11.390  0.7303 -0.2042  0.0133
  447TMC3     H 6663   2.609   3.304  11.124  2.6922  0.8999 -2.9965
  447TMC3    H1 6664   2.695   2.951  11.349  2.0718 -2.0120 -1.6696
  447TMC3    H2 6665   2.978   3.095  11.070 -0.2747  0.0458  0.0087
  447TMC3    C7 6666   2.953   2.939  11.278 -0.0715  0.6857  0.2509
  447TMC3    C8 6667   2.811   3.265  10.967 -0.4704 -0.3192 -0.5953
  447TMC3    O1 6668   3.051   2.918  11.205 -0.2195 -0.4375  0.1145
  447TMC3    O2 6669   2.710   3.292  10.905  0.5216  0.2660  0.5036
  448TMC3    C1 6670   0.454   3.284  17.194 -0.6303  0.3148  0.4481
  448TMC3    C2 6671   0.461   3.181  17.105 -0.8315 -0.0490  0.4183
  448TMC3    C3 6672   0.578   3.109  17.089 -0.1775 -0.0610  0.0715
  448TMC3    C4 6673   0.551   3.315  17.286  0.1985 -0.2611 -0.2623
  448TMC3    C5 6674   0.669   3.243  17.273 -0.1019 -0.2414 -1.2749
  448TMC3    C6 6675   0.682   3.149  17.171  0.6401  0.0494  0.3873
  448TMC3     C 6676   0.327   3.342  17.218 -0.4625  0.0803 -0.1326
  448TMC3     O 6677   0.229   3.269  17.212  0.2823 -0.5661 -0.2328
  448TMC3     H 6678   0.363   3.152  17.068  0.4344 -0.3109 -2.7547
  448TMC3    H1 6679   0.541   3.400  17.352 -0.0501  0.4515 -1.2218
  448TMC3    H2 6680   0.753   3.068  17.188  1.4422  0.7255  0.2512
  448TMC3    C7 6681   0.757   3.219  17.389  0.1402 -0.1826 -0.4940
  448TMC3    C8 6682   0.551   2.965  17.070  0.0756 -0.1468  0.5573
  448TMC3    O1 6683   0.856   3.154  17.373  0.1049 -0.1880 -0.3309
  448TMC3    O2 6684   0.609   2.893  17.150  0.0743 -0.3720  0.2221
  449MPD2     C 6685   1.795   1.638  14.037 -0.3350  0.3298  0.6809
  449MPD2    C1 6686   1.657   1.658  14.024 -0.3222 -0.2036 -0.3835
  449MPD2    C2 6687   1.579   1.560  14.078 -0.5931  0.2956  0.1837
  449MPD2    C3 6688   1.627   1.454  14.157 -0.6071 -0.0501 -0.3952
  449MPD2    C4 6689   1.763   1.447  14.172 -0.0208 -0.0801  0.0616
  449MPD2    C5 6690   1.845   1.537  14.107 -0.2583  0.1137 -0.0913
  449MPD2     H 6691   1.471   1.565  14.070 -0.8082 -1.7068  1.7505
  449MPD2    H1 6692   1.815   1.364  14.219 -1.8853 -1.7855 -0.8762
  449MPD2    H2 6693   1.867   1.700  13.985  1.6929 -1.8604  0.8894
  449MPD2    H3 6694   1.951   1.521  14.123 -0.3214 -1.5021 -1.1921
  449MPD2     N 6695   1.525   1.355  14.197 -1.0120  0.4157  0.1072
  449MPD2    H5 6696   1.437   1.368  14.148 -0.4464  2.4529 -0.3701
  449MPD2    N1 6697   1.588   1.753  13.941  0.0410  0.1889 -0.2092
  449MPD2    H7 6698   1.487   1.746  13.949  0.3377 -0.3626  3.0136
  450TMC3    C1 6699   1.546   1.909  13.777 -0.6987 -0.8930 -0.8453
  450TMC3    C2 6700   1.548   1.839  13.662  0.1670 -0.0839 -0.1014
  450TMC3    C3 6701   1.432   1.792  13.615 -0.9203  0.4043  0.0020
  450TMC3    C4 6702   1.431   1.935  13.848  1.3658  0.1896 -0.7897
  450TMC3    C5 6703   1.318   1.884  13.801 -0.4878  0.2087  0.2580
  450TMC3    C6 6704   1.314   1.820  13.681  0.6539 -0.3682  0.0427
  450TMC3     C 6705   1.643   1.847  13.862 -0.4488  0.2984  1.1811
  450TMC3     O 6706   1.759   1.867  13.840 -0.3957 -0.3709  0.4871
  450TMC3     H 6707   1.644   1.802  13.630 -0.4584  1.0783 -3.3572
  450TMC3    H1 6708   1.447   1.990  13.940  0.0246 -0.9126  0.0992
  450TMC3    H2 6709   1.224   1.772  13.643  0.3262  0.5582 -0.3605
  450TMC3    C7 6710   1.239   1.824  13.904 -0.6954  0.0569  0.2619
  450TMC3    C8 6711   1.437   1.648  13.585 -1.2705  0.3622 -0.2880
  450TMC3    O1 6712   1.308   1.777  13.990 -0.0968  0.5274 -0.2758
  450TMC3    O2 6713   1.344   1.579  13.626  0.5726 -0.1405 -0.7752
  451MPD2     C 6714   2.328   4.168   1.999 -0.9943 -0.0724 -0.2791
  451MPD2    C1 6715   2.327   4.287   1.927  0.8049 -0.1617 -0.2961
  451MPD2    C2 6716   2.450   4.359   1.910 -0.3841 -0.0162 -0.4402
  451MPD2    C3 6717   2.565   4.312   1.967  0.2583  0.7460 -0.3023
  451MPD2    C4 6718   2.561   4.192   2.042  0.3839  0.7843 -0.4598
  451MPD2    C5 6719   2.444   4.124   2.057 -0.5348 -0.6536  0.3205
  451MPD2     H 6720   2.443   4.450   1.852  1.7814 -0.4654 -1.3884
  451MPD2    H1 6721   2.646   4.141   2.086  0.3176 -0.0771 -1.3285
  451MPD2    H2 6722   2.233   4.118   2.013 -1.3971 -0.1117 -3.0856
  451MPD2    H3 6723   2.437   4.036   2.120  0.8002 -0.6183  0.5226
  451MPD2     N 6724   2.692   4.378   1.956  0.0673  0.4171  0.0243
  451MPD2    H5 6725   2.774   4.350   2.009 -2.4639 -0.8269  3.2830
  451MPD2    N1 6726   2.200   4.329   1.881 -0.7590  0.2113  0.3776
  451MPD2    H7 6727   2.122   4.279   1.922 -0.3151 -0.6743  0.1408
  452TMC3    C1 6728   2.859   4.503   1.839 -0.8549 -0.0783  0.3841
  452TMC3    C2 6729   2.923   4.544   1.951  0.0848  0.5164  0.5633
  452TMC3    C3 6730   3.049   4.604   1.933  0.5337 -0.4585 -0.4461
  452TMC3    C4 6731   2.913   4.524   1.711  0.2219 -0.5429 -0.1006
  452TMC3    C5 6732   3.041   4.578   1.702  0.1770 -0.0123  0.2708
  452TMC3    C6 6733   3.113   4.612   1.814 -0.1860 -0.3709  0.0342
  452TMC3     C 6734   2.717   4.458   1.848  0.0872  0.1410 -0.5233
  452TMC3     O 6735   2.658   4.470   1.742 -0.1073  0.3264  0.1122
  452TMC3     H 6736   2.882   4.527   2.050 -1.3056 -0.1101 -0.1193
  452TMC3    H1 6737   2.852   4.497   1.625  2.9969 -3.7338 -1.0706
  452TMC3    H2 6738   3.215   4.650   1.816 -0.6663  0.9287 -0.5082
  452TMC3    C7 6739   3.094   4.589   1.567 -0.2002 -0.4128  0.0296
  452TMC3    C8 6740   3.140   4.618   2.048  0.5119 -0.8503 -0.6300
  452TMC3    O1 6741   3.018   4.572   1.469 -0.0881 -0.2918  0.4155
  452TMC3    O2 6742   3.251   4.571   2.045 -0.4732  0.4193 -0.1713
  453TMC3    C1 6743   4.289   2.189  12.002  0.0082  0.3163 -1.2908
  453TMC3    C2 6744   4.184   2.101  12.012  0.1453 -0.4136  0.7492
  453TMC3    C3 6745   4.129   2.055  11.889  0.4975 -0.1152 -0.5992
  453TMC3    C4 6746   4.325   2.265  11.892 -0.1252 -0.3472 -1.1078
  453TMC3    C5 6747   4.272   2.219  11.780  0.1039 -0.1121  0.4046
  453TMC3    C6 6748   4.173   2.117  11.776 -0.5882  0.6732 -0.2345
  453TMC3     C 6749   4.378   2.211  12.118  0.2245 -1.0722  0.3953
  453TMC3     O 6750   4.453   2.309  12.127  0.8620 -0.1928  0.8903
  453TMC3     H 6751   4.169   2.045  12.104 -0.1467 -0.4686  0.6658
  453TMC3    H1 6752   4.396   2.344  11.913  0.3611 -0.0865 -3.7677
  453TMC3    H2 6753   4.137   2.074  11.683 -0.2822  0.4314 -0.2410
  453TMC3    C7 6754   4.357   2.216  11.658  0.2921 -0.1084 -0.3492
  453TMC3    C8 6755   4.079   1.916  11.868 -0.0862 -0.5660 -0.1614
  453TMC3    O1 6756   4.347   2.116  11.583 -0.5146  0.7560 -0.1865
  453TMC3    O2 6757   4.132   1.857  11.775  0.5009  0.2031 -0.2129
  454MPD2     C 6758   2.939   1.353  16.400  0.7382 -0.8252 -0.7243
  454MPD2    C1 6759   2.806   1.383  16.366 -0.3995  0.2464  0.2506
  454MPD2    C2 6760   2.725   1.429  16.456 -0.2913  0.3591  0.2030
  454MPD2    C3 6761   2.767   1.452  16.585 -0.1306  0.9728  0.3088
  454MPD2    C4 6762   2.893   1.428  16.626  0.0196 -0.6114  0.3110
  454MPD2    C5 6763   2.976   1.374  16.532 -0.0072 -0.8455 -0.1630
  454MPD2     H 6764   2.623   1.453  16.428  0.4250  0.4028 -2.3618
  454MPD2    H1 6765   2.936   1.467  16.717  2.3093  0.5885 -1.2640
  454MPD2    H2 6766   3.023   1.322  16.339  1.2074 -0.1967 -0.4030
  454MPD2    H3 6767   3.078   1.365  16.567 -0.4611 -3.9626  0.3598
  454MPD2     N 6768   2.669   1.509  16.662 -0.6939 -0.0842  0.5618
  454MPD2    H5 6769   2.575   1.494  16.627 -1.2797  1.3366  1.5281
  454MPD2    N1 6770   2.753   1.355  16.241  0.2356  0.1866 -0.0893
  454MPD2    H7 6771   2.672   1.407  16.210 -0.6083 -2.4383 -2.3137
  455TMC3    C1 6772   2.561   1.590  16.847  0.2915 -0.1468  0.2070
  455TMC3    C2 6773   2.554   1.691  16.940 -0.2893  0.0584 -0.3125
  455TMC3    C3 6774   2.445   1.693  17.020  0.7814 -0.3502  0.1875
  455TMC3    C4 6775   2.479   1.483  16.836 -0.1185  1.0127  0.0255
  455TMC3    C5 6776   2.370   1.492  16.925 -0.1590  0.2599  0.3383
  455TMC3    C6 6777   2.345   1.596  17.007  0.2210 -0.3163 -0.0802
  455TMC3     C 6778   2.691   1.562  16.787  0.0000 -0.0635 -0.9136
  455TMC3     O 6779   2.791   1.610  16.838  0.5257  0.0766  0.0566
  455TMC3     H 6780   2.641   1.754  16.954  0.3015 -0.9225  0.3563
  455TMC3    H1 6781   2.500   1.388  16.787 -0.4303  1.1358 -0.3463
  455TMC3    H2 6782   2.268   1.583  17.082 -0.7290 -0.4653 -1.0917
  455TMC3    C7 6783   2.259   1.407  16.897  0.4855  0.4576  0.1933
  455TMC3    C8 6784   2.412   1.820  17.076  0.2432 -0.1070  0.2458
  455TMC3    O1 6785   2.206   1.354  16.996 -0.2709 -0.0839 -0.3101
  455TMC3    O2 6786   2.492   1.918  17.081  0.0168 -0.5889  0.7040
  456MPD2     C 6787   1.236   1.840  16.464  1.1796 -0.6596 -0.3489
  456MPD2    C1 6788   1.156   1.769  16.551  0.1362  0.2888 -0.0145
  456MPD2    C2 6789   1.105   1.830  16.664 -0.0860 -0.2043 -0.4251
  456MPD2    C3 6790   1.137   1.959  16.702  0.0024  0.2076 -0.1339
  456MPD2    C4 6791   1.217   2.026  16.621 -0.3163 -0.0489 -0.0855
  456MPD2    C5 6792   1.270   1.971  16.507  0.0661  0.6969  0.6578
  456MPD2     H 6793   1.036   1.770  16.722  0.4512 -0.3909  0.0115
  456MPD2    H1 6794   1.245   2.127  16.648  0.9827 -0.3341 -0.3760
  456MPD2    H2 6795   1.263   1.799  16.368 -0.9540  1.3024 -1.7885
  456MPD2    H3 6796   1.342   2.028  16.449  0.5253 -1.0879 -0.5130
  456MPD2     N 6797   1.080   2.020  16.814 -0.0523  0.5213 -0.3604
  456MPD2    H5 6798   1.052   1.966  16.895  1.8553  0.4565  0.2483
  456MPD2    N1 6799   1.119   1.637  16.509 -0.2194  0.2130  0.2548
  456MPD2    H7 6800   1.163   1.603  16.424 -1.0325 -2.8482  1.0563
  457TMC3    C1 6801   0.958   2.192  16.928  0.0919  0.1034 -0.5940
  457TMC3    C2 6802   0.873   2.299  16.912  0.0915  0.3451 -0.7280
  457TMC3    C3 6803   0.805   2.338  17.026 -0.3462  0.6029  0.2676
  457TMC3    C4 6804   0.990   2.136  17.047  0.1824  0.7164 -0.3899
  457TMC3    C5 6805   0.933   2.192  17.158 -0.4098  0.6657  0.3713
  457TMC3    C6 6806   0.839   2.291  17.151 -0.1387  0.0487 -0.5251
  457TMC3     C 6807   1.031   2.150  16.803 -0.0346 -0.4799  0.5030
  457TMC3     O 6808   1.037   2.222  16.707 -0.2484  0.2647  0.0043
  457TMC3     H 6809   0.834   2.318  16.812  1.7151 -1.5741 -1.7186
  457TMC3    H1 6810   1.062   2.055  17.054  0.0692  0.6507  0.0280
  457TMC3    H2 6811   0.785   2.328  17.237  1.3389  1.2330 -0.0990
  457TMC3    C7 6812   0.973   2.141  17.289  0.4131 -0.0738 -0.0436
  457TMC3    C8 6813   0.730   2.463  17.015 -0.0791 -0.0844  0.9253
  457TMC3    O1 6814   1.019   2.028  17.305 -0.0918  0.2930  1.0855
  457TMC3    O2 6815   0.750   2.550  17.098  0.1361 -0.5547  0.1276
  458MPD2     C 6816   3.026   0.827  12.536  0.4975 -0.4351 -0.0168
  458MPD2    C1 6817   3.075   0.783  12.656  0.2267  0.1053 -0.0508
  458MPD2    C2 6818   3.078   0.643  12.681  0.0471 -0.0666 -0.0300
  458MPD2    C3 6819   3.016   0.551  12.594 -0.2296 -0.1376 -0.0802
  458MPD2    C4 6820   2.973   0.594  12.472 -0.2062  0.7221  0.3666
  458MPD2    C5 6821   2.980   0.730  12.444  0.6731 -0.4814  0.0777
  458MPD2     H 6822   3.125   0.605  12.770  1.4994  1.2084 -0.2559
  458MPD2    H1 6823   2.946   0.526  12.391  1.1740  0.1574  0.3698
  458MPD2    H2 6824   3.022   0.934  12.516 -0.9436 -0.2563  1.2761
  458MPD2    H3 6825   2.947   0.771  12.350  0.6600 -0.8494 -0.0743
  458MPD2     N 6826   3.018   0.414  12.635  0.1278 -0.1272  0.1307
  458MPD2    H5 6827   3.070   0.399  12.721  0.6377 -2.7335 -0.6292
  458MPD2    N1 6828   3.116   0.890  12.742  0.0818 -0.4839  0.0376
  458MPD2    H7 6829   3.106   0.984  12.706  0.7356 -0.9648 -1.4134
  459TMC3    C1 6830   3.195   0.993  12.950  0.4226 -0.4319  1.1356
  459TMC3    C2 6831   3.260   1.097  12.882 -0.0895  0.0367  0.7976
  459TMC3    C3 6832   3.332   1.189  12.963  0.1155  0.4126  0.6820
  459TMC3    C4 6833   3.209   0.980  13.083  0.4048 -0.0558 -0.6697
  459TMC3    C5 6834   3.273   1.077  13.157 -0.1999 -0.6585  0.2802
  459TMC3    C6 6835   3.334   1.183  13.101 -0.2498  0.5268 -0.3013
  459TMC3     C 6836   3.154   0.870  12.875  0.3793 -0.0589 -0.4748
  459TMC3     O 6837   3.128   0.764  12.938 -0.1792 -0.2637 -0.6545
  459TMC3     H 6838   3.275   1.094  12.775  1.1404 -1.5009  1.0099
  459TMC3    H1 6839   3.157   0.900  13.134 -0.9820  1.8330  0.8714
  459TMC3    H2 6840   3.389   1.256  13.158  0.2461  0.0371 -0.1459
  459TMC3    C7 6841   3.267   1.073  13.299 -0.3391 -0.3971 -0.2057
  459TMC3    C8 6842   3.420   1.295  12.908 -0.6168  0.1466 -0.3020
  459TMC3    O1 6843   3.282   1.172  13.369 -0.6279  0.4439  0.1387
  459TMC3    O2 6844   3.502   1.346  12.977  0.0149 -0.2526 -0.2080
  460MPD2     C 6845   3.136   3.272  10.821  0.3332 -0.0985  0.1929
  460MPD2    C1 6846   3.003   3.277  10.814  0.5658 -0.1717  0.1963
  460MPD2    C2 6847   2.932   3.273  10.693  0.2492 -1.6815  0.0190
  460MPD2    C3 6848   3.011   3.246  10.581 -0.7066  0.1729  0.4338
  460MPD2    C4 6849   3.147   3.239  10.588 -0.7034 -0.2984 -0.1243
  460MPD2    C5 6850   3.211   3.246  10.712 -0.3389 -0.0608 -0.4057
  460MPD2     H 6851   2.825   3.280  10.678 -0.2471 -2.4190  3.2102
  460MPD2    H1 6852   3.206   3.234  10.497 -1.0479 -0.7046 -0.3285
  460MPD2    H2 6853   3.190   3.297  10.912 -1.3364  0.9948  0.8845
  460MPD2    H3 6854   3.318   3.257  10.706 -0.5375  2.8132  1.3043
  460MPD2     N 6855   2.941   3.221  10.464  0.1825 -0.5778 -0.4930
  460MPD2    H5 6856   2.845   3.253  10.453  0.0228  0.1303  3.0175
  460MPD2    N1 6857   2.946   3.271  10.944 -0.1848  0.1912 -0.0902
  460MPD2    H7 6858   3.014   3.252  11.018 -0.8316 -0.7948  0.2657
  461TMC3    C1 6859   2.903   3.188  10.239 -0.1301  0.5673 -0.4923
  461TMC3    C2 6860   2.900   3.093  10.146 -0.0223 -0.2738  0.5532
  461TMC3    C3 6861   2.804   3.097  10.043 -0.8787 -0.7547 -0.3917
  461TMC3    C4 6862   2.811   3.291  10.234  0.9492  0.9536 -0.6566
  461TMC3    C5 6863   2.717   3.288  10.138  0.1507  0.0629  0.0932
  461TMC3    C6 6864   2.700   3.189  10.048 -0.2815 -0.0324 -0.0565
  461TMC3     C 6865   2.994   3.177  10.347 -0.3153  0.4398 -0.2656
  461TMC3     O 6866   3.094   3.104  10.327 -0.1464  0.0829  0.0079
  461TMC3     H 6867   2.978   3.021  10.125 -0.8801 -0.4099 -2.2587
  461TMC3    H1 6868   2.810   3.372  10.306  1.9091 -0.0917  0.5253
  461TMC3    H2 6869   2.618   3.195   9.978 -0.2309 -0.1844 -0.1289
  461TMC3    C7 6870   2.626   3.396  10.129  0.8108 -0.5394 -0.1661
  461TMC3    C8 6871   2.778   2.973   9.973  0.2762  0.8084 -0.6946
  461TMC3    O1 6872   2.572   3.416  10.021 -0.0699  0.0023  0.0308
  461TMC3    O2 6873   2.823   2.870  10.025 -0.0984 -0.4886  0.3276
  462TMC3    C1 6874   1.957   0.070   0.390 -0.2937  0.3001 -0.2467
  462TMC3    C2 6875   2.050   4.718   0.315  0.2557  0.1883 -0.3557
  462TMC3    C3 6876   2.029   4.585   0.284  0.0200 -0.4427 -0.1547
  462TMC3    C4 6877   1.837   0.019   0.422  0.8579 -0.0649  0.1258
  462TMC3    C5 6878   1.803   4.617   0.371 -0.1063  0.3232 -0.6582
  462TMC3    C6 6879   1.905   4.534   0.318  0.3488  0.1964  0.6328
  462TMC3     C 6880   1.992   0.192   0.462 -0.7006  0.8124  0.2449
  462TMC3     O 6881   1.916   0.232   0.547  0.4979 -0.2568 -0.5968
  462TMC3     H 6882   2.149   0.037   0.297 -0.4308  1.3659 -1.4595
  462TMC3    H1 6883   1.768   0.069   0.489  2.2682 -0.5482  1.9498
  462TMC3    H2 6884   1.884   4.438   0.271  2.3486  0.6435 -1.1754
  462TMC3    C7 6885   1.673   4.551   0.388  0.4396  0.6173 -0.0255
  462TMC3    C8 6886   2.077   4.537   0.161  0.1795  0.4064 -0.2475
  462TMC3    O1 6887   1.682   4.432   0.362 -0.3721 -0.7084 -0.7095
  462TMC3    O2 6888   2.067   4.598   0.061 -0.4424  0.7850  0.0419
  463MPD2     C 6889   3.914   2.255   1.419 -0.0832  0.1064  0.0305
  463MPD2    C1 6890   3.855   2.385   1.422 -0.0684 -0.2162  0.1723
  463MPD2    C2 6891   3.936   2.499   1.432  0.0851  0.5054  0.0205
  463MPD2    C3 6892   4.069   2.478   1.444 -0.0791  0.3699 -0.9508
  463MPD2    C4 6893   4.130   2.355   1.444  0.3775 -0.4941  0.5346
  463MPD2    C5 6894   4.050   2.244   1.433  0.1586  0.0080 -0.6067
  463MPD2     H 6895   3.893   2.597   1.420 -2.7988 -0.5235  1.9026
  463MPD2    H1 6896   4.237   2.340   1.447  0.2721 -1.2615  0.4378
  463MPD2    H2 6897   3.850   2.169   1.399  1.2969 -1.1243  0.9507
  463MPD2    H3 6898   4.091   2.143   1.432 -2.5268 -1.1132  1.8813
  463MPD2     N 6899   4.154   2.587   1.449 -0.0155  0.5368 -0.5957
  463MPD2    H5 6900   4.252   2.562   1.445  0.0063  0.3126  1.2005
  463MPD2    N1 6901   3.710   2.406   1.404  0.0268  0.4115  0.5792
  463MPD2    H7 6902   3.683   2.503   1.420 -0.1564  0.4869 -0.1998
  464TMC3    C1 6903   3.478   2.377   1.380 -0.2236  0.5929 -0.2975
  464TMC3    C2 6904   3.446   2.484   1.462 -0.0589  0.4619  0.1967
  464TMC3    C3 6905   3.317   2.525   1.449 -0.0043 -0.3033 -0.5351
  464TMC3    C4 6906   3.380   2.296   1.323 -0.4211  0.1194  0.0007
  464TMC3    C5 6907   3.246   2.334   1.326 -1.0524  0.6096 -0.5292
  464TMC3    C6 6908   3.214   2.455   1.377 -0.4957 -0.1113 -0.2758
  464TMC3     C 6909   3.609   2.324   1.363  0.5173 -0.4434  0.5781
  464TMC3     O 6910   3.622   2.220   1.305 -1.4113 -0.0859  0.2915
  464TMC3     H 6911   3.514   2.540   1.524  0.1921 -1.4162  1.5896
  464TMC3    H1 6912   3.400   2.207   1.264  1.0304 -0.3336  1.1758
  464TMC3    H2 6913   3.112   2.492   1.372 -0.0076  1.4391  1.0003
  464TMC3    C7 6914   3.134   2.239   1.311  0.1384 -0.2608 -0.1271
  464TMC3    C8 6915   3.266   2.657   1.493  0.1212 -0.6560 -0.2354
  464TMC3    O1 6916   3.144   2.121   1.338  0.0553 -0.5037 -0.2180
  464TMC3    O2 6917   3.147   2.686   1.472  0.0094  0.5182  0.6628
  465MPD2     C 6918   0.228   2.055  17.601 -0.2846 -0.6233  0.3342
  465MPD2    C1 6919   0.127   2.104  17.683  0.4465 -0.3722 -0.2745
  465MPD2    C2 6920   4.717   2.059  17.664  0.4512  1.5894 -0.5203
  465MPD2    C3 6921   4.694   1.956  17.572  0.2713  0.0255  0.1225
  465MPD2    C4 6922   0.075   1.895  17.503  0.2013 -1.0724  0.1313
  465MPD2    C5 6923   0.196   1.954  17.520 -0.5082  0.2878  0.2922
  465MPD2     H 6924   4.647   2.092   0.050 -0.0551 -1.6583  0.4190
  465MPD2    H1 6925   0.073   1.818  17.428 -3.5696  0.2985 -1.1911
  465MPD2    H2 6926   0.332   2.084  17.600 -0.7797  1.1876 -1.0270
  465MPD2    H3 6927   0.282   1.919  17.464 -1.4039 -1.0525 -0.2376
  465MPD2     N 6928   4.561   1.912  17.563  0.5716  0.1439  0.3691
  465MPD2    H5 6929   4.490   1.958  17.621  0.6783  0.3227  0.3584
  465MPD2    N1 6930   0.143   2.209   0.086 -0.0883  0.1541 -0.7445
  465MPD2    H7 6931   0.066   2.239   0.146  0.9711  1.5305 -0.0900
  466TMC3    C1 6932   4.152   1.818  17.547 -0.2902 -0.4730 -0.4806
  466TMC3    C2 6933   4.105   1.812  17.419 -0.0875 -0.6198 -0.3716
  466TMC3    C3 6934   4.193   1.810  17.318 -0.1742  0.4323  0.5249
  466TMC3    C4 6935   4.289   1.816  17.572  0.4408  0.0393  0.5016
  466TMC3    C5 6936   4.374   1.806  17.465  0.8625 -0.6330 -0.1212
  466TMC3    C6 6937   4.323   1.813  17.339  0.3104  0.0961  0.4130
  466TMC3     C 6938   4.068   1.797  17.665 -0.5459  0.1166  0.0299
  466TMC3     O 6939   4.115   1.828   0.081 -0.4973  0.1690 -0.2439
  466TMC3     H 6940   4.000   1.830  17.398 -0.1813  0.8996  1.3225
  466TMC3    H1 6941   4.322   1.796  17.674  0.4957  1.0353  0.6874
  466TMC3    H2 6942   4.393   1.827  17.257 -0.5404 -0.0710 -0.3375
  466TMC3    C7 6943   4.518   1.824  17.464 -0.0921  0.3039  0.1477
  466TMC3    C8 6944   4.161   1.870  17.190  0.5905 -0.5808  0.1708
  466TMC3    O1 6945   4.578   1.777  17.367  0.3918  0.2345 -0.3137
  466TMC3    O2 6946   4.218   1.823  17.093  0.2768 -0.1951 -0.2015
  467TMC3    C1 6947   0.619   0.617  14.166 -0.1958  0.6874  0.3378
  467TMC3    C2 6948   0.551   0.643  14.049 -0.1479 -0.0362  0.4782
  467TMC3    C3 6949   0.462   0.555  14.003  0.1950 -0.5995 -0.0628
  467TMC3    C4 6950   0.586   0.507  14.240  0.5672 -0.5109  0.6813
  467TMC3    C5 6951   0.479   0.426  14.196 -0.9268  0.5878  0.1694
  467TMC3    C6 6952   0.422   0.447  14.072 -0.3964  0.4022  0.1051
  467TMC3     C 6953   0.759   0.648  14.168 -0.3665 -0.1970 -0.8371
  467TMC3     O 6954   0.826   0.615  14.267 -0.2587  1.6023  0.4689
  467TMC3     H 6955   0.577   0.726  13.984 -2.1703  0.0266 -0.2574
  467TMC3    H1 6956   0.636   0.481  14.332  0.4089  0.7634  1.1204
  467TMC3    H2 6957   0.345   0.384  14.029  0.3651 -1.4234  1.3832
  467TMC3    C7 6958   0.420   0.325  14.282 -1.1524  0.3912  0.3165
  467TMC3    C8 6959   0.440   0.572  13.863 -0.1045 -0.0360 -0.3735
  467TMC3    O1 6960   0.501   0.268  14.354 -0.1283 -0.3200  0.0054
  467TMC3    O2 6961   0.409   0.682  13.826 -0.3397  0.4076  1.4333
  468MPD2     C 6962   4.073   3.159  11.087  0.1416  0.4054  0.4460
  468MPD2    C1 6963   4.180   3.157  11.176  0.2269 -0.1032 -1.0422
  468MPD2    C2 6964   4.243   3.040  11.219  0.2547  0.0123 -0.3522
  468MPD2    C3 6965   4.199   2.922  11.169  0.0007  0.0791 -0.1386
  468MPD2    C4 6966   4.071   2.925  11.106  0.0410  0.9170  0.1541
  468MPD2    C5 6967   4.013   3.040  11.059  0.0700 -0.7020  0.7639
  468MPD2     H 6968   4.325   3.050  11.290  2.3105  2.7878 -3.1307
  468MPD2    H1 6969   4.026   2.833  11.070  0.9406  0.1615  0.9596
  468MPD2    H2 6970   4.026   3.249  11.050 -0.9752 -0.3053  0.1403
  468MPD2    H3 6971   3.921   3.044  11.003  2.2735 -0.8121 -2.9089
  468MPD2     N 6972   4.263   2.798  11.192 -0.3569 -0.5528 -0.1165
  468MPD2    H5 6973   4.212   2.721  11.151 -1.4127  1.3742 -2.4627
  468MPD2    N1 6974   4.246   3.276  11.215  0.2891  0.4587 -0.3017
  468MPD2    H7 6975   4.340   3.274  11.254  0.9985 -3.0769 -2.1362
  469TMC3    C1 6976   4.273   3.511  11.219  0.4600 -0.8055  0.1030
  469TMC3    C2 6977   4.398   3.508  11.156  0.1748  0.1958 -0.4161
  469TMC3    C3 6978   4.462   3.623  11.127  0.3143 -0.3234 -0.0149
  469TMC3    C4 6979   4.203   3.631  11.231  0.3411  0.0345  0.0862
  469TMC3    C5 6980   4.280   3.743  11.211  0.4526  0.5846  0.2013
  469TMC3    C6 6981   4.404   3.743  11.161  0.2264 -0.3590  0.1399
  469TMC3     C 6982   4.193   3.398  11.190 -0.2999  0.2281 -0.6664
  469TMC3     O 6983   4.077   3.429  11.163  0.6960 -0.1119 -1.2519
  469TMC3     H 6984   4.444   3.412  11.137  0.0911 -0.0947  0.8610
  469TMC3    H1 6985   4.101   3.631  11.267  0.4133 -0.4487  0.2907
  469TMC3    H2 6986   4.460   3.834  11.147  1.2675 -1.1725 -0.9752
  469TMC3    C7 6987   4.219   3.864  11.265 -0.5538  0.8390  0.0514
  469TMC3    C8 6988   4.607   3.626  11.122  0.2807  0.2947  0.0257
  469TMC3    O1 6989   4.094   3.863  11.264  0.6095 -0.2157  0.7589
  469TMC3    O2 6990   4.663   3.729  11.086 -0.1824  0.3164  0.0407
  470TMC3    C1 6991   1.072   4.450   1.112  0.0737 -0.1753 -0.6131
  470TMC3    C2 6992   1.063   4.576   1.169  0.4214 -0.0840 -0.3482
  470TMC3    C3 6993   1.126   4.593   1.292  0.9282  0.4683 -0.1254
  470TMC3    C4 6994   1.126   4.345   1.182  0.3104 -0.9408 -0.5686
  470TMC3    C5 6995   1.182   4.369   1.303  0.6451 -0.0080 -0.1761
  470TMC3    C6 6996   1.176   4.488   1.364 -0.3063 -0.3852 -0.0318
  470TMC3     C 6997   1.039   4.452   0.969 -0.3597  0.2528 -0.3274
  470TMC3     O 6998   1.024   4.554   0.908 -0.1183  0.4901 -0.4534
  470TMC3     H 6999   1.022   4.657   1.109  1.0956  0.7347  0.2792
  470TMC3    H1 7000   1.140   4.251   1.130  0.4822 -1.4579  0.4165
  470TMC3    H2 7001   1.222   4.501   1.462 -3.6375  0.7440  1.3912
  470TMC3    C7 7002   1.251   4.273   1.383 -0.6670  0.0817  0.3918
  470TMC3    C8 7003   1.133   4.719   1.356  0.8788 -0.5182  0.1397
  470TMC3    O1 7004   1.337   4.206   1.327 -0.0586 -0.2329 -0.1479
  470TMC3    O2 7005   1.172   4.715   1.471  0.4631 -0.2685  0.7587
  471MPD2     C 7006   2.038   0.725  16.668 -0.1698  0.0372 -0.0008
  471MPD2    C1 7007   1.964   0.613  16.719 -0.1565 -0.3583 -0.5382
  471MPD2    C2 7008   1.961   0.583  16.856  0.2038 -0.2904  0.3985
  471MPD2    C3 7009   2.040   0.654  16.948 -0.9883  0.5465 -0.0683
  471MPD2    C4 7010   2.108   0.762  16.901  0.1559 -0.2377 -0.7657
  471MPD2    C5 7011   2.105   0.801  16.768  0.0377 -0.4536 -0.2378
  471MPD2     H 7012   1.892   0.510  16.896 -0.7643 -1.0343 -2.6830
  471MPD2    H1 7013   2.174   0.815  16.969 -0.6594  0.7748 -0.7815
  471MPD2    H2 7014   2.047   0.765  16.568 -1.8045 -2.9194 -1.3321
  471MPD2    H3 7015   2.168   0.878  16.725 -0.8095  0.6914  0.5834
  471MPD2     N 7016   2.029   0.630  17.092  0.1541 -0.4765 -0.4920
  471MPD2    H5 7017   2.099   0.673  17.152 -0.8198 -0.5130  0.6645
  471MPD2    N1 7018   1.875   0.540  16.636 -0.0733 -0.3597  0.0175
  471MPD2    H7 7019   1.830   0.455  16.668 -0.5028 -0.6074 -1.2199
  472TMC3    C1 7020   1.787   0.468  16.434 -0.7548 -0.3614 -0.3682
  472TMC3    C2 7021   1.703   0.502  16.329  0.1934 -0.8254 -0.5840
  472TMC3    C3 7022   1.652   0.394  16.263 -0.4171  0.2838  0.0379
  472TMC3    C4 7023   1.823   0.338  16.464 -0.3275  0.7770  0.0866
  472TMC3    C5 7024   1.774   0.237  16.389 -0.3011  0.2064  0.0563
  472TMC3    C6 7025   1.689   0.259  16.287  0.3385 -0.1620  0.0641
  472TMC3     C 7026   1.841   0.578  16.509  0.3883 -0.0288  0.2442
  472TMC3     O 7027   1.871   0.678  16.444  0.1852  0.2646  0.0260
  472TMC3     H 7028   1.668   0.602  16.304 -1.7209 -1.4507 -0.4052
  472TMC3    H1 7029   1.896   0.310  16.539  0.5715 -1.1420 -1.5393
  472TMC3    H2 7030   1.658   0.184  16.215 -0.7023 -0.3033  0.6645
  472TMC3    C7 7031   1.773   0.105  16.445 -0.9079  0.7269 -0.2719
  472TMC3    C8 7032   1.506   0.411  16.239 -0.6033 -0.4528 -0.9969
  472TMC3    O1 7033   1.796   0.086  16.560  0.1253  0.6997  0.0216
  472TMC3    O2 7034   1.452   0.520  16.255 -0.4356  0.0782 -0.3764
  473MPD2     C 7035   2.046   2.710  14.141  0.5050  0.2091  0.2435
  473MPD2    C1 7036   2.010   2.818  14.070  0.1818 -0.7399 -0.5199
  473MPD2    C2 7037   2.007   2.939  14.139 -0.1261 -0.2521 -0.1669
  473MPD2    C3 7038   2.050   2.955  14.268  0.6518 -0.6094 -0.2095
  473MPD2    C4 7039   2.085   2.840  14.341 -0.0951 -0.0605 -0.1006
  473MPD2    C5 7040   2.073   2.717  14.278 -0.1823 -0.1722  0.1839
  473MPD2     H 7041   1.964   3.021  14.083 -3.5198 -2.4113 -0.7295
  473MPD2    H1 7042   2.123   2.849  14.443  1.2795  1.4426 -0.7497
  473MPD2    H2 7043   2.057   2.611  14.098  2.1080  0.2471  0.5624
  473MPD2    H3 7044   2.096   2.628  14.335  0.2740  0.2581  0.6685
  473MPD2     N 7045   2.058   3.079  14.335 -0.4013 -0.1419  0.0500
  473MPD2    H5 7046   2.103   3.084  14.426 -3.1601  0.3220  1.3904
  473MPD2    N1 7047   1.957   2.825  13.940 -0.1907 -0.8753  0.0595
  473MPD2    H7 7048   1.928   2.913  13.897  3.3256  0.5350  0.5402
  474TMC3    C1 7049   2.062   3.320  14.350  0.3623 -0.4691  0.1578
  474TMC3    C2 7050   2.026   3.426  14.274  0.4357  1.0723 -0.2014
  474TMC3    C3 7051   2.118   3.529  14.269 -0.6091 -0.2009  0.5322
  474TMC3    C4 7052   2.177   3.318  14.432 -0.1589 -0.1993 -0.7663
  474TMC3    C5 7053   2.265   3.426  14.431  0.3890  0.5802 -0.0150
  474TMC3    C6 7054   2.234   3.532  14.348 -0.3614 -0.0651  0.0542
  474TMC3     C 7055   2.038   3.202  14.277  0.6365 -0.4320 -0.1552
  474TMC3     O 7056   2.010   3.227  14.161  0.5873  0.3911  0.0158
  474TMC3     H 7057   1.934   3.437  14.217  0.1479  0.5692  0.1661
  474TMC3    H1 7058   2.225   3.228  14.469  0.3501 -0.0048 -0.9544
  474TMC3    H2 7059   2.303   3.615  14.338  1.4140 -1.6320 -0.6006
  474TMC3    C7 7060   2.392   3.430  14.508 -0.6240 -0.2881 -0.0023
  474TMC3    C8 7061   2.100   3.618  14.157  0.4070 -0.7785  0.0898
  474TMC3    O1 7062   2.481   3.498  14.462 -0.0423 -0.3602  0.4689
  474TMC3    O2 7063   2.036   3.589  14.058  0.5573 -0.8689 -0.1147
  475MPD2     C 7064   1.576   1.536  10.727  0.8440  0.8071  0.1420
  475MPD2    C1 7065   1.536   1.434  10.642  0.0839  0.3552  0.9172
  475MPD2    C2 7066   1.422   1.363  10.678 -0.6849 -0.2146 -0.6983
  475MPD2    C3 7067   1.340   1.406  10.786 -0.0115 -0.0195 -0.2198
  475MPD2    C4 7068   1.371   1.528  10.842 -0.0746  0.5193  0.2102
  475MPD2    C5 7069   1.494   1.583  10.824  0.8955  0.0862 -0.0637
  475MPD2     H 7070   1.381   1.272  10.634  0.7355 -1.7790  1.1954
  475MPD2    H1 7071   1.303   1.565  10.917 -3.1715 -2.0172 -1.3418
  475MPD2    H2 7072   1.663   1.594  10.700 -0.4509  2.5063 -0.3660
  475MPD2    H3 7073   1.527   1.664  10.887 -1.7919  0.6864  0.5744
  475MPD2     N 7074   1.223   1.335  10.816  0.6034  1.1780 -0.7209
  475MPD2    H5 7075   1.213   1.243  10.772 -0.7445  2.1207 -2.4008
  475MPD2    N1 7076   1.615   1.409  10.528  0.2726  0.0466 -0.5810
  475MPD2    H7 7077   1.674   1.490  10.509 -0.3399  0.8737  1.0673
  476TMC3    C1 7078   1.648   1.339  10.301 -1.1687 -0.6086 -0.2436
  476TMC3    C2 7079   1.571   1.340  10.189 -0.0939 -0.7775  0.5264
  476TMC3    C3 7080   1.620   1.402  10.078 -0.5734  1.0418 -0.2914
  476TMC3    C4 7081   1.767   1.409  10.311 -0.5931 -0.1419  0.2866
  476TMC3    C5 7082   1.809   1.471  10.194  0.0261  0.6151 -0.0451
  476TMC3    C6 7083   1.739   1.460  10.081  1.2405  0.3732 -0.3630
  476TMC3     C 7084   1.573   1.324  10.427  0.0770  0.4166  0.1370
  476TMC3     O 7085   1.493   1.233  10.423  0.4089  0.5452  0.1864
  476TMC3     H 7086   1.479   1.284  10.193 -0.1501 -0.6893  0.4663
  476TMC3    H1 7087   1.839   1.391  10.389  0.7551 -1.3727 -1.2452
  476TMC3    H2 7088   1.766   1.516   9.992 -2.1469  0.2974 -1.4562
  476TMC3    C7 7089   1.923   1.573  10.206 -0.5246  0.2332 -0.6158
  476TMC3    C8 7090   1.551   1.394   9.956  0.2642  0.5506 -0.9529
  476TMC3    O1 7091   1.967   1.628  10.105  0.4017  0.0322 -0.2452
  476TMC3    O2 7092   1.557   1.487   9.876  1.2014 -0.1530 -0.9726
  477MPD2     C 7093   3.190   2.526  12.172  0.0560 -0.7564 -0.0128
  477MPD2    C1 7094   3.099   2.436  12.132 -0.5191 -0.3962 -0.2629
  477MPD2    C2 7095   3.074   2.318  12.203  0.4428 -0.1662  0.0315
  477MPD2    C3 7096   3.160   2.286  12.309  0.0672 -0.2045 -0.8784
  477MPD2    C4 7097   3.256   2.372  12.348  0.4918 -0.0133  0.9810
  477MPD2    C5 7098   3.267   2.491  12.284 -0.2354  0.3633 -0.3350
  477MPD2     H 7099   2.993   2.252  12.174  1.2332 -0.9086 -0.4599
  477MPD2    H1 7100   3.316   2.364  12.438  1.6705 -4.6253 -0.2140
  477MPD2    H2 7101   3.218   2.616  12.119 -4.0528  0.3515 -0.2499
  477MPD2    H3 7102   3.350   2.556  12.310  0.8451 -0.5680 -1.5061
  477MPD2     N 7103   3.128   2.164  12.380  0.1778  0.9066 -0.3865
  477MPD2    H5 7104   3.042   2.111  12.362 -0.5249  1.7099  0.6148
  477MPD2    N1 7105   3.030   2.483  12.017  0.4410  0.0575  0.0782
  477MPD2    H7 7106   3.037   2.581  11.995 -0.8288 -0.2937 -1.8975
  478TMC3    C1 7107   2.877   2.480  11.844  0.2634  0.0135 -0.5298
  478TMC3    C2 7108   2.820   2.596  11.892  0.3243  0.2732  0.2736
  478TMC3    C3 7109   2.755   2.687  11.813 -0.5794 -0.7354  0.0210
  478TMC3    C4 7110   2.856   2.433  11.716 -0.2646 -0.0486  0.9072
  478TMC3    C5 7111   2.788   2.532  11.642  0.1205  0.0217 -0.2798
  478TMC3    C6 7112   2.732   2.654  11.683  0.4928 -0.0806 -0.3178
  478TMC3     C 7113   2.959   2.402  11.932  0.1040 -0.2211  0.1638
  478TMC3     O 7114   2.987   2.291  11.895 -0.8561 -0.4007 -0.0355
  478TMC3     H 7115   2.834   2.621  11.996  0.9820  1.2956 -0.0561
  478TMC3    H1 7116   2.888   2.334  11.686 -1.7213 -0.4842  0.7911
  478TMC3    H2 7117   2.678   2.723  11.619  2.3501  1.2502 -0.4648
  478TMC3    C7 7118   2.785   2.500  11.499  0.8362  0.2143 -0.6437
  478TMC3    C8 7119   2.662   2.765  11.895 -0.4735 -0.5231  0.2860
  478TMC3    O1 7120   2.866   2.411  11.464  0.3430  0.0753  0.2648
  478TMC3    O2 7121   2.631   2.716  12.004 -0.0042  0.1111 -0.6302
  479MPD2     C 7122   1.784   0.030  15.402  0.2146  0.4194  0.2134
  479MPD2    C1 7123   1.669   4.696  15.457  0.2128 -0.3671 -0.1902
  479MPD2    C2 7124   1.639   0.008  15.587 -0.2892  0.5315  0.2573
  479MPD2    C3 7125   1.704   0.107  15.656 -0.3593  0.2033 -0.6593
  479MPD2    C4 7126   1.810   0.169  15.589  0.0148 -0.6439  0.2946
  479MPD2    C5 7127   1.853   0.124  15.471  0.5121  0.0762 -0.1740
  479MPD2     H 7128   1.557   4.674  15.632  1.1357  0.2245  2.4897
  479MPD2    H1 7129   1.865   0.252  15.631  0.4440 -1.5012  1.4209
  479MPD2    H2 7130   1.824   0.008  15.303 -1.8317  2.2741 -1.0449
  479MPD2    H3 7131   1.933   0.178  15.421  3.1323 -3.6286  0.0119
  479MPD2     N 7132   1.681   0.153  15.789 -0.3842 -1.0379  0.2726
  479MPD2    H5 7133   1.757   0.206  15.828 -0.1216  1.3544 -3.4518
  479MPD2    N1 7134   1.597   4.605  15.381 -0.4978 -0.3905  0.1811
  479MPD2    H7 7135   1.623   4.604  15.282  3.9166  2.7685  1.2919
  480TMC3    C1 7136   1.294   4.609  15.869 -0.2042  0.4846  0.2960
  480TMC3    C2 7137   1.236   4.645  15.753  0.2945  0.3338 -1.0765
  480TMC3    C3 7138   1.282   0.035  15.686  0.4995 -0.8421 -0.1095
  480TMC3    C4 7139   1.402   4.675  15.917  0.1200 -0.3297  1.3077
  480TMC3    C5 7140   1.455   0.049  15.841 -0.4191 -0.4634  0.3976
  480TMC3    C6 7141   1.392   0.105  15.729  0.6738  0.2017 -0.0606
  480TMC3     C 7142   1.256   4.482  15.931  0.2029 -0.3942 -0.0650
  480TMC3     O 7143   1.349   4.421  15.984 -0.3246  0.3747 -0.2151
  480TMC3     H 7144   1.159   4.585  15.707  0.1346 -0.5076  0.2796
  480TMC3    H1 7145   1.449   4.639  16.007 -1.1588  0.3108  2.2318
  480TMC3    H2 7146   1.437   0.196  15.690  0.6792  1.0293  1.8869
  480TMC3    C7 7147   1.586   0.106  15.885  0.5432 -0.1882  0.0549
  480TMC3    C8 7148   1.253   0.042  15.543 -0.5942  0.1277  0.0411
  480TMC3    O1 7149   1.595   0.117  16.006 -0.0317  0.8499  0.1984
  480TMC3    O2 7150   1.167   4.693  15.492 -0.0178 -0.0491  0.0854
  481MPD2     C 7151   3.567   4.486  14.812 -0.0752 -1.0763 -0.8357
  481MPD2    C1 7152   3.456   4.430  14.758  0.0815 -0.5115 -0.0088
  481MPD2    C2 7153   3.352   4.399  14.843  0.1633  0.3722  0.0179
  481MPD2    C3 7154   3.372   4.406  14.977 -0.1974  0.3469 -0.0910
  481MPD2    C4 7155   3.482   4.454  15.036  0.2317  1.1274 -0.2542
  481MPD2    C5 7156   3.580   4.495  14.948 -0.0251  0.3986 -0.1764
  481MPD2     H 7157   3.256   4.374  14.799  0.8309 -0.7483 -0.8177
  481MPD2    H1 7158   3.506   4.464  15.141  1.2024 -0.6788 -0.2906
  481MPD2    H2 7159   3.658   4.510  14.759  0.2367 -2.4924 -0.9393
  481MPD2    H3 7160   3.680   4.511  14.987  0.0963 -0.2716 -0.2182
  481MPD2     N 7161   3.274   4.363  15.070  1.1553 -0.4412 -0.1777
  481MPD2    H5 7162   3.307   4.355  15.166  2.3673 -1.1004 -0.6511
  481MPD2    N1 7163   3.440   4.421  14.618 -0.4000 -0.5045 -0.4848
  481MPD2    H7 7164   3.356   4.379  14.580 -0.5349 -1.5812  0.9968
  482TMC3    C1 7165   3.494   4.411  14.388 -0.2424  0.6981 -0.4748
  482TMC3    C2 7166   3.571   4.329  14.305  0.1802 -0.1929  0.7506
  482TMC3    C3 7167   3.552   4.335  14.169  0.6397 -0.2889 -0.9021
  482TMC3    C4 7168   3.393   4.486  14.345 -0.8286  0.1640 -0.4463
  482TMC3    C5 7169   3.371   4.479  14.211  0.9966  0.0628  0.1570
  482TMC3    C6 7170   3.453   4.413  14.122  0.1624 -0.3334 -0.4006
  482TMC3     C 7171   3.538   4.438  14.517  0.5240 -0.3284 -0.0518
  482TMC3     O 7172   3.659   4.443  14.524  0.2082  0.0198  0.0526
  482TMC3     H 7173   3.628   4.253  14.357  2.9344 -0.4586 -2.6352
  482TMC3    H1 7174   3.328   4.537  14.415 -3.1645 -4.5282  0.7782
  482TMC3    H2 7175   3.430   4.400  14.016  0.2214 -0.1102 -0.4402
  482TMC3    C7 7176   3.252   4.551  14.172 -0.7808  0.0021 -0.2722
  482TMC3    C8 7177   3.607   4.231  14.092  0.8737  0.0652  0.2628
  482TMC3    O1 7178   3.207   4.632  14.251  0.4650  0.1968  0.0994
  482TMC3    O2 7179   3.546   4.193  13.990  0.0992 -0.0046 -0.5056
  483TMC3    C1 7180   0.760   3.178   1.408  0.8638 -0.1178  0.3838
  483TMC3    C2 7181   0.779   3.315   1.402 -0.0331 -0.5010  0.7074
  483TMC3    C3 7182   0.887   3.385   1.438  0.1159  0.3362  0.0366
  483TMC3    C4 7183   0.866   3.110   1.448  0.4473  0.8327  0.0568
  483TMC3    C5 7184   0.979   3.171   1.488 -0.6240 -0.0005 -0.4472
  483TMC3    C6 7185   0.989   3.312   1.488  0.1274 -0.4160  0.3518
  483TMC3     C 7186   0.711   3.132   1.286 -0.9738 -0.3160 -0.3787
  483TMC3     O 7187   0.764   3.038   1.227  0.2125  0.1900  0.2618
  483TMC3     H 7188   0.704   3.386   1.367  1.2174  0.6353  0.3341
  483TMC3    H1 7189   0.866   3.003   1.432  2.7432  0.9361 -0.5837
  483TMC3    H2 7190   1.083   3.354   1.522 -0.1556  0.0800  0.5305
  483TMC3    C7 7191   1.100   3.096   1.518 -0.2528 -0.0934  0.6098
  483TMC3    C8 7192   0.919   3.491   1.346 -0.2505  0.3178 -0.9986
  483TMC3    O1 7193   1.197   3.130   1.453  0.2441  0.4004 -0.2054
  483TMC3    O2 7194   0.884   3.478   1.227 -0.0377 -0.3152  0.2362
  484MPD2     C 7195   3.415   1.407  12.554 -0.0197 -0.0946  0.4256
  484MPD2    C1 7196   3.475   1.374  12.672 -0.4626 -0.5665 -0.8197
  484MPD2    C2 7197   3.610   1.390  12.693 -0.2330 -0.5682  0.7247
  484MPD2    C3 7198   3.691   1.433  12.584  0.1086 -0.0374 -0.0201
  484MPD2    C4 7199   3.631   1.470  12.465 -0.1789 -0.0356  0.0634
  484MPD2    C5 7200   3.494   1.459  12.459  0.3267  0.5770 -0.3339
  484MPD2     H 7201   3.649   1.358  12.788  2.1376  1.9407  0.6090
  484MPD2    H1 7202   3.680   1.521  12.383  0.4295  1.3814  1.3066
  484MPD2    H2 7203   3.319   1.361  12.532 -0.2353 -0.2830  1.7887
  484MPD2    H3 7204   3.451   1.477  12.361 -0.9462  0.4217  0.2003
  484MPD2     N 7205   3.829   1.446  12.585 -0.0693  0.0026 -0.2668
  484MPD2    H5 7206   3.870   1.477  12.497 -0.2323 -1.3628 -0.8239
  484MPD2    N1 7207   3.392   1.317  12.771  0.5728 -0.1932 -0.5992
  484MPD2    H7 7208   3.305   1.275  12.739 -0.1805  1.7668 -1.1183
  485TMC3    C1 7209   4.058   1.418  12.641  0.3880  0.0987 -0.6080
  485TMC3    C2 7210   4.147   1.437  12.740  0.1575 -0.3526  0.9811
  485TMC3    C3 7211   4.278   1.428  12.701  0.1249 -0.6036 -0.1629
  485TMC3    C4 7212   4.090   1.407  12.506 -0.7566 -0.2218  0.4277
  485TMC3    C5 7213   4.223   1.417  12.477  0.1197 -0.0272  0.0814
  485TMC3    C6 7214   4.322   1.422  12.574  0.5652  0.3681 -0.2456
  485TMC3     C 7215   3.920   1.421  12.684  0.0799  0.1722  0.1813
  485TMC3     O 7216   3.898   1.398  12.803 -0.5131 -0.1551 -0.9859
  485TMC3     H 7217   4.117   1.455  12.843 -3.3555  0.1445 -0.1337
  485TMC3    H1 7218   4.021   1.380  12.427  0.9201 -2.2279 -0.3650
  485TMC3    H2 7219   4.426   1.421  12.543  0.3708 -0.2610 -0.8657
  485TMC3    C7 7220   4.269   1.387  12.341 -0.5705  0.0757  0.0418
  485TMC3    C8 7221   4.369   1.398  12.808 -0.5339 -0.3623 -0.3816
  485TMC3    O1 7222   4.201   1.422  12.246  0.3762  0.4330 -0.0536
  485TMC3    O2 7223   4.384   1.486  12.893  0.0810  0.2026 -0.1452
  486MPD2     C 7224   1.061   4.718  12.755  0.3669  0.0478  1.0558
  486MPD2    C1 7225   1.089   0.049  12.629 -0.5212 -0.6152 -0.0951
  486MPD2    C2 7226   1.100   0.187  12.611  0.1062 -0.4790 -0.1637
  486MPD2    C3 7227   1.083   0.271  12.724 -0.2053 -0.1400  0.2764
  486MPD2    C4 7228   1.058   0.214  12.848  0.3827  0.1478 -0.4932
  486MPD2    C5 7229   1.037   0.077  12.864  0.6065 -0.2822 -0.1940
  486MPD2     H 7230   1.128   0.235  12.518 -1.3881 -0.5142 -0.6199
  486MPD2    H1 7231   1.039   0.271  12.938  1.1812 -2.2696  1.2292
  486MPD2    H2 7232   1.060   4.611  12.773 -1.5735  0.1203  1.3965
  486MPD2    H3 7233   1.009   0.038  12.961 -1.3835  2.4551  0.3163
  486MPD2     N 7234   1.094   0.413  12.700  0.2452  0.3059 -0.3270
  486MPD2    H5 7235   1.134   0.451  12.614  1.1371 -0.6490 -0.3332
  486MPD2    N1 7236   1.118   4.675  12.528 -0.5007  1.0540  0.0453
  486MPD2    H7 7237   1.099   4.578  12.549 -0.7217  1.0610 -0.1178
  487TMC3    C1 7238   1.241   4.577  12.360  0.0142  0.5363  0.3465
  487TMC3    C2 7239   1.172   4.472  12.416  0.6608 -0.3487  0.2574
  487TMC3    C3 7240   1.235   4.377  12.496 -0.0330 -0.1883 -0.6612
  487TMC3    C4 7241   1.374   4.593  12.387 -0.2819 -0.4948 -0.3122
  487TMC3    C5 7242   1.433   4.509  12.481 -0.5856 -0.4117 -0.1117
  487TMC3    C6 7243   1.368   4.396  12.521 -0.4515 -0.2674  0.6203
  487TMC3     C 7244   1.181   4.702  12.412  0.7895  0.1868  0.4583
  487TMC3     O 7245   1.231   0.088  12.383 -0.3216 -0.4069 -0.6464
  487TMC3     H 7246   1.067   4.452  12.399  0.7028  0.6815 -1.1394
  487TMC3    H1 7247   1.425   4.684  12.359 -1.6935  0.4738  0.2315
  487TMC3    H2 7248   1.416   4.342  12.602 -1.2332 -1.6036  0.1777
  487TMC3    C7 7249   1.550   4.558  12.553 -0.3143 -0.3402 -0.6386
  487TMC3    C8 7250   1.150   4.340  12.606  0.1031 -0.3286  0.1042
  487TMC3    O1 7251   1.563   4.680  12.554 -0.4207 -0.3468 -0.0403
  487TMC3    O2 7252   1.047   4.404  12.615 -0.4564  0.2784 -0.1437
  488MPD2     C 7253   1.349   1.429  16.876  0.0877 -0.8007 -0.4147
  488MPD2    C1 7254   1.386   1.538  16.952 -0.0666 -0.4279  0.0378
  488MPD2    C2 7255   1.369   1.544  17.087 -0.0591  0.2260  0.2916
  488MPD2    C3 7256   1.297   1.446  17.152  0.5341 -0.0590 -1.0502
  488MPD2    C4 7257   1.258   1.335  17.076  0.1493  0.2011  0.1756
  488MPD2    C5 7258   1.279   1.329  16.940  0.0530 -0.0781 -0.4526
  488MPD2     H 7259   1.411   1.626  17.144  1.4925  0.6066 -1.3830
  488MPD2    H1 7260   1.198   1.254  17.115  0.3018 -0.9793 -1.9939
  488MPD2    H2 7261   1.365   1.423  16.769  0.1799  0.4299 -0.4721
  488MPD2    H3 7262   1.233   1.251  16.881 -1.0551  0.2341  0.0058
  488MPD2     N 7263   1.292   1.463  17.293 -0.2143  0.0180  0.0104
  488MPD2    H5 7264   1.302   1.557  17.329 -0.8336 -0.0824  0.4379
  488MPD2    N1 7265   1.441   1.654  16.894  0.0309  0.4271  0.5851
  488MPD2    H7 7266   1.471   1.721  16.965  1.5075 -0.7969  1.1128
  489TMC3    C1 7267   1.238   1.419  17.523 -0.1610  0.0671 -0.7061
  489TMC3    C2 7268   1.311   1.529  17.557  0.4699 -0.3203  0.1264
  489TMC3    C3 7269   1.309   1.564  17.688  0.4905 -0.2845  0.4023
  489TMC3    C4 7270   1.166   1.339  17.615  0.2816 -0.5410  0.5417
  489TMC3    C5 7271   1.170   1.382   0.053 -0.6410 -0.2466  0.1708
  489TMC3    C6 7272   1.246   1.494   0.095  0.2511  1.1944 -0.3669
  489TMC3     C 7273   1.248   1.366  17.382  0.5000 -0.3353 -0.3451
  489TMC3     O 7274   1.204   1.256  17.358 -0.0006  0.1316  0.1098
  489TMC3     H 7275   1.377   1.584  17.491  1.7314 -0.7422  1.0294
  489TMC3    H1 7276   1.110   1.256  17.574  1.0064 -0.4391 -0.6666
  489TMC3    H2 7277   1.231   1.535   0.194 -0.0771  0.7489 -0.2337
  489TMC3    C7 7278   1.089   1.326   0.164  0.2480 -0.5324  0.0421
  489TMC3    C8 7279   1.367   1.694   0.023  0.0583  0.7436 -0.1033
  489TMC3    O1 7280   1.073   1.381   0.274 -0.2832 -0.3529 -0.0932
  489TMC3    O2 7281   1.477   1.721  17.658  0.1875  0.3458 -0.1797
  490MPD2     C 7282   1.857   1.728   0.679  0.6976  0.1974  0.5518
  490MPD2    C1 7283   1.912   1.653   0.583  0.0408 -0.1969  0.1324
  490MPD2    C2 7284   2.018   1.700   0.508 -0.8076 -0.1643 -0.0184
  490MPD2    C3 7285   2.067   1.826   0.529 -0.1595 -0.1605 -0.7111
  490MPD2    C4 7286   1.996   1.909   0.605  0.5789  0.4434  0.1197
  490MPD2    C5 7287   1.895   1.858   0.688 -0.2380  0.1708  0.2045
  490MPD2     H 7288   2.067   1.629   0.442 -0.9291 -0.5047  0.2604
  490MPD2    H1 7289   2.030   2.011   0.620  2.3895  0.0751 -1.4487
  490MPD2    H2 7290   1.782   1.683   0.743  1.9941  1.0137  2.6435
  490MPD2    H3 7291   1.853   1.918   0.768  1.1466  0.3944  0.7552
  490MPD2     N 7292   2.181   1.858   0.443  0.2304 -0.7247 -0.1544
  490MPD2    H5 7293   2.213   1.778   0.389 -1.2520 -0.1856 -1.8531
  490MPD2    N1 7294   1.878   1.518   0.557  0.8430  0.0227  0.2537
  490MPD2    H7 7295   1.910   1.482   0.468  1.4045 -0.8490  0.8064
  491TMC3    C1 7296   1.765   1.304   0.583  0.1831 -0.2750  0.3932
  491TMC3    C2 7297   1.698   1.212   0.665 -0.4591 -0.8366 -0.0151
  491TMC3    C3 7298   1.690   1.087   0.621  0.1444 -0.0968  0.8715
  491TMC3    C4 7299   1.784   1.281   0.452  0.2933  0.6513 -0.0890
  491TMC3    C5 7300   1.763   1.155   0.411  0.5999 -1.1353 -0.4187
  491TMC3    C6 7301   1.720   1.051   0.492 -0.4377  0.4391  0.2987
  491TMC3     C 7302   1.793   1.439   0.636  0.6299 -0.7640 -0.5828
  491TMC3     O 7303   1.754   1.465   0.751 -0.3275  0.0476 -0.0425
  491TMC3     H 7304   1.677   1.236   0.768 -1.9021 -0.6241 -0.3691
  491TMC3    H1 7305   1.842   1.334   0.377  1.5903  3.3872  2.7926
  491TMC3    H2 7306   1.677   0.963   0.446 -2.1133  1.0726  0.6499
  491TMC3    C7 7307   1.736   1.122   0.270 -0.3350  0.1518 -0.9024
  491TMC3    C8 7308   1.596   0.997   0.693 -0.6966 -0.0129  0.0889
  491TMC3    O1 7309   1.717   1.003   0.243  0.2868  0.4315 -0.2925
  491TMC3    O2 7310   1.507   1.049   0.766  0.4281 -0.1801  0.5412
  492MPD2     C 7311   2.372   1.314  11.669 -0.8722 -1.1272  0.2189
  492MPD2    C1 7312   2.361   1.184  11.640 -0.0227  0.7816  0.2248
  492MPD2    C2 7313   2.290   1.105  11.728 -1.0121  0.4834 -0.0191
  492MPD2    C3 7314   2.235   1.152  11.838 -0.1675 -0.1309  0.2055
  492MPD2    C4 7315   2.253   1.288  11.873 -0.1411  0.4994 -0.1861
  492MPD2    C5 7316   2.316   1.368  11.781 -0.1833 -0.1856  0.5154
  492MPD2     H 7317   2.264   1.005  11.695 -2.8861  0.2344  2.2156
  492MPD2    H1 7318   2.218   1.330  11.966 -0.1800  1.2661 -0.5521
  492MPD2    H2 7319   2.413   1.382  11.595  4.4832 -3.2922  1.1839
  492MPD2    H3 7320   2.337   1.472  11.805  1.2257 -0.9911  2.8123
  492MPD2     N 7321   2.151   1.069  11.915 -0.3267  0.0968  0.3456
  492MPD2    H5 7322   2.102   1.119  11.988 -2.4072  0.0582 -1.0251
  492MPD2    N1 7323   2.406   1.146  11.509  0.6689  0.6797 -0.1570
  492MPD2    H7 7324   2.440   1.220  11.448 -0.6839  0.4021 -1.2740
  493TMC3    C1 7325   2.424   1.009  11.318  0.7286 -0.4030 -0.0597
  493TMC3    C2 7326   2.516   1.085  11.251  0.1316 -0.2861  0.4463
  493TMC3    C3 7327   2.550   1.036  11.127  0.1911 -0.3386 -0.9666
  493TMC3    C4 7328   2.357   0.906  11.256 -0.0927  0.4378  0.1540
  493TMC3    C5 7329   2.402   0.865  11.138  0.3242  1.0368  0.0768
  493TMC3    C6 7330   2.496   0.929  11.061 -0.5114  0.0137 -0.3173
  493TMC3     C 7331   2.394   1.018  11.458 -0.5999 -0.1466 -0.8365
  493TMC3     O 7332   2.359   0.920  11.519  0.0690  0.1880  0.2304
  493TMC3     H 7333   2.551   1.178  11.296 -1.0246 -0.3661  1.5217
  493TMC3    H1 7334   2.277   0.858  11.311 -0.9179 -0.0856 -1.5030
  493TMC3    H2 7335   2.526   0.894  10.962  0.1195  1.7836 -0.7541
  493TMC3    C7 7336   2.316   0.790  11.055  0.1758  1.0952 -0.6562
  493TMC3    C8 7337   2.630   1.127  11.048  0.6945 -0.4541 -0.1898
  493TMC3    O1 7338   2.337   0.794  10.932  0.5588  0.3067  0.4886
  493TMC3    O2 7339   2.694   1.208  11.111  0.2317 -0.3754  0.2041
  494TMC3    C1 7340   3.053   3.269   0.498  0.3213  0.3913 -0.0452
  494TMC3    C2 7341   3.147   3.178   0.499  0.5764  0.3593  0.8069
  494TMC3    C3 7342   3.164   3.091   0.395 -0.1007 -0.3040 -0.1532
  494TMC3    C4 7343   2.966   3.280   0.396 -0.4019 -0.1053 -0.4673
  494TMC3    C5 7344   2.983   3.192   0.290 -0.1604 -0.9543  0.7663
  494TMC3    C6 7345   3.084   3.099   0.289 -0.3771 -0.3540  0.1486
  494TMC3     C 7346   3.040   3.351   0.616 -0.0575 -0.1437 -0.1626
  494TMC3     O 7347   3.101   3.297   0.707 -0.0350  0.0033  0.2094
  494TMC3     H 7348   3.218   3.174   0.581  1.2319 -1.3035  0.1460
  494TMC3    H1 7349   2.875   3.338   0.412  0.0010  0.1451  0.8942
  494TMC3    H2 7350   3.085   3.030   0.205  1.6017 -0.8842  0.6280
  494TMC3    C7 7351   2.922   3.211   0.161 -0.1398 -0.4707 -0.7438
  494TMC3    C8 7352   3.234   2.967   0.430 -0.3765 -0.3292 -0.3698
  494TMC3    O1 7353   2.918   3.111   0.088  0.2392  0.3538 -0.1822
  494TMC3    O2 7354   3.254   2.934   0.546 -0.0277  0.2480  0.3316
  495TMC3    C1 7355   1.870   0.459  14.881 -0.3941 -0.1577  0.8421
  495TMC3    C2 7356   1.807   0.516  14.773 -0.3212  0.0851  0.1672
  495TMC3    C3 7357   1.681   0.559  14.787  0.0224  0.4411  0.3512
  495TMC3    C4 7358   1.807   0.446  15.005 -0.0715 -0.2488  0.3515
  495TMC3    C5 7359   1.673   0.477  15.011  0.6058  0.6393  0.5571
  495TMC3    C6 7360   1.610   0.529  14.905  0.7523 -0.7062 -0.1550
  495TMC3     C 7361   1.965   0.360  14.845 -0.3336 -0.6076  0.3388
  495TMC3     O 7362   2.034   0.316  14.936  0.5925 -0.7499 -0.4737
  495TMC3     H 7363   1.871   0.543  14.689  1.5517 -0.9887  1.2583
  495TMC3    H1 7364   1.859   0.395  15.085  0.2840 -0.6150 -0.1189
  495TMC3    H2 7365   1.503   0.546  14.905  0.6492 -1.3057  0.5624
  495TMC3    C7 7366   1.612   0.414  15.126  0.3961 -0.4298  0.2506
  495TMC3    C8 7367   1.600   0.538  14.667 -0.4257 -0.2903  0.5534
  495TMC3    O1 7368   1.686   0.371  15.213 -0.0660  0.0996 -0.1054
  495TMC3    O2 7369   1.480   0.524  14.680  0.3294 -0.2489  0.2532
  496MPD2     C 7370   3.912   0.413  15.963  0.6267  0.1640  0.4127
  496MPD2    C1 7371   3.810   0.337  15.909  0.2086  0.3401  0.9694
  496MPD2    C2 7372   3.680   0.357  15.961 -0.0494  0.2766 -0.0439
  496MPD2    C3 7373   3.657   0.427  16.079  0.5541 -0.0637 -0.3650
  496MPD2    C4 7374   3.765   0.491  16.126 -0.1373 -0.2280  0.0927
  496MPD2    C5 7375   3.890   0.480  16.079 -0.0647 -0.2791  0.0297
  496MPD2     H 7376   3.594   0.305  15.919  0.5899 -3.4263  3.2820
  496MPD2    H1 7377   3.745   0.558  16.208  0.9106 -0.4262  0.4972
  496MPD2    H2 7378   4.012   0.411  15.920  0.5945 -1.7804  0.4519
  496MPD2    H3 7379   3.972   0.533  16.125  0.5505 -0.7458 -0.5212
  496MPD2     N 7380   3.538   0.435  16.148 -0.5989 -0.2165  0.6951
  496MPD2    H5 7381   3.533   0.499  16.226 -0.9380  0.0023  0.4945
  496MPD2    N1 7382   3.842   0.256  15.797  0.0850  0.7288 -0.1215
  496MPD2    H7 7383   3.941   0.251  15.772 -0.2835  0.5006 -1.5177
  497TMC3    C1 7384   3.306   0.418  16.192  0.1516 -0.5185 -0.6740
  497TMC3    C2 7385   3.182   0.388  16.144  0.0125  0.3618 -0.2259
  497TMC3    C3 7386   3.083   0.471  16.198 -0.5665 -0.8468 -0.4964
  497TMC3    C4 7387   3.326   0.505  16.300  0.6387 -0.4306  0.4599
  497TMC3    C5 7388   3.222   0.577  16.349  0.1205  0.5418 -0.2465
  497TMC3    C6 7389   3.100   0.566  16.291 -0.2914  0.0535 -0.8411
  497TMC3     C 7390   3.416   0.380  16.108 -0.5212  1.0081  0.3203
  497TMC3     O 7391   3.392   0.310  16.009 -0.3958 -0.3934  0.1984
  497TMC3     H 7392   3.172   0.315  16.065  0.8099 -0.0178  0.0240
  497TMC3    H1 7393   3.418   0.504  16.357  0.4414 -2.4046  0.7365
  497TMC3    H2 7394   3.008   0.612  16.326  0.3754 -0.4662  1.6099
  497TMC3    C7 7395   3.221   0.651  16.477 -0.2003 -0.2076  0.1028
  497TMC3    C8 7396   2.952   0.472  16.127  0.4369 -0.1322  0.4988
  497TMC3    O1 7397   3.111   0.674  16.524 -0.3391 -0.0715  0.1548
  497TMC3    O2 7398   2.877   0.564  16.146 -0.4853  0.3079 -0.0094
  498MPD2     C 7399   0.101   0.166   9.317  0.3018  0.2600 -0.1110
  498MPD2    C1 7400   0.158   0.181   9.442  0.2617  0.2020 -0.2836
  498MPD2    C2 7401   0.084   0.150   9.551 -0.1105  0.5512  0.7515
  498MPD2    C3 7402   4.668   0.117   9.543 -0.2744 -0.4081  0.3779
  498MPD2    C4 7403   4.612   0.100   9.418 -0.8915 -0.6170  0.4361
  498MPD2    C5 7404   4.691   0.120   9.306 -0.2489  0.2374 -0.0212
  498MPD2     H 7405   0.131   0.160   9.648  0.6888 -0.5654  0.4768
  498MPD2    H1 7406   4.506   0.094   9.394 -0.3723 -1.0468 -1.7881
  498MPD2    H2 7407   0.153   0.191   9.225 -0.0098 -0.1071 -0.3908
  498MPD2    H3 7408   4.642   0.111   9.210 -0.8559 -1.0621  0.4193
  498MPD2     N 7409   4.592   0.102   9.659  0.0351  0.3212 -0.1357
  498MPD2    H5 7410   4.645   0.103   9.746 -2.4850 -1.7116  1.4199
  498MPD2    N1 7411   0.285   0.237   9.465 -0.6467  0.3434  0.0078
  498MPD2    H7 7412   0.313   0.266   9.558 -0.4362 -0.7133  0.2816
  499TMC3    C1 7413   0.498   0.335   9.430 -0.3061 -0.0738  0.1020
  499TMC3    C2 7414   0.548   0.261   9.530 -0.1396  0.1561 -0.7851
  499TMC3    C3 7415   0.676   0.288   9.573  0.0458  0.8634  0.1685
  499TMC3    C4 7416   0.568   0.437   9.371 -0.3294  0.1215 -0.0520
  499TMC3    C5 7417   0.694   0.468   9.420 -0.2361 -0.3972 -0.2752
  499TMC3    C6 7418   0.745   0.395   9.524 -0.7980 -0.0185 -0.1855
  499TMC3     C 7419   0.368   0.294   9.371 -0.3934  0.6951 -0.2818
  499TMC3     O 7420   0.350   0.304   9.254 -0.5680  0.0813  1.0644
  499TMC3     H 7421   0.492   0.172   9.554 -0.0920  0.6534  1.1599
  499TMC3    H1 7422   0.533   0.481   9.278 -0.5460 -1.9426 -0.9534
  499TMC3    H2 7423   0.841   0.423   9.564 -1.2641  0.8376  0.3258
  499TMC3    C7 7424   0.735   0.603   9.422 -0.2540 -0.3197  0.0363
  499TMC3    C8 7425   0.743   0.202   9.664 -0.1040  0.5278  0.2286
  499TMC3    O1 7426   0.848   0.643   9.441 -0.4630  0.7348  0.2350
  499TMC3    O2 7427   0.859   0.226   9.688  0.8524 -0.2791  0.0739
  500MPD2     C 7428   2.128   2.145   9.880  0.6118 -0.2360 -0.2287
  500MPD2    C1 7429   2.116   2.240   9.982  0.6968 -0.5617 -0.8910
  500MPD2    C2 7430   2.004   2.322   9.977  0.4093 -0.5598 -0.3520
  500MPD2    C3 7431   1.917   2.314   9.867  0.6690  0.2392 -0.1247
  500MPD2    C4 7432   1.939   2.219   9.769  0.3887 -0.3236  0.0909
  500MPD2    C5 7433   2.042   2.141   9.774 -0.2771 -0.1250  0.1001
  500MPD2     H 7434   1.995   2.404  10.047  0.2568  1.2397 -2.4861
  500MPD2    H1 7435   1.865   2.210   9.690 -1.4629  1.5006  1.5956
  500MPD2    H2 7436   2.225   2.097   9.873 -0.2598 -2.5498  3.7389
  500MPD2    H3 7437   2.059   2.069   9.695 -0.8137 -0.9493  0.7342
  500MPD2     N 7438   1.791   2.386   9.854 -0.0002  0.0413 -0.4625
  500MPD2    H5 7439   1.738   2.357   9.772 -1.2192  0.1495  0.3023
  500MPD2    N1 7440   2.209   2.258  10.083 -0.2339 -0.0275 -0.2247
  500MPD2    H7 7441   2.199   2.334  10.150  0.9046  1.6577 -1.9682
  501TMC3    C1 7442   2.411   2.222  10.212 -0.4281  1.3226 -0.2910
  501TMC3    C2 7443   2.434   2.351  10.222  0.0364 -0.3336 -0.3849
  501TMC3    C3 7444   2.528   2.395  10.305  0.1131 -0.2449 -0.3008
  501TMC3    C4 7445   2.479   2.135  10.290  0.3527 -0.0860  0.6844
  501TMC3    C5 7446   2.572   2.175  10.377 -0.0169  0.1990 -0.3595
  501TMC3    C6 7447   2.604   2.313  10.385  0.7833  0.2892 -0.4522
  501TMC3     C 7448   2.305   2.172  10.119  0.3820 -0.0485 -0.2928
  501TMC3     O 7449   2.319   2.053  10.088  0.1424  0.1153  0.1922
  501TMC3     H 7450   2.389   2.419  10.150  0.1938 -1.1901 -1.2898
  501TMC3    H1 7451   2.438   2.036  10.301 -0.1386  0.1066  0.5921
  501TMC3    H2 7452   2.671   2.362  10.454 -1.9436  1.6475  1.2430
  501TMC3    C7 7453   2.603   2.096  10.499 -1.0409  0.1018  0.2575
  501TMC3    C8 7454   2.504   2.529  10.361  0.3191 -0.0514  0.3306
  501TMC3    O1 7455   2.516   2.020  10.540 -0.2055  0.5241 -0.7675
  501TMC3    O2 7456   2.499   2.537  10.484  0.3322  0.2478  0.1142
  502TMC3    C1 7457   1.215   0.951  15.446 -0.0674 -1.0710 -0.0161
  502TMC3    C2 7458   1.228   1.045  15.349  0.2090  0.4751 -0.2420
  502TMC3    C3 7459   1.113   1.067  15.277 -0.1849 -0.5783  0.4710
  502TMC3    C4 7460   1.099   0.868  15.455 -0.8566  0.1618 -0.3652
  502TMC3    C5 7461   0.988   0.906  15.385 -0.1135  0.3316  0.7912
  502TMC3    C6 7462   0.990   1.012  15.295 -0.3834  0.0260 -0.7276
  502TMC3     C 7463   1.322   0.927  15.538  0.1409  0.1574  0.2545
  502TMC3     O 7464   1.435   0.956  15.491 -0.1750  0.1520 -0.1541
  502TMC3     H 7465   1.317   1.104  15.328  0.1916  0.1789 -1.1475
  502TMC3    H1 7466   1.087   0.798  15.537 -1.1940 -0.4297 -0.9218
  502TMC3    H2 7467   0.895   1.037  15.249 -0.8422  0.2368  0.3363
  502TMC3    C7 7468   0.864   0.862  15.449  0.7626 -0.4401 -0.3846
  502TMC3    C8 7469   1.127   1.178  15.181  0.0824  0.2911  0.3459
  502TMC3    O1 7470   0.853   0.747  15.490  0.2558  0.0862  0.4593
  502TMC3    O2 7471   1.208   1.264  15.195  0.4161 -0.8629  0.1514
  503MPD2     C 7472   2.946   1.732  17.077 -0.1974  0.4128 -0.3020
  503MPD2    C1 7473   3.008   1.816  17.165 -0.3462 -0.1376  0.7231
  503MPD2    C2 7474   3.097   1.753  17.252  0.6382 -0.6307  0.3714
  503MPD2    C3 7475   3.140   1.623  17.249 -0.2733  0.0793 -0.1415
  503MPD2    C4 7476   3.068   1.534  17.167  0.0767  0.5929  0.4650
  503MPD2    C5 7477   2.975   1.591  17.081  0.0168  0.3409 -0.4449
  503MPD2     H 7478   3.148   1.808  17.329 -0.5094  2.3081 -0.9706
  503MPD2    H1 7479   3.071   1.426  17.167  1.7668  0.6345 -0.5756
  503MPD2    H2 7480   2.873   1.764  17.003  0.2597 -0.7433 -1.2623
  503MPD2    H3 7481   2.921   1.519  17.020 -0.1532  1.7836 -2.0085
  503MPD2     N 7482   3.240   1.581  17.341  0.1398  0.3822  0.2401
  503MPD2    H5 7483   3.259   1.644  17.418 -3.6238  1.1235  0.5957
  503MPD2    N1 7484   2.989   1.958  17.177  0.7505  0.0557  0.0117
  503MPD2    H7 7485   3.036   2.002  17.255  2.4244  2.4976 -2.3833
  504TMC3    C1 7486   3.374   1.434  17.454  0.8123  0.8650 -0.9682
  504TMC3    C2 7487   3.311   1.475  17.573 -0.1482 -0.1631 -0.2869
  504TMC3    C3 7488   3.358   1.417   0.000  0.0977 -0.3418 -0.0239
  504TMC3    C4 7489   3.474   1.339  17.455  0.3300 -0.1688 -0.0460
  504TMC3    C5 7490   3.528   1.299  17.573  0.2489  0.7775 -0.3666
  504TMC3    C6 7491   3.475   1.338   0.001 -0.2656  0.3510 -0.6110
  504TMC3     C 7492   3.314   1.469  17.332  0.3243  0.5430  0.3562
  504TMC3     O 7493   3.340   1.403  17.233 -0.0205 -0.1233  0.1722
  504TMC3     H 7494   3.229   1.546  17.579 -0.0004 -0.2816  3.1978
  504TMC3    H1 7495   3.520   1.307  17.362  1.3806 -0.4190  0.5683
  504TMC3    H2 7496   3.517   1.291   0.090 -0.2694 -0.3660 -0.9874
  504TMC3    C7 7497   3.664   1.270  17.567 -0.2548 -0.5084 -0.1373
  504TMC3    C8 7498   3.304   1.468   0.127  0.2644 -0.2416 -0.0296
  504TMC3    O1 7499   3.708   1.225  17.463 -0.4117  0.4551  0.1493
  504TMC3    O2 7500   3.275   1.589   0.129 -0.3693 -0.0746  0.3108
  505MPD2     C 7501   4.306   0.980  10.284 -0.0330  0.1599  0.2052
  505MPD2    C1 7502   4.296   0.942  10.413 -0.6231  0.6408  0.4208
  505MPD2    C2 7503   4.407   0.892  10.478 -0.4000  0.5074  0.6011
  505MPD2    C3 7504   4.531   0.896  10.411 -0.3403  0.1222 -0.3554
  505MPD2    C4 7505   4.545   0.946  10.283  0.3559  0.6245 -0.3756
  505MPD2    C5 7506   4.427   0.972  10.218 -0.4739  0.9039  0.3193
  505MPD2     H 7507   4.411   0.845  10.575 -0.1132 -1.1084 -0.1933
  505MPD2    H1 7508   4.638   0.951  10.227 -0.1562  0.5332 -1.2337
  505MPD2    H2 7509   4.214   0.998  10.230 -0.0420  0.7621  0.4221
  505MPD2    H3 7510   4.440   1.026  10.125 -0.0099  1.6874  0.8373
  505MPD2     N 7511   4.636   0.838  10.480  0.4484  0.4355  0.0501
  505MPD2    H5 7512   4.611   0.799  10.571  1.2124  1.5216  0.7279
  505MPD2    N1 7513   4.167   0.928  10.475 -0.2393 -0.7043  0.1809
  505MPD2    H7 7514   4.086   0.957  10.421 -0.1549  0.0901  0.4778
  506TMC3    C1 7515   4.009   0.867  10.630  0.3583 -0.3614  0.4838
  506TMC3    C2 7516   3.939   0.792  10.533  0.8240  0.0745 -0.1897
  506TMC3    C3 7517   3.853   0.700  10.579  0.3616 -0.0328  0.4999
  506TMC3    C4 7518   3.999   0.835  10.762 -0.3718  0.2410 -0.1338
  506TMC3    C5 7519   3.907   0.742  10.804 -0.4035 -0.5099  0.5781
  506TMC3    C6 7520   3.822   0.685  10.713 -1.4302  0.5694 -0.1349
  506TMC3     C 7521   4.147   0.894  10.602 -0.0918 -0.0309 -0.2688
  506TMC3     O 7522   4.218   0.890  10.704  0.2500 -0.3723  0.1023
  506TMC3     H 7523   3.969   0.776  10.431  0.2540 -0.0206 -0.3456
  506TMC3    H1 7524   4.042   0.885  10.848  1.3434 -0.5455 -0.5456
  506TMC3    H2 7525   3.757   0.607  10.751 -1.4894  1.3249  1.2978
  506TMC3    C7 7526   3.963   0.647  10.903 -0.2877 -0.3353  0.1692
  506TMC3    C8 7527   3.820   0.587  10.501 -0.2022 -0.0472 -0.5084
  506TMC3    O1 7528   3.902   0.549  10.936 -0.5217  0.0141  0.3400
  506TMC3    O2 7529   3.711   0.535  10.514 -0.4891  0.4565  0.2565
  507TMC3    C1 7530   4.254   1.211  14.776  0.6734  0.4489  0.6648
  507TMC3    C2 7531   4.239   1.165  14.648 -0.2957 -0.4246  0.0113
  507TMC3    C3 7532   4.281   1.245  14.545  0.0252  0.4609 -0.4173
  507TMC3    C4 7533   4.324   1.326  14.797  0.2541 -0.3010 -0.4573
  507TMC3    C5 7534   4.366   1.402  14.690  0.6508  0.1697 -0.0291
  507TMC3    C6 7535   4.348   1.358  14.563 -0.6429  0.2589 -0.0314
  507TMC3     C 7536   4.124   1.232  14.836  0.5750 -0.1708 -0.1483
  507TMC3     O 7537   4.117   1.311  14.925 -0.1236 -0.0862  0.2063
  507TMC3     H 7538   4.178   1.077  14.628  2.4825 -2.2967 -0.2882
  507TMC3    H1 7539   4.335   1.355  14.900  1.0879 -1.3386 -0.2450
  507TMC3    H2 7540   4.375   1.421  14.478  1.0410  0.4482  0.6344
  507TMC3    C7 7541   4.306   1.535  14.696  0.1686 -0.4089  1.0775
  507TMC3    C8 7542   4.173   1.252  14.447  0.2938 -0.4819  0.4935
  507TMC3    O1 7543   4.230   1.574  14.606 -0.0353  0.2212  0.4914
  507TMC3    O2 7544   4.114   1.149  14.419 -0.3411 -0.0348  0.1358
  508MPD2     C 7545   0.039   3.389  16.219  0.2025 -0.5955  0.0845
  508MPD2    C1 7546   0.142   3.474  16.224  0.2459 -0.8245 -0.3662
  508MPD2    C2 7547   0.158   3.569  16.124  0.6405 -0.2594  0.6269
  508MPD2    C3 7548   0.066   3.585  16.026  0.7378 -0.0197  0.0067
  508MPD2    C4 7549   4.681   3.493  16.021 -0.1485  0.5349 -0.2876
  508MPD2    C5 7550   4.672   3.398  16.114  0.6278 -0.1478 -0.2422
  508MPD2     H 7551   0.251   3.625  16.123 -0.3663  1.4274  2.8088
  508MPD2    H1 7552   4.617   3.486  15.933 -0.4449  0.8195 -0.0970
  508MPD2    H2 7553   0.043   3.307  16.289 -0.8013 -0.2161  0.5783
  508MPD2    H3 7554   4.601   3.318  16.091  1.1026  0.2356 -3.0530
  508MPD2     N 7555   0.086   3.686  15.930 -0.5505 -0.4319  0.2852
  508MPD2    H5 7556   0.157   3.754  15.954 -1.5435  0.2849  1.1847
  508MPD2    N1 7557   0.224   3.451  16.334  0.0687 -0.3358  0.3497
  508MPD2    H7 7558   0.184   3.384  16.400 -3.0406  1.3172  0.1413
  509TMC3    C1 7559   0.000   4.008  15.611 -0.4291 -0.9441  0.2546
  509TMC3    C2 7560   0.135   4.047  15.609  0.7615 -0.2443  0.0594
  509TMC3    C3 7561   0.225   3.963  15.665 -0.3504 -0.4797 -0.1386
  509TMC3    C4 7562   4.679   3.906  15.694  0.4524  0.4642 -0.3747
  509TMC3    C5 7563   0.047   3.838  15.764 -0.1170 -0.2356  0.3760
  509TMC3    C6 7564   0.182   3.852  15.733 -0.1512 -0.5336  0.3161
  509TMC3     C 7565   4.623   4.069  15.523  0.0540 -0.4779  0.7228
  509TMC3     O 7566   4.506   4.029  15.522  0.3065 -0.2233 -0.6522
  509TMC3     H 7567   0.166   4.139  15.562  0.9416  0.5145  1.6690
  509TMC3    H1 7568   4.573   3.891  15.709  0.4030  0.3166 -0.8663
  509TMC3    H2 7569   0.262   3.787  15.767 -0.0438 -2.1117 -2.9792
  509TMC3    C7 7570   0.001   3.724  15.835  0.3789 -0.0536 -0.8072
  509TMC3    C8 7571   0.362   3.990  15.659  0.1275  0.8829  0.0216
  509TMC3    O1 7572   4.603   3.694  15.818  0.1052 -0.2561 -0.1036
  509TMC3    O2 7573   0.424   3.888  15.635  0.4692 -0.0938 -0.0667
  510MPD2     C 7574   2.939   0.912  14.943  0.1031 -0.0483  0.2303
  510MPD2    C1 7575   2.996   0.786  14.989 -0.0536  0.3527 -0.0331
  510MPD2    C2 7576   3.121   0.753  14.940 -0.2954  0.4337 -0.5933
  510MPD2    C3 7577   3.192   0.838  14.860 -0.1719  0.2837 -0.4971
  510MPD2    C4 7578   3.137   0.961  14.824 -0.3436  0.7131 -0.5100
  510MPD2    C5 7579   3.009   0.991  14.858  0.2460 -0.1803 -0.1140
  510MPD2     H 7580   3.167   0.660  14.971  0.9430  0.8457 -1.2136
  510MPD2    H1 7581   3.182   1.042  14.769 -1.4675  0.5143 -1.7381
  510MPD2    H2 7582   2.831   0.921  14.944 -0.0104 -1.2948 -1.0372
  510MPD2    H3 7583   2.968   1.074  14.801 -0.2212 -0.3450 -0.0145
  510MPD2     N 7584   3.326   0.806  14.812  0.2132  0.2828  0.0088
  510MPD2    H5 7585   3.352   0.712  14.842 -0.4671 -0.1538 -0.7792
  510MPD2    N1 7586   2.912   0.696  15.059 -0.1174 -0.2201 -0.5210
  510MPD2    H7 7587   2.951   0.602  15.056 -0.5667 -0.3949 -0.7837
  511TMC3    C1 7588   2.760   0.602  15.204  0.3914  0.5750 -0.6122
  511TMC3    C2 7589   2.701   0.627  15.314  0.0112  0.2696  0.7439
  511TMC3    C3 7590   2.649   0.518  15.384 -0.1032  0.2430 -1.3596
  511TMC3    C4 7591   2.763   0.475  15.147 -0.0593  0.1063  0.0453
  511TMC3    C5 7592   2.707   0.370  15.219  1.0488  0.7732  0.1569
  511TMC3    C6 7593   2.648   0.389  15.334  0.8067 -0.1568  0.5818
  511TMC3     C 7594   2.804   0.725  15.129 -0.6165  0.1239 -1.0482
  511TMC3     O 7595   2.754   0.830  15.157 -0.0602  0.3782 -0.6067
  511TMC3     H 7596   2.709   0.729  15.351 -0.6121  1.7815 -3.3751
  511TMC3    H1 7597   2.809   0.456  15.051 -0.4970 -1.4414  0.1363
  511TMC3    H2 7598   2.621   0.304  15.396 -0.5633 -0.3199 -0.2387
  511TMC3    C7 7599   2.742   0.244  15.157  0.2014  0.1601 -0.0321
  511TMC3    C8 7600   2.585   0.555  15.506  0.4515 -0.3443 -0.0739
  511TMC3    O1 7601   2.828   0.242  15.069 -0.0214  0.5328  0.6681
  511TMC3    O2 7602   2.604   0.670  15.541  0.7609  0.3149  0.1105
  512TMC3    C1 7603   2.421   4.615  12.894 -0.4815  0.0807 -0.4482
  512TMC3    C2 7604   2.479   4.579  13.015  0.0450  0.1551 -0.3413
  512TMC3    C3 7605   2.471   4.448  13.054 -0.0033 -0.4821  0.4025
  512TMC3    C4 7606   2.367   4.526  12.812  0.2905 -0.3744 -0.1234
  512TMC3    C5 7607   2.356   4.397  12.852 -0.5636 -0.3909 -0.2937
  512TMC3    C6 7608   2.411   4.352  12.969 -0.4130  0.0107  1.0398
  512TMC3     C 7609   2.381   0.026  12.872 -0.1992  0.1920  0.3483
  512TMC3     O 7610   2.333   0.050  12.764 -0.8593  0.3201  0.1167
  512TMC3     H 7611   2.516   4.661  13.075 -1.5336  1.1305 -0.6846
  512TMC3    H1 7612   2.302   4.549  12.728  2.9415  0.2333 -1.9986
  512TMC3    H2 7613   2.411   4.255  13.017 -1.9986 -0.7281 -0.4179
  512TMC3    C7 7614   2.320   4.296  12.750  0.4958 -0.0146 -0.4259
  512TMC3    C8 7615   2.519   4.407  13.182  0.6582  0.1665 -0.4429
  512TMC3    O1 7616   2.275   4.348  12.650 -0.6283 -0.4428 -0.0003
  512TMC3    O2 7617   2.511   4.288  13.209 -0.0537 -0.5918  0.2951
  513MPD2     C 7618   4.060   0.301  13.524  0.0141 -0.0597  0.3041
  513MPD2    C1 7619   4.078   0.369  13.413 -0.3553 -0.2419 -0.5155
  513MPD2    C2 7620   4.123   0.501  13.419  0.0919 -0.4486  0.1104
  513MPD2    C3 7621   4.158   0.559  13.539  0.0830  0.0513 -0.4776
  513MPD2    C4 7622   4.126   0.494  13.655  0.1775 -0.3351  0.8358
  513MPD2    C5 7623   4.085   0.366  13.642 -0.0908  0.8084 -0.4151
  513MPD2     H 7624   4.154   0.552  13.329 -0.0872  0.0569  0.3394
  513MPD2    H1 7625   4.159   0.518  13.756  1.9691  0.8888 -0.0278
  513MPD2    H2 7626   4.051   0.193  13.526  0.1544 -0.0831 -0.2986
  513MPD2    H3 7627   4.068   0.304  13.729 -2.1056  0.8355 -0.7878
  513MPD2     N 7628   4.227   0.686  13.540  0.8737 -0.4439  0.3571
  513MPD2    H5 7629   4.244   0.719  13.446 -2.1073  0.8851  0.2821
  513MPD2    N1 7630   4.072   0.297  13.286 -0.1224  1.0002 -0.9846
  513MPD2    H7 7631   4.061   0.197  13.296 -0.9649  1.3251  1.2225
  514TMC3    C1 7632   4.080   0.262  13.055 -0.0241 -0.1171  0.1446
  514TMC3    C2 7633   4.040   0.296  12.930  1.1478 -0.5019 -0.5431
  514TMC3    C3 7634   4.121   0.277  12.818  0.2636 -0.8849 -0.2676
  514TMC3    C4 7635   4.204   0.213  13.077 -0.0409 -0.6997 -0.3135
  514TMC3    C5 7636   4.291   0.208  12.966 -0.1045 -0.3512  0.2808
  514TMC3    C6 7637   4.249   0.226  12.835  0.0886 -0.2693 -0.1650
  514TMC3     C 7638   4.058   0.361  13.159 -0.0274  0.0414  0.2021
  514TMC3     O 7639   4.070   0.475  13.118 -0.7329 -0.1501  0.0577
  514TMC3     H 7640   3.940   0.336  12.914  1.3487  0.3451  0.3243
  514TMC3    H1 7641   4.248   0.189  13.173 -3.2914  0.2197  1.3812
  514TMC3    H2 7642   4.319   0.246  12.754  0.1839 -4.5445 -1.1430
  514TMC3    C7 7643   4.422   0.253  12.998  0.0386  0.1838  0.1048
  514TMC3    C8 7644   4.076   0.349  12.704  0.4127 -0.5271  0.4917
  514TMC3    O1 7645   4.517   0.226  12.923 -0.4540 -0.2240 -0.1849
  514TMC3    O2 7646   3.982   0.425  12.721 -0.0170  0.5164  0.1193
  515MPD2     C 7647   1.731   1.965  15.066 -0.1387 -0.4018 -0.1819
  515MPD2    C1 7648   1.783   1.840  15.031  0.1168  0.2581 -0.7664
  515MPD2    C2 7649   1.884   1.786  15.108  0.0826  0.0451  0.3225
  515MPD2    C3 7650   1.924   1.856  15.218  0.0851  0.1507 -0.1044
  515MPD2    C4 7651   1.880   1.981  15.247  0.7441  0.5245  0.3705
  515MPD2    C5 7652   1.782   2.035  15.173  0.4330  0.5902 -0.2089
  515MPD2     H 7653   1.914   1.686  15.076  0.8741  0.8089 -1.2901
  515MPD2    H1 7654   1.906   2.034  15.337  0.8422 -0.4210  0.8946
  515MPD2    H2 7655   1.646   2.007  15.013  1.2797  0.5885 -1.6632
  515MPD2    H3 7656   1.745   2.132  15.206 -0.7343  0.0644  0.0010
  515MPD2     N 7657   2.024   1.811  15.308 -0.8683  0.1607 -0.2907
  515MPD2    H5 7658   2.053   1.879  15.378  2.2225 -3.4514  1.9551
  515MPD2    N1 7659   1.741   1.770  14.912  0.6643 -0.6530  0.0622
  515MPD2    H7 7660   1.781   1.677  14.904  0.5921 -0.8021  1.4162
  516TMC3    C1 7661   1.664   1.728  14.693  0.1433  0.1961  0.3560
  516TMC3    C2 7662   1.659   1.781  14.568 -0.0581 -0.1767  0.3088
  516TMC3    C3 7663   1.629   1.700  14.464 -0.0003  0.0802  0.2541
  516TMC3    C4 7664   1.632   1.599  14.727  0.3161 -1.3826  0.8799
  516TMC3    C5 7665   1.586   1.524  14.624 -0.0483 -0.2467 -0.2803
  516TMC3    C6 7666   1.585   1.567  14.495 -0.9193  0.1150  0.0381
  516TMC3     C 7667   1.674   1.824  14.803  0.1691  0.7915 -0.6073
  516TMC3     O 7668   1.662   1.941  14.774  0.1692  0.6507 -0.4186
  516TMC3     H 7669   1.696   1.883  14.560 -0.3139 -0.0613  0.6364
  516TMC3    H1 7670   1.601   1.568  14.826 -1.6454 -2.0250  0.0710
  516TMC3    H2 7671   1.554   1.497  14.419 -0.2559  1.4208 -1.4458
  516TMC3    C7 7672   1.488   1.415  14.639 -0.4321 -0.2017  0.7040
  516TMC3    C8 7673   1.536   1.758  14.370  0.1484  1.6002  0.7624
  516TMC3    O1 7674   1.405   1.398  14.552 -0.3431 -0.4959  0.5386
  516TMC3    O2 7675   1.428   1.704  14.360  0.0080 -0.7309 -0.1007
  517MPD2     C 7676   1.074   3.317   0.254  0.1603 -0.1421  0.5558
  517MPD2    C1 7677   1.206   3.347   0.280  0.0700 -0.5402 -0.2036
  517MPD2    C2 7678   1.238   3.466   0.338 -0.0727 -0.5323 -0.1925
  517MPD2    C3 7679   1.144   3.554   0.383 -0.0888  0.3463  0.0271
  517MPD2    C4 7680   1.007   3.519   0.367  0.4486 -0.1675 -0.0580
  517MPD2    C5 7681   0.975   3.401   0.299  0.2736 -0.3766  0.0306
  517MPD2     H 7682   1.342   3.487   0.357  0.3275 -2.3124 -0.4217
  517MPD2    H1 7683   0.926   3.586   0.394 -0.1246 -2.0229  2.8039
  517MPD2    H2 7684   1.046   3.228   0.198 -1.2522 -0.3302  1.5831
  517MPD2    H3 7685   0.873   3.382   0.266 -0.3219  0.6163  1.3434
  517MPD2     N 7686   1.189   3.671   0.448 -0.9839 -0.5195  0.7307
  517MPD2    H5 7687   1.282   3.710   0.442 -0.9733 -0.2737  2.4899
  517MPD2    N1 7688   1.310   3.254   0.241  0.1117  0.1258 -0.3965
  517MPD2    H7 7689   1.407   3.286   0.246  0.8433 -2.0314 -0.9237
  518TMC3    C1 7690   1.406   3.055   0.182  0.5394 -0.6792 -0.2921
  518TMC3    C2 7691   1.426   2.935   0.243 -0.3837 -0.1502  0.0869
  518TMC3    C3 7692   1.496   2.837   0.170 -0.1809  0.1716  0.0790
  518TMC3    C4 7693   1.471   3.092   0.069  0.4885  0.6208  0.4697
  518TMC3    C5 7694   1.548   2.995   0.009 -0.0675 -0.2133  0.3836
  518TMC3    C6 7695   1.561   2.873   0.054  0.3805 -0.1317 -0.6722
  518TMC3     C 7696   1.284   3.124   0.224 -0.2366 -0.6932  0.3014
  518TMC3     O 7697   1.187   3.049   0.251  0.5900  0.2406  0.0766
  518TMC3     H 7698   1.362   2.914   0.328  3.3851 -0.9337  2.7546
  518TMC3    H1 7699   1.452   3.187   0.021 -0.1491 -0.7632 -1.9728
  518TMC3    H2 7700   1.616   2.798  17.688  1.2781 -0.3795  0.5632
  518TMC3    C7 7701   1.644   3.033  17.600  0.3925  0.2352  0.1990
  518TMC3    C8 7702   1.478   2.696   0.211 -0.0788  0.2327 -0.6684
  518TMC3    O1 7703   1.628   3.145  17.551  0.4384 -0.2431  0.0723
  518TMC3    O2 7704   1.522   2.612   0.134  0.7690 -0.6855  0.3130
  519MPD2     C 7705   3.334   1.696  14.834 -0.6860 -0.0465  0.3291
  519MPD2    C1 7706   3.328   1.754  14.708 -0.0285 -0.6435  0.1151
  519MPD2    C2 7707   3.382   1.688  14.603 -0.1828  0.3083  0.3489
  519MPD2    C3 7708   3.439   1.564  14.605 -0.0942 -0.7529  0.1146
  519MPD2    C4 7709   3.445   1.514  14.732 -0.2105  0.7865  0.1704
  519MPD2    C5 7710   3.392   1.571  14.842  0.0132 -0.1732 -0.0883
  519MPD2     H 7711   3.377   1.729  14.503  0.9967 -1.8672 -0.6117
  519MPD2    H1 7712   3.493   1.418  14.748  0.1935  1.2500  1.7224
  519MPD2    H2 7713   3.285   1.741  14.919 -0.9221 -0.2225  0.2851
  519MPD2    H3 7714   3.397   1.506  14.929  1.2601  1.0194  0.7211
  519MPD2     N 7715   3.465   1.478  14.497  0.3708 -0.2274 -0.1315
  519MPD2    H5 7716   3.499   1.386  14.524  0.9876  0.4054  1.2372
  519MPD2    N1 7717   3.252   1.872  14.699  0.1198  0.2553  0.3009
  519MPD2    H7 7718   3.201   1.904  14.781  0.3573 -0.6641  0.8024
  520TMC3    C1 7719   3.460   1.397  14.271 -0.2393 -0.3377 -0.4969
  520TMC3    C2 7720   3.405   1.418  14.150 -0.2934 -0.4150  0.1759
  520TMC3    C3 7721   3.422   1.317  14.060  0.4970 -0.5355  0.1091
  520TMC3    C4 7722   3.536   1.285  14.298 -0.7346 -0.1960 -0.6838
  520TMC3    C5 7723   3.554   1.189  14.202  0.0694  0.1567 -0.0709
  520TMC3    C6 7724   3.498   1.209  14.084 -0.1973 -0.4387 -0.4989
  520TMC3     C 7725   3.446   1.510  14.363 -0.6850  0.7003  0.5301
  520TMC3     O 7726   3.387   1.606  14.323  0.3409  0.2593  0.0933
  520TMC3     H 7727   3.360   1.514  14.127 -0.3198 -0.1491  1.3344
  520TMC3    H1 7728   3.589   1.277  14.392 -1.2974 -1.2580 -0.4579
  520TMC3    H2 7729   3.500   1.137  14.003  0.6929 -0.1846 -0.7005
  520TMC3    C7 7730   3.665   1.104  14.217  0.4838  0.2601 -0.4515
  520TMC3    C8 7731   3.325   1.298  13.959  1.3743  0.3350  0.5291
  520TMC3    O1 7732   3.671   1.050  14.328 -0.2830  0.1795 -0.4984
  520TMC3    O2 7733   3.357   1.230  13.861  0.9832  0.5365  0.0804
  521MPD2     C 7734   3.807   4.363  17.127 -0.3594  1.2440 -0.0773
  521MPD2    C1 7735   3.841   4.250  17.195 -0.2792  0.1741 -0.3040
  521MPD2    C2 7736   3.974   4.217  17.218 -0.2385  0.0515  0.3944
  521MPD2    C3 7737   4.073   4.301  17.163 -0.3778 -0.2518  0.4433
  521MPD2    C4 7738   4.039   4.420  17.102  0.0229  0.2815 -0.3910
  521MPD2    C5 7739   3.901   4.450  17.083 -0.3767  0.2124  0.4576
  521MPD2     H 7740   4.005   4.133  17.279 -0.4539 -0.4352 -0.1663
  521MPD2    H1 7741   4.112   4.492  17.067 -0.1036  0.3130 -0.5852
  521MPD2    H2 7742   3.708   4.389  17.094 -2.0599 -0.8394  3.4162
  521MPD2    H3 7743   3.869   4.541  17.034 -2.6427 -2.3434 -2.7707
  521MPD2     N 7744   4.201   4.262  17.191  0.3093  0.1819  0.6239
  521MPD2    H5 7745   4.209   4.181  17.252  1.8709 -1.0871 -1.2562
  521MPD2    N1 7746   3.732   4.166  17.225 -0.1104  0.5713  0.8350
  521MPD2    H7 7747   3.640   4.200  17.200 -0.4465 -2.6098 -2.2744
  522TMC3    C1 7748   4.437   4.227  17.159  0.4636 -0.3829  0.2403
  522TMC3    C2 7749   4.413   4.101  17.129  0.7335  0.2063  0.0047
  522TMC3    C3 7750   4.527   4.039  17.079 -0.1108 -0.3564 -0.1826
  522TMC3    C4 7751   4.545   4.292  17.112  0.0442  0.0465  0.1612
  522TMC3    C5 7752   4.645   4.226  17.053  0.4880 -0.5087 -0.0091
  522TMC3    C6 7753   4.644   4.095  17.049 -0.0063  0.7556  0.7347
  522TMC3     C 7754   4.314   4.313  17.146  0.1054 -0.5266 -0.2464
  522TMC3     O 7755   4.328   4.418  17.088  0.5551 -0.4668 -0.7785
  522TMC3     H 7756   4.316   4.057  17.148 -0.2017  2.1826 -0.1087
  522TMC3    H1 7757   4.547   4.398  17.134 -1.6608 -0.2132  1.5643
  522TMC3    H2 7758   0.015   4.041  17.033 -0.9270 -0.1317 -1.6049
  522TMC3    C7 7759   4.667   4.277  16.921 -0.6421 -0.3332 -1.2055
  522TMC3    C8 7760   4.515   3.893  17.075 -0.2215  0.1869  0.0287
  522TMC3    O1 7761   0.048   4.254  16.862  0.1087  0.0005  0.4294
  522TMC3    O2 7762   4.411   3.847  17.114  0.3795  0.1749  0.0095
  523MPD2     C 7763   2.605   3.704  10.342 -0.2753 -0.5343  0.4222
  523MPD2    C1 7764   2.579   3.625  10.227 -0.5532  0.5550 -0.2983
  523MPD2    C2 7765   2.522   3.688  10.123  0.4273 -0.2910  0.2390
  523MPD2    C3 7766   2.490   3.823  10.124  0.6290 -0.2385  0.2472
  523MPD2    C4 7767   2.529   3.896  10.234  0.2557  0.4072  0.4905
  523MPD2    C5 7768   2.568   3.837  10.347  0.1115  0.1142 -0.7003
  523MPD2     H 7769   2.490   3.628  10.039  2.7368  0.7905 -1.4208
  523MPD2    H1 7770   2.508   4.002  10.239 -0.1828  0.2685  1.5133
  523MPD2    H2 7771   2.659   3.661  10.425 -0.9441 -4.2139 -1.0369
  523MPD2    H3 7772   2.593   3.896  10.434  1.5438 -1.1648 -0.2423
  523MPD2     N 7773   2.403   3.880  10.026 -0.6702 -0.1243  0.4128
  523MPD2    H5 7774   2.393   3.981  10.028  0.4141 -0.0029 -0.1931
  523MPD2    N1 7775   2.628   3.487  10.232 -0.3385  0.0865 -1.0098
  523MPD2    H7 7776   2.669   3.465  10.322 -1.4710  0.6143 -0.3695
  524TMC3    C1 7777   2.252   3.911   9.845  0.3337 -0.0753  0.4852
  524TMC3    C2 7778   2.173   3.845   9.747  0.0373 -0.4031  0.5804
  524TMC3    C3 7779   2.074   3.919   9.686  0.2044  0.1358  0.3632
  524TMC3    C4 7780   2.250   4.044   9.866  0.9444 -0.2321 -0.1106
  524TMC3    C5 7781   2.153   4.111   9.793 -0.0541 -0.6195 -0.3383
  524TMC3    C6 7782   2.064   4.052   9.711  0.2987  0.4789  0.5273
  524TMC3     C 7783   2.318   3.816   9.938  0.4536  0.2339  0.5908
  524TMC3     O 7784   2.293   3.696   9.924 -0.2728  0.8612  0.4206
  524TMC3     H 7785   2.171   3.737   9.735 -2.3618 -0.3541  0.4187
  524TMC3    H1 7786   2.334   4.099   9.907 -0.2333  2.0177 -0.7260
  524TMC3    H2 7787   2.005   4.113   9.644 -0.2873 -2.2202 -1.4161
  524TMC3    C7 7788   2.170   4.255   9.785 -0.3520  0.1987 -0.1697
  524TMC3    C8 7789   1.976   3.859   9.603 -0.4733 -0.7546  0.3398
  524TMC3    O1 7790   2.276   4.296   9.826  0.0657  0.6156 -0.0651
  524TMC3    O2 7791   2.004   3.742   9.579 -0.0752  0.3076  0.7296
  525MPD2     C 7792   4.634   1.048  14.544  0.4294 -0.3769  0.0137
  525MPD2    C1 7793   0.034   1.066  14.607  1.1860  0.0784  0.2831
  525MPD2    C2 7794   0.117   1.174  14.583 -0.3563  0.8264  0.0806
  525MPD2    C3 7795   0.068   1.268  14.495 -0.7124  0.7302 -0.6720
  525MPD2    C4 7796   4.666   1.249  14.426 -0.0816 -0.1924 -0.0787
  525MPD2    C5 7797   4.584   1.142  14.460 -0.0077  0.3809  0.5158
  525MPD2     H 7798   0.211   1.190  14.635  0.9284 -1.2988 -1.6021
  525MPD2    H1 7799   4.625   1.323  14.358 -1.2231 -0.4764  0.2938
  525MPD2    H2 7800   4.576   0.957  14.555 -0.3190  0.1763  0.6307
  525MPD2    H3 7801   4.484   1.127  14.420 -0.2350  1.0757  0.8257
  525MPD2     N 7802   0.130   1.390  14.479 -0.1210 -0.2375 -0.6700
  525MPD2    H5 7803   0.076   1.459  14.428  0.7892  0.5679 -0.5464
  525MPD2    N1 7804   0.088   0.984  14.702 -0.4228  0.0180  0.5269
  525MPD2    H7 7805   0.185   0.991  14.730  0.1677  2.4246 -2.1300
  526TMC3    C1 7806   0.106   0.841  14.879 -0.7772  0.1219  0.2201
  526TMC3    C2 7807   0.067   0.837  15.011  0.0685 -0.1372  0.6487
  526TMC3    C3 7808   0.156   0.815  15.105 -0.6764  0.6931 -0.2352
  526TMC3    C4 7809   0.236   0.827  14.846 -0.1496  0.0544 -0.2408
  526TMC3    C5 7810   0.316   0.793  14.943 -0.3728  0.9002  0.1549
  526TMC3    C6 7811   0.284   0.791  15.074  0.4698  0.2357 -0.0222
  526TMC3     C 7812   0.021   0.894  14.777  0.3075  0.7446  0.2803
  526TMC3     O 7813   4.622   0.885  14.788 -0.3539  0.2378  0.0697
  526TMC3     H 7814   4.687   0.874  15.023  0.1095 -0.1700  1.0801
  526TMC3    H1 7815   0.281   0.826  14.748  0.9748  2.9621  0.2345
  526TMC3    H2 7816   0.352   0.754  15.150 -1.0363 -1.1702  0.6496
  526TMC3    C7 7817   0.449   0.835  14.922  0.4342  0.4255  0.0691
  526TMC3    C8 7818   0.119   0.836  15.241 -0.6012  0.0403 -0.7759
  526TMC3    O1 7819   0.500   0.904  15.014 -0.1892  0.1847 -0.3881
  526TMC3    O2 7820   0.210   0.850  15.323  0.1654 -0.5364  0.5796
  527MPD2     C 7821   3.147   3.820   1.601 -0.5473 -0.5633  0.0658
  527MPD2    C1 7822   3.244   3.723   1.567 -0.1722  0.1580  0.6510
  527MPD2    C2 7823   3.252   3.703   1.430 -0.4859 -0.8918  0.6661
  527MPD2    C3 7824   3.185   3.777   1.339 -0.7546 -0.6544  0.0479
  527MPD2    C4 7825   3.093   3.872   1.381  0.1665 -0.8475  0.5168
  527MPD2    C5 7826   3.080   3.896   1.510 -0.7407  0.6780 -0.8932
  527MPD2     H 7827   3.330   3.633   1.401 -0.0625  0.1470 -0.6880
  527MPD2    H1 7828   3.044   3.939   1.312  2.8175  0.1863 -0.3550
  527MPD2    H2 7829   3.124   3.843   1.704 -0.2590 -0.7062  0.1625
  527MPD2    H3 7830   3.022   3.983   1.536  0.3059  1.1371 -0.0839
  527MPD2     N 7831   3.214   3.754   1.203  0.4400  0.5187  0.2882
  527MPD2    H5 7832   3.289   3.690   1.180 -0.7865 -1.5180  2.0867
  527MPD2    N1 7833   3.348   3.670   1.652  0.2699  0.8689 -0.0778
  527MPD2    H7 7834   3.417   3.608   1.611 -0.1803  1.9224 -2.4553
  528TMC3    C1 7835   3.491   3.670   1.839 -0.5272 -0.0801 -0.6629
  528TMC3    C2 7836   3.526   3.732   1.954 -0.4898  0.1339 -0.5349
  528TMC3    C3 7837   3.647   3.711   2.007 -0.6570 -0.6069 -0.1818
  528TMC3    C4 7838   3.579   3.575   1.787 -0.2397  0.5119 -0.2418
  528TMC3    C5 7839   3.697   3.552   1.843  0.1249  0.0451  0.3257
  528TMC3    C6 7840   3.731   3.619   1.960  0.8329  0.4378 -0.3119
  528TMC3     C 7841   3.365   3.713   1.782 -0.3376  0.0886  0.7001
  528TMC3     O 7842   3.303   3.797   1.847  0.1708 -0.6121  0.0010
  528TMC3     H 7843   3.457   3.801   2.002  0.6646 -1.3468  3.2786
  528TMC3    H1 7844   3.565   3.525   1.692 -1.5407  2.7279 -1.2322
  528TMC3    H2 7845   3.827   3.604   2.007 -0.1259 -0.8206  1.2642
  528TMC3    C7 7846   3.765   3.424   1.814  0.3428 -0.5902 -0.3623
  528TMC3    C8 7847   3.692   3.817   2.101  0.1426 -0.2554  0.0800
  528TMC3    O1 7848   3.702   3.337   1.759  0.0070 -0.1955 -0.2009
  528TMC3    O2 7849   3.605   3.886   2.156  0.0891 -0.4751  0.3210
  529MPD2     C 7850   0.145   3.034   1.280 -0.5533 -0.1144  0.4777
  529MPD2    C1 7851   0.249   2.972   1.212  0.0260 -0.6530  1.3943
  529MPD2    C2 7852   0.274   3.009   1.085 -0.6549  0.0365 -0.9952
  529MPD2    C3 7853   0.193   3.104   1.021  0.4469  0.6944  0.2494
  529MPD2    C4 7854   0.088   3.162   1.091  0.6296  0.4109 -0.0243
  529MPD2    C5 7855   0.066   3.130   1.228 -0.6814 -0.9302 -0.0908
  529MPD2     H 7856   0.359   2.959   1.040  0.2932  0.7156  0.0448
  529MPD2    H1 7857   0.032   3.240   1.041 -0.1896  1.6799  2.8731
  529MPD2    H2 7858   0.146   3.011   1.386 -0.3718 -0.5332  0.3865
  529MPD2    H3 7859   4.714   3.187   1.283  2.1248  1.2403  1.4407
  529MPD2     N 7860   0.215   3.142   0.887  0.0422  0.3864  0.8431
  529MPD2    H5 7861   0.158   3.209   0.836 -0.3224  0.6707  1.6290
  529MPD2    N1 7862   0.335   2.870   1.265 -0.2940 -0.4213  0.5363
  529MPD2    H7 7863   0.408   2.825   1.210 -1.2632 -1.5897  0.2100
  530TMC3    C1 7864   0.410   2.702   1.415  0.0670  0.1208 -0.4611
  530TMC3    C2 7865   0.532   2.685   1.352 -0.5125 -0.7286 -0.5905
  530TMC3    C3 7866   0.615   2.584   1.396  0.5826  0.6698 -0.7896
  530TMC3    C4 7867   0.373   2.609   1.508  0.1683  0.2721 -0.1445
  530TMC3    C5 7868   0.456   2.508   1.545 -0.1174 -0.1297  0.6547
  530TMC3    C6 7869   0.583   2.490   1.491  0.1652 -0.0604 -0.6326
  530TMC3     C 7870   0.321   2.809   1.385  0.3781 -0.7164 -0.3769
  530TMC3     O 7871   0.235   2.819   1.470  0.3177  0.4260  0.8430
  530TMC3     H 7872   0.570   2.755   1.278  0.8568  0.2970  1.0713
  530TMC3    H1 7873   0.278   2.613   1.560  0.6387  0.1543  0.7343
  530TMC3    H2 7874   0.648   2.433   1.556  0.4172  0.6929 -0.2146
  530TMC3    C7 7875   0.456   2.482   1.689  0.6260  0.3815 -0.1602
  530TMC3    C8 7876   0.757   2.603   1.379  0.1995 -0.4311  0.4429
  530TMC3    O1 7877   0.428   2.576   1.762  0.2150  0.5055 -0.0415
  530TMC3    O2 7878   0.789   2.718   1.356 -0.0010 -0.0098 -0.1399
  531MPD2     C 7879   4.700   0.566  13.285 -0.5578 -0.0142 -0.3682
  531MPD2    C1 7880   4.572   0.618  13.274 -0.5119 -0.3374 -0.2475
  531MPD2    C2 7881   4.485   0.540  13.202 -1.2899  0.6178  0.3442
  531MPD2    C3 7882   4.526   0.422  13.142  0.0989  0.6180  0.1702
  531MPD2    C4 7883   4.652   0.376  13.143 -0.3893 -0.1588 -0.0454
  531MPD2    C5 7884   0.013   0.445  13.224  0.1981  0.0305  0.2941
  531MPD2     H 7885   4.377   0.548  13.198 -1.4110 -1.3164 -0.0499
  531MPD2    H1 7886   4.672   0.272  13.119 -0.6482 -0.4371  0.9639
  531MPD2    H2 7887   0.059   0.621  13.331  1.7451 -2.1170 -1.8756
  531MPD2    H3 7888   0.114   0.407  13.234  0.0636  0.2201  2.3277
  531MPD2     N 7889   4.415   0.349  13.090 -0.1069 -0.1926 -0.3837
  531MPD2    H5 7890   4.321   0.377  13.115 -0.0558  0.9502 -1.4512
  531MPD2    N1 7891   4.548   0.748  13.325 -0.5744  0.3638  0.0283
  531MPD2    H7 7892   4.625   0.785  13.381 -0.0938  0.9615 -1.0337
  532TMC3    C1 7893   4.426   0.927  13.405 -0.3024  0.2839 -0.5498
  532TMC3    C2 7894   4.319   0.897  13.488  0.0574  0.5625  0.4652
  532TMC3    C3 7895   4.346   0.865  13.615  0.1171  0.5357 -0.2408
  532TMC3    C4 7896   4.550   0.953  13.451  0.2351  0.2081 -0.0562
  532TMC3    C5 7897   4.574   0.928  13.584 -0.4322  0.4036 -0.0366
  532TMC3    C6 7898   4.477   0.879  13.661 -0.0435  0.5488  0.1435
  532TMC3     C 7899   4.431   0.821  13.311  0.4519  0.7439 -0.0099
  532TMC3     O 7900   4.325   0.777  13.274  0.7290  0.5607  0.0586
  532TMC3     H 7901   4.216   0.903  13.453 -0.5510 -1.2519  1.9314
  532TMC3    H1 7902   4.624   0.983  13.379 -0.3444  2.2211  0.1831
  532TMC3    H2 7903   4.502   0.857  13.764  0.4173  0.8966  0.1056
  532TMC3    C7 7904   4.705   0.883  13.610 -0.2345 -0.0161  0.2384
  532TMC3    C8 7905   4.278   0.749  13.654  0.1174 -0.0227  0.6814
  532TMC3    O1 7906   0.082   0.950  13.573 -0.2894  0.3345  0.1781
  532TMC3    O2 7907   4.297   0.714  13.769 -0.0383  0.2529 -0.4022
  533TMC3    C1 7908   0.279   1.567  14.519  0.4053  0.3237 -0.2767
  533TMC3    C2 7909   0.406   1.612  14.506  0.1684  0.1386  0.0823
  533TMC3    C3 7910   0.429   1.749  14.509  0.4638  0.3247  0.1901
  533TMC3    C4 7911   0.174   1.654  14.550 -0.2204  0.0937 -0.0263
  533TMC3    C5 7912   0.196   1.791  14.555 -0.4923 -0.3072  0.1860
  533TMC3    C6 7913   0.323   1.834  14.541  0.0135 -0.0904  0.1784
  533TMC3     C 7914   0.257   1.423  14.517  0.4469  0.5766  0.2615
  533TMC3     O 7915   0.343   1.350  14.565  0.2786 -0.4287 -0.3114
  533TMC3     H 7916   0.487   1.546  14.477  1.4022  0.9878  1.5899
  533TMC3    H1 7917   0.071   1.622  14.559 -0.6856  1.5719 -0.1454
  533TMC3    H2 7918   0.339   1.941  14.555 -1.8343  0.3393 -0.9001
  533TMC3    C7 7919   0.121   1.868  14.654  0.0876 -0.3603  0.0202
  533TMC3    C8 7920   0.561   1.793  14.525 -0.2667  0.4646 -0.5471
  533TMC3    O1 7921   0.034   1.946  14.625  0.0802 -0.2715  0.7345
  533TMC3    O2 7922   0.636   1.723  14.589  0.0206  0.2946  0.9952
  534MPD2     C 7923   2.865   2.106   1.265 -0.1313  0.2308 -0.1546
  534MPD2    C1 7924   2.895   2.231   1.227 -0.4999 -0.2224 -0.7065
  534MPD2    C2 7925   2.799   2.298   1.154 -0.8403  0.3695 -0.5885
  534MPD2    C3 7926   2.672   2.244   1.130 -0.3357  0.8708  0.4617
  534MPD2    C4 7927   2.642   2.124   1.180 -0.2260 -0.4485  0.4516
  534MPD2    C5 7928   2.741   2.054   1.242 -0.1789  0.1135  0.4748
  534MPD2     H 7929   2.832   2.391   1.109 -2.6135  1.0191 -0.5369
  534MPD2    H1 7930   2.541   2.086   1.170  0.5024 -2.3748  0.4286
  534MPD2    H2 7931   2.923   2.042   1.331  0.0882  1.6043  0.9823
  534MPD2    H3 7932   2.731   1.950   1.271  1.0570  0.0131  0.5696
  534MPD2     N 7933   2.574   2.303   1.040 -0.1579 -0.5529 -0.1597
  534MPD2    H5 7934   2.482   2.260   1.033  0.7917 -2.6117 -0.2596
  534MPD2    N1 7935   3.022   2.293   1.247 -0.1059 -0.2438 -0.3534
  534MPD2    H7 7936   3.028   2.390   1.219 -1.5417 -0.6891 -2.1883
  535TMC3    C1 7937   2.492   2.444   0.876 -0.2386  0.2368 -0.3175
  535TMC3    C2 7938   2.367   2.441   0.939 -0.0650 -0.7278  0.3219
  535TMC3    C3 7939   2.262   2.466   0.849  0.0844 -0.2093  0.9096
  535TMC3    C4 7940   2.521   2.476   0.747 -0.6568 -0.3891  0.2824
  535TMC3    C5 7941   2.410   2.514   0.676 -0.2531 -0.4337  0.1322
  535TMC3    C6 7942   2.284   2.509   0.728 -0.3690 -0.1115 -0.3555
  535TMC3     C 7943   2.605   2.391   0.938 -0.0956  0.5281 -0.0158
  535TMC3     O 7944   2.713   2.433   0.901  0.4142  0.4903  0.4571
  535TMC3     H 7945   2.349   2.402   1.039  0.2119 -1.1829  0.1967
  535TMC3    H1 7946   2.621   2.479   0.706 -1.0090  0.8365 -0.5122
  535TMC3    H2 7947   2.200   2.534   0.665 -2.1220 -1.8228  1.2782
  535TMC3    C7 7948   2.431   2.520   0.536 -0.0705  0.7874 -0.6190
  535TMC3    C8 7949   2.136   2.465   0.912  0.6286  0.3009 -0.4422
  535TMC3    O1 7950   2.543   2.564   0.505  0.8732  0.0246  0.1222
  535TMC3    O2 7951   2.037   2.437   0.848  0.4294 -0.3515  0.3129
  536MPD2     C 7952   1.651   0.737  16.914  0.2966 -0.1689  0.5256
  536MPD2    C1 7953   1.533   0.680  16.943 -0.1483  0.1505 -0.1907
  536MPD2    C2 7954   1.440   0.643  16.846 -0.3593  0.3355 -0.8337
  536MPD2    C3 7955   1.467   0.672  16.712 -1.2982  0.6518  0.6378
  536MPD2    C4 7956   1.587   0.732  16.683 -0.4207  0.9997  0.8717
  536MPD2    C5 7957   1.678   0.764  16.780  0.3371  0.3355  0.2398
  536MPD2     H 7958   1.343   0.601  16.873 -1.6712  4.0084  0.1137
  536MPD2    H1 7959   1.606   0.760  16.580 -1.7173  0.8529  0.5917
  536MPD2    H2 7960   1.723   0.783  16.980  1.9468 -0.1571 -1.2830
  536MPD2    H3 7961   1.765   0.821  16.748  1.6283 -0.9582  1.4691
  536MPD2     N 7962   1.367   0.677  16.614 -0.4133  0.0541  0.1945
  536MPD2    H5 7963   1.390   0.722  16.526  0.3697  0.0759  0.4087
  536MPD2    N1 7964   1.513   0.669  17.085 -0.1225  0.2126 -0.0400
  536MPD2    H7 7965   1.599   0.689  17.136  0.3382  0.5833 -0.9567
  537TMC3    C1 7966   1.415   0.640  17.303  0.1783 -0.1255  0.2186
  537TMC3    C2 7967   1.481   0.754  17.355  0.3950 -0.0350  0.1437
  537TMC3    C3 7968   1.461   0.775  17.487  0.1525  0.1846 -0.9262
  537TMC3    C4 7969   1.356   0.539  17.380 -0.4206 -0.0647 -0.7431
  537TMC3    C5 7970   1.348   0.570  17.515  0.9156 -0.2124  0.1542
  537TMC3    C6 7971   1.390   0.687  17.566 -0.2820  0.7608 -0.5284
  537TMC3     C 7972   1.402   0.628  17.155 -0.4772 -0.0278 -0.1700
  537TMC3     O 7973   1.308   0.562  17.112 -0.2998  0.3725 -0.3348
  537TMC3     H 7974   1.528   0.821  17.285 -1.0476 -0.4837 -1.2545
  537TMC3    H1 7975   1.297   0.457  17.340 -2.6464  1.8096 -1.2815
  537TMC3    H2 7976   1.364   0.710  17.668  0.6012 -0.0886 -0.1076
  537TMC3    C7 7977   1.233   0.506  17.576  0.3889  0.3065 -0.3641
  537TMC3    C8 7978   1.514   0.881  17.559  0.6078 -1.0577  0.1575
  537TMC3    O1 7979   1.168   0.570  17.654 -0.6032  0.1526 -0.3848
  537TMC3    O2 7980   1.526   0.864  17.680  0.0244 -0.2149  0.4118
  538TMC3    C1 7981   3.058   3.673  10.831  0.8355  0.7494 -0.2000
  538TMC3    C2 7982   3.115   3.631  10.717 -0.2640 -0.0868 -0.1867
  538TMC3    C3 7983   3.031   3.637  10.605  0.1511 -0.0469 -0.8142
  538TMC3    C4 7984   2.942   3.742  10.840 -0.3443  0.5211  0.2960
  538TMC3    C5 7985   2.873   3.748  10.722  0.3656 -0.2268 -0.2513
  538TMC3    C6 7986   2.906   3.693  10.605  0.1088  0.8814 -0.5908
  538TMC3     C 7987   3.139   3.648  10.946 -0.4246 -0.9873 -0.4385
  538TMC3     O 7988   3.260   3.641  10.931  0.3222 -0.4053  0.1131
  538TMC3     H 7989   3.211   3.581  10.723 -0.0738  0.4308  1.1514
  538TMC3    H1 7990   2.899   3.776  10.933  2.3823 -0.4836  1.9494
  538TMC3    H2 7991   2.851   3.718  10.515 -1.0094 -0.5668 -0.3054
  538TMC3    C7 7992   2.741   3.804  10.732 -0.2585  0.2466 -0.5223
  538TMC3    C8 7993   3.081   3.577  10.485 -0.4608 -0.1806 -0.0285
  538TMC3    O1 7994   2.657   3.727  10.780  0.3931  0.2263 -0.5899
  538TMC3    O2 7995   3.008   3.536  10.398 -0.5297  0.8457 -0.0131
  539MPD2     C 7996   2.436   2.937  11.995  0.2576  0.3480  0.0511
  539MPD2    C1 7997   2.539   2.981  11.907 -0.2329 -0.1251 -0.1503
  539MPD2    C2 7998   2.555   3.113  11.881 -0.6250  0.0684  0.1376
  539MPD2    C3 7999   2.462   3.200  11.937  0.9002  0.9449 -0.4812
  539MPD2    C4 8000   2.361   3.159  12.028  0.2621  0.2566 -0.3591
  539MPD2    C5 8001   2.349   3.024  12.054 -0.2538 -0.1978 -0.4344
  539MPD2     H 8002   2.637   3.146  11.818 -0.6089 -1.5304 -0.6838
  539MPD2    H1 8003   2.294   3.230  12.074 -1.0391  0.3776 -2.4487
  539MPD2    H2 8004   2.411   2.834  12.020  0.2942  0.2567 -0.2923
  539MPD2    H3 8005   2.262   2.984  12.103 -1.9147  1.7884 -1.7509
  539MPD2     N 8006   2.445   3.332  11.898  0.0848 -0.2357 -0.8291
  539MPD2    H5 8007   2.366   3.383  11.936 -1.2469 -2.4319 -0.6962
  539MPD2    N1 8008   2.636   2.893  11.850 -0.1485 -0.2605  0.2796
  539MPD2    H7 8009   2.691   2.914  11.767  0.1419  0.5730  0.6854
  540TMC3    C1 8010   2.478   3.530  11.785  0.7356 -0.8463  0.4889
  540TMC3    C2 8011   2.482   3.576  11.653 -0.1313 -0.8676  0.7994
  540TMC3    C3 8012   2.439   3.708  11.634  0.5687 -0.3342  1.0930
  540TMC3    C4 8013   2.436   3.602  11.889  0.2525 -0.2102 -0.5213
  540TMC3    C5 8014   2.394   3.730  11.858  0.3289 -0.0469  0.2386
  540TMC3    C6 8015   2.383   3.784  11.733  0.2941 -0.1115  0.1009
  540TMC3     C 8016   2.522   3.400  11.813 -0.6062  0.7895  0.7839
  540TMC3     O 8017   2.602   3.354  11.737  0.2709  0.3090  0.2759
  540TMC3     H 8018   2.526   3.517  11.573 -0.7031  0.0999 -0.2335
  540TMC3    H1 8019   2.460   3.574  11.991 -0.1699 -1.9855 -0.9076
  540TMC3    H2 8020   2.327   3.875  11.714 -0.2849 -0.0190  2.2571
  540TMC3    C7 8021   2.315   3.791  11.965  0.6022  0.0761  0.0562
  540TMC3    C8 8022   2.406   3.745  11.506 -0.1560 -0.5698 -0.1114
  540TMC3    O1 8023   2.293   3.724  12.063 -0.1164  0.7368 -0.3159
  540TMC3    O2 8024   2.395   3.866  11.485 -0.1577  0.0190 -0.6785
  541MPD2     C 8025   0.510   0.089  13.368 -0.7146  0.2008  0.0643
  541MPD2    C1 8026   0.522   0.006  13.259  0.7558  0.4137 -0.3832
  541MPD2    C2 8027   0.556   0.053  13.127  0.4293  0.3846 -0.5200
  541MPD2    C3 8028   0.588   0.188  13.121 -0.2665 -0.1766 -0.5423
  541MPD2    C4 8029   0.583   0.265  13.231  0.0974  0.7258 -0.1845
  541MPD2    C5 8030   0.539   0.218  13.351 -0.1553 -0.4370  0.3266
  541MPD2     H 8031   0.558   4.703  13.046 -0.1405  0.5504 -0.6807
  541MPD2    H1 8032   0.600   0.372  13.228  0.8285  0.6539  1.0757
  541MPD2    H2 8033   0.485   0.056  13.468  1.5385 -2.5859 -0.2851
  541MPD2    H3 8034   0.543   0.288  13.433  0.4376 -0.3072  0.1871
  541MPD2     N 8035   0.645   0.246  13.011 -0.0202  0.4948  0.1845
  541MPD2    H5 8036   0.659   0.346  13.005  0.8409  0.1714 -3.1582
  541MPD2    N1 8037   0.500   4.595  13.294  0.4505  0.4982  0.3748
  541MPD2    H7 8038   0.500   4.571  13.393 -0.0797 -3.4607 -0.6036
  542TMC3    C1 8039   0.712   0.265  12.788  0.3382  1.1341  0.2954
  542TMC3    C2 8040   0.741   0.204  12.675 -0.3721  0.3346  0.1836
  542TMC3    C3 8041   0.758   0.280  12.563 -0.1984  0.2898 -0.4214
  542TMC3    C4 8042   0.690   0.403  12.797 -0.3045  0.3483  0.5751
  542TMC3    C5 8043   0.712   0.479  12.688 -0.1810  0.2329 -0.1659
  542TMC3    C6 8044   0.747   0.418  12.563  0.6575 -0.2044  1.0084
  542TMC3     C 8045   0.677   0.178  12.895  0.1289  0.1083 -0.0477
  542TMC3     O 8046   0.696   0.060  12.882  0.2913 -0.6325  0.0662
  542TMC3     H 8047   0.754   0.096  12.676  2.5841  0.6700 -0.2639
  542TMC3    H1 8048   0.654   0.443  12.891 -1.4272  1.3376 -0.2797
  542TMC3    H2 8049   0.779   0.468  12.472 -0.9535 -0.6625  0.1850
  542TMC3    C7 8050   0.744   0.619  12.707  0.2811  0.3478 -0.1273
  542TMC3    C8 8051   0.785   0.216  12.435 -0.2510 -0.3333  1.2451
  542TMC3    O1 8052   0.726   0.665  12.816  0.0102 -0.2358  0.7153
  542TMC3    O2 8053   0.795   0.272  12.326  0.2419 -0.0172  0.0900
  543TMC3    C1 8054   0.548   1.947   0.075 -0.7003  0.2212  0.0551
  543TMC3    C2 8055   0.469   1.859   0.142 -1.1083  0.2262  0.2916
  543TMC3    C3 8056   0.394   1.916   0.249 -0.6285 -0.1420 -0.2143
  543TMC3    C4 8057   0.571   2.074   0.119 -0.0078  0.6065 -0.4383
  543TMC3    C5 8058   0.502   2.124   0.225  0.4555  0.3173 -0.2270
  543TMC3    C6 8059   0.408   2.050   0.291  0.0077  0.2892 -0.0337
  543TMC3     C 8060   0.608   1.888  17.648  0.4228  0.3305  0.5232
  543TMC3     O 8061   0.599   1.766  17.646  0.1914  0.2202 -0.2564
  543TMC3     H 8062   0.446   1.759   0.105 -1.0477  0.7555 -1.1972
  543TMC3    H1 8063   0.650   2.126   0.066 -0.3103 -0.0143 -1.4832
  543TMC3    H2 8064   0.373   2.082   0.388 -0.5812  3.6524 -1.3399
  543TMC3    C7 8065   0.541   2.250   0.277  0.0170  0.3899  0.0485
  543TMC3    C8 8066   0.261   1.855   0.266  0.3273 -0.3811 -0.4496
  543TMC3    O1 8067   0.515   2.267   0.396 -0.3988  0.4216  0.0157
  543TMC3    O2 8068   0.245   1.735   0.236  0.6414  0.6355 -0.2586
  544MPD2     C 8069   4.472   1.871   0.368  0.5165  0.4482 -0.8477
  544MPD2    C1 8070   4.540   1.778   0.297 -0.1082 -1.2170  0.1693
  544MPD2    C2 8071   4.678   1.799   0.276  0.0733  0.1235  0.4908
  544MPD2    C3 8072   0.025   1.915   0.320  0.1488 -1.1154  0.0942
  544MPD2    C4 8073   4.673   2.004   0.389 -0.6193 -0.2304 -0.2088
  544MPD2    C5 8074   4.539   1.983   0.418 -0.1725 -0.2662 -0.0131
  544MPD2     H 8075   0.011   1.718   0.229  0.9805  0.7215  0.5061
  544MPD2    H1 8076   0.001   2.092   0.428  2.2083 -1.8151 -0.2766
  544MPD2    H2 8077   4.371   1.854   0.404  0.9984  2.2379  1.2937
  544MPD2    H3 8078   4.493   2.051   0.488  1.9890  0.3236  0.8354
  544MPD2     N 8079   0.162   1.947   0.296  0.1604  0.3990  0.1967
  544MPD2    H5 8080   0.193   2.042   0.315 -0.2200  0.1971  1.8135
  544MPD2    N1 8081   4.473   1.663   0.270 -0.4946 -0.0344  0.2155
  544MPD2    H7 8082   4.377   1.658   0.303 -0.1389  0.7817  1.3751
  545TMC3    C1 8083   4.427   1.448   0.185 -0.4395  0.0520  0.1741
  545TMC3    C2 8084   4.454   1.347   0.097  0.0084 -0.2893 -0.3057
  545TMC3    C3 8085   4.421   1.218   0.141 -0.0211  0.1504 -0.5865
  545TMC3    C4 8086   4.353   1.433   0.303  0.6071 -0.5403  0.3990
  545TMC3    C5 8087   4.341   1.305   0.342 -0.3951 -0.0195 -0.0162
  545TMC3    C6 8088   4.371   1.193   0.261  0.2606  0.1906  0.1579
  545TMC3     C 8089   4.512   1.567   0.177 -0.5774  0.0665  0.1174
  545TMC3     O 8090   4.615   1.551   0.115 -0.1418 -0.3617  0.0289
  545TMC3     H 8091   4.496   1.369  17.689 -1.2509 -1.9506 -1.2123
  545TMC3    H1 8092   4.335   1.508   0.379 -2.3844 -0.1674 -0.6670
  545TMC3    H2 8093   4.368   1.090   0.297 -0.1894 -0.1733 -0.9298
  545TMC3    C7 8094   4.330   1.295   0.485 -0.2958  0.4435  0.2343
  545TMC3    C8 8095   4.435   1.102   0.060 -0.2228 -0.4322 -0.4478
  545TMC3    O1 8096   4.364   1.389   0.554  0.0008 -0.5380  0.0822
  545TMC3    O2 8097   4.461   0.996   0.115  0.7138 -0.0589  0.1504
  546MPD2     C 8098   1.375   1.276   0.638 -0.1906  0.6011  0.2463
  546MPD2    C1 8099   1.385   1.274   0.501 -0.1772  0.1899  0.3894
  546MPD2    C2 8100   1.447   1.381   0.445  0.0597  0.1500 -0.4904
  546MPD2    C3 8101   1.475   1.497   0.513  0.2400  0.7495 -0.1859
  546MPD2    C4 8102   1.438   1.498   0.640 -0.4296  0.0929  0.2887
  546MPD2    C5 8103   1.394   1.387   0.706 -0.3704  0.2567 -0.0948
  546MPD2     H 8104   1.484   1.365   0.344 -0.8563  1.3540 -1.0084
  546MPD2    H1 8105   1.475   1.585   0.694  0.6825 -0.0591 -0.2334
  546MPD2    H2 8106   1.331   1.191   0.689 -2.0682  0.6337 -1.3071
  546MPD2    H3 8107   1.364   1.385   0.810 -0.0185 -1.8403 -0.0440
  546MPD2     N 8108   1.541   1.613   0.461 -0.0877  0.7683 -0.0985
  546MPD2    H5 8109   1.541   1.696   0.519 -0.2717 -0.4531  1.6691
  546MPD2    N1 8110   1.355   1.148   0.441 -0.1933  0.6039  0.5356
  546MPD2    H7 8111   1.335   1.072   0.505 -0.6477  1.8803  1.9090
  547TMC3    C1 8112   1.344   0.995   0.262 -0.1616  0.0977 -0.1666
  547TMC3    C2 8113   1.294   0.979   0.131  0.4463  0.1424 -0.4170
  547TMC3    C3 8114   1.201   0.885   0.100  0.4209  0.0871  0.5756
  547TMC3    C4 8115   1.303   0.901   0.355  0.3253 -0.4566 -0.3476
  547TMC3    C5 8116   1.213   0.804   0.321  0.4744 -1.4098 -0.5051
  547TMC3    C6 8117   1.155   0.802   0.195  0.1101  0.8908 -0.8490
  547TMC3     C 8118   1.374   1.126   0.308  0.5992 -0.5868 -0.1012
  547TMC3     O 8119   1.379   1.207   0.221  0.4341 -0.6598  0.2677
  547TMC3     H 8120   1.328   1.047   0.053 -2.9088  1.9613 -0.2714
  547TMC3    H1 8121   1.330   0.912   0.460  2.2685 -0.2836 -0.8645
  547TMC3    H2 8122   1.083   0.726   0.167  0.7721  0.0686 -0.3357
  547TMC3    C7 8123   1.127   0.751   0.421  0.3394 -0.3221 -0.1232
  547TMC3    C8 8124   1.125   0.897  17.662 -0.1269  0.1959  0.6787
  547TMC3    O1 8125   1.108   0.815   0.530 -0.7668  0.4174  0.7180
  547TMC3    O2 8126   1.141   0.999  17.597 -0.1241  0.6130 -0.2419
  548MPD2     C 8127   1.590   1.890  12.663 -0.7572 -0.8707 -0.7010
  548MPD2    C1 8128   1.511   1.780  12.689  0.2504  0.2728 -0.0998
  548MPD2    C2 8129   1.547   1.653  12.644 -0.1021  0.0080  0.7426
  548MPD2    C3 8130   1.659   1.638  12.571 -0.0796 -0.2903  0.1927
  548MPD2    C4 8131   1.741   1.745  12.569  0.3751 -0.0306 -0.8162
  548MPD2    C5 8132   1.711   1.871  12.604 -0.5250  0.3685 -0.1898
  548MPD2     H 8133   1.476   1.574  12.665 -1.4403  1.8431  3.2802
  548MPD2    H1 8134   1.838   1.735  12.522  0.1087  1.5039 -1.6874
  548MPD2    H2 8135   1.569   1.992  12.692  0.4203 -0.5456 -0.9803
  548MPD2    H3 8136   1.776   1.958  12.591  0.7183 -0.3770  1.0749
  548MPD2     N 8137   1.703   1.523  12.513 -0.1950 -0.0823 -0.2702
  548MPD2    H5 8138   1.799   1.530  12.482  0.0026 -1.4188  0.0312
  548MPD2    N1 8139   1.394   1.806  12.761 -0.0067  0.4840  0.8330
  548MPD2    H7 8140   1.362   1.902  12.759  0.4359  0.6526  1.7701
  549TMC3    C1 8141   1.204   1.750  12.899 -0.2400 -0.0799  0.2643
  549TMC3    C2 8142   1.139   1.866  12.871  0.0973 -0.0268  0.1640
  549TMC3    C3 8143   1.006   1.866  12.895  0.1666  0.3330  0.7023
  549TMC3    C4 8144   1.140   1.637  12.951  0.3835 -0.4393  0.6606
  549TMC3    C5 8145   1.005   1.641  12.965 -0.4614  0.4021 -0.3953
  549TMC3    C6 8146   0.936   1.760  12.938  0.0094 -0.1836 -0.0602
  549TMC3     C 8147   1.331   1.712  12.837 -0.1105  0.4649 -0.0663
  549TMC3     O 8148   1.363   1.595  12.858 -0.0145  0.4954 -0.3389
  549TMC3     H 8149   1.187   1.946  12.814  1.5082 -3.2674 -3.1612
  549TMC3    H1 8150   1.190   1.555  13.000  1.2543  0.1645  0.7876
  549TMC3    H2 8151   0.828   1.751  12.949  0.4319 -2.2634  2.5159
  549TMC3    C7 8152   0.929   1.519  12.972  0.3408 -0.6210 -0.1440
  549TMC3    C8 8153   0.922   1.971  12.836  0.6317 -0.0963 -0.0336
  549TMC3    O1 8154   0.807   1.528  12.970  0.0909 -0.6622 -0.5479
  549TMC3    O2 8155   0.812   1.936  12.786  0.6433  0.4124  0.3215
  550TMC3    C1 8156   0.446   4.574  12.098  0.7156 -0.6706  0.1222
  550TMC3    C2 8157   0.441   4.572  12.232 -0.2964  0.0861  0.7421
  550TMC3    C3 8158   0.466   4.695  12.294 -0.2230 -0.0671  0.1718
  550TMC3    C4 8159   0.481   4.681  12.021 -0.3318 -0.5417  0.4094
  550TMC3    C5 8160   0.517   0.078  12.081  1.1849 -0.2870 -0.1196
  550TMC3    C6 8161   0.507   0.082  12.217 -0.0669 -0.4158  0.0885
  550TMC3     C 8162   0.469   4.441  12.040  0.2322  0.2829  0.1558
  550TMC3     O 8163   0.501   4.344  12.109 -0.2767  0.0455 -0.2647
  550TMC3     H 8164   0.410   4.483  12.286 -2.2679  1.2660  1.5697
  550TMC3    H1 8165   0.477   4.671  11.914  0.8880  1.1325  0.2025
  550TMC3    H2 8166   0.527   0.176  12.267  0.4576 -0.6164  0.2494
  550TMC3    C7 8167   0.446   0.191  12.028 -0.1219 -0.2941 -0.1248
  550TMC3    C8 8168   0.369   0.019  12.397 -0.3418 -0.0970  0.2565
  550TMC3    O1 8169   0.373   0.247  12.109 -0.0204  0.3752  0.0769
  550TMC3    O2 8170   0.364   0.139  12.426  0.3556 -0.0546 -0.2071
  551TMC3    C1 8171   2.331   2.114  13.743  0.3433 -0.7041  0.6737
  551TMC3    C2 8172   2.454   2.067  13.708 -0.1100 -0.3597 -0.2035
  551TMC3    C3 8173   2.561   2.112  13.778  1.1668 -0.3775 -0.3396
  551TMC3    C4 8174   2.306   2.201  13.843  0.3424  0.4944 -0.3341
  551TMC3    C5 8175   2.413   2.236  13.919  0.1568  0.8942  0.0991
  551TMC3    C6 8176   2.531   2.180  13.899  0.6743  0.1380 -0.2021
  551TMC3     C 8177   2.223   2.074  13.646  0.4114 -0.1703  0.1219
  551TMC3     O 8178   2.258   2.029  13.538  0.1159  0.5080  0.1837
  551TMC3     H 8179   2.471   2.009  13.618  1.9328  1.5714 -1.0750
  551TMC3    H1 8180   2.214   2.258  13.845  0.2941  0.4304 -0.8434
  551TMC3    H2 8181   2.613   2.213  13.961  0.7760 -1.3813  0.4687
  551TMC3    C7 8182   2.421   2.353  14.001  1.0626 -0.3026  0.1189
  551TMC3    C8 8183   2.642   2.199  13.707  0.3981  0.3144 -0.5267
  551TMC3    O1 8184   2.494   2.353  14.098  0.8155 -0.5362 -0.1453
  551TMC3    O2 8185   2.685   2.300  13.766 -0.5187  0.2630  0.3528
  552MPD2     C 8186   3.924   4.519  14.107 -0.3741 -1.4352  0.0085
  552MPD2    C1 8187   3.995   4.573  14.004  0.5914 -0.0258  0.6034
  552MPD2    C2 8188   4.123   4.632  14.035 -0.1974  0.4915 -0.0371
  552MPD2    C3 8189   4.164   4.644  14.163 -0.1376  0.1156  0.4179
  552MPD2    C4 8190   4.078   4.606  14.265  0.0556  0.3952 -0.6625
  552MPD2    C5 8191   3.962   4.542  14.234  0.1712  0.8556  0.2754
  552MPD2     H 8192   4.187   4.662  13.952 -0.7570  1.2496 -0.1934
  552MPD2    H1 8193   4.113   4.623  14.366 -0.4744  0.0037 -0.4107
  552MPD2    H2 8194   3.830   4.470  14.083  0.1712 -2.5663  0.1888
  552MPD2    H3 8195   3.890   4.513  14.310  0.5992  2.5602  1.3489
  552MPD2     N 8196   4.293   4.674  14.204 -0.1727 -0.3952  0.4456
  552MPD2    H5 8197   4.310   4.660  14.303  0.3235  1.3494  0.5972
  552MPD2    N1 8198   3.939   4.563  13.875  0.2400  0.4420  0.4454
  552MPD2    H7 8199   3.862   4.497  13.868 -1.4197  2.1530  2.7449
  553TMC3    C1 8200   3.931   4.564  13.640 -0.7537  0.1744 -0.7003
  553TMC3    C2 8201   3.952   4.632  13.525 -1.0505 -0.6390  0.0356
  553TMC3    C3 8202   3.953   4.567  13.405  0.4357 -0.8742 -0.5107
  553TMC3    C4 8203   3.900   4.436  13.635 -0.3641  0.5537  0.1443
  553TMC3    C5 8204   3.890   4.366  13.515  0.2648  0.9829 -1.0831
  553TMC3    C6 8205   3.917   4.437  13.396  0.2397 -0.7386  0.8663
  553TMC3     C 8206   3.982   4.625  13.759  0.3509  0.7952 -0.0552
  553TMC3     O 8207   4.056   4.718  13.743 -0.4227 -0.3313  0.2018
  553TMC3     H 8208   3.965   0.018  13.529  0.0639 -0.8221  1.2134
  553TMC3    H1 8209   3.891   4.379  13.726  1.3721 -0.4967 -0.3387
  553TMC3    H2 8210   3.935   4.381  13.305 -0.1682  0.5955 -0.0389
  553TMC3    C7 8211   3.914   4.226  13.519  0.0964  0.6446 -0.4134
  553TMC3    C8 8212   4.030   4.642  13.301 -0.2543 -0.0534  0.5441
  553TMC3    O1 8213   3.862   4.148  13.445  0.0889 -0.0969 -0.2463
  553TMC3    O2 8214   4.086   0.025  13.331  0.1712  0.1095 -0.4858
  554TMC3    C1 8215   1.645   3.276  12.097  0.5976  0.4849  0.2126
  554TMC3    C2 8216   1.554   3.235  12.003  0.9854 -0.1496  0.3174
  554TMC3    C3 8217   1.555   3.299  11.879  0.6597  0.3352  0.1704
  554TMC3    C4 8218   1.738   3.376  12.076  0.8511  0.2381 -0.2766
  554TMC3    C5 8219   1.733   3.430  11.949 -0.0231 -0.2268 -0.2160
  554TMC3    C6 8220   1.645   3.392  11.855  0.1615 -0.4063  0.0572
  554TMC3     C 8221   1.659   3.208  12.229 -0.4194  0.6065  0.4250
  554TMC3     O 8222   1.746   3.241  12.311  0.0091 -0.6794 -0.0905
  554TMC3     H 8223   1.477   3.163  12.027  1.8482 -0.5336  1.9353
  554TMC3    H1 8224   1.811   3.403  12.152  0.6714 -0.8799  0.2958
  554TMC3    H2 8225   1.632   3.461  11.773  2.2885 -0.3684 -0.2392
  554TMC3    C7 8226   1.854   3.500  11.913 -0.5266 -0.3343 -0.6419
  554TMC3    C8 8227   1.475   3.257  11.766  0.4552  0.4433 -0.2562
  554TMC3    O1 8228   1.922   3.547  12.000 -0.2520  0.0429  0.5526
  554TMC3    O2 8229   1.508   3.315  11.661 -0.3009 -0.0729 -0.4035
  555TMC3    C1 8230   0.542   2.873  14.838 -0.6156  0.0621 -0.0256
  555TMC3    C2 8231   0.521   2.961  14.940  0.2922  0.1366 -0.8807
  555TMC3    C3 8232   0.510   2.915  15.064 -0.2151 -0.2520 -0.5673
  555TMC3    C4 8233   0.533   2.738  14.862  0.2015 -0.0440 -0.4190
  555TMC3    C5 8234   0.494   2.696  14.986 -0.2008 -0.7437 -0.4709
  555TMC3    C6 8235   0.497   2.779  15.090  0.0658  0.3969 -0.1650
  555TMC3     C 8236   0.561   2.936  14.709  0.4451  0.7709  0.5884
  555TMC3     O 8237   0.631   2.874  14.633 -0.0697 -0.0083  0.1049
  555TMC3     H 8238   0.526   3.066  14.916 -0.4811 -0.3107 -3.0130
  555TMC3    H1 8239   0.563   2.680  14.776 -0.4090 -2.8184  1.2417
  555TMC3    H2 8240   0.481   2.754  15.195 -0.1567 -2.7092 -0.9478
  555TMC3    C7 8241   0.506   2.551  15.022  1.1768 -0.4462  0.4303
  555TMC3    C8 8242   0.532   3.015  15.170  0.0652 -0.3605  0.2125
  555TMC3    O1 8243   0.461   2.524  15.132  0.1125 -0.3556  0.2008
  555TMC3    O2 8244   0.528   3.132  15.129 -0.1931 -0.6083  0.1629
  556MPD2     C 8245   3.944   4.424  10.540  0.2519  0.4910 -0.0930
  556MPD2    C1 8246   3.907   4.333  10.636  0.5770 -0.2448  0.0303
  556MPD2    C2 8247   3.939   4.199  10.617  0.3530  0.0766 -0.3672
  556MPD2    C3 8248   3.999   4.163  10.492 -0.0164  0.4641 -0.0962
  556MPD2    C4 8249   4.024   4.256  10.392  0.5139  0.0129  0.4291
  556MPD2    C5 8250   3.998   4.386  10.422  0.1285 -0.2439 -0.2320
  556MPD2     H 8251   3.908   4.119  10.682  0.8040 -0.9440 -1.4058
  556MPD2    H1 8252   4.059   4.236  10.291  0.1025  1.2246  0.0469
  556MPD2    H2 8253   3.930   4.531  10.554 -0.8134  0.6598 -2.5005
  556MPD2    H3 8254   4.013   4.469  10.354  1.7259 -0.2075  0.1871
  556MPD2     N 8255   4.029   4.027  10.475  0.6810 -0.6200  0.4279
  556MPD2    H5 8256   4.013   3.953  10.543  1.8998 -0.4596  0.8962
  556MPD2    N1 8257   3.835   4.372  10.756 -0.2323 -0.3663 -0.7003
  556MPD2    H7 8258   3.819   4.289  10.812  2.4510 -1.2449 -1.2629
  557TMC3    C1 8259   4.054   3.835  10.349 -0.6597 -0.5117 -0.3460
  557TMC3    C2 8260   4.119   3.771  10.247  0.1932  0.1806  0.3497
  557TMC3    C3 8261   4.052   3.665  10.183  0.1627 -0.5958 -0.2933
  557TMC3    C4 8262   3.924   3.791  10.379  0.0486 -0.3624 -0.0389
  557TMC3    C5 8263   3.871   3.681  10.321 -0.3764  0.3236  0.8680
  557TMC3    C6 8264   3.939   3.610  10.225  0.3344  0.0194 -0.9311
  557TMC3     C 8265   4.080   3.973  10.361 -0.0357 -0.6750  0.7739
  557TMC3     O 8266   4.100   4.020  10.249  0.0946  0.0206 -0.0272
  557TMC3     H 8267   4.214   3.810  10.213 -0.1813  1.5091  0.8548
  557TMC3    H1 8268   3.858   3.854  10.437  1.4951  1.5482 -0.4508
  557TMC3    H2 8269   3.895   3.527  10.172 -1.9606  1.2198 -0.9256
  557TMC3    C7 8270   3.742   3.632  10.364  0.1864  0.0910 -0.4200
  557TMC3    C8 8271   4.107   3.620  10.058  0.5322 -0.1709 -0.4630
  557TMC3    O1 8272   3.707   3.674  10.474  0.2591  0.5478  0.0599
  557TMC3    O2 8273   4.228   3.629  10.045 -0.2887 -0.3201  0.2576
  558TMC3    C1 8274   1.596   2.483   9.938 -0.7486  0.1373 -0.0847
  558TMC3    C2 8275   1.553   2.493  10.066  0.6711 -0.4616 -0.5380
  558TMC3    C3 8276   1.458   2.399  10.104  0.0952 -0.1969  0.0324
  558TMC3    C4 8277   1.547   2.391   9.846 -0.2166 -0.0056 -0.2482
  558TMC3    C5 8278   1.459   2.297   9.891  0.0583  0.0228 -0.6456
  558TMC3    C6 8279   1.411   2.295  10.022  0.4305 -0.4225 -0.2552
  558TMC3     C 8280   1.742   2.475   9.948  1.0952  0.1138  0.4224
  558TMC3     O 8281   1.788   2.505  10.059 -0.3826  0.0162 -0.0542
  558TMC3     H 8282   1.598   2.567  10.131  1.6887 -2.0128  0.5256
  558TMC3    H1 8283   1.561   2.410   9.740 -1.2957  2.3795  0.0285
  558TMC3    H2 8284   1.354   2.213  10.064  0.9988 -0.6389  0.0876
  558TMC3    C7 8285   1.356   2.260   9.799  0.0677  0.1610  0.2088
  558TMC3    C8 8286   1.486   2.350  10.242 -0.1507 -0.4085 -0.2351
  558TMC3    O1 8287   1.357   2.320   9.697  0.1945 -0.0117  0.5146
  558TMC3    O2 8288   1.531   2.236  10.258  0.2546 -0.1185 -0.1848
  559MPD2     C 8289   1.286   2.619  11.081 -0.0049 -0.2790  0.4144
  559MPD2    C1 8290   1.249   2.556  11.204 -0.2130 -0.2626 -0.2524
  559MPD2    C2 8291   1.350   2.540  11.293 -0.4546  0.4222  0.0002
  559MPD2    C3 8292   1.484   2.579  11.266  0.5997 -0.1267  0.3953
  559MPD2    C4 8293   1.510   2.659  11.161  0.4861  0.1469  0.2021
  559MPD2    C5 8294   1.407   2.678  11.069 -0.1088 -0.0746  0.4337
  559MPD2     H 8295   1.324   2.483  11.381 -0.3467  2.3592  1.2971
  559MPD2    H1 8296   1.604   2.707  11.135  0.8383 -1.4755 -1.4862
  559MPD2    H2 8297   1.213   2.611  11.001  0.0094  2.6365  0.1077
  559MPD2    H3 8298   1.431   2.736  10.981  1.2260 -2.2375 -0.6394
  559MPD2     N 8299   1.583   2.534  11.352  0.7307  0.7735 -0.3589
  559MPD2    H5 8300   1.553   2.480  11.433 -0.2254  0.3331 -1.0046
  559MPD2    N1 8301   1.112   2.523  11.225 -0.1620  0.0658 -0.6083
  559MPD2    H7 8302   1.049   2.550  11.150 -2.0952 -1.4897  0.4434
  560TMC3    C1 8303   1.784   2.566  11.477 -0.4438  0.3825 -0.4070
  560TMC3    C2 8304   1.757   2.461  11.563  0.8167 -0.2646  0.0118
  560TMC3    C3 8305   1.842   2.433  11.669 -0.1646  0.2902 -0.3634
  560TMC3    C4 8306   1.890   2.648  11.508 -0.1662  0.0789 -0.2744
  560TMC3    C5 8307   1.966   2.635  11.616  0.0711 -0.1473  0.5619
  560TMC3    C6 8308   1.951   2.525  11.696  0.2875  0.1865  0.8995
  560TMC3     C 8309   1.717   2.578  11.349  0.2627  0.9605 -0.4509
  560TMC3     O 8310   1.778   2.638  11.262 -0.2150 -0.4384 -0.9549
  560TMC3     H 8311   1.686   2.386  11.531  0.4905 -0.5102  1.2941
  560TMC3    H1 8312   1.895   2.747  11.463  0.8460 -0.0002 -0.3361
  560TMC3    H2 8313   2.002   2.510  11.790  2.8820 -0.1799 -0.5664
  560TMC3    C7 8314   2.040   2.745  11.674 -0.8518 -0.5888 -0.5770
  560TMC3    C8 8315   1.876   2.288  11.673  0.0264 -0.0839 -0.5755
  560TMC3    O1 8316   2.051   2.763  11.796 -0.3066  0.3782 -0.2657
  560TMC3    O2 8317   1.798   2.205  11.627 -0.1329  0.5775 -0.0194
  561TMC3    C1 8318   3.853   1.590  11.565 -0.0400 -0.7774  0.2582
  561TMC3    C2 8319   3.735   1.531  11.615 -0.1004  0.4538 -0.8401
  561TMC3    C3 8320   3.640   1.611  11.670  0.5464 -0.3550  0.1270
  561TMC3    C4 8321   3.871   1.722  11.565  0.8859  0.0950 -0.4905
  561TMC3    C5 8322   3.768   1.799  11.620 -0.6354 -0.2780 -0.2148
  561TMC3    C6 8323   3.653   1.742  11.681 -0.6014 -0.5091 -0.8787
  561TMC3     C 8324   3.922   1.514  11.457 -0.0614  0.0247 -0.1088
  561TMC3     O 8325   3.894   1.398  11.436  0.0831 -0.4847 -0.3863
  561TMC3     H 8326   3.721   1.423  11.616 -0.3112  0.4963  0.4986
  561TMC3    H1 8327   3.963   1.765  11.528  1.2473  1.2566  1.7298
  561TMC3    H2 8328   3.576   1.802  11.730 -1.5454 -2.6512  0.2514
  561TMC3    C7 8329   3.778   1.945  11.641  0.3970 -0.4957  0.2628
  561TMC3    C8 8330   3.520   1.551  11.717  0.3157 -0.3344  0.4491
  561TMC3    O1 8331   3.695   1.992  11.718 -0.4841 -0.0754  0.3037
  561TMC3    O2 8332   3.503   1.438  11.675  0.3212 -0.4499 -0.0838
  562TMC3    C1 8333   0.412   3.450  15.722 -0.3265 -0.6335  0.3065
  562TMC3    C2 8334   0.341   3.537  15.648 -0.2813 -0.2154  0.9035
  562TMC3    C3 8335   0.236   3.486  15.575 -0.7038  0.3660  0.4288
  562TMC3    C4 8336   0.393   3.315  15.718  0.3286  0.8415 -0.0295
  562TMC3    C5 8337   0.293   3.268  15.635 -0.6512 -0.4905 -0.1861
  562TMC3    C6 8338   0.211   3.352  15.567 -0.2904 -0.1378  0.4754
  562TMC3     C 8339   0.485   3.507  15.830 -0.7650 -0.0034 -0.0576
  562TMC3     O 8340   0.494   3.435  15.926 -0.4888  0.3802 -0.5029
  562TMC3     H 8341   0.365   3.642  15.632  0.1472 -0.0440  2.7097
  562TMC3    H1 8342   0.465   3.249  15.766  0.8590  2.4846  1.4325
  562TMC3    H2 8343   0.129   3.315  15.506 -0.5431 -0.3668  0.9589
  562TMC3    C7 8344   0.295   3.136  15.580 -0.9058  0.3587  0.5609
  562TMC3    C8 8345   0.129   3.575  15.520 -0.3316  0.2040 -0.0095
  562TMC3    O1 8346   0.243   3.119  15.469  0.2728  0.2276 -0.0392
  562TMC3    O2 8347   0.159   3.684  15.470  0.0450  0.1627  0.0672
  563MPD2     C 8348   2.307   4.467  15.992  0.4957 -0.2165  0.0734
  563MPD2    C1 8349   2.355   4.528  16.108  0.1829  0.3742  0.0607
  563MPD2    C2 8350   2.490   4.538  16.133 -0.5770  0.0008 -0.6186
  563MPD2    C3 8351   2.581   4.501  16.039 -0.0133 -0.4635 -0.5767
  563MPD2    C4 8352   2.536   4.445  15.923 -0.4441 -0.3279  0.2176
  563MPD2    C5 8353   2.400   4.425  15.899  0.3332 -0.6549 -0.0229
  563MPD2     H 8354   2.527   4.576  16.227 -0.8459  0.4606 -0.6984
  563MPD2    H1 8355   2.600   4.412  15.842  1.8070 -0.8938  2.2147
  563MPD2    H2 8356   2.204   4.445  15.966 -0.0141  0.1100  1.8253
  563MPD2    H3 8357   2.372   4.367  15.812  0.7592 -0.4649 -0.2881
  563MPD2     N 8358   2.716   4.504  16.079  0.1045  0.0947  0.1037
  563MPD2    H5 8359   2.738   4.543  16.170  1.1051  1.9476 -0.9431
  563MPD2    N1 8360   2.258   4.577  16.199  0.3246  0.8408 -0.0676
  563MPD2    H7 8361   2.164   4.540  16.186 -0.2928  1.5715  2.3994
  564TMC3    C1 8362   2.189   4.629  16.426  0.2880  0.8055 -0.6180
  564TMC3    C2 8363   2.073   4.556  16.399 -0.0861 -0.0333 -0.2962
  564TMC3    C3 8364   2.031   4.457  16.486  0.4931  0.4323 -0.2200
  564TMC3    C4 8365   2.260   4.603  16.536 -0.5931  1.0054 -0.8022
  564TMC3    C5 8366   2.228   4.504  16.620  0.3955 -0.8253  0.3810
  564TMC3    C6 8367   2.110   4.440  16.593  0.5031 -0.3227 -0.4882
  564TMC3     C 8368   2.286   4.648  16.314 -0.5751  0.3603 -0.1419
  564TMC3     O 8369   2.389   4.703  16.345  0.2785 -0.2002  0.0800
  564TMC3     H 8370   2.006   4.581  16.317  0.0685 -1.4958 -0.8567
  564TMC3    H1 8371   2.359   4.642  16.559 -0.8136  0.7494  0.5746
  564TMC3    H2 8372   2.090   4.362  16.666 -0.0428  0.0703 -0.2169
  564TMC3    C7 8373   2.339   4.418  16.635  0.7186 -0.7581 -0.3826
  564TMC3    C8 8374   1.986   4.330  16.433  0.0167  0.1142  1.2799
  564TMC3    O1 8375   2.443   4.460  16.672 -0.0570  0.2562 -0.2006
  564TMC3    O2 8376   2.018   4.241  16.514 -0.3822 -0.3790 -0.5721
  565TMC3    C1 8377   3.210   1.053  10.302 -0.2414  0.4792 -0.1663
  565TMC3    C2 8378   3.205   0.939  10.382 -0.8948  1.1494  0.3057
  565TMC3    C3 8379   3.122   0.843  10.347  0.3781 -0.9691 -0.4771
  565TMC3    C4 8380   3.130   1.069  10.189  0.2390 -0.9039 -0.5535
  565TMC3    C5 8381   3.041   0.973  10.165  0.4204 -0.2049  0.7761
  565TMC3    C6 8382   3.042   0.855  10.238 -0.3954  0.4803  0.3178
  565TMC3     C 8383   3.286   1.163  10.361 -0.0031 -0.5672 -0.2899
  565TMC3     O 8384   3.298   1.261  10.290  0.1094 -0.2544 -0.0393
  565TMC3     H 8385   3.272   0.907  10.461  0.6003  2.7526 -0.3333
  565TMC3    H1 8386   3.139   1.165  10.139  0.2837 -1.2880 -1.2966
  565TMC3    H2 8387   2.969   0.780  10.212  1.4055 -0.6128 -1.5618
  565TMC3    C7 8388   2.952   0.980  10.053  0.5744  0.1602  1.0418
  565TMC3    C8 8389   3.137   0.720  10.418 -0.7314  0.2262 -0.6376
  565TMC3    O1 8390   2.885   0.880  10.031 -0.4929 -0.0154  0.1574
  565TMC3    O2 8391   3.191   0.720  10.527  0.4656  0.1028 -0.5527
  566MPD2     C 8392   4.416   3.324  14.306  0.3227 -0.3068 -1.3255
  566MPD2    C1 8393   4.496   3.212  14.303 -0.8396  0.7340 -0.6721
  566MPD2    C2 8394   4.443   3.086  14.266  0.3468  0.2421  0.1880
  566MPD2    C3 8395   4.309   3.078  14.233  0.2186  0.6766  0.4286
  566MPD2    C4 8396   4.225   3.180  14.251 -0.7239 -0.3832  0.1285
  566MPD2    C5 8397   4.279   3.300  14.290 -0.3474 -0.6327  0.0326
  566MPD2     H 8398   4.514   3.005  14.254  0.9577  0.4007  2.7595
  566MPD2    H1 8399   4.117   3.170  14.257 -0.7008 -0.2832  0.7896
  566MPD2    H2 8400   4.446   3.424  14.336  0.9192 -0.7414 -0.4829
  566MPD2    H3 8401   4.207   3.378  14.313  1.4359  1.2088 -0.7064
  566MPD2     N 8402   4.260   2.962  14.174 -0.3840 -0.0702  0.7907
  566MPD2    H5 8403   4.174   2.976  14.122 -1.0816 -1.5211  1.5373
  566MPD2    N1 8404   4.630   3.208  14.336 -0.0549  0.2826  0.0615
  566MPD2    H7 8405   4.668   3.114  14.332 -2.2728 -0.6374  0.9370
  567TMC3    C1 8406   0.120   3.276  14.367 -0.2799  0.0019 -0.0396
  567TMC3    C2 8407   0.191   3.311  14.260  0.2529  0.0014 -0.7193
  567TMC3    C3 8408   0.275   3.214  14.204 -0.0853 -0.7396 -0.8274
  567TMC3    C4 8409   0.142   3.145  14.418  0.4294 -0.5752 -0.5792
  567TMC3    C5 8410   0.234   3.058  14.366  0.1248  0.3850  0.3887
  567TMC3    C6 8411   0.303   3.090  14.251  0.3838  0.2985  0.1486
  567TMC3     C 8412   4.707   3.317  14.371  1.0046 -0.3583 -0.2608
  567TMC3     O 8413   4.682   3.439  14.355  0.3409 -0.0126 -0.6547
  567TMC3     H 8414   0.166   3.406  14.214  1.9185  0.5189 -0.5588
  567TMC3    H1 8415   0.077   3.129  14.504 -2.1764  0.7697 -2.3090
  567TMC3    H2 8416   0.379   3.029  14.204 -1.3755 -0.7550 -1.3336
  567TMC3    C7 8417   0.267   2.938  14.432  0.2622 -0.5127  0.2537
  567TMC3    C8 8418   0.313   3.238  14.069  0.5521  0.3147  0.3891
  567TMC3    O1 8419   0.359   2.872  14.387 -0.2054  0.6983  0.2637
  567TMC3    O2 8420   0.227   3.296  13.999  0.2076  0.0142 -0.0324
  568MPD2     C 8421   1.638   3.015  16.647  0.2562  0.3720 -0.4660
  568MPD2    C1 8422   1.745   3.038  16.719  0.0114  0.4783 -0.3407
  568MPD2    C2 8423   1.833   3.137  16.675  0.0457 -0.7909  0.8368
  568MPD2    C3 8424   1.811   3.209  16.555  0.0779 -0.2521 -0.4437
  568MPD2    C4 8425   1.694   3.183  16.487 -0.2470  0.3216  0.2156
  568MPD2    C5 8426   1.605   3.088  16.536  0.3266  0.4241  0.6293
  568MPD2     H 8427   1.923   3.169  16.726  0.0740 -0.8994  0.8550
  568MPD2    H1 8428   1.666   3.239  16.398  0.4854  2.4880  1.3540
  568MPD2    H2 8429   1.566   2.945  16.688  0.7725 -1.2958 -2.4230
  568MPD2    H3 8430   1.509   3.083  16.487  1.0356  1.9200 -0.9136
  568MPD2     N 8431   1.904   3.308  16.519  0.2010 -0.1994  0.2035
  568MPD2    H5 8432   1.986   3.315  16.578 -0.7501  1.6547  1.3256
  568MPD2    N1 8433   1.757   2.971  16.840 -0.4001 -0.2036 -0.2359
  568MPD2    H7 8434   1.682   2.911  16.873 -1.5037  0.8424 -0.8567
  569TMC3    C1 8435   1.986   3.508  16.406 -0.0383 -1.1940  0.0721
  569TMC3    C2 8436   2.066   3.533  16.515  0.6173 -0.3331  0.4824
  569TMC3    C3 8437   2.178   3.593  16.498 -0.1825  0.1197  0.0933
  569TMC3    C4 8438   2.026   3.546  16.275 -0.0625 -0.5855  0.2236
  569TMC3    C5 8439   2.138   3.618  16.268  0.2149 -0.3647 -0.6913
  569TMC3    C6 8440   2.221   3.638  16.375  0.2180 -0.9708 -0.6603
  569TMC3     C 8441   1.889   3.396  16.410 -0.5899 -0.1255 -0.2327
  569TMC3     O 8442   1.809   3.386  16.318  0.4068 -0.2851  0.1621
  569TMC3     H 8443   2.039   3.513  16.618 -0.1080 -1.6746  0.0202
  569TMC3    H1 8444   1.975   3.528  16.181  1.7533  0.8971 -1.0499
  569TMC3    H2 8445   2.300   3.712  16.366  0.5822 -1.2386  0.3963
  569TMC3    C7 8446   2.128   3.732  16.178  0.4976  0.3056  0.5179
  569TMC3    C8 8447   2.220   3.675  16.613 -0.6091  0.6031 -0.1526
  569TMC3    O1 8448   2.121   3.710  16.058  0.1901 -0.1386  0.0231
  569TMC3    O2 8449   2.342   3.700  16.620 -0.2681 -0.8223 -0.2524
  570TMC3    C1 8450   1.518   1.815  16.741 -0.7894 -0.1111 -0.6783
  570TMC3    C2 8451   1.609   1.847  16.646  0.6049  0.2810 -0.5487
  570TMC3    C3 8452   1.638   1.980  16.619  0.4847 -0.1386  0.1490
  570TMC3    C4 8453   1.456   1.910  16.810  0.4103 -0.8963  0.0200
  570TMC3    C5 8454   1.496   2.039  16.796 -0.5343 -0.8566  0.2686
  570TMC3    C6 8455   1.581   2.079  16.693 -1.3329  0.7182  0.3725
  570TMC3     C 8456   1.489   1.674  16.764 -0.3459  0.5111 -0.0581
  570TMC3     O 8457   1.500   1.597  16.673  0.4180  0.1444  0.1011
  570TMC3     H 8458   1.665   1.766  16.601  0.8551  0.4961 -0.6224
  570TMC3    H1 8459   1.387   1.879  16.888  1.3454 -0.5901  0.9717
  570TMC3    H2 8460   1.629   2.176  16.689 -1.2436  0.6728  0.3272
  570TMC3    C7 8461   1.437   2.152  16.864  0.1255  0.3402  0.4148
  570TMC3    C8 8462   1.710   2.015  16.500 -0.0580 -0.0449  0.2035
  570TMC3    O1 8463   1.366   2.120  16.960  0.2610 -0.6892 -0.4119
  570TMC3    O2 8464   1.733   2.135  16.499 -0.1452  0.6895  0.2074
  571MPD2     C 8465   4.315   3.432   0.281 -0.0122 -0.5239 -0.1331
  571MPD2    C1 8466   4.260   3.426   0.155 -0.4093  0.4196 -0.7116
  571MPD2    C2 8467   4.173   3.530   0.115 -0.2239 -0.3315 -0.9086
  571MPD2    C3 8468   4.142   3.635   0.198 -0.7993 -0.1036 -0.0734
  571MPD2    C4 8469   4.192   3.634   0.328  0.0311  0.0928  0.3544
  571MPD2    C5 8470   4.286   3.542   0.365  0.2479 -0.2246 -1.2756
  571MPD2     H 8471   4.129   3.530   0.015  0.3756 -0.1664 -1.1713
  571MPD2    H1 8472   4.185   3.717   0.397 -1.2408 -0.4622  0.9034
  571MPD2    H2 8473   4.389   3.358   0.311 -1.0266 -0.5180  2.3348
  571MPD2    H3 8474   4.342   3.561   0.456 -0.0099 -1.6503 -0.8289
  571MPD2     N 8475   4.054   3.743   0.160 -0.0714  0.1596 -0.3347
  571MPD2    H5 8476   4.029   3.797   0.242  2.5770  1.4169 -0.3648
  571MPD2    N1 8477   4.290   3.317   0.074 -0.6618 -0.3491 -0.2595
  571MPD2    H7 8478   4.340   3.246   0.127  0.0927  1.2999  1.2491
  572TMC3    C1 8479   3.936   3.897   0.036 -0.7881  0.1678 -0.0693
  572TMC3    C2 8480   3.829   3.903   0.115  0.4077  0.1505  0.5820
  572TMC3    C3 8481   3.751   4.019   0.095 -0.3952  0.3864 -0.0840
  572TMC3    C4 8482   3.975   3.995  17.643  0.4322  0.3499  0.1435
  572TMC3    C5 8483   3.910   4.112  17.632 -0.3393  0.8320  0.2175
  572TMC3    C6 8484   3.793   4.125   0.010  0.7380  0.1752 -0.2324
  572TMC3     C 8485   4.006   3.773   0.039 -0.6041  0.2773  0.4647
  572TMC3     O 8486   4.060   3.733  17.621  0.4876 -0.3361  0.2177
  572TMC3     H 8487   3.787   3.815   0.162 -1.1294  0.7340  0.2961
  572TMC3    H1 8488   4.071   3.979  17.594  0.8843  0.5943  0.9447
  572TMC3    H2 8489   3.723   4.208   0.003  0.1270 -0.4896 -1.9706
  572TMC3    C7 8490   3.948   4.234  17.562  0.5128 -0.5556  0.1647
  572TMC3    C8 8491   3.652   4.053   0.198 -0.7500 -0.2952  0.5871
  572TMC3    O1 8492   3.853   4.306  17.538  0.1747 -0.1132  0.1546
  572TMC3    O2 8493   3.567   4.137   0.176  0.8711  0.1623 -0.4203
  573MPD2     C 8494   0.280   4.711   1.155  0.1135 -0.7471 -0.5889
  573MPD2    C1 8495   0.208   0.085   1.230  0.0516 -0.6759  0.5443
  573MPD2    C2 8496   0.112   0.161   1.171  0.6649 -0.4028  0.4836
  573MPD2    C3 8497   0.091   0.143   1.039 -0.5446 -0.2526 -0.0169
  573MPD2    C4 8498   0.169   0.057   0.963  0.5993 -0.0050  0.3030
  573MPD2    C5 8499   0.256   4.697   1.023  0.0347 -0.1020  0.1492
  573MPD2     H 8500   0.054   0.233   1.229 -2.4410 -0.7444 -2.1839
  573MPD2    H1 8501   0.137   0.030   0.863  2.7160  2.6670 -1.0688
  573MPD2    H2 8502   0.360   4.655   1.201  0.7621  0.1763 -0.5805
  573MPD2    H3 8503   0.307   4.622   0.963 -1.4823 -0.1049 -1.1201
  573MPD2     N 8504   4.715   0.220   0.969  0.7291  0.7652 -0.0060
  573MPD2    H5 8505   4.707   0.193   0.872  0.6235  2.1523 -0.3782
  573MPD2    N1 8506   0.253   0.103   1.367 -0.2209 -0.4854 -0.1482
  573MPD2    H7 8507   0.311   0.026   1.399 -0.5189 -0.4887  0.3871
  574TMC3    C1 8508   4.521   0.351   0.939 -0.3226 -0.1254 -0.5995
  574TMC3    C2 8509   4.476   0.477   0.971 -0.3422 -0.1102 -0.7255
  574TMC3    C3 8510   4.427   0.552   0.863 -0.6472  0.4244  0.4529
  574TMC3    C4 8511   4.501   0.299   0.814  0.0007  0.1969 -0.4278
  574TMC3    C5 8512   4.476   0.386   0.714 -0.4714 -1.0650 -0.9693
  574TMC3    C6 8513   4.437   0.513   0.734  0.1401 -0.1121 -0.0134
  574TMC3     C 8514   4.619   0.300   1.027 -0.2157  0.1451 -0.2374
  574TMC3     O 8515   4.607   0.330   1.145  0.0483 -0.2153  0.3191
  574TMC3     H 8516   4.509   0.530   1.060 -1.4873  0.8814 -0.8844
  574TMC3    H1 8517   4.550   0.204   0.793 -0.3975 -0.2891  0.8430
  574TMC3    H2 8518   4.403   0.575   0.652  1.6663 -1.8460 -1.9532
  574TMC3    C7 8519   4.465   0.339   0.581  0.4834 -0.0676 -0.1494
  574TMC3    C8 8520   4.383   0.687   0.893  0.3585  0.1957  0.1691
  574TMC3    O1 8521   4.506   0.413   0.492 -0.1647  0.0596 -0.3239
  574TMC3    O2 8522   4.395   0.718   1.009  0.1295 -0.4605  0.4721
  575TMC3    C1 8523   3.244   0.207  11.083 -0.8032  0.1596 -0.0701
  575TMC3    C2 8524   3.222   0.073  11.066 -0.1266  0.6261 -0.2217
  575TMC3    C3 8525   3.231   0.016  10.944 -0.0803  0.3199 -0.1266
  575TMC3    C4 8526   3.247   0.287  10.972 -0.6420  0.3517  0.1966
  575TMC3    C5 8527   3.238   0.228  10.851 -0.6028  0.2454  0.1429
  575TMC3    C6 8528   3.228   0.093  10.833 -0.0712  0.7532  0.6015
  575TMC3     C 8529   3.269   0.258  11.210  0.0797 -0.1483  0.0894
  575TMC3     O 8530   3.288   0.170  11.297 -0.4775  0.4985 -0.3321
  575TMC3     H 8531   3.208   0.018  11.158  1.8437  1.2990  0.4593
  575TMC3    H1 8532   3.236   0.394  10.976 -1.3284  0.2248  1.6348
  575TMC3    H2 8533   3.228   0.052  10.732  0.8718  1.3718  0.3502
  575TMC3    C7 8534   3.209   0.319  10.742  0.3539 -0.9866 -0.1896
  575TMC3    C8 8535   3.263   4.597  10.939  0.2932 -0.0847 -0.0754
  575TMC3    O1 8536   3.254   0.433  10.752  0.3537  0.8174 -0.4659
  575TMC3    O2 8537   3.239   4.532  11.039 -0.2259 -0.1881 -0.8479
  576MPD2     C 8538   2.731   1.819  12.919 -0.0075 -0.7484 -0.6022
  576MPD2    C1 8539   2.783   1.936  12.865  0.4378  0.2390  0.2605
  576MPD2    C2 8540   2.762   2.063  12.928  0.2095 -0.0628 -0.2947
  576MPD2    C3 8541   2.684   2.063  13.047 -0.5722 -0.0005 -0.3334
  576MPD2    C4 8542   2.625   1.946  13.088 -0.1342 -0.2270  0.1121
  576MPD2    C5 8543   2.642   1.827  13.021 -0.7392  0.7519  0.3554
  576MPD2     H 8544   2.789   2.155  12.879  2.5013 -0.5786 -0.0144
  576MPD2    H1 8545   2.563   1.938  13.176 -1.8499  0.3811 -1.0627
  576MPD2    H2 8546   2.743   1.723  12.869  0.1843 -1.6980  1.2772
  576MPD2    H3 8547   2.600   1.740  13.070  2.0319 -1.0840 -0.5064
  576MPD2     N 8548   2.652   2.185  13.107  0.7458  0.1104  0.3025
  576MPD2    H5 8549   2.716   2.257  13.074 -1.0337  1.1825 -0.8140
  576MPD2    N1 8550   2.853   1.939  12.741  0.8831  0.7316  0.0562
  576MPD2    H7 8551   2.903   2.024  12.717 -2.3778  2.7210  0.4716
  577TMC3    C1 8552   2.953   1.870  12.533 -0.1974  0.0142  0.1776
  577TMC3    C2 8553   2.993   1.749  12.478  0.4289  0.1285 -0.0644
  577TMC3    C3 8554   3.119   1.746  12.421  0.0337 -0.5541 -0.1317
  577TMC3    C4 8555   3.025   1.980  12.531 -0.2583 -0.6164  0.0042
  577TMC3    C5 8556   3.158   1.969  12.491  1.6716 -0.5817  0.7501
  577TMC3    C6 8557   3.199   1.858  12.423  0.4540 -0.9402  0.1591
  577TMC3     C 8558   2.868   1.845  12.647  0.1785 -0.0506  0.4076
  577TMC3     O 8559   2.836   1.726  12.652 -0.3695 -0.2996  0.0266
  577TMC3     H 8560   2.938   1.655  12.477  0.1600  0.2449  2.3060
  577TMC3    H1 8561   2.989   2.064  12.589 -1.5791 -0.3669 -1.1677
  577TMC3    H2 8562   3.304   1.855  12.393  0.0211 -0.4606 -1.3977
  577TMC3    C7 8563   3.222   2.094  12.449  0.0212  0.5489  0.3428
  577TMC3    C8 8564   3.140   1.630  12.338  0.2884  1.0081  1.1115
  577TMC3    O1 8565   3.345   2.097  12.440  0.0287  0.3459 -0.3455
  577TMC3    O2 8566   3.075   1.528  12.362 -0.1341  0.3254 -0.3117
  578MPD2     C 8567   1.038   2.657   0.612  0.9233  0.1854 -0.2732
  578MPD2    C1 8568   1.102   2.751   0.700 -0.1343 -0.6516 -0.2442
  578MPD2    C2 8569   1.170   2.687   0.809 -0.1054  0.4408 -0.0943
  578MPD2    C3 8570   1.175   2.550   0.817 -0.1946 -0.3140 -0.0275
  578MPD2    C4 8571   1.117   2.466   0.724 -0.1064  0.2728  0.0868
  578MPD2    C5 8572   1.055   2.522   0.614  0.1666  0.3739 -0.3331
  578MPD2     H 8573   1.221   2.756   0.876 -0.9894 -0.9021  1.9312
  578MPD2    H1 8574   1.107   2.358   0.735 -0.1322  0.2980  0.3169
  578MPD2    H2 8575   0.970   2.697   0.539 -1.1188  0.2471  1.6597
  578MPD2    H3 8576   1.016   2.453   0.540 -0.8949  1.1933 -0.5403
  578MPD2     N 8577   1.233   2.497   0.937 -0.1525  0.1000  0.0182
  578MPD2    H5 8578   1.244   2.557   1.018  0.6553 -0.2470  0.1629
  578MPD2    N1 8579   1.102   2.887   0.670 -0.3653  0.5174  0.5555
  578MPD2    H7 8580   1.048   2.912   0.587 -2.2661  1.3700  2.0299
  579TMC3    C1 8581   1.290   2.336   1.104 -0.2961 -0.0863  1.1105
  579TMC3    C2 8582   1.395   2.411   1.158  0.3963  0.0779  0.0303
  579TMC3    C3 8583   1.467   2.364   1.263  0.0301  1.0233 -0.2126
  579TMC3    C4 8584   1.264   2.206   1.153 -0.3221 -0.2175  0.6751
  579TMC3    C5 8585   1.348   2.161   1.246  0.7766 -0.3826  0.5600
  579TMC3    C6 8586   1.452   2.229   1.294  0.3101 -1.0524  0.3498
  579TMC3     C 8587   1.243   2.358   0.962  0.5731 -0.1311  0.6331
  579TMC3     O 8588   1.213   2.256   0.899  0.2540 -0.0381 -0.3469
  579TMC3     H 8589   1.422   2.511   1.123 -0.7746  1.0517  1.9408
  579TMC3    H1 8590   1.184   2.142   1.118  0.3938 -0.7866  0.0887
  579TMC3    H2 8591   1.510   2.185   1.374 -1.1586 -1.5099  1.1651
  579TMC3    C7 8592   1.343   2.030   1.290  0.3314 -0.1870 -0.2564
  579TMC3    C8 8593   1.593   2.424   1.307  0.0792  0.6558  0.5584
  579TMC3    O1 8594   1.449   1.977   1.317  0.3382 -0.4138  0.1412
  579TMC3    O2 8595   1.628   2.400   1.420  0.5768  0.0939 -0.5890
  580TMC3    C1 8596   1.112   1.795  12.469  0.6081 -0.3758  1.0046
  580TMC3    C2 8597   1.226   1.864  12.427 -0.5116 -0.3344 -0.0318
  580TMC3    C3 8598   1.330   1.791  12.376 -0.0283  0.3861 -0.5011
  580TMC3    C4 8599   1.115   1.660  12.486  0.6160  0.3211  0.3415
  580TMC3    C5 8600   1.221   1.591  12.435 -0.3575  0.4301 -0.2993
  580TMC3    C6 8601   1.333   1.654  12.385 -0.1541  0.2116  0.0793
  580TMC3     C 8602   0.999   1.832  12.396  1.0053  0.7540 -0.7867
  580TMC3     O 8603   0.894   1.779  12.432 -0.1170 -0.4101  0.3279
  580TMC3     H 8604   1.228   1.972  12.422  4.3568 -0.4762 -1.5807
  580TMC3    H1 8605   1.026   1.600  12.502  1.1657 -0.8286 -0.9104
  580TMC3    H2 8606   1.421   1.600  12.351 -1.6043 -2.8757  1.2711
  580TMC3    C7 8607   1.228   1.451  12.452  0.1223  0.1290 -0.1150
  580TMC3    C8 8608   1.436   1.869  12.317  0.0566  0.5912 -0.1510
  580TMC3    O1 8609   1.155   1.408  12.540 -0.2536 -0.4585  0.0151
  580TMC3    O2 8610   1.464   1.973  12.378 -0.7600  0.3966 -0.0936
  581MPD2     C 8611   3.188   0.818  15.509 -0.3909 -0.3149 -0.0372
  581MPD2    C1 8612   3.244   0.941  15.535  0.3345 -0.6499 -0.3434
  581MPD2    C2 8613   3.188   1.054  15.479  0.4983  0.4442  0.0287
  581MPD2    C3 8614   3.070   1.048  15.403 -0.3904  0.1017 -0.4259
  581MPD2    C4 8615   3.019   0.927  15.375  0.5278 -0.1068 -1.1701
  581MPD2    C5 8616   3.075   0.814  15.431 -0.1601 -0.5148  0.3733
  581MPD2     H 8617   3.235   1.151  15.488  0.9275  0.3205 -0.8610
  581MPD2    H1 8618   2.939   0.919  15.302  1.1816  0.4477 -1.9508
  581MPD2    H2 8619   3.235   0.724  15.536 -1.7063 -0.7604  0.7527
  581MPD2    H3 8620   3.040   0.717  15.396 -0.9298  0.6918 -2.2191
  581MPD2     N 8621   3.013   1.161  15.346  1.0358  0.1339 -0.0450
  581MPD2    H5 8622   2.941   1.159  15.274 -0.1159  0.0878  1.1115
  581MPD2    N1 8623   3.363   0.943  15.607  0.5585 -0.4090 -0.7208
  581MPD2    H7 8624   3.404   0.853  15.630 -1.6206 -0.9825  0.8858
  582TMC3    C1 8625   3.562   1.028  15.712 -0.1520  0.4238  0.6166
  582TMC3    C2 8626   3.563   1.075  15.840 -0.1095  1.0091  0.3087
  582TMC3    C3 8627   3.625   1.002  15.936 -0.5806 -0.0581 -0.5961
  582TMC3    C4 8628   3.614   0.908  15.687 -0.8894 -0.0018 -0.1450
  582TMC3    C5 8629   3.688   0.846  15.781 -0.3056 -0.1485  0.3123
  582TMC3    C6 8630   3.691   0.889  15.909  0.2386 -0.5067  0.6583
  582TMC3     C 8631   3.441   1.061  15.631 -0.6144 -0.4055 -0.3421
  582TMC3     O 8632   3.403   1.175  15.643 -0.0587 -0.0199 -0.3810
  582TMC3     H 8633   3.517   1.171  15.861 -0.0161  1.3831 -1.1836
  582TMC3    H1 8634   3.612   0.878  15.582 -1.1111  1.2689 -0.5050
  582TMC3    H2 8635   3.736   0.829  15.988  0.0605 -2.3680 -0.6530
  582TMC3    C7 8636   3.655   0.704  15.773  0.2371  0.2554  0.3643
  582TMC3    C8 8637   3.628   1.060  16.070 -0.7250 -0.0296 -0.1101
  582TMC3    O1 8638   3.672   0.649  15.662 -0.1560 -0.7024  0.1857
  582TMC3    O2 8639   3.560   1.159  16.075 -0.3983 -0.4818 -0.7295
  583MPD2     C 8640   3.394   2.531  16.997  0.1474 -0.1949 -0.1403
  583MPD2    C1 8641   3.386   2.624  16.898 -0.2687  0.0876 -0.9354
  583MPD2    C2 8642   3.282   2.713  16.898  0.1258  0.1243 -0.2384
  583MPD2    C3 8643   3.179   2.712  16.987  0.9275 -0.3644 -1.1524
  583MPD2    C4 8644   3.187   2.620  17.089  0.6228  0.0630 -0.4628
  583MPD2    C5 8645   3.288   2.526  17.087 -0.2641  0.2248 -0.0823
  583MPD2     H 8646   3.282   2.791  16.822  0.5676  0.4811  0.1210
  583MPD2    H1 8647   3.121   2.629  17.176  1.1426 -1.2982  0.0611
  583MPD2    H2 8648   3.470   2.456  17.015 -0.2005 -0.2669  1.0772
  583MPD2    H3 8649   3.293   2.449  17.164  0.7989  0.6934  0.3194
  583MPD2     N 8650   3.085   2.821  16.979  0.2823  0.4623 -0.1394
  583MPD2    H5 8651   3.095   2.883  16.899  0.3536  0.4194 -0.1637
  583MPD2    N1 8652   3.490   2.640  16.805 -0.6343  0.1672  0.2948
  583MPD2    H7 8653   3.478   2.702  16.725 -1.2069 -2.0457 -1.3487
  584TMC3    C1 8654   2.919   2.968  17.050  0.7595  0.5718  0.2112
  584TMC3    C2 8655   2.965   3.054  16.956  0.1150 -0.4006 -0.0066
  584TMC3    C3 8656   2.928   3.186  16.962  0.4831  1.0659 -0.3843
  584TMC3    C4 8657   2.844   3.010  17.156  0.3835 -1.4126 -0.0541
  584TMC3    C5 8658   2.820   3.146  17.170 -0.1608  0.7474  0.2713
  584TMC3    C6 8659   2.856   3.235  17.069  0.6340  0.3740 -0.3053
  584TMC3     C 8660   2.979   2.837  17.066 -0.2278  0.6348 -0.6544
  584TMC3     O 8661   2.938   2.755  17.145  0.2603 -0.6518 -0.2987
  584TMC3     H 8662   3.028   3.030  16.871 -1.2989 -2.6111 -0.4400
  584TMC3    H1 8663   2.794   2.946  17.228 -0.0421  1.0520  1.8425
  584TMC3    H2 8664   2.807   3.331  17.065  0.7001  0.4009 -0.5000
  584TMC3    C7 8665   2.810   3.183  17.311 -0.0564 -0.2453 -0.2174
  584TMC3    C8 8666   2.991   3.283  16.868  0.0500 -0.5498 -0.2556
  584TMC3    O1 8667   2.827   3.093  17.393  0.5749  0.0737 -0.0415
  584TMC3    O2 8668   3.039   3.242  16.765 -0.0374  0.2188 -0.2305
  585MPD2     C 8669   2.954   2.414   0.429  0.4044 -0.2908 -0.2411
  585MPD2    C1 8670   2.978   2.323   0.326  0.5140  0.5578  0.1494
  585MPD2    C2 8671   2.913   2.201   0.329 -0.0371  0.6917  0.7912
  585MPD2    C3 8672   2.801   2.191   0.414  0.1075 -0.0444 -0.5464
  585MPD2    C4 8673   2.784   2.283   0.519 -0.5688  0.1922 -0.1600
  585MPD2    C5 8674   2.857   2.396   0.521 -0.2184 -0.5947  0.2381
  585MPD2     H 8675   2.931   2.121   0.258 -1.4073  1.8150 -0.8028
  585MPD2    H1 8676   2.702   2.268   0.589 -0.4115  0.0396 -0.0057
  585MPD2    H2 8677   2.992   2.516   0.431 -0.8793  0.1685  0.6815
  585MPD2    H3 8678   2.842   2.469   0.600 -1.3970 -2.7884  2.0351
  585MPD2     N 8679   2.702   2.089   0.396 -0.1930  0.5007  0.7509
  585MPD2    H5 8680   2.619   2.100   0.454  1.1742  0.9657  2.6487
  585MPD2    N1 8681   3.086   2.353   0.245 -0.6725 -0.0834  0.0414
  585MPD2    H7 8682   3.162   2.403   0.290 -0.4591 -0.6778  0.3380
  586TMC3    C1 8683   2.566   1.953   0.270 -0.6434  0.9398 -0.0685
  586TMC3    C2 8684   2.554   1.840   0.193  0.7367 -0.5886 -0.2578
  586TMC3    C3 8685   2.427   1.789   0.173 -0.2861  0.0763  0.1873
  586TMC3    C4 8686   2.459   2.012   0.327 -0.3969 -0.4149 -0.0607
  586TMC3    C5 8687   2.334   1.958   0.307 -0.0836 -0.0981  0.4532
  586TMC3    C6 8688   2.319   1.838   0.235  0.6851  0.4110 -0.6073
  586TMC3     C 8689   2.699   2.014   0.289 -0.0503 -0.8738 -0.4449
  586TMC3     O 8690   2.789   1.957   0.236  0.3409  0.2344  0.0915
  586TMC3     H 8691   2.635   1.796   0.135 -0.4619 -1.2384 -1.4483
  586TMC3    H1 8692   2.463   2.107   0.378 -0.3974  0.3472 -1.4637
  586TMC3    H2 8693   2.222   1.797   0.211  1.0653  0.2179 -1.7958
  586TMC3    C7 8694   2.233   1.982   0.406  0.2415  0.4355  0.5370
  586TMC3    C8 8695   2.409   1.651   0.127 -0.9741 -0.3805 -0.6475
  586TMC3    O1 8696   2.232   2.086   0.470 -0.6282 -0.0215 -0.2955
  586TMC3    O2 8697   2.304   1.598   0.160 -0.4893  0.2048 -0.6061
  587TMC3    C1 8698   0.255   0.733  16.764  0.1317  0.3788 -0.0770
  587TMC3    C2 8699   0.256   0.839  16.851  0.4466 -0.4457 -0.2680
  587TMC3    C3 8700   0.380   0.865  16.909 -0.3311  0.5739 -0.0117
  587TMC3    C4 8701   0.367   0.664  16.726  0.8208  0.0649  0.4283
  587TMC3    C5 8702   0.483   0.698  16.789 -0.0268 -0.1236 -0.3720
  587TMC3    C6 8703   0.494   0.800  16.876 -0.2450  0.5883  0.2024
  587TMC3     C 8704   0.143   0.711  16.672 -0.0726  0.0515 -0.6079
  587TMC3     O 8705   0.165   0.693  16.549 -0.3456  0.5505  0.4325
  587TMC3     H 8706   0.166   0.888  16.887  1.1464  0.3049  0.4758
  587TMC3    H1 8707   0.358   0.588  16.650 -2.7141 -0.0631  0.9634
  587TMC3    H2 8708   0.582   0.807  16.939  0.9074 -1.4378 -1.2041
  587TMC3    C7 8709   0.602   0.613  16.773  0.7563 -0.1996  0.0050
  587TMC3    C8 8710   0.382   0.950  17.029 -0.0373  0.9531  0.5041
  587TMC3    O1 8711   0.680   0.593  16.865  0.6603  0.3267  0.0300
  587TMC3    O2 8712   0.482   0.946  17.101  0.4812 -0.0687  0.3236
  588TMC3    C1 8713   3.164   2.441   9.764 -0.0958  0.4720 -0.0257
  588TMC3    C2 8714   3.116   2.308   9.771  0.3666  0.7577 -0.1971
  588TMC3    C3 8715   3.202   2.211   9.790  0.7741 -0.0453  0.2507
  588TMC3    C4 8716   3.300   2.466   9.778 -0.0470  0.6844 -0.0093
  588TMC3    C5 8717   3.378   2.361   9.802 -0.1523 -0.1264  0.2216
  588TMC3    C6 8718   3.335   2.233   9.808  0.1468 -0.4923  0.3866
  588TMC3     C 8719   3.073   2.555   9.757  0.5222  0.0140 -0.1633
  588TMC3     O 8720   2.956   2.540   9.736  0.3142  0.3012  0.2359
  588TMC3     H 8721   3.009   2.290   9.764  1.0326 -2.6357 -1.2937
  588TMC3    H1 8722   3.339   2.560   9.741  1.5392 -0.5888 -1.5958
  588TMC3    H2 8723   3.417   2.162   9.812 -0.1207 -0.7552  1.1862
  588TMC3    C7 8724   3.514   2.394   9.786  0.0356  0.1347 -0.3647
  588TMC3    C8 8725   3.151   2.073   9.790  0.4974  0.4873 -0.1661
  588TMC3    O1 8726   3.581   2.345   9.695  0.3261  0.1188  0.2344
  588TMC3    O2 8727   3.050   2.051   9.726 -0.0282  0.1144 -0.6519
  589TMC3    C1 8728   0.941   0.453   2.063 -0.1679 -0.8397 -0.0533
  589TMC3    C2 8729   1.038   0.405   2.146 -0.2107  0.1085 -0.6573
  589TMC3    C3 8730   1.160   0.371   2.100 -0.4877 -0.3311 -0.2604
  589TMC3    C4 8731   0.970   0.468   1.932 -0.1692 -0.2710  0.4395
  589TMC3    C5 8732   1.093   0.420   1.889 -0.1783 -0.1793  0.1855
  589TMC3    C6 8733   1.192   0.381   1.970 -0.3104  0.1796 -0.2479
  589TMC3     C 8734   0.828   0.526   2.117 -0.0574  0.2332  0.1957
  589TMC3     O 8735   0.783   0.609   2.036  0.2639  0.0869  0.0136
  589TMC3     H 8736   1.039   0.422   2.253  0.5076  2.3749 -1.0292
  589TMC3    H1 8737   0.884   0.480   1.867  0.5291 -1.4882 -0.7123
  589TMC3    H2 8738   1.296   0.383   1.941 -0.6091  0.9403 -1.2631
  589TMC3    C7 8739   1.117   0.374   1.750  0.0370 -0.5766 -0.1812
  589TMC3    C8 8740   1.240   0.280   2.180 -0.7049  0.0828  0.3300
  589TMC3    O1 8741   1.201   0.281   1.737 -0.5549  0.0749  0.9775
  589TMC3    O2 8742   1.223   0.280   2.303 -0.0552 -0.0752  0.6993
  590MPD2     C 8743   0.979   3.450  16.910 -0.5449 -0.0088 -0.3617
  590MPD2    C1 8744   0.930   3.512  16.799  0.3983 -0.5167 -0.3679
  590MPD2    C2 8745   1.004   3.602  16.728  0.4084 -0.0554 -0.6091
  590MPD2    C3 8746   1.133   3.635  16.771  0.9293 -0.3787 -0.4072
  590MPD2    C4 8747   1.184   3.569  16.878 -0.5984  0.4008  0.4490
  590MPD2    C5 8748   1.109   3.479  16.946 -0.4289 -0.7393 -0.1748
  590MPD2     H 8749   0.962   3.658  16.645 -0.8868 -1.3667 -0.8481
  590MPD2    H1 8750   1.281   3.604  16.912  0.9868 -1.3359 -2.3227
  590MPD2    H2 8751   0.919   3.372  16.957  2.2182 -1.0087  1.4955
  590MPD2    H3 8752   1.150   3.449  17.041  0.3172 -1.5975 -0.7683
  590MPD2     N 8753   1.196   3.730  16.693 -0.5310 -0.7577  0.5966
  590MPD2    H5 8754   1.159   3.762  16.605  1.8918  0.8245  0.1520
  590MPD2    N1 8755   0.793   3.486  16.757  0.0611 -0.8581  0.3801
  590MPD2    H7 8756   0.730   3.434  16.817 -0.2670 -0.8094  0.0761
  591TMC3    C1 8757   1.342   3.883  16.619 -0.2384 -0.1237 -0.2768
  591TMC3    C2 8758   1.470   3.873  16.561  0.2206  0.3308  0.0478
  591TMC3    C3 8759   1.469   3.906  16.429  0.7513 -0.1215 -0.6570
  591TMC3    C4 8760   1.226   3.928  16.553  0.1492 -0.5774  0.0258
  591TMC3    C5 8761   1.242   3.961  16.417 -0.0438  0.1515 -0.3776
  591TMC3    C6 8762   1.359   3.942  16.357  0.3607  0.2392  0.3247
  591TMC3     C 8763   1.318   3.788  16.726 -0.4036 -0.7706  1.2390
  591TMC3     O 8764   1.411   3.758  16.798 -0.5594  0.5373 -0.4559
  591TMC3     H 8765   1.560   3.832  16.605 -0.9409  1.0716  3.0860
  591TMC3    H1 8766   1.136   3.947  16.608 -0.0589  2.6837 -1.4283
  591TMC3    H2 8767   1.363   3.941  16.249  0.4626 -1.7623  0.3441
  591TMC3    C7 8768   1.132   4.029  16.348  0.1392  0.8307 -0.0497
  591TMC3    C8 8769   1.569   3.827  16.353 -0.7137 -0.0976  0.2079
  591TMC3    O1 8770   1.023   4.008  16.398 -0.3092  0.2510 -0.0408
  591TMC3    O2 8771   1.620   3.724  16.404  0.6685  0.1920  0.0593
  592MPD2     C 8772   1.742   0.602  11.378  0.4528 -0.4326  0.3744
  592MPD2    C1 8773   1.727   0.680  11.490 -0.5514 -0.9440  0.5370
  592MPD2    C2 8774   1.658   0.623  11.595  0.3335  0.0240  0.0850
  592MPD2    C3 8775   1.621   0.488  11.591  0.2747  0.4316 -0.0538
  592MPD2    C4 8776   1.626   0.417  11.474 -0.0062  0.3461 -0.8315
  592MPD2    C5 8777   1.694   0.472  11.369 -0.4342  0.2657 -0.2014
  592MPD2     H 8778   1.645   0.675  11.689 -1.0235 -0.2365  0.0492
  592MPD2    H1 8779   1.588   0.317  11.459  0.5669  0.0944 -0.6084
  592MPD2    H2 8780   1.794   0.629  11.287  1.7470 -1.0855  0.9289
  592MPD2    H3 8781   1.696   0.426  11.270  0.0559 -1.2553  0.5062
  592MPD2     N 8782   1.576   0.429  11.714  1.1080 -0.4189  0.3148
  592MPD2    H5 8783   1.560   0.487  11.796 -1.3353 -1.0560  0.2992
  592MPD2    N1 8784   1.779   0.809  11.493 -0.2454 -0.6924  0.3781
  592MPD2    H7 8785   1.838   0.839  11.415 -2.3290 -0.4043 -1.0810
  593TMC3    C1 8786   1.801   1.026  11.592 -0.0551 -0.9728 -0.1573
  593TMC3    C2 8787   1.765   1.113  11.689 -0.3708  0.7579  0.3750
  593TMC3    C3 8788   1.841   1.223  11.706  0.7583 -0.6111  0.4015
  593TMC3    C4 8789   1.911   1.056  11.512  0.0289 -0.4052 -0.1374
  593TMC3    C5 8790   1.983   1.169  11.534 -0.0372 -0.2646 -0.4827
  593TMC3    C6 8791   1.947   1.254  11.635 -0.5812  0.5836  1.1181
  593TMC3     C 8792   1.730   0.904  11.580 -0.3382  0.4169  0.1879
  593TMC3     O 8793   1.629   0.892  11.646 -0.6580  0.0289 -0.0615
  593TMC3     H 8794   1.699   1.089  11.771  1.4795 -2.7007  0.8478
  593TMC3    H1 8795   1.946   0.988  11.435  1.1969  1.2287 -1.0673
  593TMC3    H2 8796   2.005   1.345  11.649 -0.2596  0.4956  0.3322
  593TMC3    C7 8797   2.064   1.226  11.432 -0.0382  0.2636 -0.0155
  593TMC3    C8 8798   1.792   1.317  11.806  0.3655 -0.1045  0.4622
  593TMC3    O1 8799   2.130   1.329  11.462 -0.0108  0.2831  0.4136
  593TMC3    O2 8800   1.674   1.315  11.834 -0.1607 -0.2176  0.2476
  594MPD2     C 8801   0.402   0.095  13.894  0.5776  0.1838  0.7470
  594MPD2    C1 8802   0.392   0.065  14.027  0.4096 -0.1734 -0.0553
  594MPD2    C2 8803   0.503   0.079  14.108  0.0628 -0.6693  0.0131
  594MPD2    C3 8804   0.623   0.117  14.049  0.0832 -0.4143 -0.3540
  594MPD2    C4 8805   0.631   0.147  13.916 -0.0619  0.3935  0.0641
  594MPD2    C5 8806   0.521   0.132  13.841 -0.2524 -0.0233 -0.4264
  594MPD2     H 8807   0.502   0.056  14.214  1.6074 -1.5718 -0.1723
  594MPD2    H1 8808   0.720   0.177  13.862  0.0900  2.2775  1.3823
  594MPD2    H2 8809   0.322   0.077  13.823  1.0314 -2.0620  0.8036
  594MPD2    H3 8810   0.524   0.163  13.737 -1.2733  1.5021  0.0113
  594MPD2     N 8811   0.714   0.171  14.141  0.1693  0.1490  0.1657
  594MPD2    H5 8812   0.701   0.163  14.241  0.6436  2.0799  0.3947
  594MPD2    N1 8813   0.271   0.016  14.086 -0.8327  0.1906 -0.0704
  594MPD2    H7 8814   0.282   4.707  14.182 -0.2665  0.1910 -0.1342
  595TMC3    C1 8815   1.078   0.406  14.326 -0.4127 -0.3746 -0.0605
  595TMC3    C2 8816   1.025   0.352  14.212  0.2653 -0.2165 -0.1802
  595TMC3    C3 8817   0.895   0.293  14.231 -0.2450  0.4622 -0.4453
  595TMC3    C4 8818   1.016   0.420  14.447  0.6644 -0.5833 -0.4088
  595TMC3    C5 8819   0.894   0.374  14.448  1.0092  0.1911 -0.3388
  595TMC3    C6 8820   0.827   0.309  14.345  0.3611 -0.0680  0.3821
  595TMC3     C 8821   1.210   0.473  14.319  0.2665  0.0366 -0.0898
  595TMC3     O 8822   1.209   0.581  14.376  0.2566 -0.2010  0.1119
  595TMC3     H 8823   1.086   0.335  14.124  0.2220  1.7740 -0.6044
  595TMC3    H1 8824   1.084   0.460  14.521 -0.3041  0.1776  0.0584
  595TMC3    H2 8825   0.730   0.270  14.371  0.2713  0.6714  1.1697
  595TMC3    C7 8826   0.808   0.442  14.540  0.5127 -0.5940  0.0562
  595TMC3    C8 8827   0.835   0.234  14.111  1.1093 -0.2282 -0.4657
  595TMC3    O1 8828   0.701   0.390  14.559 -0.3600 -0.2083 -0.3057
  595TMC3    O2 8829   0.896   0.236  14.008 -0.4183 -0.6082  0.3231
  596MPD2     C 8830   4.187   2.532  16.825  0.6969 -0.4527  0.1221
  596MPD2    C1 8831   4.221   2.652  16.771 -0.0613 -0.2615  0.2878
  596MPD2    C2 8832   4.307   2.652  16.670 -0.3217  0.4862 -0.3298
  596MPD2    C3 8833   4.346   2.529  16.608 -0.2826 -0.3595 -0.4781
  596MPD2    C4 8834   4.306   2.407  16.661 -0.9294 -0.1669 -0.1838
  596MPD2    C5 8835   4.230   2.415  16.774 -0.3099  0.2575 -0.6026
  596MPD2     H 8836   4.339   2.749  16.633 -0.7546  1.6952  2.3829
  596MPD2    H1 8837   4.328   2.309  16.620 -2.1576  0.1127 -1.5251
  596MPD2    H2 8838   4.129   2.537  16.916 -0.5178 -1.0321 -0.6126
  596MPD2    H3 8839   4.213   2.324  16.831 -0.9890 -0.2046 -1.5401
  596MPD2     N 8840   4.414   2.520  16.483  1.2596  0.2359  0.0093
  596MPD2    H5 8841   4.431   2.429  16.443  0.7840 -0.0967  0.5658
  596MPD2    N1 8842   4.179   2.784  16.826  1.1062  0.4119  0.1797
  596MPD2    H7 8843   4.235   2.862  16.790 -2.0204  2.0453 -1.1461
  597TMC3    C1 8844   4.095   2.947  16.967 -0.7001 -0.1177 -0.2344
  597TMC3    C2 8845   4.177   3.043  16.907  0.4359 -0.1634  1.0151
  597TMC3    C3 8846   4.158   3.176  16.934  0.4091 -0.6005  0.1373
  597TMC3    C4 8847   3.999   2.988  17.057  0.1869  0.6181 -0.2173
  597TMC3    C5 8848   3.993   3.122  17.092 -0.7330  0.0720  0.4867
  597TMC3    C6 8849   4.066   3.219  17.023  0.1401  0.3546 -1.5336
  597TMC3     C 8850   4.098   2.810  16.930  0.3259  0.5171  0.3978
  597TMC3     O 8851   4.038   2.734  17.005 -0.0074  0.5003  0.7022
  597TMC3     H 8852   4.252   3.008  16.837 -2.1655  1.4550 -2.5942
  597TMC3    H1 8853   3.917   2.923  17.084 -0.3495  1.5539  0.3795
  597TMC3    H2 8854   4.041   3.324  17.030 -3.2065 -0.6669  2.0830
  597TMC3    C7 8855   3.862   3.154  17.138  0.0125 -0.2937  0.4450
  597TMC3    C8 8856   4.241   3.278  16.873  1.1638  0.3209  0.1878
  597TMC3    O1 8857   3.799   3.077  17.211 -0.4195  0.1235  0.0003
  597TMC3    O2 8858   4.233   3.389  16.922  0.2859 -0.3992 -0.6452
  598TMC3    C1 8859   2.227   4.248  15.516 -0.4730  0.4226  0.3595
  598TMC3    C2 8860   2.182   4.118  15.496 -0.0982 -1.3036  0.3626
  598TMC3    C3 8861   2.206   4.058  15.378  0.6215 -0.1357  0.5171
  598TMC3    C4 8862   2.317   4.305  15.432  0.0050 -0.2307 -0.1320
  598TMC3    C5 8863   2.348   4.239  15.316 -0.6096 -0.3383 -0.4931
  598TMC3    C6 8864   2.294   4.118  15.288 -0.2087 -0.5764 -0.2150
  598TMC3     C 8865   2.157   4.338  15.610  0.3475 -0.1473 -0.1175
  598TMC3     O 8866   2.216   4.442  15.642  0.6355  0.4671 -1.3265
  598TMC3     H 8867   2.127   4.061  15.570  3.6151 -2.1094  2.5155
  598TMC3    H1 8868   2.344   4.405  15.463 -1.8427 -0.1053  1.0370
  598TMC3    H2 8869   2.334   4.067  15.201  1.9804  0.3723  0.2477
  598TMC3    C7 8870   2.433   4.307  15.218 -0.0069 -0.6663  0.1141
  598TMC3    C8 8871   2.125   3.946  15.341  0.4989  0.2928 -0.8202
  598TMC3    O1 8872   2.456   4.245  15.112 -0.1551  0.1150  0.8026
  598TMC3    O2 8873   2.034   3.917  15.418  0.5165 -0.2988  0.1692
  599MPD2     C 8874   2.435   1.769  16.073 -0.7156 -0.1668  0.4437
  599MPD2    C1 8875   2.385   1.639  16.098 -0.7201  0.0495 -0.0190
  599MPD2    C2 8876   2.298   1.621  16.201 -1.3267  0.5252 -0.0610
  599MPD2    C3 8877   2.258   1.733  16.280  0.5618 -0.0587  0.3834
  599MPD2    C4 8878   2.325   1.855  16.260 -0.0522  0.1873 -0.4987
  599MPD2    C5 8879   2.406   1.880  16.155  0.1949 -0.0522  0.2218
  599MPD2     H 8880   2.247   1.526  16.212  0.6216 -0.6962 -1.7559
  599MPD2    H1 8881   2.313   1.931  16.336  1.3213 -0.2365  0.1293
  599MPD2    H2 8882   2.511   1.781  15.996 -1.3150 -0.4056 -0.1881
  599MPD2    H3 8883   2.448   1.978  16.138  0.1350  0.0190  0.4899
  599MPD2     N 8884   2.154   1.723  16.375  0.1120 -0.4069 -0.0192
  599MPD2    H5 8885   2.133   1.801  16.435  3.1810  0.0706  0.4624
  599MPD2    N1 8886   2.421   1.534  16.008  0.3697  0.2015  0.3767
  599MPD2    H7 8887   2.487   1.563  15.937  0.3237  1.3945  0.8096
  600TMC3    C1 8888   1.975   1.624  16.500 -0.7284  0.2032  0.1477
  600TMC3    C2 8889   1.901   1.509  16.537  0.0869 -0.4807  0.2139
  600TMC3    C3 8890   1.852   1.504  16.670  0.7791 -0.1898  0.1016
  600TMC3    C4 8891   1.974   1.733  16.591  0.1957 -0.4321  0.4959
  600TMC3    C5 8892   1.919   1.720  16.721 -0.0469  0.1135  0.2407
  600TMC3    C6 8893   1.852   1.610  16.760  0.3194  0.5767  0.0850
  600TMC3     C 8894   2.067   1.615  16.386  0.0872  0.6383 -0.5582
  600TMC3     O 8895   2.060   1.521  16.309 -0.2212 -0.3766 -0.1529
  600TMC3     H 8896   1.912   1.413  16.487  2.7969 -0.2613  0.3938
  600TMC3    H1 8897   2.028   1.824  16.567  0.3259 -0.9242 -1.1223
  600TMC3    H2 8898   1.813   1.606  16.861  0.1383  2.3053  0.0739
  600TMC3    C7 8899   1.894   1.839  16.804 -0.4502 -0.5002 -0.9128
  600TMC3    C8 8900   1.800   1.385  16.723  0.2197  0.1584 -0.2483
  600TMC3    O1 8901   1.813   1.823  16.894 -0.2671  0.1965  0.4749
  600TMC3    O2 8902   1.789   1.376  16.848 -0.3234 -0.5497 -0.4032
  601MPD2     C 8903   4.294   4.592  17.400 -0.3838  0.0034  0.0226
  601MPD2    C1 8904   4.159   4.595  17.404  0.0520  0.6545  0.0278
  601MPD2    C2 8905   4.085   4.486  17.453  0.4054  0.1137  0.1571
  601MPD2    C3 8906   4.143   4.371  17.497  0.4290  0.1950  0.3139
  601MPD2    C4 8907   4.283   4.378  17.501  0.3112 -0.0288 -0.6893
  601MPD2    C5 8908   4.352   4.492  17.467 -0.3167 -0.1708  0.4958
  601MPD2     H 8909   3.978   4.501  17.457  0.0893 -2.2007  0.5852
  601MPD2    H1 8910   4.336   4.287  17.530  0.2810 -0.1792 -1.1109
  601MPD2    H2 8911   4.352   4.671  17.354 -1.2766  1.9071  2.1308
  601MPD2    H3 8912   4.460   4.492  17.475 -0.2807 -0.9541 -0.0771
  601MPD2     N 8913   4.080   4.253  17.556 -0.8114  0.1938 -0.8297
  601MPD2    H5 8914   4.143   4.180  17.587 -0.1164 -0.4670 -3.8120
  601MPD2    N1 8915   4.087   4.712  17.364  0.0255 -0.0680 -0.1031
  601MPD2    H7 8916   3.986   4.715  17.354 -0.0924 -2.1153  0.5840
  602TMC3    C1 8917   4.052   0.218  17.322 -0.1453  0.6438  0.2745
  602TMC3    C2 8918   4.049   0.326  17.399 -0.0090  0.2669  0.2213
  602TMC3    C3 8919   3.937   0.412  17.400 -0.4856  0.1829  0.9503
  602TMC3    C4 8920   3.944   0.179  17.248 -0.1096  0.9500 -0.0201
  602TMC3    C5 8921   3.834   0.253  17.249  0.9833  0.1321  0.3133
  602TMC3    C6 8922   3.831   0.365  17.323 -0.3702  0.5779 -0.3669
  602TMC3     C 8923   4.150   0.118  17.353  0.5104  0.0064 -0.1204
  602TMC3     O 8924   4.264   0.150  17.376 -0.1356  0.1119  0.4721
  602TMC3     H 8925   4.137   0.357  17.455  0.2044  0.3212 -0.1463
  602TMC3    H1 8926   3.941   0.089  17.186  1.9082  2.1389 -1.8304
  602TMC3    H2 8927   3.749   0.431  17.298 -1.0377 -0.0469  0.1765
  602TMC3    C7 8928   3.711   0.206  17.198  0.7251  0.2313  0.8220
  602TMC3    C8 8929   3.920   0.522  17.490  0.1387 -0.7975  0.1045
  602TMC3    O1 8930   3.711   0.144  17.094  0.3605  0.0654  0.9604
  602TMC3    O2 8931   4.021   0.579  17.521 -0.7719  0.2721  0.1535
  603TMC3    C1 8932   2.746   0.289  10.717  0.2227  1.4929 -0.2122
  603TMC3    C2 8933   2.823   0.242  10.820 -0.8575  0.2570  0.7954
  603TMC3    C3 8934   2.895   0.332  10.897 -0.8801  0.3849 -0.5300
  603TMC3    C4 8935   2.755   0.418  10.679 -0.1956 -0.5279 -0.7407
  603TMC3    C5 8936   2.817   0.510  10.761  0.3635  0.5348 -0.0192
  603TMC3    C6 8937   2.888   0.464  10.872  0.4783  0.4481  0.6993
  603TMC3     C 8938   2.649   0.204  10.661 -0.6192 -0.3926  0.3858
  603TMC3     O 8939   2.550   0.262  10.623 -0.5414 -0.2233  0.1988
  603TMC3     H 8940   2.806   0.141  10.857  2.4777  0.7510  3.6650
  603TMC3    H1 8941   2.708   0.447  10.585 -4.3664 -2.2600  0.8053
  603TMC3    H2 8942   2.955   0.534  10.920  0.1016  0.3224  1.4115
  603TMC3    C7 8943   2.858   0.642  10.717 -0.0758  0.6126 -0.4046
  603TMC3    C8 8944   2.925   0.286  11.028  0.1160  0.4450  0.4492
  603TMC3    O1 8945   2.958   0.684  10.770 -0.3333 -0.9113  0.4615
  603TMC3    O2 8946   2.946   0.167  11.041 -0.6472  0.3534 -0.0816
  604MPD2     C 8947   2.968   3.483  16.410 -0.1549 -0.1221  0.0147
  604MPD2    C1 8948   3.032   3.606  16.398 -0.2786 -0.2683  0.1228
  604MPD2    C2 8949   3.085   3.641  16.275  0.2900  0.7992  0.1076
  604MPD2    C3 8950   3.081   3.556  16.172 -0.7824  0.1164  0.0143
  604MPD2    C4 8951   3.025   3.436  16.184 -0.2981 -0.5527  0.0950
  604MPD2    C5 8952   2.961   3.404  16.299 -0.5715  0.3275  0.2192
  604MPD2     H 8953   3.134   3.737  16.262  0.8415  0.5679  0.4778
  604MPD2    H1 8954   3.018   3.366  16.101 -0.0008 -1.1319  0.5561
  604MPD2    H2 8955   2.911   3.462  16.499  1.1565  1.0046  1.1172
  604MPD2    H3 8956   2.901   3.313  16.298 -1.3167  0.8338 -1.6254
  604MPD2     N 8957   3.132   3.610  16.048 -0.3070  0.0196  0.0904
  604MPD2    H5 8958   3.155   3.709  16.047  0.0499 -0.0781 -1.5470
  604MPD2    N1 8959   3.024   3.701  16.512  0.1194 -0.9310 -0.2303
  604MPD2    H7 8960   2.963   3.673  16.588 -0.1928 -0.7254 -0.4095
  605TMC3    C1 8961   3.081   3.893  16.647  0.0034 -0.7430  0.0979
  605TMC3    C2 8962   3.186   3.974  16.681 -0.2251 -1.1130  0.1644
  605TMC3    C3 8963   3.153   4.086  16.746  0.7721  0.2910 -0.3993
  605TMC3    C4 8964   2.952   3.921  16.687  0.3264  0.4746 -0.1528
  605TMC3    C5 8965   2.927   4.049  16.737  0.7357 -0.4576 -0.5875
  605TMC3    C6 8966   3.025   4.132  16.772  0.4790  0.3589  0.0340
  605TMC3     C 8967   3.109   3.809  16.525  0.0186  0.4884 -0.4357
  605TMC3     O 8968   3.197   3.848  16.453 -0.2157 -0.1699 -0.8542
  605TMC3     H 8969   3.288   3.943  16.665  0.5959  1.0156  1.2957
  605TMC3    H1 8970   2.872   3.850  16.668  0.3573 -0.2370  2.4257
  605TMC3    H2 8971   2.998   4.232  16.806 -0.5421  0.6802 -1.7284
  605TMC3    C7 8972   2.790   4.106  16.729  0.1743  0.2127  0.1296
  605TMC3    C8 8973   3.271   4.176  16.757 -0.4429  0.3656 -0.3694
  605TMC3    O1 8974   2.768   4.214  16.776 -0.1926 -0.1748  0.5734
  605TMC3    O2 8975   3.367   4.154  16.689  0.0754 -0.2870 -0.4184
  606TMC3    C1 8976   0.018   2.552  17.600  0.2501  0.0626 -0.4762
  606TMC3    C2 8977   4.709   2.683  17.621  0.3197 -0.5265  0.2556
  606TMC3    C3 8978   4.613   2.707   0.025 -0.5635  0.1164  0.2712
  606TMC3    C4 8979   4.666   2.450  17.653  0.3805 -0.6362  0.1981
  606TMC3    C5 8980   4.566   2.474   0.059  1.0741 -0.2005 -0.5142
  606TMC3    C6 8981   4.541   2.610   0.095 -0.1794 -0.1817 -0.3305
  606TMC3     C 8982   0.122   2.520  17.508  0.4020 -0.3836 -0.0674
  606TMC3     O 8983   0.193   2.611  17.470 -0.0350 -0.5953  0.4991
  606TMC3     H 8984   0.042   2.762  17.570 -0.4535 -0.4935 -0.5280
  606TMC3    H1 8985   4.681   2.346  17.627 -3.0374 -0.9924 -0.2786
  606TMC3    H2 8986   4.471   2.640   0.172 -1.6914  0.2710 -1.8727
  606TMC3    C7 8987   4.537   2.377   0.162 -0.3054 -0.3376  0.0965
  606TMC3    C8 8988   4.611   2.842   0.082 -0.2272 -0.1829 -0.6102
  606TMC3    O1 8989   4.613   2.285   0.185  0.0278 -0.4198  0.5191
  606TMC3    O2 8990   4.568   2.854   0.194  0.3212 -0.1060  0.7286
  607MPD2     C 8991   1.882   0.276  11.946 -0.0656  0.7787  0.0049
  607MPD2    C1 8992   1.880   0.332  12.069  0.5948  0.1893  0.7460
  607MPD2    C2 8993   1.888   0.247  12.181  0.0341 -0.0334 -0.5327
  607MPD2    C3 8994   1.883   0.111  12.164  0.8294  0.5604 -0.6613
  607MPD2    C4 8995   1.900   0.055  12.040  1.0391  0.4300  0.1140
  607MPD2    C5 8996   1.893   0.135  11.931 -0.5190  0.8772 -0.0072
  607MPD2     H 8997   1.894   0.290  12.280 -0.8073 -1.2681  0.0508
  607MPD2    H1 8998   1.900   4.670  12.024  2.1122  0.4007  0.3163
  607MPD2    H2 8999   1.872   0.333  11.854  0.6244 -1.0221 -1.1700
  607MPD2    H3 9000   1.901   0.093  11.831 -0.1115 -0.3918  0.5563
  607MPD2     N 9001   1.903   0.036  12.282 -0.5259 -0.0587 -0.4882
  607MPD2    H5 9002   1.913   0.101  12.359  2.9999  0.2481 -1.2060
  607MPD2    N1 9003   1.869   0.471  12.095 -0.0518  0.1185  0.3954
  607MPD2    H7 9004   1.872   0.492  12.194 -1.0339  2.6776 -0.1077
  608TMC3    C1 9005   1.900   0.702  12.054  0.1108  0.8113 -0.1700
  608TMC3    C2 9006   1.939   0.709  12.184 -0.0424 -0.8521 -0.3482
  608TMC3    C3 9007   2.012   0.819  12.216  0.4909  0.5428  0.1800
  608TMC3    C4 9008   1.950   0.791  11.955 -0.8005 -0.6122 -0.0224
  608TMC3    C5 9009   2.019   0.902  11.998 -0.8664 -0.3024  0.0905
  608TMC3    C6 9010   2.054   0.915  12.132 -0.2117 -0.1002 -0.0839
  608TMC3     C 9011   1.853   0.568  12.003  0.0421  0.3415  0.1515
  608TMC3     O 9012   1.831   0.562  11.884 -0.8228 -0.3226 -0.0669
  608TMC3     H 9013   1.892   0.649  12.262  0.1615 -1.9732 -1.0827
  608TMC3    H1 9014   1.928   0.779  11.850 -0.5776 -1.5158  0.0328
  608TMC3    H2 9015   2.126   0.989  12.165 -0.6380 -0.4692  1.7056
  608TMC3    C7 9016   2.114   0.941  11.897 -0.0803 -0.0071 -0.3577
  608TMC3    C8 9017   2.091   0.812  12.337  1.1160 -0.1541 -0.2722
  608TMC3    O1 9018   2.130   0.865  11.805  0.0157  0.5249  0.2610
  608TMC3    O2 9019   2.141   0.911  12.387 -0.4420  0.3365 -0.0713
  609TMC3    C1 9020   0.720   4.357   9.598 -0.2785  0.1839 -0.0630
  609TMC3    C2 9021   0.751   4.481   9.576 -0.3089 -0.3357 -0.7133
  609TMC3    C3 9022   0.883   4.512   9.559  0.4377 -0.0604  0.8358
  609TMC3    C4 9023   0.803   4.252   9.602  0.0163  0.0213  0.0736
  609TMC3    C5 9024   0.935   4.287   9.573  0.9141  0.2778 -0.5154
  609TMC3    C6 9025   0.982   4.417   9.557 -0.3716  0.2889 -0.7343
  609TMC3     C 9026   0.599   4.345   9.677  0.0564 -0.1750 -0.4074
  609TMC3     O 9027   0.500   4.410   9.637 -0.3183 -0.1676 -0.2673
  609TMC3     H 9028   0.690   4.566   9.604  0.6361 -0.0160  0.3398
  609TMC3    H1 9029   0.760   4.154   9.614  0.6273  0.0293  2.2625
  609TMC3    H2 9030   1.087   4.434   9.538 -0.6343  1.4430 -1.1589
  609TMC3    C7 9031   1.031   4.179   9.582 -0.3083  0.1524 -0.5494
  609TMC3    C8 9032   0.910   4.638   9.496 -0.2894 -0.0961 -0.2306
  609TMC3    O1 9033   1.137   4.195   9.639 -0.3339  0.5912  0.3429
  609TMC3    O2 9034   1.026   4.680   9.496  0.0686  0.3573  0.1905
  610TMC3    C1 9035   2.742   0.684  12.826  0.1223 -0.0210  0.3507
  610TMC3    C2 9036   2.701   0.718  12.701 -0.5743  0.0080 -0.1891
  610TMC3    C3 9037   2.669   0.615  12.620 -0.4580  0.2447 -0.5029
  610TMC3    C4 9038   2.752   0.555  12.870  0.9051 -0.0467 -0.1250
  610TMC3    C5 9039   2.709   0.455  12.782  0.2322  0.2800  0.0677
  610TMC3    C6 9040   2.668   0.484  12.654 -0.0159 -0.3593 -0.3341
  610TMC3     C 9041   2.786   0.792  12.917  0.1578  0.1951 -0.0691
  610TMC3     O 9042   2.775   0.908  12.877 -0.5944  0.1483 -0.2549
  610TMC3     H 9043   2.714   0.819  12.663  2.8527  0.3036  1.8177
  610TMC3    H1 9044   2.785   0.522  12.968  0.4536  0.4158  0.1854
  610TMC3    H2 9045   2.639   0.408  12.582 -0.6027 -1.8649  1.4881
  610TMC3    C7 9046   2.718   0.320  12.827  0.0459 -0.1591  0.1056
  610TMC3    C8 9047   2.625   0.643  12.488  0.4567 -0.5263  0.7638
  610TMC3    O1 9048   2.758   0.312  12.945 -0.2737 -0.5650 -0.6320
  610TMC3    O2 9049   2.599   0.542  12.419  0.6548  0.4280 -0.2784
  611MPD2     C 9050   2.135   0.464  10.162 -0.0392 -0.2431  0.6296
  611MPD2    C1 9051   2.053   0.566  10.113 -0.1113 -0.4901 -0.4219
  611MPD2    C2 9052   2.110   0.690  10.084 -0.3277  0.5305 -0.2456
  611MPD2    C3 9053   2.244   0.705  10.119  0.3049  0.2168  0.4731
  611MPD2    C4 9054   2.322   0.606  10.173 -0.5011  0.2578 -0.7406
  611MPD2    C5 9055   2.260   0.491  10.197 -0.0806  0.4555 -0.1310
  611MPD2     H 9056   2.051   0.777  10.056 -2.1882 -1.6689 -3.1071
  611MPD2    H1 9057   2.427   0.615  10.199 -0.4361  0.7456 -1.1974
  611MPD2    H2 9058   2.106   0.361  10.180 -2.3473  0.1923 -0.5198
  611MPD2    H3 9059   2.314   0.404  10.233 -0.5300  0.0611 -0.4121
  611MPD2     N 9060   2.309   0.826  10.096 -0.1339  0.2590  0.3979
  611MPD2    H5 9061   2.405   0.836  10.126  0.2114 -0.6522 -0.3824
  611MPD2    N1 9062   1.911   0.540  10.094 -0.7605 -0.0503  0.2380
  611MPD2    H7 9063   1.885   0.443  10.110  1.2694 -0.4367  1.1622
  612TMC3    C1 9064   2.352   1.039  10.028 -0.5226 -0.1101 -0.7569
  612TMC3    C2 9065   2.444   1.048  10.132  0.1719 -0.5705  1.2728
  612TMC3    C3 9066   2.541   1.143  10.126 -0.1161 -0.4844 -0.2053
  612TMC3    C4 9067   2.356   1.121   9.926 -0.1785 -0.7247 -0.1914
  612TMC3    C5 9068   2.447   1.222   9.924 -0.4419 -0.0060  0.5859
  612TMC3    C6 9069   2.543   1.236  10.023 -0.4123 -0.1802  0.5248
  612TMC3     C 9070   2.262   0.928  10.021 -0.2541  0.3485  0.0256
  612TMC3     O 9071   2.173   0.928   9.937  0.2011  0.1814 -0.4689
  612TMC3     H 9072   2.443   0.983  10.219 -2.0966 -1.1326  0.8092
  612TMC3    H1 9073   2.281   1.104   9.850 -0.8982  2.4827 -0.1926
  612TMC3    H2 9074   2.622   1.308  10.009 -3.7236  3.3772  0.1210
  612TMC3    C7 9075   2.441   1.320   9.818 -0.4784 -0.2500  0.6702
  612TMC3    C8 9076   2.656   1.142  10.225 -0.1707  1.0607  0.0430
  612TMC3    O1 9077   2.370   1.294   9.723  0.5605  0.0569 -0.7446
  612TMC3    O2 9078   2.739   1.233  10.226  0.1970  0.1222  0.2418
  613MPD2     C 9079   1.061   2.627  16.463 -0.1486  0.0896  0.4244
  613MPD2    C1 9080   0.993   2.696  16.365  0.0758 -0.3429 -0.6132
  613MPD2    C2 9081   0.874   2.642  16.312 -0.2141 -0.0534 -1.2563
  613MPD2    C3 9082   0.822   2.528  16.376  0.2479  0.4354  0.3995
  613MPD2    C4 9083   0.888   2.463  16.478  0.4554  0.3293  0.5784
  613MPD2    C5 9084   1.006   2.519  16.524 -0.2426  0.4490  0.8993
  613MPD2     H 9085   0.829   2.683  16.223  0.0510  1.8053 -0.5396
  613MPD2    H1 9086   0.860   2.364  16.512  0.5406 -0.3033 -1.2077
  613MPD2    H2 9087   1.155   2.667  16.499  1.2891 -2.5172 -0.4513
  613MPD2    H3 9088   1.056   2.470  16.607  1.6282 -1.1118 -1.1766
  613MPD2     N 9089   0.717   2.454  16.326 -0.5367 -0.5599  0.1028
  613MPD2    H5 9090   0.712   2.355  16.348  0.1298 -0.8609 -1.0940
  613MPD2    N1 9091   1.056   2.808  16.307 -0.3529  0.2196 -0.1929
  613MPD2    H7 9092   1.156   2.826  16.319 -0.4928 -0.1206  1.4858
  614TMC3    C1 9093   1.064   2.950  16.114  0.4583  0.1613 -0.2463
  614TMC3    C2 9094   1.142   2.854  16.050 -0.0751  0.5606 -0.2316
  614TMC3    C3 9095   1.145   2.832  15.914  0.2263 -0.3614 -0.6087
  614TMC3    C4 9096   0.989   3.029  16.029  0.6914 -0.2170  0.3915
  614TMC3    C5 9097   0.978   2.992  15.893  0.3474 -0.7632 -0.2525
  614TMC3    C6 9098   1.056   2.896  15.831 -0.6132 -0.3117  0.5855
  614TMC3     C 9099   0.988   2.898  16.230  0.2436 -0.4956 -0.0881
  614TMC3     O 9100   0.870   2.931  16.241 -0.6329  0.6505  0.2665
  614TMC3     H 9101   1.210   2.794  16.109 -1.6836  0.7234  1.7814
  614TMC3    H1 9102   0.903   3.081  16.070  0.0239 -0.7262 -0.3703
  614TMC3    H2 9103   1.042   2.860  15.730 -2.8166  0.7183  0.5160
  614TMC3    C7 9104   0.884   3.069  15.816  0.2569 -0.4668 -0.5444
  614TMC3    C8 9105   1.153   2.685  15.894 -0.0295 -0.0227  0.0708
  614TMC3    O1 9106   0.855   3.174  15.866 -0.3569  0.0357  0.6114
  614TMC3    O2 9107   1.136   2.623  15.996 -0.1704 -0.2858  0.0562
  615MPD2     C 9108   4.560   4.293  15.988  0.9626  0.2065 -0.0868
  615MPD2    C1 9109   4.506   4.191  16.059  0.0803  0.1255 -0.1163
  615MPD2    C2 9110   4.421   4.098  16.003 -0.5173  0.0549  0.1940
  615MPD2    C3 9111   4.392   4.106  15.869  0.1172  0.0129 -0.2050
  615MPD2    C4 9112   4.439   4.213  15.795  0.1707  0.5036 -0.6415
  615MPD2    C5 9113   4.522   4.303  15.852  0.8980  0.4617  0.4967
  615MPD2     H 9114   4.377   4.015  16.058 -0.5751 -0.2089 -0.2528
  615MPD2    H1 9115   4.402   4.234  15.695  0.6407  0.0028 -0.9168
  615MPD2    H2 9116   4.620   4.377  16.023  1.4458 -0.0820 -0.2134
  615MPD2    H3 9117   4.557   4.383  15.788  1.5908 -0.0488  0.2330
  615MPD2     N 9118   4.303   4.024  15.806  0.0488 -0.3760  0.0902
  615MPD2    H5 9119   4.291   4.047  15.708  2.4772  0.6920  0.0586
  615MPD2    N1 9120   4.546   4.165  16.195  0.8249  0.0192  0.7926
  615MPD2    H7 9121   4.494   4.095  16.248 -0.3972  0.5641  0.3356
  616TMC3    C1 9122   4.682   4.158  16.385  0.2819  0.3290 -0.4813
  616TMC3    C2 9123   0.085   4.156  16.427 -0.2930  0.0790 -0.2526
  616TMC3    C3 9124   0.103   4.096  16.549  0.0800  0.1119 -1.1169
  616TMC3    C4 9125   4.577   4.128  16.465  0.1464  0.0671 -0.4086
  616TMC3    C5 9126   4.598   4.073  16.589  0.0779  0.4374 -0.1309
  616TMC3    C6 9127   0.001   4.052  16.628 -0.5794 -0.3404 -0.1172
  616TMC3     C 9128   4.657   4.219  16.252 -0.3659 -0.0140  0.1384
  616TMC3     O 9129   0.010   4.308  16.210 -1.2571  0.5763 -0.7232
  616TMC3     H 9130   0.169   4.178  16.362  2.1704 -2.9379  1.9208
  616TMC3    H1 9131   4.476   4.132  16.426 -0.3551  0.5003  0.9072
  616TMC3    H2 9132   0.020   4.020  16.730 -1.6723 -1.7164 -0.3412
  616TMC3    C7 9133   4.492   4.036  16.691 -0.5386  0.4582 -0.0777
  616TMC3    C8 9134   0.229   4.034  16.586 -0.2301 -0.2605  0.1458
  616TMC3    O1 9135   4.523   3.964  16.784  0.7699 -0.2043 -0.1924
  616TMC3    O2 9136   0.219   3.944  16.669 -0.6853 -0.6053 -0.1006
  617MPD2     C 9137   3.048   2.831  14.439  0.3023 -0.0735 -0.2144
  617MPD2    C1 9138   3.038   2.717  14.365  0.0949  0.0623  0.3144
  617MPD2    C2 9139   2.944   2.626  14.405  0.4893 -0.3229 -1.0793
  617MPD2    C3 9140   2.868   2.640  14.522 -0.1650  0.1973  0.1220
  617MPD2    C4 9141   2.878   2.764  14.586 -1.0987 -0.7928 -0.3580
  617MPD2    C5 9142   2.964   2.865  14.544  0.3570 -0.1490  0.7656
  617MPD2     H 9143   2.941   2.533  14.350  1.4800 -2.7115  2.9539
  617MPD2    H1 9144   2.812   2.782  14.670 -2.0021  1.0567 -1.4376
  617MPD2    H2 9145   3.123   2.905  14.412 -1.2510  2.2199  1.7553
  617MPD2    H3 9146   2.977   2.955  14.602 -0.6188  0.9166 -0.7043
  617MPD2     N 9147   2.779   2.552  14.573  0.0285 -0.2441 -0.2977
  617MPD2    H5 9148   2.723   2.583  14.652 -1.2220 -2.9651 -0.1254
  617MPD2    N1 9149   3.134   2.692  14.272 -0.1990 -0.7407  0.5118
  617MPD2    H7 9150   3.221   2.745  14.271 -0.5616 -0.1470  1.0013
  618TMC3    C1 9151   3.256   2.589  14.099  0.1305  0.5934  0.1028
  618TMC3    C2 9152   3.288   2.471  14.036 -0.5303  0.1905 -0.2770
  618TMC3    C3 9153   3.419   2.437  14.018 -0.5678  1.1387 -0.7691
  618TMC3    C4 9154   3.358   2.684  14.118  0.2326 -0.2402  0.1932
  618TMC3    C5 9155   3.490   2.650  14.086 -0.6843 -0.0341 -0.6284
  618TMC3    C6 9156   3.518   2.525  14.047 -0.2952  0.1351  0.0854
  618TMC3     C 9157   3.128   2.602  14.171 -0.3784  0.3909 -0.7211
  618TMC3     O 9158   3.031   2.534  14.130 -0.3421 -0.3746  0.1670
  618TMC3     H 9159   3.219   2.391  14.011  0.3916 -0.9333  0.7739
  618TMC3    H1 9160   3.343   2.790  14.132  1.9261 -0.2606  2.2056
  618TMC3    H2 9161   3.624   2.503  14.050 -0.0055  1.2689 -1.5440
  618TMC3    C7 9162   3.557   2.761  14.015  0.1140  0.3122  0.8265
  618TMC3    C8 9163   3.441   2.323  13.931  0.6572 -0.2292  0.4770
  618TMC3    O1 9164   3.483   2.842  13.960 -0.1531 -0.3042  0.0667
  618TMC3    O2 9165   3.343   2.266  13.879  0.3979  0.1120  0.3146
  619MPD2     C 9166   0.214   4.176  13.560 -0.2775 -0.5321  0.9154
  619MPD2    C1 9167   0.100   4.216  13.491  0.6418  0.9145 -0.0523
  619MPD2    C2 9168   0.006   4.129  13.447 -0.5565 -0.1855  0.1955
  619MPD2    C3 9169   0.025   3.999  13.468  0.1513 -0.2615 -0.1139
  619MPD2    C4 9170   0.142   3.957  13.538  0.1242 -0.2811 -0.1550
  619MPD2    C5 9171   0.234   4.046  13.575 -0.1828 -0.5682 -0.2577
  619MPD2     H 9172   4.644   4.159  13.386 -0.6355  1.2615  1.0115
  619MPD2    H1 9173   0.169   3.854  13.559 -0.8321 -0.3208  0.8568
  619MPD2    H2 9174   0.291   4.245  13.592 -1.3897  0.8145  0.6362
  619MPD2    H3 9175   0.328   4.011  13.618 -0.4273 -1.2084 -0.2458
  619MPD2     N 9176   4.651   3.905  13.419 -0.8923 -0.0804 -0.8534
  619MPD2    H5 9177   4.568   3.955  13.388 -1.3500 -0.1718  0.2135
  619MPD2    N1 9178   0.074   4.352  13.461 -0.6407 -0.4766 -0.4505
  619MPD2    H7 9179   4.702   4.367  13.427 -0.0734  0.0068 -1.7954
  620TMC3    C1 9180   0.109   4.587  13.438  0.0670  0.0354 -0.0626
  620TMC3    C2 9181   4.718   4.596  13.358  0.0620 -0.2495  0.3604
  620TMC3    C3 9182   4.671   0.006  13.344 -0.4156 -0.3303 -0.3450
  620TMC3    C4 9183   0.169   4.684  13.508  1.0883 -0.5118 -0.3741
  620TMC3    C5 9184   0.110   0.087  13.504 -0.1737  1.1563  0.3208
  620TMC3    C6 9185   4.718   0.111  13.424  0.5047  0.2884  0.1153
  620TMC3     C 9186   0.161   4.456  13.480 -0.9716  0.3495  0.1176
  620TMC3     O 9187   0.270   4.457  13.534 -0.4913 -0.2176  0.1364
  620TMC3     H 9188   4.683   4.513  13.298 -2.3450  1.0048  0.0575
  620TMC3    H1 9189   0.266   4.676  13.556  1.0467  2.5927  0.1735
  620TMC3    H2 9190   4.670   0.207  13.411 -0.2352 -0.0496  0.3509
  620TMC3    C7 9191   0.195   0.201  13.550  0.1256  0.3305 -0.4086
  620TMC3    C8 9192   4.539   0.018  13.292  0.1461  0.6761 -1.0560
  620TMC3    O1 9193   0.315   0.180  13.580 -0.7686 -0.3745  0.2093
  620TMC3    O2 9194   4.459   0.104  13.327 -0.1652  0.4864  0.2158
  621MPD2     C 9195   0.069   3.331  10.854 -0.5629  0.5263  0.6314
  621MPD2    C1 9196   0.206   3.298  10.858 -0.2388  0.8372 -0.0285
  621MPD2    C2 9197   0.303   3.387  10.805 -0.2390 -0.3679 -0.6456
  621MPD2    C3 9198   0.252   3.506  10.753  0.7549 -0.9947  0.0012
  621MPD2    C4 9199   0.118   3.538  10.747  0.3201 -0.3204 -0.5762
  621MPD2    C5 9200   0.034   3.445  10.792 -0.1101  0.1295  0.6224
  621MPD2     H 9201   0.406   3.360  10.785 -0.4391 -1.3915 -0.2955
  621MPD2    H1 9202   0.090   3.627  10.692 -1.8879 -1.7113 -1.7099
  621MPD2    H2 9203   4.703   3.282  10.894 -0.6864  1.7080  1.8022
  621MPD2    H3 9204   4.649   3.461  10.790 -0.1012  0.0859 -0.0913
  621MPD2     N 9205   0.345   3.587  10.678 -0.0582  0.4546 -0.3439
  621MPD2    H5 9206   0.442   3.557  10.687  0.7542  2.3558 -2.9021
  621MPD2    N1 9207   0.243   3.167  10.901  0.1360 -0.3789 -0.1002
  621MPD2    H7 9208   0.339   3.134  10.890  1.0862  2.6873 -0.9109
  622TMC3    C1 9209   0.210   2.941  10.943 -0.8858 -0.2091  0.1514
  622TMC3    C2 9210   0.107   2.851  10.979  0.1820  0.3033 -0.1565
  622TMC3    C3 9211   0.090   2.739  10.912 -0.1924  0.9255  0.1241
  622TMC3    C4 9212   0.283   2.916  10.833 -0.5682  0.2579 -0.0279
  622TMC3    C5 9213   0.261   2.801  10.760  0.1360 -0.5729  0.8481
  622TMC3    C6 9214   0.173   2.705  10.803 -0.0137 -0.0403  0.0589
  622TMC3     C 9215   0.161   3.077  10.962  0.3570  0.8715 -0.5356
  622TMC3     O 9216   0.046   3.085  10.999 -0.1386 -0.2467 -0.4664
  622TMC3     H 9217   0.050   2.870  11.069 -2.0212 -0.9393 -1.2790
  622TMC3    H1 9218   0.368   2.976  10.801 -1.1553  0.8196 -0.5233
  622TMC3    H2 9219   0.156   2.607  10.759  0.4667 -0.9190  1.7881
  622TMC3    C7 9220   0.370   2.754  10.675 -0.0247  0.4389 -0.1220
  622TMC3    C8 9221   4.670   2.715  10.879 -0.5530 -0.4443  0.0506
  622TMC3    O1 9222   0.416   2.641  10.679 -0.7552 -0.0615  0.4107
  622TMC3    O2 9223   4.635   2.608  10.826 -0.1393 -0.0268 -0.1491
  623MPD2     C 9224   3.453   4.648  16.024  0.6248  0.5886 -0.0839
  623MPD2    C1 9225   3.447   4.517  16.068 -0.1371  0.0788 -0.7464
  623MPD2    C2 9226   3.556   4.468  16.134 -0.4164 -0.3350  0.7077
  623MPD2    C3 9227   3.670   4.542  16.152 -0.6695 -0.5302 -0.5959
  623MPD2    C4 9228   3.670   4.664  16.095  0.3210 -0.0427  0.9474
  623MPD2    C5 9229   3.566   0.003  16.034 -0.6068  0.4662 -0.2130
  623MPD2     H 9230   3.551   4.368  16.173 -0.4413 -1.2667 -1.6510
  623MPD2    H1 9231   3.760   0.003  16.102  0.0102  0.4921  0.3335
  623MPD2    H2 9232   3.364   4.704  15.997  0.1049 -0.9117 -1.4749
  623MPD2    H3 9233   3.574   0.109  16.012 -0.2274  0.4022 -0.3930
  623MPD2     N 9234   3.773   4.483  16.228 -0.3258  0.3681 -0.1905
  623MPD2    H5 9235   3.745   4.391  16.260 -0.9463  0.6064 -0.0351
  623MPD2    N1 9236   3.321   4.457  16.064  0.2616 -0.2092 -0.2073
  623MPD2    H7 9237   3.252   4.506  16.007 -2.0814 -0.6329  2.2777
  624TMC3    C1 9238   4.046   4.569  16.587  0.0188 -0.1033 -0.1409
  624TMC3    C2 9239   3.951   4.517  16.673  0.4494  0.0736  0.3085
  624TMC3    C3 9240   3.849   4.450  16.608  0.4490 -0.0435 -0.2229
  624TMC3    C4 9241   4.041   4.562  16.452  0.5920 -0.2286  0.6490
  624TMC3    C5 9242   3.932   4.501  16.398 -0.3752  0.0611  0.1650
  624TMC3    C6 9243   3.841   4.437  16.472 -0.7286  0.0051  0.8661
  624TMC3     C 9244   4.179   4.566  16.649 -0.3355 -0.4912  0.0640
  624TMC3     O 9245   4.183   4.563  16.773 -0.1253 -0.6071 -0.0132
  624TMC3     H 9246   3.972   4.489  16.775  1.6276  1.2503  0.3829
  624TMC3    H1 9247   4.109   4.619  16.390 -0.3283 -0.5137 -0.6098
  624TMC3    H2 9248   3.752   4.387  16.435  1.3080 -2.3431 -0.8655
  624TMC3    C7 9249   3.895   4.536  16.262  0.2559  0.3497 -0.2774
  624TMC3    C8 9250   3.735   4.407  16.682 -0.1983 -0.3497  0.3455
  624TMC3    O1 9251   3.944   4.638  16.215 -0.3843 -0.1775 -0.5734
  624TMC3    O2 9252   3.679   4.310  16.629  0.4476  0.6167  0.3575
  625MPD2     C 9253   4.022   1.377   0.977 -0.0540 -0.1419 -1.1899
  625MPD2    C1 9254   3.998   1.252   1.034 -0.5471 -0.1310  0.2950
  625MPD2    C2 9255   4.111   1.194   1.103  0.0539 -0.9239  0.0937
  625MPD2    C3 9256   4.218   1.277   1.137  0.2557  0.4532 -0.1236
  625MPD2    C4 9257   4.232   1.406   1.078 -0.4027  0.0075 -0.1656
  625MPD2    C5 9258   4.137   1.445   0.994 -0.2269  0.1357  0.3014
  625MPD2     H 9259   4.095   1.100   1.154  0.0116 -0.5726  0.7242
  625MPD2    H1 9260   4.315   1.475   1.088 -0.5234  0.2124 -0.5923
  625MPD2    H2 9261   3.953   1.429   0.911  1.8026  2.2323 -1.2480
  625MPD2    H3 9262   4.135   1.548   0.961 -0.3123  0.4053  1.1521
  625MPD2     N 9263   4.312   1.224   1.223 -0.5420 -0.0356  0.2380
  625MPD2    H5 9264   4.310   1.124   1.244 -1.1619  0.6015  3.2594
  625MPD2    N1 9265   3.881   1.176   1.004 -0.1022  0.6146 -0.1704
  625MPD2    H7 9266   3.903   1.078   1.012  0.2075  0.8291  1.5015
  626TMC3    C1 9267   3.671   1.128   0.910  0.3573  0.0579 -0.6195
  626TMC3    C2 9268   3.577   1.177   0.824 -0.1818 -0.4103 -0.9580
  626TMC3    C3 9269   3.475   1.094   0.785 -0.5362 -0.1958 -0.2064
  626TMC3    C4 9270   3.679   0.997   0.955  0.6157  0.1089 -0.0323
  626TMC3    C5 9271   3.574   0.917   0.907  0.5780  0.2804  0.5211
  626TMC3    C6 9272   3.465   0.963   0.832  0.0460 -0.1205 -0.0184
  626TMC3     C 9273   3.765   1.229   0.958 -0.5400 -0.6474 -0.4609
  626TMC3     O 9274   3.730   1.347   0.961 -0.2557 -0.0322 -0.1339
  626TMC3     H 9275   3.581   1.282   0.798  3.0887 -0.0692  0.9915
  626TMC3    H1 9276   3.745   0.964   1.035 -0.1707 -1.0989  0.1150
  626TMC3    H2 9277   3.402   0.891   0.782  2.3557 -1.0910 -1.5385
  626TMC3    C7 9278   3.565   0.787   0.972  0.8466  0.5413 -0.4162
  626TMC3    C8 9279   3.385   1.128   0.680 -0.2619  0.0994 -0.8532
  626TMC3    O1 9280   3.669   0.736   1.001  0.0937 -0.4277 -0.3886
  626TMC3    O2 9281   3.383   1.051   0.584  0.3985  0.5298 -0.5668
  627MPD2     C 9282   2.878   1.301  14.681 -0.4541 -0.2244 -0.6976
  627MPD2    C1 9283   2.810   1.264  14.795  0.1781  0.2715  0.0629
  627MPD2    C2 9284   2.713   1.167  14.794 -0.0045  0.1205  0.1342
  627MPD2    C3 9285   2.682   1.103  14.678  0.4158  0.5597 -0.2882
  627MPD2    C4 9286   2.759   1.130  14.566 -0.2076  0.3886 -0.0969
  627MPD2    C5 9287   2.855   1.226  14.565  0.7451  0.3444 -1.1602
  627MPD2     H 9288   2.647   1.149  14.878 -2.1968  2.5637 -1.0399
  627MPD2    H1 9289   2.751   1.067  14.477  2.3943 -0.9556  0.6138
  627MPD2    H2 9290   2.956   1.375  14.683 -1.7577  1.0655  1.7667
  627MPD2    H3 9291   2.922   1.229  14.480 -0.9277 -2.0250 -2.5796
  627MPD2     N 9292   2.587   0.995  14.684  0.7933  0.2668 -0.4623
  627MPD2    H5 9293   2.537   0.984  14.772  0.7216  1.0052 -0.4133
  627MPD2    N1 9294   2.842   1.326  14.919  0.4126 -0.4522  0.4892
  627MPD2    H7 9295   2.782   1.311  14.999  1.1676  0.8631  1.2924
  628TMC3    C1 9296   2.937   1.464  15.081 -0.0113  0.0210  0.5466
  628TMC3    C2 9297   2.962   1.360  15.167 -0.2670  0.0925  0.3967
  628TMC3    C3 9298   2.996   1.390  15.294  0.1026  0.1264  0.2610
  628TMC3    C4 9299   2.951   1.601  15.114  0.1553  0.4226 -0.0751
  628TMC3    C5 9300   2.991   1.627  15.240 -0.5947 -0.4409  0.4423
  628TMC3    C6 9301   3.007   1.519  15.332  0.2514  0.7771  0.1141
  628TMC3     C 9302   2.930   1.426  14.942  0.3813  0.4516 -0.1848
  628TMC3     O 9303   2.996   1.487  14.862 -0.2268 -0.6698  0.4418
  628TMC3     H 9304   2.972   1.260  15.126 -0.4097  1.0270 -1.9298
  628TMC3    H1 9305   2.940   1.672  15.033 -2.6484  1.0192  0.8054
  628TMC3    H2 9306   3.040   1.545  15.432  1.1713  1.0731 -0.2705
  628TMC3    C7 9307   2.921   1.743  15.294  0.5841 -0.2607 -0.1818
  628TMC3    C8 9308   3.041   1.289  15.383  0.1304  0.0400  0.2034
  628TMC3    O1 9309   2.884   1.731  15.411 -0.1339 -1.0882 -1.1058
  628TMC3    O2 9310   3.089   1.326  15.490  0.0489 -0.1573  0.3912
  629MPD2     C 9311   0.739   3.965  16.565 -0.2758  0.2154  0.5689
  629MPD2    C1 9312   0.711   4.095  16.523  0.2364 -0.7384  0.7923
  629MPD2    C2 9313   0.578   4.123  16.505 -0.0606  0.6190 -0.4229
  629MPD2    C3 9314   0.475   4.037  16.534  0.6405  0.0121 -0.4286
  629MPD2    C4 9315   0.505   3.914  16.600  0.2797  0.6340 -0.3552
  629MPD2    C5 9316   0.644   3.880  16.608  0.8939 -0.5014 -0.0177
  629MPD2     H 9317   0.556   4.219  16.460 -1.3443 -0.6815 -2.5724
  629MPD2    H1 9318   0.432   3.847  16.646  1.2655 -1.9158 -2.5038
  629MPD2    H2 9319   0.837   3.921  16.575  0.1263  1.0036  0.0750
  629MPD2    H3 9320   0.673   3.782  16.644 -1.8530 -1.5456 -0.7059
  629MPD2     N 9321   0.343   4.093  16.527  0.0242  0.6300  0.2391
  629MPD2    H5 9322   0.336   4.185  16.485 -3.7183  1.7299  3.2065
  629MPD2    N1 9323   0.810   4.179  16.487 -0.1337  0.3608  0.0024
  629MPD2    H7 9324   0.904   4.144  16.503 -0.8155 -1.9407 -0.9822
  630TMC3    C1 9325   0.943   4.364  16.463  0.0665  0.2209 -0.0950
  630TMC3    C2 9326   0.996   4.436  16.362 -0.6510 -0.4516 -0.3080
  630TMC3    C3 9327   1.130   4.454  16.364  0.7005 -0.0470  0.3620
  630TMC3    C4 9328   1.016   4.305  16.565 -0.0152 -0.3720  0.9219
  630TMC3    C5 9329   1.146   4.334  16.568 -0.7132 -0.0307 -0.3370
  630TMC3    C6 9330   1.206   4.401  16.470  0.2969 -0.3435 -0.2678
  630TMC3     C 9331   0.807   4.306  16.447 -0.3280 -0.3000  0.0530
  630TMC3     O 9332   0.726   4.366  16.379 -0.1624  0.1145  0.3214
  630TMC3     H 9333   0.938   4.489  16.287  0.2530  1.8368  0.6148
  630TMC3    H1 9334   0.967   4.286  16.660 -0.9592  1.4749  0.8067
  630TMC3    H2 9335   1.311   4.425  16.486 -0.0065  0.3259  0.6912
  630TMC3    C7 9336   1.209   4.326  16.700  0.2674  0.0034  0.7173
  630TMC3    C8 9337   1.203   4.564  16.297  0.7091  0.3494  0.2302
  630TMC3    O1 9338   1.194   4.223  16.758 -0.1173 -0.5077  0.2441
  630TMC3    O2 9339   1.326   4.567  16.306 -0.2368 -0.5198  0.2378
  631MPD2     C 9340   3.511   4.271  15.760 -0.2152  0.5146 -0.3471
  631MPD2    C1 9341   3.625   4.289  15.686  0.5588 -0.0587 -0.7269
  631MPD2    C2 9342   3.721   4.186  15.656  0.2065  0.0965  0.4317
  631MPD2    C3 9343   3.697   4.065  15.716 -0.6592 -0.1374  0.0869
  631MPD2    C4 9344   3.579   4.044  15.786  0.1297  0.2000  0.0833
  631MPD2    C5 9345   3.493   4.148  15.813 -0.3941  0.4566 -0.3645
  631MPD2     H 9346   3.814   4.207  15.605  0.6885 -2.7780  0.1389
  631MPD2    H1 9347   3.556   3.949  15.832 -1.4406 -0.0144 -1.1644
  631MPD2    H2 9348   3.442   4.353  15.777 -1.2227 -0.2479 -0.7760
  631MPD2    H3 9349   3.406   4.132  15.877 -1.4567  0.5344 -1.8017
  631MPD2     N 9350   3.793   3.966  15.697  0.4988 -0.0263 -0.8217
  631MPD2    H5 9351   3.869   3.986  15.632  0.5687  0.3548 -0.6245
  631MPD2    N1 9352   3.647   4.422  15.633 -0.1529  0.1220 -0.1798
  631MPD2    H7 9353   3.600   4.496  15.683 -2.5270  0.2964 -2.6133
  632TMC3    C1 9354   3.795   4.589  15.551 -0.1681 -1.1556  0.1746
  632TMC3    C2 9355   3.788   4.658  15.664 -0.1737  0.4115 -0.4957
  632TMC3    C3 9356   3.843   0.065  15.667 -0.0001  0.8841  0.7272
  632TMC3    C4 9357   3.859   4.639  15.437  0.5887  0.0003 -0.0262
  632TMC3    C5 9358   3.925   0.041  15.449 -0.0279  0.2019  0.3567
  632TMC3    C6 9359   3.907   0.119  15.558  0.3898  0.5039  0.2061
  632TMC3     C 9360   3.752   4.448  15.546 -0.0189  0.1534 -0.2363
  632TMC3     O 9361   3.804   4.378  15.460  0.2652 -0.0197 -0.2226
  632TMC3     H 9362   3.745   4.618  15.755  1.9528 -1.2369 -0.2181
  632TMC3    H1 9363   3.890   4.562  15.367 -0.9728 -1.5993  1.0397
  632TMC3    H2 9364   3.931   0.224  15.553 -1.7746  1.0205  0.6767
  632TMC3    C7 9365   4.020   0.078  15.343  0.3599  0.3986  0.2946
  632TMC3    C8 9366   3.767   0.156  15.750  0.2828 -0.4565 -0.0422
  632TMC3    O1 9367   4.010   0.022  15.233  0.1058  0.1129 -0.7844
  632TMC3    O2 9368   3.649   0.129  15.768  0.5853 -0.3114  0.1125
  633MPD2     C 9369   3.655   2.829   0.064 -0.3242 -0.1057  0.1088
  633MPD2    C1 9370   3.668   2.702   0.019 -0.7269 -0.4331  0.1085
  633MPD2    C2 9371   3.668   2.591   0.105  0.6292 -0.1534  0.0769
  633MPD2    C3 9372   3.669   2.613   0.239  0.2564 -0.6083 -1.0437
  633MPD2    C4 9373   3.660   2.740   0.281  0.5255  0.3226  0.0535
  633MPD2    C5 9374   3.656   2.846   0.201 -0.1854  0.0102 -0.1684
  633MPD2     H 9375   3.683   2.493   0.059 -0.3890  0.0921 -0.7662
  633MPD2    H1 9376   3.640   2.766   0.384  3.8238 -1.9997  1.2547
  633MPD2    H2 9377   3.650   2.919   0.005  1.1235  0.7750  1.3190
  633MPD2    H3 9378   3.635   2.939   0.253  1.2528  0.7625 -0.9209
  633MPD2     N 9379   3.678   2.516   0.338 -0.6623 -0.0379  0.3875
  633MPD2    H5 9380   3.676   2.553   0.433 -0.2348  1.6985 -0.2712
  633MPD2    N1 9381   3.688   2.673  17.570  0.5981  0.3341 -0.0110
  633MPD2    H7 9382   3.690   2.574  17.547 -0.1850  0.4569 -0.5925
  634TMC3    C1 9383   3.714   2.701  17.340 -0.2860  0.1354 -1.0379
  634TMC3    C2 9384   3.808   2.605  17.325 -0.1730 -1.2153 -0.1599
  634TMC3    C3 9385   3.830   2.572  17.192  0.6254  0.2179 -0.3796
  634TMC3    C4 9386   3.658   2.780  17.239 -0.1493 -0.4444 -0.0101
  634TMC3    C5 9387   3.691   2.746  17.110  0.6536 -0.0115 -0.1329
  634TMC3    C6 9388   3.765   2.633  17.088 -0.2233  0.4479 -1.7966
  634TMC3     C 9389   3.687   2.765  17.468  0.1970 -0.2002  0.3886
  634TMC3     O 9390   3.642   2.877  17.475  0.6041 -0.3990 -0.2111
  634TMC3     H 9391   3.867   2.567  17.408 -0.4407 -0.5130  0.3463
  634TMC3    H1 9392   3.598   2.866  17.266  1.0250  0.3775 -0.0072
  634TMC3    H2 9393   3.801   2.610  16.988 -0.6947  0.7111 -2.0260
  634TMC3    C7 9394   3.657   2.848  17.008 -0.4402  0.7198 -0.1899
  634TMC3    C8 9395   3.903   2.454  17.162  0.4106 -0.1100  1.3894
  634TMC3    O1 9396   3.725   2.855  16.907 -0.1250 -0.1652  0.2751
  634TMC3    O2 9397   3.975   2.417  17.253 -0.7081  0.3543  0.1486
  635TMC3    C1 9398   4.308   3.179  17.580 -0.7967  0.5107  1.1368
  635TMC3    C2 9399   4.343   3.183  17.446  0.4099 -0.5276 -0.2560
  635TMC3    C3 9400   4.333   3.069  17.371  0.4529 -0.7645 -0.7647
  635TMC3    C4 9401   4.275   3.064  17.644 -0.0154 -0.2582 -0.5968
  635TMC3    C5 9402   4.288   2.946  17.573  0.0726 -0.3869  0.0625
  635TMC3    C6 9403   4.313   2.947  17.440  0.4306  0.2439  0.5419
  635TMC3     C 9404   4.264   3.307  17.630  0.4382  0.0165  0.2981
  635TMC3     O 9405   4.239   3.397  17.557  0.2489 -0.4721 -0.1085
  635TMC3     H 9406   4.368   3.280  17.406  3.6940 -1.0149  0.6643
  635TMC3    H1 9407   4.229   3.069   0.053  1.4144  2.2289 -0.0571
  635TMC3    H2 9408   4.303   2.849  17.394  1.6873  1.5625 -2.5658
  635TMC3    C7 9409   4.237   2.822  17.626 -0.1982 -0.1457  0.5996
  635TMC3    C8 9410   4.392   3.072  17.239  0.1112 -0.2067 -0.6295
  635TMC3    O1 9411   4.178   2.842   0.040  0.0679  0.2156 -0.0892
  635TMC3    O2 9412   4.418   3.179  17.182 -0.2754  0.0253  0.0201
  636MPD2     C 9413   0.313   2.856  15.512 -0.4383 -0.4137 -1.1824
  636MPD2    C1 9414   0.352   2.904  15.635 -0.2568 -0.4003 -0.2672
  636MPD2    C2 9415   0.377   2.816  15.740 -0.0714  0.6828 -0.1098
  636MPD2    C3 9416   0.384   2.682  15.717  0.0517 -0.3078  0.2658
  636MPD2    C4 9417   0.360   2.638  15.586 -1.4031  0.6737  0.0737
  636MPD2    C5 9418   0.325   2.722  15.487  0.0657  0.5065  0.1177
  636MPD2     H 9419   0.404   2.858  15.836  1.3649  0.1662 -0.2789
  636MPD2    H1 9420   0.367   2.536  15.549 -1.5979  1.3024 -1.7127
  636MPD2    H2 9421   0.291   2.919  15.427  1.0576  1.9787  0.2211
  636MPD2    H3 9422   0.312   2.688  15.385  1.0212 -1.9580  0.8194
  636MPD2     N 9423   0.430   2.594  15.821 -0.1890 -0.4421 -0.2357
  636MPD2    H5 9424   0.444   2.640  15.910 -1.1610 -0.7601  0.0780
  636MPD2    N1 9425   0.342   3.038  15.666 -0.0907 -0.1920 -0.2904
  636MPD2    H7 9426   0.377   3.071  15.756 -0.7359  0.1979 -0.1838
  637TMC3    C1 9427   0.510   2.392  15.910  0.5837 -0.2620  0.0869
  637TMC3    C2 9428   0.505   2.439  16.042  0.7971 -0.6810  0.1111
  637TMC3    C3 9429   0.581   2.391  16.141 -0.0369 -0.8569 -0.9168
  637TMC3    C4 9430   0.600   2.297  15.871 -0.3864  0.1227  0.2731
  637TMC3    C5 9431   0.692   2.256  15.971  0.1034 -0.6403 -0.2120
  637TMC3    C6 9432   0.674   2.292  16.108  0.0351 -0.4678 -0.3743
  637TMC3     C 9433   0.448   2.457  15.801  0.4543 -0.3702 -0.4800
  637TMC3     O 9434   0.423   2.385  15.705 -0.3440  0.0222  0.7173
  637TMC3     H 9435   0.425   2.510  16.062  1.4970  0.2444 -0.3770
  637TMC3    H1 9436   0.602   2.267  15.767  0.3167  1.1126  0.0115
  637TMC3    H2 9437   0.741   2.258  16.186  0.0071 -2.0953 -1.0721
  637TMC3    C7 9438   0.829   2.287  15.946  0.1455 -0.6834  0.4351
  637TMC3    C8 9439   0.631   2.501  16.228 -0.3693 -0.3070  0.4428
  637TMC3    O1 9440   0.883   2.348  16.039 -0.4260 -0.1509 -0.7355
  637TMC3    O2 9441   0.604   2.615  16.203  0.5005 -0.5039 -0.0902
  638MPD2     C 9442   4.687   1.931  14.911 -0.6955 -0.2144 -0.1869
  638MPD2    C1 9443   0.073   1.847  14.898  0.4350 -0.0679 -0.4116
  638MPD2    C2 9444   0.115   1.777  15.012 -0.3977  0.1780  0.0615
  638MPD2    C3 9445   0.049   1.782  15.137  0.3863  0.3562 -0.6375
  638MPD2    C4 9446   4.675   1.873  15.150  0.3068 -0.0023  0.1757
  638MPD2    C5 9447   4.636   1.946  15.043  0.3310 -0.2259 -0.4401
  638MPD2     H 9448   0.177   1.692  14.988 -0.5371  0.2232 -0.4486
  638MPD2    H1 9449   4.631   1.894  15.247  1.3588 -1.4504  0.9738
  638MPD2    H2 9450   4.641   1.983  14.828 -1.6776 -1.9595 -0.7311
  638MPD2    H3 9451   4.553   2.016  15.046  1.1399  0.7097  0.3920
  638MPD2     N 9452   0.050   1.683  15.225  0.0885 -0.1883  0.1602
  638MPD2    H5 9453   4.699   1.689  15.295 -0.7364 -0.5553 -0.6682
  638MPD2    N1 9454   0.147   1.820  14.780  0.3682 -0.2133  0.6815
  638MPD2    H7 9455   0.221   1.751  14.786  1.2462  0.8793  2.1237
  639TMC3    C1 9456   0.089   1.461  15.306  0.8389 -0.1610 -0.3349
  639TMC3    C2 9457   4.702   1.393  15.257  0.3102  0.2479  0.1169
  639TMC3    C3 9458   4.673   1.267  15.299 -0.2483 -0.6016  0.5303
  639TMC3    C4 9459   0.184   1.395  15.384 -0.1651  0.5485  0.4770
  639TMC3    C5 9460   0.150   1.266  15.424 -0.6921  0.2632 -0.9709
  639TMC3    C6 9461   0.044   1.200  15.378  0.2912  0.5454 -0.1729
  639TMC3     C 9462   0.140   1.573  15.229  0.1791 -0.0604  1.0073
  639TMC3     O 9463   0.258   1.565  15.189  0.1823 -0.2281  0.4772
  639TMC3     H 9464   4.652   1.442  15.175 -1.0898 -1.3593  0.0317
  639TMC3    H1 9465   0.282   1.439  15.396  0.5378 -0.8064 -0.2431
  639TMC3    H2 9466   0.011   1.100  15.401  2.8713 -0.5057 -1.0773
  639TMC3    C7 9467   0.221   1.191  15.529 -0.6404  0.1655 -0.8274
  639TMC3    C8 9468   4.600   1.188  15.196  0.4416 -0.2523 -0.3856
  639TMC3    O1 9469   0.147   1.136  15.606 -0.0812  0.0135 -0.3961
  639TMC3    O2 9470   4.627   1.218  15.080  0.2671 -0.0538  0.3309
  640MPD2     C 9471   1.333   4.680   9.794  0.4107 -0.1389  0.2121
  640MPD2    C1 9472   1.409   0.060   9.844  0.2077  1.0607  0.8412
  640MPD2    C2 9473   1.357   0.188   9.849 -0.7563 -0.1147 -0.0499
  640MPD2    C3 9474   1.234   0.213   9.790 -0.2564 -0.4631 -0.3917
  640MPD2    C4 9475   1.160   0.108   9.734 -0.2169 -0.9341  0.2100
  640MPD2    C5 9476   1.208   4.703   9.740 -0.1354 -0.2438  1.0391
  640MPD2     H 9477   1.400   0.259   9.920 -3.0854  2.4524 -1.2211
  640MPD2    H1 9478   1.070   0.127   9.676  0.1530 -1.4624 -0.5388
  640MPD2    H2 9479   1.362   4.576   9.804  0.2653 -0.1995  0.0006
  640MPD2    H3 9480   1.151   4.626   9.689  2.3407 -0.3013 -1.6587
  640MPD2     N 9481   1.169   0.338   9.778 -0.7805 -0.1028 -0.6329
  640MPD2    H5 9482   1.072   0.325   9.752 -0.2928 -0.1568 -2.4606
  640MPD2    N1 9483   1.543   0.029   9.884 -0.2599 -0.3840  0.8637
  640MPD2    H7 9484   1.578   4.656   9.879 -3.7139 -1.6524  0.4134
  641TMC3    C1 9485   1.754   0.049   9.968  0.9570 -0.4582 -0.2289
  641TMC3    C2 9486   1.742   4.641  10.014 -0.5084 -0.0315  0.3417
  641TMC3    C3 9487   1.861   4.578  10.044  0.3835  0.0344 -0.6467
  641TMC3    C4 9488   1.873   0.120   9.966  0.0239  0.8661 -0.8068
  641TMC3    C5 9489   1.985   0.055   9.990  0.2433  0.0653 -0.1763
  641TMC3    C6 9490   1.980   4.651  10.044  0.9816  0.8708  0.0173
  641TMC3     C 9491   1.630   0.120   9.938  0.0576  0.5695  0.6546
  641TMC3     O 9492   1.631   0.243   9.936  0.0998 -0.0448 -0.4975
  641TMC3     H 9493   1.658   4.575   9.996  1.3411 -2.6421  1.3574
  641TMC3    H1 9494   1.874   0.224   9.936 -2.5280  1.2274  0.3827
  641TMC3    H2 9495   2.070   4.593  10.061  0.6092 -0.1568 -1.5224
  641TMC3    C7 9496   2.112   0.120   9.990 -0.7833 -0.3466 -0.1938
  641TMC3    C8 9497   1.858   4.429  10.058 -0.7043 -0.4712 -0.4723
  641TMC3    O1 9498   2.124   0.222   9.924 -0.3701  0.0937 -0.0448
  641TMC3    O2 9499   1.761   4.376  10.002  0.0695  0.1150  0.3605
  642TMC3    C1 9500   1.719   1.324  12.416 -0.3897  0.3109  0.1064
  642TMC3    C2 9501   1.850   1.351  12.379 -0.0032 -0.1103  0.0688
  642TMC3    C3 9502   1.901   1.285  12.275  0.0067 -1.0078  0.5878
  642TMC3    C4 9503   1.660   1.209  12.367 -0.6352  0.9144  0.2358
  642TMC3    C5 9504   1.707   1.151  12.253 -0.3365  1.3358  0.3067
  642TMC3    C6 9505   1.831   1.188  12.211  0.5595 -0.6895 -0.0996
  642TMC3     C 9506   1.637   1.404  12.504 -0.3554  0.5973 -0.4453
  642TMC3     O 9507   1.523   1.366  12.534 -0.1418 -0.3752  0.2165
  642TMC3     H 9508   1.909   1.411  12.446 -1.4138  2.0134 -0.5858
  642TMC3    H1 9509   1.558   1.185  12.396 -0.8505 -0.7511 -1.9073
  642TMC3    H2 9510   1.873   1.141  12.123  1.0945  2.5572 -1.5646
  642TMC3    C7 9511   1.673   1.011  12.233 -0.0046  0.0905  0.0408
  642TMC3    C8 9512   2.043   1.278  12.248 -0.8724 -0.0384  0.3407
  642TMC3    O1 9513   1.665   0.968  12.118  0.0102 -0.2304 -0.1109
  642TMC3    O2 9514   2.081   1.227  12.143  0.2340 -0.3077 -0.6803
  643TMC3    C1 9515   0.361   1.003   0.678  0.7465 -0.9007  0.3931
  643TMC3    C2 9516   0.310   1.002   0.549  0.1724 -0.2449  0.9164
  643TMC3    C3 9517   0.349   0.906   0.463 -0.2107 -0.2975  0.7125
  643TMC3    C4 9518   0.458   0.916   0.720  0.0178  0.2956 -0.2237
  643TMC3    C5 9519   0.493   0.819   0.638  0.1751  0.2932 -0.4477
  643TMC3    C6 9520   0.435   0.808   0.511  0.3044 -0.4309  0.2487
  643TMC3     C 9521   0.306   1.103   0.772  0.1792  0.0867 -0.1088
  643TMC3     O 9522   0.242   1.194   0.722 -0.1885 -0.2702 -0.1528
  643TMC3     H 9523   0.237   1.073   0.514 -0.4530 -0.8055  1.0691
  643TMC3    H1 9524   0.519   0.922   0.809 -0.5578 -0.3638  0.2115
  643TMC3    H2 9525   0.464   0.738   0.434  0.8148 -0.3843  0.3998
  643TMC3    C7 9526   0.627   0.775   0.639 -0.7582 -0.4899 -0.5147
  643TMC3    C8 9527   0.372   0.935   0.325  1.0235  0.0955  0.2150
  643TMC3    O1 9528   0.725   0.845   0.671  0.1844  0.1944  0.6114
  643TMC3    O2 9529   0.381   0.852   0.239  0.0357  0.1671 -0.2289
  644MPD2     C 9530   1.464   0.679   9.559 -0.5429  0.5848 -0.5024
  644MPD2    C1 9531   1.376   0.590   9.503  0.5430  0.5817 -0.6199
  644MPD2    C2 9532   1.257   0.634   9.443 -0.2467  0.2823  0.5639
  644MPD2    C3 9533   1.235   0.769   9.441 -0.6999 -0.0234  0.4573
  644MPD2    C4 9534   1.329   0.854   9.498  0.1866  0.1687  0.2940
  644MPD2    C5 9535   1.443   0.806   9.555 -0.0864  0.8652 -0.0499
  644MPD2     H 9536   1.192   0.571   9.383  1.8425  0.4655 -1.8812
  644MPD2    H1 9537   1.313   0.961   9.495  2.5017  0.4746 -0.9127
  644MPD2    H2 9538   1.558   0.637   9.595 -0.8128  1.2907  1.0630
  644MPD2    H3 9539   1.520   0.874   9.591 -1.3023  0.8410  2.5937
  644MPD2     N 9540   1.118   0.809   9.371  0.4637  0.0093 -0.4800
  644MPD2    H5 9541   1.060   0.734   9.335 -0.0810 -0.9335  2.3418
  644MPD2    N1 9542   1.412   0.454   9.499 -0.7741  0.2779  0.3055
  644MPD2    H7 9543   1.493   0.438   9.558 -1.2839  0.2201  0.9976
  645TMC3    C1 9544   0.974   0.954   9.243  0.0228 -0.0328 -0.0974
  645TMC3    C2 9545   0.923   1.079   9.231 -0.0206  0.0519 -0.6047
  645TMC3    C3 9546   0.806   1.096   9.162 -0.5015 -0.0206  0.1115
  645TMC3    C4 9547   0.906   0.847   9.201 -0.4699 -0.8817 -0.0815
  645TMC3    C5 9548   0.801   0.870   9.124 -0.1744  0.7715 -0.6203
  645TMC3    C6 9549   0.742   0.993   9.101 -0.1477  0.2243 -0.2728
  645TMC3     C 9550   1.086   0.936   9.333  0.1309 -0.3860  0.0049
  645TMC3     O 9551   1.147   1.044   9.351 -0.2993 -0.3595  0.0564
  645TMC3     H 9552   0.987   1.158   9.268 -1.0353  0.5726  0.0421
  645TMC3    H1 9553   0.960   0.754   9.185  1.1357  0.0552 -0.0511
  645TMC3    H2 9554   0.651   1.006   9.042 -0.1268 -2.3024 -0.8532
  645TMC3    C7 9555   0.742   0.754   9.060  0.6284 -0.8185  0.5277
  645TMC3    C8 9556   0.773   1.239   9.139  0.2156 -0.1572 -0.6906
  645TMC3    O1 9557   0.797   0.646   9.073  0.1207 -0.2169 -0.4078
  645TMC3    O2 9558   0.864   1.319   9.159  0.4379  0.1633 -0.2354
  646MPD2     C 9559   0.351   0.464  14.695  0.2595  0.1799  0.5723
  646MPD2    C1 9560   0.246   0.407  14.759 -0.2878  0.4150 -0.0478
  646MPD2    C2 9561   0.117   0.452  14.745  0.7894  0.0023  0.6062
  646MPD2    C3 9562   0.091   0.553  14.656  0.4677  0.2149  0.1437
  646MPD2    C4 9563   0.195   0.615  14.595  0.2426  0.7307  0.3928
  646MPD2    C5 9564   0.319   0.566  14.603  0.0271 -0.9250 -0.6658
  646MPD2     H 9565   0.030   0.413  14.796 -1.4942  1.7444 -1.9680
  646MPD2    H1 9566   0.168   0.706  14.542  1.5390 -0.2751 -2.0075
  646MPD2    H2 9567   0.454   0.435  14.707  0.6269  0.5046 -1.6663
  646MPD2    H3 9568   0.402   0.616  14.553 -0.4989  0.8484  0.2098
  646MPD2     N 9569   4.681   0.602  14.653 -0.2144  0.9974  0.3957
  646MPD2    H5 9570   4.623   0.575  14.732  0.1827  0.7601  0.6112
  646MPD2    N1 9571   0.280   0.288  14.828 -0.0070  0.2956 -0.2203
  646MPD2    H7 9572   0.369   0.242  14.808  0.9753  2.5779 -1.1045
  647TMC3    C1 9573   0.251   0.089  14.958  0.5331 -0.6150  0.1294
  647TMC3    C2 9574   0.154   4.713  14.991  0.5130 -0.3488 -0.3965
  647TMC3    C3 9575   0.206   4.585  14.989 -0.2918 -0.5862 -0.0697
  647TMC3    C4 9576   0.388   0.064  14.936  0.4572 -0.2851  0.4237
  647TMC3    C5 9577   0.419   4.656  14.919  0.0120 -0.0541  0.1618
  647TMC3    C6 9578   0.329   4.552  14.936 -0.1721 -0.2028  1.2209
  647TMC3     C 9579   0.200   0.215  14.914 -0.4997  0.1640 -0.3515
  647TMC3     O 9580   0.087   0.242  14.954  0.3653 -0.3441  0.2415
  647TMC3     H 9581   0.054   0.017  15.024  1.6592  1.9949  1.1918
  647TMC3    H1 9582   0.459   0.145  14.928  1.1938 -0.8404  1.2859
  647TMC3    H2 9583   0.356   4.447  14.943  2.0622  0.2817 -0.0096
  647TMC3    C7 9584   0.555   4.609  14.907 -0.7017 -0.0678  1.0092
  647TMC3    C8 9585   0.146   4.479  15.063 -0.4170  0.5825 -0.2804
  647TMC3    O1 9586   0.580   4.496  14.950  0.1568  0.2918  0.0624
  647TMC3    O2 9587   0.219   4.392  15.114  0.2733  0.6764  0.1726
  648TMC3    C1 9588   4.440   2.577  16.266 -0.2539 -0.6190 -0.1480
  648TMC3    C2 9589   4.481   2.451  16.237 -0.0095  0.2647 -0.1417
  648TMC3    C3 9590   4.478   2.410  16.110  0.2681 -0.8125  0.0242
  648TMC3    C4 9591   4.393   2.660  16.171 -0.1960 -0.2084  0.3434
  648TMC3    C5 9592   4.373   2.614  16.047 -0.2704  0.1030  0.1427
  648TMC3    C6 9593   4.422   2.488  16.007 -0.4801  0.1275 -0.0780
  648TMC3     C 9594   4.428   2.620  16.398 -0.2899 -0.2027 -0.2450
  648TMC3     O 9595   4.414   2.740  16.415  0.7432  0.2911 -0.1913
  648TMC3     H 9596   4.521   2.391  16.318 -0.7900 -1.8559 -1.3500
  648TMC3    H1 9597   4.388   2.766  16.195 -0.1370 -0.3140  0.8322
  648TMC3    H2 9598   4.401   2.444  15.910 -1.7078 -0.9903  0.6917
  648TMC3    C7 9599   4.276   2.691  15.967  0.2110  0.4728 -0.1811
  648TMC3    C8 9600   4.503   2.268  16.078  0.0476 -0.1457  0.2641
  648TMC3    O1 9601   4.270   2.675  15.846  0.6382 -0.0782  0.5663
  648TMC3    O2 9602   4.509   2.184  16.169 -0.2286 -0.2976 -0.0653
  649TMC3    C1 9603   3.787   3.607  12.553  0.3280  0.4306  1.0212
  649TMC3    C2 9604   3.926   3.621  12.528 -0.4600 -0.4242  0.4708
  649TMC3    C3 9605   4.007   3.612  12.639  0.0796  0.4709  0.7005
  649TMC3    C4 9606   3.737   3.562  12.675  0.3277  0.0149  0.5279
  649TMC3    C5 9607   3.826   3.558  12.775 -0.1924  0.5186 -0.1095
  649TMC3    C6 9608   3.961   3.586  12.764  0.6365  0.2438  0.2926
  649TMC3     C 9609   3.692   3.621  12.450  0.0342 -0.1870  1.1200
  649TMC3     O 9610   3.576   3.655  12.469  0.5088 -0.0158 -0.3837
  649TMC3     H 9611   3.962   3.668  12.438  1.2836 -3.6313 -0.4934
  649TMC3    H1 9612   3.630   3.557  12.694  0.5758 -3.8336  0.9945
  649TMC3    H2 9613   4.016   3.592  12.857  2.5234 -0.0805 -0.8017
  649TMC3    C7 9614   3.800   3.469  12.883 -0.3853 -0.2779  0.0478
  649TMC3    C8 9615   4.133   3.680  12.630  0.5072 -0.1267 -0.5104
  649TMC3    O1 9616   3.697   3.490  12.947 -0.1746 -0.2206 -0.2803
  649TMC3    O2 9617   4.145   3.756  12.536  0.3462  0.5058  0.1282
  650TMC3    C1 9618   1.112   0.641  12.760  0.2185  0.0878 -0.0946
  650TMC3    C2 9619   1.129   0.719  12.875  0.3604  0.3295  0.5343
  650TMC3    C3 9620   1.226   0.820  12.864 -0.2133 -0.0395 -0.4590
  650TMC3    C4 9621   1.191   0.652  12.650  0.1563  0.1892 -0.2968
  650TMC3    C5 9622   1.288   0.750  12.650 -0.2428 -0.3811 -0.1981
  650TMC3    C6 9623   1.300   0.841  12.752 -0.5765 -0.1842 -0.0059
  650TMC3     C 9624   1.058   0.511  12.789 -0.1942  0.3296 -0.5747
  650TMC3     O 9625   1.009   0.496  12.900  0.5853 -0.9705  0.3649
  650TMC3     H 9626   1.065   0.707  12.962  1.5564 -1.0579  1.2169
  650TMC3    H1 9627   1.150   0.625  12.553  0.6847  0.2137 -0.5262
  650TMC3    H2 9628   1.382   0.912  12.748 -0.1199 -0.6582  0.9015
  650TMC3    C7 9629   1.310   0.807  12.522  0.2671  0.3759 -0.3407
  650TMC3    C8 9630   1.200   0.938  12.932 -0.3336  0.0618  0.4199
  650TMC3    O1 9631   1.315   0.728  12.425 -0.5860 -0.0062  0.0032
  650TMC3    O2 9632   1.261   1.034  12.889 -0.0054 -0.3602 -0.5981
  651MPD2     C 9633   0.175   2.328  10.958 -0.5438 -0.5624 -1.1465
  651MPD2    C1 9634   0.164   2.435  11.038 -0.2751  0.1062 -0.2684
  651MPD2    C2 9635   0.279   2.512  11.068  0.5063 -0.1762  0.3487
  651MPD2    C3 9636   0.405   2.455  11.043 -0.7297  0.2258 -0.3286
  651MPD2    C4 9637   0.413   2.351  10.952  0.0604 -0.6929  0.9555
  651MPD2    C5 9638   0.300   2.290  10.914  0.8718 -0.3999  0.4295
  651MPD2     H 9639   0.276   2.607  11.120 -0.4312  0.2634 -0.4956
  651MPD2    H1 9640   0.504   2.310  10.911  0.8989 -0.2107  2.3315
  651MPD2    H2 9641   0.094   2.264  10.925  0.7192 -2.3931 -0.6986
  651MPD2    H3 9642   0.315   2.199  10.858 -0.2874 -0.6846  0.5748
  651MPD2     N 9643   0.513   2.514  11.110 -0.1793  0.4215 -0.2546
  651MPD2    H5 9644   0.496   2.599  11.163 -1.3880 -0.6934  1.1473
  651MPD2    N1 9645   0.045   2.469  11.105 -0.4826  0.7268 -0.0397
  651MPD2    H7 9646   0.051   2.545  11.173 -1.2888 -0.8817  1.8121
  652TMC3    C1 9647   0.917   2.479  11.344 -0.1750 -0.2362  0.6659
  652TMC3    C2 9648   0.852   2.456  11.231 -0.2485 -0.1190 -0.1015
  652TMC3    C3 9649   0.726   2.504  11.222  0.5650  0.1132 -0.8617
  652TMC3    C4 9650   0.857   2.523  11.463  0.0023  0.0015  0.1973
  652TMC3    C5 9651   0.731   2.567  11.456  0.1904 -0.3770 -0.1410
  652TMC3    C6 9652   0.666   2.555  11.336 -0.6716 -0.4229 -0.1968
  652TMC3     C 9653   1.054   2.484  11.344  0.4967 -0.5886 -0.2706
  652TMC3     O 9654   1.104   2.470  11.453 -0.0208  0.1364  0.7303
  652TMC3     H 9655   0.900   2.415  11.143  0.2327 -2.3990  1.2256
  652TMC3    H1 9656   0.921   2.565  11.540 -0.4596  0.7280  0.1826
  652TMC3    H2 9657   0.568   2.601  11.334 -0.1577  0.5820 -2.3427
  652TMC3    C7 9658   0.707   2.686  11.525  0.4966 -0.6984  0.1101
  652TMC3    C8 9659   0.632   2.450  11.125  0.3318  0.1725 -0.0498
  652TMC3    O1 9660   0.694   2.671  11.645  0.1998 -0.2427  0.1240
  652TMC3    O2 9661   0.652   2.334  11.087  0.3868 -0.3014 -0.2538
  653MPD2     C 9662   3.318   2.766  17.551 -1.1555  0.0627  0.1121
  653MPD2    C1 9663   3.197   2.820  17.514  0.7360  0.2949  0.2814
  653MPD2    C2 9664   3.101   2.743  17.447  0.7046 -0.6431 -0.5057
  653MPD2    C3 9665   3.129   2.604  17.435  0.2629  0.5143  0.0489
  653MPD2    C4 9666   3.248   2.553  17.482 -0.4932  0.0789 -0.5332
  653MPD2    C5 9667   3.345   2.636  17.534 -0.6102  0.2526 -0.1994
  653MPD2     H 9668   3.003   2.785  17.426  0.8318 -0.1812 -0.1774
  653MPD2    H1 9669   3.275   2.448  17.476 -2.5130 -0.3218 -2.5360
  653MPD2    H2 9670   3.393   2.830  17.596 -2.3658  0.8049  1.0615
  653MPD2    H3 9671   3.435   2.593  17.577 -0.5735 -0.8347 -1.3790
  653MPD2     N 9672   3.029   2.521  17.381 -0.2542  0.0981 -0.6881
  653MPD2    H5 9673   2.935   2.561  17.374  0.1968  1.1676 -0.7139
  653MPD2    N1 9674   3.173   2.957  17.546  0.1058  0.0440 -0.0566
  653MPD2    H7 9675   3.106   3.001  17.485 -0.5652 -1.1168 -0.1670
  654TMC3    C1 9676   2.926   2.334  17.296 -0.1773  0.6799 -0.0068
  654TMC3    C2 9677   2.842   2.418  17.237 -0.4760  0.2748  1.0317
  654TMC3    C3 9678   2.782   2.366  17.129  0.3005 -0.4297  0.5055
  654TMC3    C4 9679   2.952   2.205  17.261 -0.0739  0.0893  0.5871
  654TMC3    C5 9680   2.890   2.169  17.140  0.0349  0.3368  0.4761
  654TMC3    C6 9681   2.802   2.246  17.073 -0.3038 -0.3268  0.0681
  654TMC3     C 9682   3.042   2.386  17.355  0.0553 -0.2898 -0.4775
  654TMC3     O 9683   3.144   2.315  17.354  0.2474 -0.2758 -0.1785
  654TMC3     H 9684   2.821   2.520  17.264  1.5766  1.2003 -0.9035
  654TMC3    H1 9685   2.997   2.137  17.331 -1.5570 -0.7002  0.7765
  654TMC3    H2 9686   2.750   2.201  16.989 -0.4931 -1.7470  0.9465
  654TMC3    C7 9687   2.909   2.029  17.099 -0.0693  0.0987  0.6237
  654TMC3    C8 9688   2.648   2.427  17.111  0.1074  0.2490 -0.1822
  654TMC3    O1 9689   2.849   1.985  17.003  0.5310  0.3653  0.0374
  654TMC3    O2 9690   2.629   2.539  17.154 -0.0220 -1.0190 -0.0010
  655MPD2     C 9691   4.663   2.898  15.818  0.3903  0.2450 -0.2500
  655MPD2    C1 9692   4.538   2.927  15.770  0.1951 -0.3986  0.1749
  655MPD2    C2 9693   4.489   2.889  15.649  0.4931 -0.9341  0.6839
  655MPD2    C3 9694   4.574   2.828  15.562  0.4337  0.4632  0.3451
  655MPD2    C4 9695   4.702   2.802  15.602  0.1602  0.3942  0.1962
  655MPD2    C5 9696   0.022   2.830  15.729  0.2751  0.8961 -0.4682
  655MPD2     H 9697   4.386   2.915  15.626  0.5288 -0.7028  0.7849
  655MPD2    H1 9698   0.049   2.755  15.532  0.4344 -1.3919  1.6576
  655MPD2    H2 9699   4.701   2.929  15.915  1.1157  1.8180 -1.0254
  655MPD2    H3 9700   0.111   2.785  15.771  0.4293  1.9878  0.3871
  655MPD2     N 9701   4.542   2.804  15.430  0.3632  0.0158 -0.2595
  655MPD2    H5 9702   4.611   2.752  15.376 -0.6520  0.0158 -1.5767
  655MPD2    N1 9703   4.447   3.000  15.856 -0.1267 -0.3679 -0.4323
  655MPD2    H7 9704   4.359   3.023  15.810  0.2440  0.6716 -0.6046
  656TMC3    C1 9705   4.380   3.135  16.033  0.0239  1.2555  0.2448
  656TMC3    C2 9706   4.341   3.129  16.160 -0.6912 -0.1093  0.4171
  656TMC3    C3 9707   4.237   3.212  16.196  0.3420  0.2221 -0.0180
  656TMC3    C4 9708   4.330   3.222  15.946 -0.1701 -0.8888 -0.9380
  656TMC3    C5 9709   4.234   3.313  15.984 -0.1830 -0.4745 -0.7106
  656TMC3    C6 9710   4.182   3.310  16.110 -1.0411 -0.0967  0.4767
  656TMC3     C 9711   4.467   3.030  15.989  0.5945  0.2544 -0.1738
  656TMC3     O 9712   4.535   2.969  16.078 -0.0230 -0.8488 -0.2177
  656TMC3     H 9713   4.380   3.065  16.238  0.1798  1.8782  1.6075
  656TMC3    H1 9714   4.371   3.221  15.846  1.1783  0.5585 -0.4127
  656TMC3    H2 9715   4.097   3.367  16.146 -0.5073  0.6680  0.5249
  656TMC3    C7 9716   4.180   3.384  15.872 -0.9867  0.0766 -0.2430
  656TMC3    C8 9717   4.181   3.185  16.331 -0.5317 -0.2229 -0.3907
  656TMC3    O1 9718   4.253   3.400  15.775 -0.7353  0.3544  0.1338
  656TMC3    O2 9719   4.195   3.067  16.365  0.5379  0.7331 -0.4003
  657TMC3    C1 9720   3.536   2.023  15.298  0.3276  0.3012  0.2153
  657TMC3    C2 9721   3.601   1.995  15.420  0.7204  0.3317  0.5329
  657TMC3    C3 9722   3.600   2.086  15.517 -0.2424  0.7279  0.0172
  657TMC3    C4 9723   3.471   2.143  15.275  0.5738  0.2035  0.7424
  657TMC3    C5 9724   3.481   2.236  15.376  0.5411  0.6013  1.3459
  657TMC3    C6 9725   3.544   2.210  15.497  0.0279 -0.0011 -0.1887
  657TMC3     C 9726   3.552   1.928  15.185  0.1491 -0.4980 -0.5909
  657TMC3     O 9727   3.487   1.950  15.084  0.6663  0.1686 -0.2468
  657TMC3     H 9728   3.648   1.899  15.436  0.5021  0.6492  2.9773
  657TMC3    H1 9729   3.433   2.152  15.174  1.0717  1.5315  0.6767
  657TMC3    H2 9730   3.552   2.287  15.573  1.8466  0.0617 -0.4477
  657TMC3    C7 9731   3.414   2.363  15.362 -0.0382  0.1926 -0.1671
  657TMC3    C8 9732   3.677   2.061  15.639 -0.6275 -0.4438  0.3990
  657TMC3    O1 9733   3.402   2.422  15.469 -0.1772  0.4523 -0.5514
  657TMC3    O2 9734   3.647   2.131  15.736  0.2909 -0.5228  0.0723
  658MPD2     C 9735   0.136   2.559  14.750 -0.3850  0.0051 -0.1236
  658MPD2    C1 9736   0.055   2.671  14.779 -0.1737  0.5289 -0.8876
  658MPD2    C2 9737   0.067   2.787  14.707  0.0641 -0.3253  0.2488
  658MPD2    C3 9738   0.178   2.804  14.620 -0.6963  0.1257 -0.3992
  658MPD2    C4 9739   0.273   2.697  14.605 -0.2034 -0.5349  0.0565
  658MPD2    C5 9740   0.246   2.577  14.671  0.6823  0.4202  0.2637
  658MPD2     H 9741   4.710   2.861  14.718  1.7201  1.8959 -2.6514
  658MPD2    H1 9742   0.367   2.702  14.550 -1.7119 -0.5162 -2.5168
  658MPD2    H2 9743   0.118   2.456  14.780  0.9953  0.1808  1.3147
  658MPD2    H3 9744   0.301   2.487  14.648 -0.2723  0.1315 -0.9219
  658MPD2     N 9745   0.187   2.926  14.541  0.1666 -0.0018  0.3204
  658MPD2    H5 9746   0.104   2.984  14.545  1.7436  2.1938  1.4331
  658MPD2    N1 9747   4.666   2.655  14.864 -0.5047  0.2286  0.3394
  658MPD2    H7 9748   4.648   2.561  14.899  2.3523 -0.7155 -0.7075
  659TMC3    C1 9749   4.509   2.700  15.034  0.5750  1.0876  0.1997
  659TMC3    C2 9750   4.523   2.765  15.152  0.2193 -0.1305 -0.3662
  659TMC3    C3 9751   4.411   2.762  15.230  0.2546 -0.1530 -0.7629
  659TMC3    C4 9752   4.389   2.642  14.984 -0.5659 -0.1477  0.1880
  659TMC3    C5 9753   4.288   2.644  15.075  0.3803 -0.2350  0.2144
  659TMC3    C6 9754   4.297   2.698  15.197  0.2443 -0.0497  0.2630
  659TMC3     C 9755   4.610   2.757  14.943 -0.1601 -0.3622  0.5041
  659TMC3     O 9756   4.631   2.876  14.939 -0.5808 -0.4139  0.9231
  659TMC3     H 9757   4.621   2.802  15.179 -0.2878  0.2490  0.9190
  659TMC3    H1 9758   4.400   2.590  14.890 -0.9212 -0.8803  0.5529
  659TMC3    H2 9759   4.209   2.719  15.257  0.6800  1.8368  0.2551
  659TMC3    C7 9760   4.161   2.592  15.041  0.4791  0.3558 -0.1301
  659TMC3    C8 9761   4.420   2.804  15.371  0.2770  0.2712  1.0063
  659TMC3    O1 9762   4.084   2.567  15.130 -0.3578 -1.0226 -0.0985
  659TMC3    O2 9763   4.315   2.829  15.423  0.0145  0.3076  0.4600
  660MPD2     C 9764   2.757   1.391  12.827  0.1126  0.2401 -0.2678
  660MPD2    C1 9765   2.630   1.441  12.827  0.3428 -1.2463  0.3619
  660MPD2    C2 9766   2.561   1.435  12.945  0.0855  0.2933  0.4603
  660MPD2    C3 9767   2.618   1.396  13.061 -0.1651  0.0390  0.6734
  660MPD2    C4 9768   2.744   1.345  13.057 -0.1389 -0.3011  0.1409
  660MPD2    C5 9769   2.813   1.346  12.943 -0.0922 -0.3537  1.0826
  660MPD2     H 9770   2.459   1.470  12.938  0.9332  2.4555 -0.8925
  660MPD2    H1 9771   2.792   1.310  13.147 -3.4620 -0.4963  1.8317
  660MPD2    H2 9772   2.817   1.380  12.737  0.8371 -0.9064  0.3522
  660MPD2    H3 9773   2.912   1.303  12.950  0.8492  1.7529  0.8406
  660MPD2     N 9774   2.553   1.386  13.183  0.1026 -0.1570 -0.8816
  660MPD2    H5 9775   2.609   1.360  13.263 -2.8897  0.1901  1.3019
  660MPD2    N1 9776   2.581   1.480  12.699 -0.1522 -0.2632 -0.0639
  660MPD2    H7 9777   2.645   1.474  12.620 -0.6665  1.6274 -0.6356
  661TMC3    C1 9778   2.435   1.588  12.553  0.0574  0.3490  0.4843
  661TMC3    C2 9779   2.536   1.642  12.478  0.2087 -0.3249  0.1505
  661TMC3    C3 9780   2.497   1.710  12.361  0.2383  0.6893 -0.1747
  661TMC3    C4 9781   2.303   1.600  12.517 -0.4712 -0.1900  0.0621
  661TMC3    C5 9782   2.267   1.664  12.394 -0.4283  0.5673  0.0440
  661TMC3    C6 9783   2.364   1.733  12.323 -0.0044 -0.0506  0.4161
  661TMC3     C 9784   2.454   1.541  12.684 -0.5131  0.1309 -0.9167
  661TMC3     O 9785   2.366   1.573  12.764 -0.2182 -0.1598  0.3982
  661TMC3     H 9786   2.637   1.645  12.516 -0.3326  1.7118  1.3712
  661TMC3    H1 9787   2.226   1.556  12.579 -0.3490  0.1636  0.4694
  661TMC3    H2 9788   2.340   1.782  12.230  0.4741  0.0380  0.3426
  661TMC3    C7 9789   2.131   1.652  12.347 -0.0542 -0.3008 -0.2834
  661TMC3    C8 9790   2.598   1.754  12.272 -0.7613 -0.4931 -0.1562
  661TMC3    O1 9791   2.044   1.640  12.433 -0.5377 -0.3860 -0.0615
  661TMC3    O2 9792   2.708   1.711  12.302 -0.7763 -0.0117  0.5121
  662MPD2     C 9793   2.561   1.203  17.659  1.0975 -0.1381  0.3666
  662MPD2    C1 9794   2.473   1.230   0.078  0.3390 -0.0161 -0.0454
  662MPD2    C2 9795   2.461   1.363   0.104  0.2216  0.2718 -0.0498
  662MPD2    C3 9796   2.531   1.458   0.040 -0.6689  0.1670 -0.4320
  662MPD2    C4 9797   2.617   1.426  17.627 -0.0901  0.1806  0.7020
  662MPD2    C5 9798   2.625   1.298  17.597 -0.4625 -0.7161 -0.0454
  662MPD2     H 9799   2.404   1.391   0.192  0.4211 -0.6160  0.3536
  662MPD2    H1 9800   2.674   1.490  17.561  1.2143  1.1072  2.7274
  662MPD2    H2 9801   2.570   1.101  17.625  0.5669  0.9254 -2.9137
  662MPD2    H3 9802   2.694   1.260  17.522  1.1537 -2.1612  2.1681
  662MPD2     N 9803   2.520   1.596   0.070 -0.2307  0.4204  0.3016
  662MPD2    H5 9804   2.582   1.656   0.016 -0.7998  1.7717  1.1718
  662MPD2    N1 9805   2.422   1.136   0.160 -0.2095  0.7085 -0.5553
  662MPD2    H7 9806   2.366   1.174   0.235 -0.6116 -0.5116 -0.2418
  663TMC3    C1 9807   2.330   0.948   0.224  0.2091  0.5478  0.0667
  663TMC3    C2 9808   2.307   1.015   0.343 -0.1788  0.0196  0.2714
  663TMC3    C3 9809   2.264   0.941   0.448  0.1574 -0.3376  0.4917
  663TMC3    C4 9810   2.290   0.820   0.198 -0.3740 -0.0568 -0.8641
  663TMC3    C5 9811   2.216   0.764   0.296  0.3761  1.0849  0.1718
  663TMC3    C6 9812   2.191   0.832   0.408  0.2955  1.0171  0.4960
  663TMC3     C 9813   2.412   1.009   0.126 -0.6563 -0.5296  0.3166
  663TMC3     O 9814   2.434   0.952   0.016 -0.5326  0.0995 -0.2075
  663TMC3     H 9815   2.373   1.090   0.385  1.8536 -1.6111 -0.0028
  663TMC3    H1 9816   2.292   0.772   0.101 -0.4852 -0.1118 -0.8394
  663TMC3    H2 9817   2.163   0.760   0.484  1.2722 -0.8494 -0.9296
  663TMC3    C7 9818   2.121   0.656   0.273  0.0069  0.3628  0.5970
  663TMC3    C8 9819   2.192   1.021   0.556  0.9592 -0.2463  0.3980
  663TMC3    O1 9820   2.014   0.663   0.331  0.2362 -0.5148 -0.1868
  663TMC3    O2 9821   2.208   1.144   0.550 -0.6267  0.3264 -0.4489
  664MPD2     C 9822   0.660   4.092   0.066  0.7964  0.2538 -0.4726
  664MPD2    C1 9823   0.718   4.205   0.111 -0.2372 -0.2833  0.1623
  664MPD2    C2 9824   0.710   4.239   0.247  0.0635 -0.1633  0.5274
  664MPD2    C3 9825   0.624   4.177   0.335 -0.0056  0.6218  0.2720
  664MPD2    C4 9826   0.555   4.063   0.283 -0.4245  0.4105  0.0287
  664MPD2    C5 9827   0.576   4.027   0.154 -0.5766 -0.2505 -0.3250
  664MPD2     H 9828   0.779   4.319   0.273 -1.0782  0.9968  0.0140
  664MPD2    H1 9829   0.493   3.996   0.340  1.7027  1.3083  3.3565
  664MPD2    H2 9830   0.664   4.071  17.649  0.2396  0.4526 -0.5346
  664MPD2    H3 9831   0.520   3.942   0.116 -0.8992  0.1817 -0.8301
  664MPD2     N 9832   0.618   4.219   0.468 -0.2782  0.4685 -0.2029
  664MPD2    H5 9833   0.666   4.306   0.488  3.1579 -1.0846 -1.7097
  664MPD2    N1 9834   0.811   4.276   0.033  0.8983  0.3551 -0.3424
  664MPD2    H7 9835   0.866   4.344   0.085 -1.3480  2.6598 -0.9664
  665TMC3    C1 9836   0.558   4.214   0.704  0.0151  0.7539  0.5431
  665TMC3    C2 9837   0.481   4.148   0.795 -0.0784  0.2430  0.3315
  665TMC3    C3 9838   0.465   4.213   0.919  0.3508  0.2474  0.5018
  665TMC3    C4 9839   0.631   4.323   0.731 -0.0748 -0.1446  0.0354
  665TMC3    C5 9840   0.616   4.380   0.860 -0.3885 -0.5008 -0.0732
  665TMC3    C6 9841   0.534   4.326   0.956 -0.4835 -0.1384 -0.4740
  665TMC3     C 9842   0.556   4.153   0.569  0.5999  0.0856  0.0436
  665TMC3     O 9843   0.496   4.047   0.561  0.2426  0.1275  0.5103
  665TMC3     H 9844   0.425   4.060   0.769 -0.3591 -0.0520  1.9575
  665TMC3    H1 9845   0.690   4.372   0.654 -0.0174  1.1439  0.8901
  665TMC3    H2 9846   0.523   4.355   1.060 -0.6580 -1.7104 -0.0626
  665TMC3    C7 9847   0.646   4.519   0.879 -0.6973  0.9778  0.6600
  665TMC3    C8 9848   0.389   4.147   1.027  0.4166 -0.0919  0.2287
  665TMC3    O1 9849   0.666   4.591   0.781 -0.2386  0.4667  0.0275
  665TMC3    O2 9850   0.344   4.221   1.112 -0.0244 -0.1035  0.9467
  666TMC3    C1 9851   0.440   3.736  10.521 -0.1602 -0.3992 -0.5758
  666TMC3    C2 9852   0.549   3.653  10.528  0.5231  0.1960  0.0859
  666TMC3    C3 9853   0.671   3.711  10.513 -0.0973 -0.2450 -1.3660
  666TMC3    C4 9854   0.450   3.868  10.508  0.3957 -0.4065 -0.2211
  666TMC3    C5 9855   0.580   3.922  10.488 -0.4134 -0.8931 -0.2397
  666TMC3    C6 9856   0.692   3.842  10.499  0.2037  0.1666 -0.4486
  666TMC3     C 9857   0.318   3.694  10.595  0.2023  0.1012 -0.0245
  666TMC3     O 9858   0.218   3.759  10.570  0.6031 -0.3538 -0.2328
  666TMC3     H 9859   0.552   3.545  10.539  1.3025  0.2099  0.0304
  666TMC3    H1 9860   0.362   3.931  10.502  0.2121 -0.7254 -0.8538
  666TMC3    H2 9861   0.790   3.887  10.510  0.2465 -0.1929  0.6630
  666TMC3    C7 9862   0.594   4.065  10.509  0.1666 -0.1856 -0.0100
  666TMC3    C8 9863   0.781   3.621  10.539  0.2926 -0.2692  1.0041
  666TMC3    O1 9864   0.505   4.126  10.569 -0.1487  0.1441 -0.4333
  666TMC3    O2 9865   0.757   3.525  10.611 -0.3272 -0.1546  0.5466
  667MPD2     C 9866   2.101   4.323  14.440 -0.1869 -0.4702 -1.5735
  667MPD2    C1 9867   2.021   4.363  14.545 -0.5346  0.1106 -0.2415
  667MPD2    C2 9868   1.883   4.361  14.532 -0.4772  0.1282 -0.0234
  667MPD2    C3 9869   1.824   4.320  14.416 -0.2158  0.2545 -0.0151
  667MPD2    C4 9870   1.902   4.276  14.315  0.2454  0.4762  0.4602
  667MPD2    C5 9871   2.038   4.294  14.323 -0.2170 -0.5374 -0.1813
  667MPD2     H 9872   1.822   4.395  14.615 -0.2846 -0.8299  0.4990
  667MPD2    H1 9873   1.866   4.241  14.220  1.3885 -1.8156  0.8879
  667MPD2    H2 9874   2.210   4.325  14.438 -0.2244  2.8717  1.2557
  667MPD2    H3 9875   2.097   4.269  14.236  0.0507  0.3281 -0.2438
  667MPD2     N 9876   1.679   4.313  14.392  0.3822 -0.5496  0.7592
  667MPD2    H5 9877   1.647   4.265  14.308  1.1564  1.1902 -0.5035
  667MPD2    N1 9878   2.067   4.411  14.671  0.2329  0.1686 -0.4037
  667MPD2    H7 9879   2.002   4.407  14.750 -0.0412 -0.3009 -0.6545
  668TMC3    C1 9880   2.218   4.484  14.836  0.5129 -0.1790  0.1512
  668TMC3    C2 9881   2.303   4.589  14.856  0.5700  0.5295 -0.1358
  668TMC3    C3 9882   2.325   4.634  14.986 -0.3527  0.1482  0.2809
  668TMC3    C4 9883   2.156   4.423  14.933  0.0596  0.0350  0.0623
  668TMC3    C5 9884   2.170   4.479  15.056  0.1818 -0.6945 -0.0904
  668TMC3    C6 9885   2.252   4.581  15.088 -0.6614 -0.7908  0.3981
  668TMC3     C 9886   2.192   4.460  14.698 -0.4911 -0.0234 -0.5042
  668TMC3     O 9887   2.278   4.485  14.615  0.3794  0.3695  0.0704
  668TMC3     H 9888   2.370   4.615  14.775 -1.0469  1.1433 -1.2606
  668TMC3    H1 9889   2.089   4.342  14.906 -1.4279  1.5942 -0.9225
  668TMC3    H2 9890   2.266   4.611  15.191 -2.1856  0.4212  0.2646
  668TMC3    C7 9891   2.086   4.435  15.166  0.7011 -0.3422 -0.0745
  668TMC3    C8 9892   2.354   0.056  15.004 -0.0251  0.6072  0.1989
  668TMC3    O1 9893   2.095   4.496  15.274 -0.1595 -0.0158  0.6991
  668TMC3    O2 9894   2.306   0.107  15.107  0.4601 -0.3485 -0.0538
  669TMC3    C1 9895   4.672   4.594  14.305  0.1398 -0.2053 -0.1261
  669TMC3    C2 9896   4.544   4.633  14.281  0.3013 -0.2297  0.7359
  669TMC3    C3 9897   4.521   4.706  14.167  0.4555 -1.0134  0.0312
  669TMC3    C4 9898   0.054   4.626  14.226 -0.5486 -0.1414 -0.1705
  669TMC3    C5 9899   0.026   4.699  14.115 -0.0560 -0.1351 -0.5034
  669TMC3    C6 9900   4.621   0.022  14.086  0.2656 -0.5292 -0.5667
  669TMC3     C 9901   4.690   4.516  14.427 -0.2102  0.2247 -0.3461
  669TMC3     O 9902   4.583   4.480  14.477  0.4854 -0.7268  0.4357
  669TMC3     H 9903   4.461   4.589  14.335  0.5100 -1.8149 -0.2389
  669TMC3    H1 9904   0.145   4.567  14.233  0.5627  1.3910 -1.6987
  669TMC3    H2 9905   4.599   0.078  13.997  2.2564 -1.4151 -1.6252
  669TMC3    C7 9906   0.142   0.028  14.033 -0.2436 -0.3013 -0.0064
  669TMC3    C8 9907   4.390   4.703  14.110  0.3910  0.6250  0.6978
  669TMC3    O1 9908   0.104   0.107  13.943  0.3937  0.0402 -0.0690
  669TMC3    O2 9909   4.382   0.018  13.991  0.0759 -0.1955  0.2684
  670MPD2     C 9910   2.918   2.027  13.776  0.1732 -0.0187  0.5498
  670MPD2    C1 9911   3.024   2.115  13.813 -0.0276 -0.1491 -0.1726
  670MPD2    C2 9912   3.031   2.151  13.944 -0.2662  0.2416 -0.9819
  670MPD2    C3 9913   2.956   2.089  14.040  0.7502 -0.2885 -0.4014
  670MPD2    C4 9914   2.864   1.998  13.996 -0.1968  0.0194  0.4725
  670MPD2    C5 9915   2.848   1.964  13.869 -0.0071  0.2156  0.0479
  670MPD2     H 9916   3.112   2.216  13.975  1.2519 -2.6608  1.2193
  670MPD2    H1 9917   2.803   1.948  14.071  1.1509 -1.3006  0.6810
  670MPD2    H2 9918   2.898   2.000  13.674 -0.1668 -1.6796  1.0565
  670MPD2    H3 9919   2.770   1.894  13.838  0.5358  0.3717 -1.6775
  670MPD2     N 9920   2.969   2.110  14.179  0.0149 -0.1878  0.4927
  670MPD2    H5 9921   2.893   2.072  14.234 -1.7329  0.0607 -1.7519
  670MPD2    N1 9922   3.105   2.180  13.721 -0.1634  0.2827 -0.3376
  670MPD2    H7 9923   3.163   2.253  13.762 -1.8643  1.1893  0.5024
  671TMC3    C1 9924   3.054   2.171  14.386 -0.3707 -0.1864  0.9086
  671TMC3    C2 9925   3.165   2.138  14.462 -0.1973 -0.2399  0.8686
  671TMC3    C3 9926   3.161   2.063  14.580  0.1307 -0.7513 -0.8999
  671TMC3    C4 9927   2.938   2.139  14.433 -0.1470 -0.5058 -0.0026
  671TMC3    C5 9928   2.921   2.064  14.552  0.1026 -0.7277 -0.3344
  671TMC3    C6 9929   3.036   2.030  14.628  0.2084  1.0101 -0.4656
  671TMC3     C 9930   3.076   2.165  14.242 -0.4343  0.1440  0.6649
  671TMC3     O 9931   3.185   2.203  14.202 -0.8697  0.7597 -0.0456
  671TMC3     H 9932   3.257   2.150  14.405  1.2414  0.5826  3.3912
  671TMC3    H1 9933   2.850   2.181  14.387  0.2534  1.1129  0.7313
  671TMC3    H2 9934   3.028   1.974  14.720 -0.8212 -1.2471 -1.9263
  671TMC3    C7 9935   2.817   1.962  14.555 -0.9435 -0.2890  0.0460
  671TMC3    C8 9936   3.258   1.952  14.582 -0.0169  0.2066 -0.3171
  671TMC3    O1 9937   2.773   1.940  14.442 -0.2917  0.4344  0.3284
  671TMC3    O2 9938   3.325   1.938  14.486  0.8152  0.6227  0.2610
  672MPD2     C 9939   3.362   2.717   1.156 -0.7809  0.1788  0.1436
  672MPD2    C1 9940   3.477   2.650   1.116  0.7001  0.0074 -0.5952
  672MPD2    C2 9941   3.602   2.708   1.133 -0.1384 -0.0498 -0.3411
  672MPD2    C3 9942   3.617   2.839   1.187 -0.6065  0.7351  0.2873
  672MPD2    C4 9943   3.501   2.904   1.213  0.4763 -0.7678  0.2198
  672MPD2    C5 9944   3.380   2.839   1.204  0.0583 -0.3542 -0.7600
  672MPD2     H 9945   3.690   2.656   1.096  2.1344  1.6282  2.6354
  672MPD2    H1 9946   3.505   3.007   1.246 -2.3098 -0.5990  0.0044
  672MPD2    H2 9947   3.260   2.680   1.154 -1.2440  1.4783 -0.1874
  672MPD2    H3 9948   3.291   2.893   1.236 -0.0962 -0.8029 -0.4245
  672MPD2     N 9949   3.737   2.911   1.196 -0.1410  0.8343  0.9590
  672MPD2    H5 9950   3.726   3.009   1.218 -1.9915  0.8176  0.0141
  672MPD2    N1 9951   3.467   2.527   1.036 -0.2269  0.5520  0.5071
  672MPD2    H7 9952   3.552   2.481   1.006  0.3630  0.3281  2.5159
  673TMC3    C1 9953   3.388   2.371   0.883 -0.1573 -0.3083 -0.1516
  673TMC3    C2 9954   3.494   2.286   0.906  0.1501  0.0834 -0.2072
  673TMC3    C3 9955   3.524   2.201   0.803  0.0565 -0.0564  0.3300
  673TMC3    C4 9956   3.315   2.370   0.762 -0.1828 -0.1298  0.6978
  673TMC3    C5 9957   3.352   2.285   0.660  0.4569  0.1940 -0.2873
  673TMC3    C6 9958   3.455   2.199   0.684 -0.2231  0.7557 -0.3603
  673TMC3     C 9959   3.356   2.481   0.976 -0.6407 -0.8994 -0.0416
  673TMC3     O 9960   3.244   2.533   0.963 -0.4909 -0.1167 -0.1860
  673TMC3     H 9961   3.510   2.251   1.007 -0.1339 -0.5899 -0.4007
  673TMC3    H1 9962   3.235   2.441   0.744 -0.2276 -0.6767 -1.2823
  673TMC3    H2 9963   3.508   2.135   0.615 -0.8049 -0.7319  0.5903
  673TMC3    C7 9964   3.330   2.324   0.526 -0.3449  1.0941 -0.5880
  673TMC3    C8 9965   3.590   2.081   0.835  0.0074 -0.5617  0.6007
  673TMC3    O1 9966   3.347   2.242   0.440 -0.1854  0.0418 -0.1851
  673TMC3    O2 9967   3.570   1.978   0.775 -0.4063  0.5548  0.1052
  674MPD2     C 9968   2.919   1.411   0.010  0.0073 -0.2270 -0.7235
  674MPD2    C1 9969   2.871   1.485   0.123  1.0261 -0.1460  0.4152
  674MPD2    C2 9970   2.876   1.624   0.118  0.5708  0.1220 -0.3650
  674MPD2    C3 9971   2.933   1.693   0.008  0.1648 -0.3967 -0.1871
  674MPD2    C4 9972   2.968   1.619  17.587 -0.0036  0.7388 -0.2370
  674MPD2    C5 9973   2.957   1.480  17.589  0.5177 -0.8637  0.5083
  674MPD2     H 9974   2.845   1.693   0.196  1.2520  0.5307 -0.4484
  674MPD2    H1 9975   3.012   1.665  17.500  1.4377  1.3849  0.8258
  674MPD2    H2 9976   2.911   1.304  17.685 -1.5448 -0.2429  0.3058
  674MPD2    H3 9977   2.986   1.427  17.498 -0.3175 -2.3932  1.1366
  674MPD2     N 9978   2.920   1.833   0.000  0.5847  0.1592 -0.4890
  674MPD2    H5 9979   2.861   1.881   0.067 -0.1990  0.1960 -1.2164
  674MPD2    N1 9980   2.811   1.414   0.232  0.0087 -0.6080  0.3511
  674MPD2    H7 9981   2.790   1.315   0.223 -1.8882 -0.0899 -0.9603
  675TMC3    C1 9982   2.674   1.395   0.418  0.5993  0.7848  0.2158
  675TMC3    C2 9983   2.702   1.263   0.439 -0.0908 -0.1635  0.6762
  675TMC3    C3 9984   2.622   1.187   0.517 -0.3478 -0.5641 -0.0886
  675TMC3    C4 9985   2.565   1.453   0.476  0.5716 -0.0996  0.3450
  675TMC3    C5 9986   2.487   1.376   0.560 -0.7947  0.3267 -0.4388
  675TMC3    C6 9987   2.507   1.239   0.569 -0.2543 -0.5886  0.0701
  675TMC3     C 9988   2.761   1.479   0.342 -0.0741 -0.3342 -0.0848
  675TMC3     O 9989   2.765   1.594   0.376  0.2385 -0.8355 -0.4209
  675TMC3     H 9990   2.800   1.228   0.410 -0.4667  0.8474 -1.7692
  675TMC3    H1 9991   2.543   1.559   0.471 -0.7677 -0.5337 -2.6715
  675TMC3    H2 9992   2.444   1.179   0.634 -1.5958  0.5531 -0.2031
  675TMC3    C7 9993   2.368   1.430   0.619  0.5290 -0.0813 -0.2722
  675TMC3    C8 9994   2.615   1.043   0.515 -0.1311  0.8851  0.0401
  675TMC3    O1 9995   2.283   1.473   0.542 -0.1113 -0.4130 -0.3653
  675TMC3    O2 9996   2.550   0.987   0.600  0.0548 -0.0852  0.3364
  676MPD2     C 9997   1.238   0.560  10.915 -0.0408  0.0767  0.1967
  676MPD2    C1 9998   1.189   0.477  11.014  0.5056 -0.1200  0.3205
  676MPD2    C2 9999   1.118   0.366  10.980  0.3845 -0.2152 -0.0170
  676MPD2    C310000   1.107   0.325  10.847  0.1078  0.0906  0.1544
  676MPD2    C410001   1.145   0.419  10.749  0.2711  0.2827  0.1617
  676MPD2    C510002   1.204   0.536  10.782 -1.1581  0.5155 -0.8323
  676MPD2     H10003   1.097   0.294  11.058 -0.9763 -0.6568 -0.7847
  676MPD2    H110004   1.136   0.394  10.644 -0.3925 -0.0929  0.3080
  676MPD2    H210005   1.297   0.649  10.931 -0.7434  0.9280 -1.9412
  676MPD2    H310006   1.219   0.609  10.703  1.3835 -0.1692 -0.9725
  676MPD2     N10007   1.058   0.198  10.804  0.5408 -0.4606  0.6914
  676MPD2    H510008   1.056   0.188  10.703  3.5380  1.7862  0.4071
  676MPD2    N110009   1.209   0.502  11.151 -0.0868  0.0079 -0.1101
  676MPD2    H710010   1.145   0.465  11.221 -1.0787  0.0731 -0.9825
  677TMC3    C110011   1.280   0.602  11.355 -0.8202 -0.6775  0.2168
  677TMC3    C210012   1.233   0.496  11.426  0.4397  0.0321  0.5622
  677TMC3    C310013   1.216   0.517  11.557 -0.0736  0.4205  0.3360
  677TMC3    C410014   1.312   0.726  11.404  0.4011  0.3317  0.1165
  677TMC3    C510015   1.285   0.744  11.536 -0.2992 -0.0933  0.3923
  677TMC3    C610016   1.241   0.640  11.612  1.3743 -0.4827 -0.5837
  677TMC3     C10017   1.293   0.596  11.204  0.4421  0.3440  0.4185
  677TMC3     O10018   1.364   0.673  11.141  0.7842  0.3066 -0.0013
  677TMC3     H10019   1.218   0.402  11.374 -0.0124  0.1607  0.4539
  677TMC3    H110020   1.349   0.807  11.341  0.2344  0.2766 -0.0531
  677TMC3    H210021   1.226   0.658  11.718  0.7666 -0.5068 -0.6697
  677TMC3    C710022   1.289   0.870  11.601  0.4543  0.2512  0.4720
  677TMC3    C810023   1.201   0.407  11.648  0.5087  0.0887  0.0672
  677TMC3    O110024   1.196   0.876  11.679  0.2275 -0.1066  0.2743
  677TMC3    O210025   1.214   0.295  11.609  0.2154  0.2857  0.1186
  678MPD2     C10026   1.620   4.657   2.215 -0.3634 -0.0736 -0.6697
  678MPD2    C110027   1.591   4.676   2.084 -0.1223  0.2584  1.2107
  678MPD2    C210028   1.485   0.036   2.053  0.1206  0.1650 -0.7764
  678MPD2    C310029   1.414   0.104   2.146  0.4512 -0.3598  0.9691
  678MPD2    C410030   1.441   0.081   2.277  0.1524 -0.6057 -0.7233
  678MPD2    C510031   1.539   4.714   2.309 -0.6045  0.0284 -0.5201
  678MPD2     H10032   1.456   0.050   1.949  1.3292  1.3839 -0.9601
  678MPD2    H110033   1.390   0.139   2.353 -0.4351 -0.2840 -1.3648
  678MPD2    H210034   1.715   4.613   2.244  0.6293  1.2450 -1.9414
  678MPD2    H310035   1.548   4.687   2.413 -0.0041  1.5257 -0.1708
  678MPD2     N10036   1.314   0.195   2.102 -0.4587  0.0575 -0.1056
  678MPD2    H510037   1.287   0.195   2.004 -0.1707  0.6807 -0.1871
  678MPD2    N110038   1.678   4.632   1.985  0.1433 -0.1303 -0.6448
  678MPD2    H710039   1.664   4.662   1.889  0.6349  0.1759 -0.6212
  679TMC3    C110040   2.043   4.458   1.764  0.0065 -0.3741 -0.9411
  679TMC3    C210041   1.967   4.466   1.881 -0.7507 -0.5668  0.5304
  679TMC3    C310042   1.845   4.520   1.877  0.2043 -0.4243 -0.6731
  679TMC3    C410043   2.003   4.519   1.643  0.3965  0.0142  0.4560
  679TMC3    C510044   1.885   4.583   1.641  0.0028  0.3323  0.3489
  679TMC3    C610045   1.803   4.586   1.756  0.0936  1.1449 -0.6885
  679TMC3     C10046   2.180   4.420   1.788 -0.3714  0.0920  0.0593
  679TMC3     O10047   2.257   4.455   1.697 -0.2069  0.3977  0.2819
  679TMC3     H10048   1.994   4.418   1.974  1.3658  0.4967  0.4741
  679TMC3    H110049   2.070   4.508   1.558  0.6382  0.5901  0.5680
  679TMC3    H210050   1.715   4.649   1.757 -0.1657  0.7922 -0.9668
  679TMC3    C710051   1.854   4.673   1.523 -0.0409 -0.1188  0.4536
  679TMC3    C810052   1.770   4.538   1.998 -0.4814  0.1009  0.7745
  679TMC3    O110053   1.778   0.040   1.552 -0.4343  0.1204 -0.6321
  679TMC3    O210054   1.809   4.481   2.100  0.1809  0.3537 -0.5266
  680MPD2     C10055   3.939   3.829  14.031 -0.8187  0.2911  0.0130
  680MPD2    C110056   3.810   3.847  13.974  0.5470  0.3538 -0.1817
  680MPD2    C210057   3.745   3.965  14.007 -1.0241 -0.0780  0.3617
  680MPD2    C310058   3.787   4.056  14.100 -0.1959  0.3540  0.4183
  680MPD2    C410059   3.913   4.035  14.157  0.4262  0.3280  0.0441
  680MPD2    C510060   3.988   3.928  14.119 -0.3360 -0.2645 -0.0955
  680MPD2     H10061   3.655   3.985  13.949 -0.7533 -1.0155 -0.3808
  680MPD2    H110062   3.961   4.094  14.235  1.8090  0.3613 -0.8410
  680MPD2    H210063   4.006   3.745  14.016 -2.8561 -1.3519  0.2253
  680MPD2    H310064   4.084   3.918  14.168  0.4077  2.8224 -0.9528
  680MPD2     N10065   3.715   4.162  14.150  0.7401 -0.7102 -0.5615
  680MPD2    H510066   3.764   4.210  14.225 -1.5154 -2.2693  1.9347
  680MPD2    N110067   3.762   3.763  13.874 -0.0509  0.4256  0.0012
  680MPD2    H710068   3.670   3.792  13.844 -1.0708 -1.9605  0.7737
  681TMC3    C110069   3.752   3.580  13.722  0.7406  0.0827 -0.2180
  681TMC3    C210070   3.622   3.607  13.687  0.2696  0.1344 -0.3579
  681TMC3    C310071   3.559   3.531  13.596  0.0111 -0.0036 -0.3493
  681TMC3    C410072   3.806   3.464  13.675 -0.5827 -0.2508  0.1395
  681TMC3    C510073   3.739   3.380  13.587  0.9698 -0.4917  0.2662
  681TMC3    C610074   3.617   3.421  13.536  0.3218 -0.2391 -0.4690
  681TMC3     C10075   3.837   3.659  13.812  0.7006  0.8892  0.5655
  681TMC3     O10076   3.950   3.613  13.832  0.5238  0.1681 -0.8025
  681TMC3     H10077   3.565   3.680  13.744 -0.1385 -1.2939  1.0626
  681TMC3    H110078   3.903   3.438  13.716  0.1752  1.3423 -0.6424
  681TMC3    H210079   3.571   3.369  13.453  0.5778 -0.4319 -0.4876
  681TMC3    C710080   3.819   3.297  13.509  0.3452  0.0661  0.2851
  681TMC3    C810081   3.436   3.581  13.532  0.2527 -0.7040 -0.2833
  681TMC3    O110082   3.867   3.196  13.557  0.0521  0.4790  0.6138
  681TMC3    O210083   3.380   3.494  13.469 -0.1799 -0.2813 -0.0229
  682MPD2     C10084   0.357   0.581  10.758 -0.3594 -0.5746 -0.2935
  682MPD2    C110085   0.333   0.450  10.800 -0.3401  0.7313 -0.5477
  682MPD2    C210086   0.279   0.431  10.931  0.1797 -0.0843 -0.6129
  682MPD2    C310087   0.241   0.536  11.012  0.4617  0.4994 -0.1464
  682MPD2    C410088   0.290   0.657  10.971 -0.0036 -0.1814  0.0776
  682MPD2    C510089   0.351   0.683  10.849 -1.1337 -0.3480 -0.2489
  682MPD2     H10090   0.261   0.331  10.968 -1.3670  0.3410 -0.2159
  682MPD2    H110091   0.279   0.740  11.040 -0.2090 -0.4741  0.3988
  682MPD2    H210092   0.392   0.601  10.657  1.3557  0.7790  0.5731
  682MPD2    H310093   0.389   0.783  10.829  4.2716 -1.9764  1.9462
  682MPD2     N10094   0.156   0.513  11.122 -0.0798  0.8823 -0.1057
  682MPD2    H510095   0.115   0.421  11.119 -2.5339  1.9858 -0.1493
  682MPD2    N110096   0.350   0.354  10.694 -0.7020  0.4513  0.2078
  682MPD2    H710097   0.379   0.388  10.603 -0.4589  1.6056  0.7133
  683TMC3    C110098   4.616   0.596  11.498  0.4536  0.1173  0.7831
  683TMC3    C210099   4.517   0.518  11.446  0.1371 -0.0712  0.6635
  683TMC3    C310100   4.530   0.458  11.327 -0.1671 -1.1066  0.0719
  683TMC3    C410101   0.016   0.611  11.437  0.4874  0.1622  0.0593
  683TMC3    C510102   0.031   0.546  11.314 -0.4028  0.2983 -0.5456
  683TMC3    C610103   4.648   0.474  11.258  0.2179 -0.0761  0.7486
  683TMC3     C10104   4.623   0.606  11.643 -0.3156  0.9436 -0.1492
  683TMC3     O10105   0.013   0.609  11.689 -0.2783  0.1397  0.4738
  683TMC3     H10106   4.434   0.486  11.509  1.4075 -0.9791  1.8662
  683TMC3    H110107   0.100   0.661  11.484  0.6317  1.4425 -1.5335
  683TMC3    H210108   4.643   0.434  11.157  1.1042  1.6367  0.0320
  683TMC3    C710109   0.119   0.603  11.217  0.4156  0.1091  0.0822
  683TMC3    C810110   4.456   0.336  11.316 -0.4845 -0.1303 -0.2196
  683TMC3    O110111   0.131   0.724  11.227 -0.9227 -0.6190  0.1397
  683TMC3    O210112   4.344   0.344  11.365  0.0334  0.4609 -0.0382
  684MPD2     C10113   3.121   4.508  16.620  0.1711 -0.2906 -0.2891
  684MPD2    C110114   3.000   4.516  16.545 -0.1341 -0.2568  0.0603
  684MPD2    C210115   2.921   4.626  16.570  0.0656 -0.2469 -0.1319
  684MPD2    C310116   2.964   4.721  16.666 -0.1752 -0.2372 -0.3388
  684MPD2    C410117   3.081   4.717  16.727 -0.6511  0.4178  0.4864
  684MPD2    C510118   3.165   4.609  16.704  0.0184 -0.1513 -0.4834
  684MPD2     H10119   2.830   4.635  16.513  0.2541  1.1782 -0.2000
  684MPD2    H110120   3.119   0.070  16.796 -0.1494  0.1755  0.4719
  684MPD2    H210121   3.189   4.423  16.619  0.5096 -0.0118 -0.8800
  684MPD2    H310122   3.265   4.600  16.746  0.1124  0.2785 -0.6227
  684MPD2     N10123   2.901   0.118  16.695 -0.0706 -0.0106 -0.3289
  684MPD2    H510124   2.925   0.171  16.778  1.6617 -0.3615 -0.6033
  684MPD2    N110125   2.957   4.416  16.456  0.0740  0.1940  0.7741
  684MPD2    H710126   2.863   4.429  16.418 -0.2761  0.6410  1.7836
  685TMC3    C110127   2.991   4.268  16.283  0.3827  0.2860 -0.1465
  685TMC3    C210128   2.907   4.360  16.231  0.0619  0.1009  0.0540
  685TMC3    C310129   2.937   4.424  16.110  0.5917 -0.0008 -0.0013
  685TMC3    C410130   3.103   4.220  16.212  0.2509  0.2143 -0.2791
  685TMC3    C510131   3.145   4.301  16.105 -0.2685 -0.9930  0.3722
  685TMC3    C610132   3.060   4.396  16.051  0.0834  0.7875 -0.3398
  685TMC3     C10133   3.023   4.300  16.422  0.1572  0.0029 -0.0705
  685TMC3     O10134   3.125   4.256  16.470 -0.2880 -0.0753 -0.1996
  685TMC3     H10135   2.807   4.382  16.269 -1.1410 -0.3360 -2.8806
  685TMC3    H110136   3.163   4.150  16.268 -0.7003 -0.2499  0.1558
  685TMC3    H210137   3.092   4.429  15.953 -0.5635 -2.0343 -1.5164
  685TMC3    C710138   3.283   4.338  16.124  0.0658  0.0110  0.2810
  685TMC3    C810139   2.827   4.448  16.014 -0.0192 -0.1198 -0.0468
  685TMC3    O110140   3.348   4.272  16.205 -0.0569  0.1512  0.3348
  685TMC3    O210141   2.834   4.408  15.896 -0.1197  0.0021  0.0512
  686MPD2     C10142   4.139   4.411  15.540 -0.2067  0.2243  0.5243
  686MPD2    C110143   4.096   4.318  15.627 -0.0344  0.9896 -0.6581
  686MPD2    C210144   4.073   4.193  15.573 -0.2601  0.3625 -0.0785
  686MPD2    C310145   4.086   4.167  15.437 -0.6556  0.2149 -0.7933
  686MPD2    C410146   4.102   4.276  15.353 -0.5084  0.0768  0.1757
  686MPD2    C510147   4.138   4.391  15.408 -0.0432  0.2533 -0.1395
  686MPD2     H10148   4.041   4.121  15.648 -0.8909 -0.2505 -0.9394
  686MPD2    H110149   4.119   4.252  15.249  1.1620  0.3900  0.3785
  686MPD2    H210150   4.162   4.508  15.582  0.6578  0.7628 -1.1986
  686MPD2    H310151   4.171   4.473  15.344 -0.1768  1.2077  1.0071
  686MPD2     N10152   4.074   4.050  15.369 -0.5025  0.3301 -0.1086
  686MPD2    H510153   4.077   4.056  15.267 -3.5908  2.2009 -0.0890
  686MPD2    N110154   4.097   4.351  15.769 -0.2751 -0.4745  0.0682
  686MPD2    H710155   4.152   4.434  15.787  0.1194 -0.7227  0.0261
  687TMC3    C110156   4.056   3.877  15.539 -0.3235 -0.2000  0.0244
  687TMC3    C210157   3.937   3.820  15.577 -0.4509 -0.4069  0.2912
  687TMC3    C310158   3.920   3.786  15.712 -0.4745  0.7088 -0.1001
  687TMC3    C410159   4.163   3.885  15.624 -0.2901 -0.0583 -0.1942
  687TMC3    C510160   4.142   3.859  15.757  0.1685 -0.2359  0.4046
  687TMC3    C610161   4.020   3.807  15.800  0.0457 -0.4595 -0.4623
  687TMC3     C10162   4.065   3.916  15.400 -0.3349 -0.4354 -0.2285
  687TMC3     O10163   4.057   3.824  15.315  0.3816 -0.4085 -0.3933
  687TMC3     H10164   3.853   3.810  15.510  0.9271 -0.6719 -1.3747
  687TMC3    H110165   4.257   3.923  15.585 -0.6186 -0.0593 -0.9768
  687TMC3    H210166   4.000   3.791  15.905 -0.5699  0.3281 -0.4622
  687TMC3    C710167   4.224   3.925  15.862  0.0191 -0.2791  0.0114
  687TMC3    C810168   3.798   3.845  15.759  0.2378  0.1330  0.1398
  687TMC3    O110169   4.193   3.901  15.979 -0.1122 -0.4482 -0.5166
  687TMC3    O210170   3.761   3.828  15.875 -0.0429 -0.5153  0.1270
  688MPD2     C10171   3.476   3.497  17.151 -0.5049 -0.4130 -0.1980
  688MPD2    C110172   3.491   3.383  17.224  0.3366  0.4568 -0.2349
  688MPD2    C210173   3.599   3.303  17.199  0.3952  0.1785 -0.2456
  688MPD2    C310174   3.697   3.346  17.111 -0.3128 -0.0038  0.4269
  688MPD2    C410175   3.683   3.464  17.041  0.1105 -0.0832  0.2063
  688MPD2    C510176   3.569   3.545  17.061  0.2429  0.5655  0.3204
  688MPD2     H10177   3.610   3.204  17.241 -2.5367 -0.6762 -1.4476
  688MPD2    H110178   3.758   3.496  16.969  1.0746 -0.1862  1.1648
  688MPD2    H210179   3.389   3.560  17.150 -0.2155 -0.0088 -0.0367
  688MPD2    H310180   3.547   3.631  16.998 -2.6136  0.4272  1.0937
  688MPD2     N10181   3.821   3.275  17.088 -0.6776  0.1657 -0.4752
  688MPD2    H510182   3.883   3.324  17.025 -0.1434 -1.5939 -1.3215
  688MPD2    N110183   3.387   3.334  17.309  0.1289 -0.3054 -0.4160
  688MPD2    H710184   3.399   3.246  17.358  1.4672  0.4903  0.7119
  689TMC3    C110185   3.206   3.347  17.448 -0.5699 -0.1153  0.1800
  689TMC3    C210186   3.178   3.433  17.548 -0.0491 -0.1101 -1.1029
  689TMC3    C310187   3.207   3.391  17.680  0.2833 -0.6033 -0.0216
  689TMC3    C410188   3.229   3.215  17.461  0.9636  0.3645 -0.0325
  689TMC3    C510189   3.242   3.176  17.593  0.6873  0.2591 -0.3089
  689TMC3    C610190   3.247   3.262   0.011 -0.0567 -0.0243 -0.3369
  689TMC3     C10191   3.278   3.410  17.343 -0.6333 -0.1517  0.0072
  689TMC3     O10192   3.253   3.527  17.321  0.4473 -0.5730  0.2358
  689TMC3     H10193   3.130   3.527  17.526 -0.0761  0.2524  0.5166
  689TMC3    H110194   3.247   3.145  17.380 -0.3247  1.0345 -0.8849
  689TMC3    H210195   3.261   3.216   0.108 -0.6375 -0.1190 -0.2942
  689TMC3    C710196   3.247   3.034  17.631  0.3567 -0.6971  0.8760
  689TMC3    C810197   3.192   3.481   0.102 -0.4407  0.1478 -0.9715
  689TMC3    O110198   3.287   3.002   0.052  0.0362  0.1169 -0.3908
  689TMC3    O210199   3.191   3.435   0.217  0.2612 -0.0627  0.1278
  690MPD2     C10200   1.254   0.389  15.874 -0.5835  0.1144  0.2222
  690MPD2    C110201   1.179   0.359  15.760 -0.3936 -0.0769 -0.4172
  690MPD2    C210202   1.222   0.404  15.636 -0.2189  0.4779 -0.9029
  690MPD2    C310203   1.343   0.470  15.626 -0.1959  1.3815 -0.0032
  690MPD2    C410204   1.420   0.494  15.745 -0.0792 -0.8115 -0.0600
  690MPD2    C510205   1.369   0.455  15.866  0.5203 -0.4803 -0.4247
  690MPD2     H10206   1.161   0.379  15.550  0.8833 -2.0489 -0.9457
  690MPD2    H110207   1.501   0.566  15.752 -0.5976 -0.3064  0.8081
  690MPD2    H210208   1.223   0.353  15.972 -3.3268 -0.2971 -0.7985
  690MPD2    H310209   1.427   0.477  15.956 -2.0770 -1.3202  1.4414
  690MPD2     N10210   1.384   0.530  15.505  0.6388 -0.4059  0.0931
  690MPD2    H510211   1.311   0.549  15.437  0.4966 -0.1570  0.3129
  690MPD2    N110212   1.066   0.273  15.773 -0.1405  0.6897 -0.2778
  690MPD2    H710213   1.031   0.225  15.691 -0.3203  2.8285 -1.4642
  691TMC3    C110214   0.870   0.184  15.880 -1.4427  0.1509  0.1299
  691TMC3    C210215   0.756   0.227  15.951  0.5996  0.6226  0.2537
  691TMC3    C310216   0.649   0.143  15.945  0.2419 -0.0607  0.2793
  691TMC3    C410217   0.881   0.068  15.814 -0.4646  0.0136  0.2078
  691TMC3    C510218   0.772   4.709  15.818  0.4493  0.4184 -0.6619
  691TMC3    C610219   0.655   0.019  15.884 -0.4182 -0.0625 -0.3791
  691TMC3     C10220   0.972   0.289  15.878 -0.0051  0.3163 -0.2515
  691TMC3     O10221   0.974   0.378  15.961 -1.3251  0.1468  0.7704
  691TMC3     H10222   0.754   0.322  16.003 -0.6838  1.3778 -1.1816
  691TMC3    H110223   0.976   0.027  15.780 -1.0063 -0.0302 -1.2176
  691TMC3    H210224   0.575   4.669  15.900 -1.9402  2.3908  2.9358
  691TMC3    C710225   0.806   4.574  15.788  0.6682  0.2342  0.0357
  691TMC3    C810226   0.531   0.174  16.023  0.1933  0.0716 -0.1959
  691TMC3    O110227   0.918   4.540  15.768  0.4723 -0.2408 -0.3129
  691TMC3    O210228   0.457   0.082  16.056 -0.0415  0.4044 -1.2646
  692TMC3    C110229   2.500   1.316  15.957  0.0182 -0.2438 -0.2151
  692TMC3    C210230   2.618   1.343  16.014  0.2414  0.1893  0.3783
  692TMC3    C310231   2.714   1.248  16.033  0.0871  0.0737 -0.0279
  692TMC3    C410232   2.459   1.185  15.946  0.2380 -0.2207  0.5682
  692TMC3    C510233   2.557   1.088  15.959  0.0805  0.3447 -0.1524
  692TMC3    C610234   2.678   1.116  16.007  0.1885 -0.4038 -0.3262
  692TMC3     C10235   2.390   1.401  16.007  0.1333 -0.1339 -0.2563
  692TMC3     O10236   2.297   1.343  16.071 -0.1738 -0.0821  0.5376
  692TMC3     H10237   2.657   1.445  16.013 -0.8893  0.6361  1.7902
  692TMC3    H110238   2.358   1.159  15.918  0.4467  1.9413 -2.1944
  692TMC3    H210239   2.758   1.045  16.020  0.4507 -0.1499 -0.5481
  692TMC3    C710240   2.503   0.956  15.973 -0.6348  0.3132  0.7093
  692TMC3    C810241   2.797   1.251  16.155 -0.5602  0.4334  1.0576
  692TMC3    O110242   2.405   0.924  15.908  0.0982  0.0799 -0.0207
  692TMC3    O210243   2.884   1.166  16.177 -0.1974  0.6384  0.6019
  693MPD2     C10244   2.407   4.180  10.794  0.5001  0.1636 -0.5083
  693MPD2    C110245   2.390   4.049  10.807  0.2287 -0.5247  0.3727
  693MPD2    C210246   2.490   3.966  10.763  0.4319 -0.2765  0.0509
  693MPD2    C310247   2.613   4.019  10.729 -0.2185 -0.0434 -0.3908
  693MPD2    C410248   2.630   4.156  10.720  0.0836 -0.0333  0.2763
  693MPD2    C510249   2.525   4.236  10.751  0.2595 -0.4001 -0.2442
  693MPD2     H10250   2.486   3.859  10.771  2.2519 -0.3218  0.4802
  693MPD2    H110251   2.729   4.187  10.688  1.4455 -1.9852  2.5247
  693MPD2    H210252   2.332   4.250  10.830 -0.7742 -1.5122  0.0949
  693MPD2    H310253   2.527   4.345  10.752 -0.5723 -0.3745 -0.6219
  693MPD2     N10254   2.726   3.937  10.712  0.5446 -0.3024  0.2734
  693MPD2    H510255   2.809   3.990  10.689  0.9331 -0.4441  1.3775
  693MPD2    N110256   2.272   4.001  10.868  0.0549  0.1136  0.2393
  693MPD2    H710257   2.211   4.067  10.914  1.6170  2.8993 -1.7205
  694TMC3    C110258   2.098   3.845  10.918 -0.0223  0.1588 -0.2681
  694TMC3    C210259   2.022   3.746  10.863  0.1650  0.7448  0.1385
  694TMC3    C310260   1.960   3.657  10.945  0.0521  0.1806  0.9707
  694TMC3    C410261   2.105   3.865  11.053 -0.2114 -0.1122  0.0032
  694TMC3    C510262   2.039   3.767  11.128  0.5742 -0.4230 -0.7028
  694TMC3    C610263   1.978   3.658  11.080 -0.0695 -0.1314 -0.1794
  694TMC3     C10264   2.225   3.877  10.855  0.6639  0.2251  1.1089
  694TMC3     O10265   2.266   3.784  10.783 -0.9113  0.3093  0.6616
  694TMC3     H10266   2.025   3.729  10.756  0.8727 -1.4281  0.5065
  694TMC3    H110267   2.161   3.948  11.096  1.8073 -1.2226 -0.4577
  694TMC3    H210268   1.926   3.587  11.144 -0.8637 -0.4686 -1.1997
  694TMC3    C710269   2.039   3.796  11.266  0.1286 -0.1981 -0.2367
  694TMC3    C810270   1.847   3.575  10.906  0.1627 -0.0284 -0.4519
  694TMC3    O110271   2.073   3.908  11.294  0.5570  0.2566 -0.2930
  694TMC3    O210272   1.775   3.525  10.996  0.1807  0.3699 -0.1635
  695MPD2     C10273   3.072   1.265  13.818 -0.4454 -0.3477 -0.2617
  695MPD2    C110274   3.072   1.317  13.943  0.5776 -0.0706 -1.2837
  695MPD2    C210275   2.953   1.364  14.010 -0.1136 -1.0080 -0.6492
  695MPD2    C310276   2.836   1.332  13.954 -0.0661 -0.2799 -0.2448
  695MPD2    C410277   2.832   1.284  13.826  0.1044  0.9774 -0.2145
  695MPD2    C510278   2.948   1.256  13.764  0.2146  0.3795  0.0242
  695MPD2     H10279   2.971   1.402  14.110  0.0053 -1.3650 -0.5360
  695MPD2    H110280   2.746   1.247  13.771 -0.4739  5.4646 -2.2619
  695MPD2    H210281   3.160   1.224  13.769 -0.1751 -1.5839  1.2689
  695MPD2    H310282   2.934   1.220  13.663  0.0769 -0.4233  0.3270
  695MPD2     N10283   2.725   1.353  14.034  0.0859 -0.3633 -0.1080
  695MPD2    H510284   2.741   1.396  14.125  1.9206  0.7115 -0.9564
  695MPD2    N110285   3.200   1.323  14.011 -0.5185 -0.1755  0.2283
  695MPD2    H710286   3.193   1.352  14.108 -0.1241 -2.1890  0.8594
  696TMC3    C110287   2.512   1.384  14.107  0.4050  0.1364  0.3812
  696TMC3    C210288   2.563   1.377  14.236  0.4970  0.0171  0.3146
  696TMC3    C310289   2.496   1.452  14.329 -1.1141 -0.3178  0.1255
  696TMC3    C410290   2.409   1.467  14.070  0.2545  0.3950  0.2486
  696TMC3    C510291   2.342   1.537  14.174 -0.2509 -0.0176 -0.0704
  696TMC3    C610292   2.378   1.518  14.305 -0.4173 -0.4579  0.4076
  696TMC3     C10293   2.597   1.336  13.998  0.5078 -0.2876  0.2912
  696TMC3     O10294   2.545   1.303  13.892 -0.3765  0.0464  0.1234
  696TMC3     H10295   2.651   1.322  14.265  0.2413 -1.3671 -1.5235
  696TMC3    H110296   2.373   1.486  13.970  1.1802  1.3822  0.1035
  696TMC3    H210297   2.328   1.568  14.387  0.7091 -0.5465  1.1521
  696TMC3    C710298   2.268   1.659  14.133 -0.7829  0.1663  0.3545
  696TMC3    C810299   2.596   1.517  14.410  0.3544 -0.6057  0.0844
  696TMC3    O110300   2.221   1.660  14.019 -0.2846  0.3618 -0.6621
  696TMC3    O210301   2.699   1.560  14.363 -0.3729 -0.1515  0.1554
  697MPD2     C10302   2.014   3.092  16.037 -0.2767 -0.5166 -0.5189
  697MPD2    C110303   2.023   3.033  15.913  0.6374  0.1123 -0.3833
  697MPD2    C210304   2.081   3.105  15.813  0.2495  0.3921  0.5779
  697MPD2    C310305   2.124   3.237  15.823  0.1226 -0.9569 -0.0553
  697MPD2    C410306   2.121   3.292  15.955 -0.3174  0.0867 -0.3501
  697MPD2    C510307   2.065   3.217  16.056  0.1110 -0.5140 -0.3499
  697MPD2     H10308   2.093   3.057  15.717 -1.3804  0.0256  0.5453
  697MPD2    H110309   2.150   3.395  15.972 -0.3099  0.2670 -1.4760
  697MPD2    H210310   1.981   3.030  16.120 -1.2792 -1.1631 -1.4154
  697MPD2    H310311   2.055   3.260  16.155  1.1278 -2.7857  0.7302
  697MPD2     N10312   2.179   3.321  15.718 -0.4594 -0.5276 -0.4321
  697MPD2    H510313   2.213   3.413  15.746  0.1084 -0.5218 -1.1472
  697MPD2    N110314   1.980   2.902  15.881  0.4171  0.0976 -0.4512
  697MPD2    H710315   1.990   2.860  15.789 -1.6477  0.2808 -0.7704
  698TMC3    C110316   2.240   3.381  15.500  0.3047  0.1382  0.4147
  698TMC3    C210317   2.270   3.507  15.561 -0.3925 -1.3211  0.9664
  698TMC3    C310318   2.322   3.600  15.473 -0.3652  0.5878  0.5982
  698TMC3    C410319   2.256   3.346  15.372 -0.0464  0.4731 -0.6452
  698TMC3    C510320   2.303   3.447  15.288 -0.6405  0.3230 -0.1236
  698TMC3    C610321   2.336   3.571  15.335 -0.0117  0.5460  0.6503
  698TMC3     C10322   2.200   3.276  15.595  0.2360  0.1755 -0.4650
  698TMC3     O10323   2.170   3.172  15.540 -0.4292 -0.0630  0.0407
  698TMC3     H10324   2.279   3.526  15.667 -0.8095 -0.1139  0.7885
  698TMC3    H110325   2.223   3.261  15.313 -0.8362 -0.3043  0.9130
  698TMC3    H210326   2.363   3.650  15.267  0.7175 -3.4251 -3.6520
  698TMC3    C710327   2.341   3.409  15.153 -0.2397 -0.4890 -0.4893
  698TMC3    C810328   2.347   3.729  15.529 -0.6003 -0.5785  0.1123
  698TMC3    O110329   2.296   3.304  15.103  0.8505  0.0642  0.0054
  698TMC3    O210330   2.275   3.756  15.625  0.6218 -0.1078 -0.5473
  699TMC3    C110331   2.380   1.384  13.353  0.6355 -0.8893 -0.3053
  699TMC3    C210332   2.407   1.253  13.384 -0.5538 -0.4322  0.4211
  699TMC3    C310333   2.305   1.181  13.424 -0.0998  0.1970 -0.5813
  699TMC3    C410334   2.254   1.432  13.374 -0.5308 -0.0553 -0.1001
  699TMC3    C510335   2.159   1.361  13.435  0.0304 -0.6048  0.2359
  699TMC3    C610336   2.191   1.231  13.471  0.2600  0.3374 -0.3557
  699TMC3     C10337   2.423   1.428  13.219 -0.3154 -0.1952 -0.0864
  699TMC3     O10338   2.339   1.462  13.141  0.1969 -0.1778 -0.4811
  699TMC3     H10339   2.503   1.209  13.359  0.3320  1.4743  0.4025
  699TMC3    H110340   2.223   1.528  13.333 -1.2417  0.0898  0.7657
  699TMC3    H210341   2.125   1.171  13.533  1.3912 -0.0731  0.4563
  699TMC3    C710342   2.026   1.417  13.448 -0.0982 -0.5875  0.0179
  699TMC3    C810343   2.324   1.039  13.428  0.0823  0.1115 -0.3283
  699TMC3    O110344   2.014   1.535  13.427  0.4544  0.2149 -0.5175
  699TMC3    O210345   2.445   1.007  13.434  0.0886 -0.6844  0.8466
  700TMC3    C110346   0.923   3.525  17.374 -0.1330  0.3689  0.2886
  700TMC3    C210347   1.013   3.433  17.325  0.7528  0.1818  0.4313
  700TMC3    C310348   1.078   3.361  17.419  0.2764  0.6098 -0.0318
  700TMC3    C410349   0.906   3.539  17.510  0.5398  0.8944 -0.3905
  700TMC3    C510350   0.984   3.473  17.595  0.0805  0.4947  0.0575
  700TMC3    C610351   1.064   3.368  17.557  0.9926 -0.7448  0.8931
  700TMC3     C10352   0.895   3.642  17.290  0.3528 -0.2445  0.3951
  700TMC3     O10353   0.800   3.714  17.325  0.0238  0.6049  0.5628
  700TMC3     H10354   1.030   3.424  17.219  1.2760 -1.8726  0.6769
  700TMC3    H110355   0.856   3.631  17.540 -1.7791 -1.0557  1.7253
  700TMC3    H210356   1.140   3.333  17.625 -1.7029 -3.5970  2.4107
  700TMC3    C710357   1.049   3.564  17.682 -0.6977  0.2639 -0.2179
  700TMC3    C810358   1.154   3.247  17.370 -0.7109  0.3462 -0.8334
  700TMC3    O110359   1.166   3.580  17.656  0.3704  0.0070 -0.5087
  700TMC3    O210360   1.206   3.265  17.262 -0.3574 -0.0882 -0.3454
  701TMC3    C110361   1.268   2.178  15.830 -0.4552 -0.2708 -0.3959
  701TMC3    C210362   1.333   2.178  15.701 -0.5042  0.1798  0.5109
  701TMC3    C310363   1.458   2.224  15.687  0.1877  0.2634 -0.1165
  701TMC3    C410364   1.322   2.242  15.939 -0.4879  0.1813 -0.8661
  701TMC3    C510365   1.445   2.304  15.912 -0.0434  0.4082 -0.5264
  701TMC3    C610366   1.516   2.286  15.791 -0.8063 -0.2770  0.3154
  701TMC3     C10367   1.152   2.099  15.855  0.4992 -0.1914 -0.1495
  701TMC3     O10368   1.101   2.112  15.969 -0.0431 -0.3404 -0.0333
  701TMC3     H10369   1.283   2.132  15.617 -2.5273  1.5785  0.9399
  701TMC3    H110370   1.256   2.252  16.024  1.5780 -0.5383  0.8089
  701TMC3    H210371   1.623   2.301  15.786 -0.7273 -0.4730  1.5922
  701TMC3    C710372   1.501   2.413  15.985  0.0336 -0.2222 -0.3102
  701TMC3    C810373   1.503   2.269  15.561  1.2393 -0.4231  0.5887
  701TMC3    O110374   1.603   2.457  15.936 -0.1078  0.4097  0.5570
  701TMC3    O210375   1.559   2.379  15.568  0.4009 -0.0025 -0.0945
  702MPD2     C10376   1.538   4.564  10.443  0.3241  0.5890 -0.1144
  702MPD2    C110377   1.446   4.670  10.452  0.4937  0.8155 -0.1555
  702MPD2    C210378   1.472   0.071  10.406  0.4502 -0.9546  0.5185
  702MPD2    C310379   1.580   0.094  10.330 -0.0465  0.3298  1.0125
  702MPD2    C410380   1.678   4.721  10.330  0.2689  0.6215 -0.0414
  702MPD2    C510381   1.660   4.592  10.385  0.2407  0.2087  0.0864
  702MPD2     H10382   1.401   0.151  10.427 -0.3199 -1.4964 -0.0117
  702MPD2    H110383   1.776   0.024  10.290  0.4147  0.1800  0.0421
  702MPD2    H210384   1.520   4.469  10.492 -2.5285  0.6387 -1.0441
  702MPD2    H310385   1.733   4.512  10.389 -1.2490 -1.1252  0.2232
  702MPD2     N10386   1.600   0.217  10.264  0.1198  0.1381  0.1818
  702MPD2    H510387   1.692   0.241  10.227  0.5267  0.5788  1.4953
  702MPD2    N110388   1.318   4.656  10.516  0.7984  0.9132  0.1364
  702MPD2    H710389   1.258   0.016  10.521 -0.9357 -0.3414 -0.3036
  703TMC3    C110390   1.522   0.426  10.172 -0.1638 -0.0847 -0.4576
  703TMC3    C210391   1.415   0.494  10.120  0.6301 -0.0008 -0.7347
  703TMC3    C310392   1.447   0.610  10.066  0.5765 -0.0287 -0.7613
  703TMC3    C410393   1.654   0.466  10.166 -0.3642  0.2002  0.2333
  703TMC3    C510394   1.683   0.583  10.097 -0.0729 -0.2818 -0.3510
  703TMC3    C610395   1.576   0.655  10.051 -0.2183  0.4370  0.0213
  703TMC3     C10396   1.489   0.300  10.234 -0.2254  0.4734 -0.1163
  703TMC3     O10397   1.371   0.281  10.258 -0.1281 -0.0179  0.1195
  703TMC3     H10398   1.314   0.455  10.125  0.4741  0.7796  1.9830
  703TMC3    H110399   1.732   0.426  10.230 -1.4168 -0.6642  0.9720
  703TMC3    H210400   1.593   0.746   9.994  1.7367 -0.0442 -0.1868
  703TMC3    C710401   1.818   0.634  10.076  1.5493  0.4972 -0.1666
  703TMC3    C810402   1.349   0.716  10.079 -0.7895 -0.3683 -0.4489
  703TMC3    O110403   1.826   0.748  10.034 -0.5118  0.1753 -0.1954
  703TMC3    O210404   1.374   0.811  10.006 -0.1604 -0.2832 -0.6094
  704TMC3    C110405   3.136   2.768  12.456  0.8547 -0.5453  0.6038
  704TMC3    C210406   3.262   2.821  12.463 -0.0802  0.1585 -0.0889
  704TMC3    C310407   3.350   2.758  12.541  0.3963  0.1473  0.1810
  704TMC3    C410408   3.095   2.673  12.551  0.0390 -0.0053 -0.0912
  704TMC3    C510409   3.193   2.609  12.627 -0.2175  0.0701 -0.4049
  704TMC3    C610410   3.322   2.648  12.616 -0.0947  0.0405  0.0658
  704TMC3     C10411   3.046   2.823  12.361 -0.1403 -0.1693 -0.9114
  704TMC3     O10412   2.928   2.793  12.370  0.4390  0.2599  1.0024
  704TMC3     H10413   3.304   2.907  12.412  1.6498 -1.1342 -0.8375
  704TMC3    H110414   2.997   2.628  12.538 -0.2199  0.4849  0.2159
  704TMC3    H210415   3.392   2.603  12.685 -0.6223  1.5754  1.5902
  704TMC3    C710416   3.150   2.483  12.687 -0.0232  0.4822 -0.1935
  704TMC3    C810417   3.488   2.800  12.536 -0.2948  0.0053 -0.3034
  704TMC3    O110418   3.030   2.453  12.696  0.0055 -0.0387  0.1377
  704TMC3    O210419   3.545   2.846  12.434 -0.2749 -0.0696  0.1721
  705MPD2     C10420   2.818   0.986  16.751  0.0548 -0.0267 -0.2761
  705MPD2    C110421   2.857   1.097  16.822 -0.3004  0.2160 -0.7129
  705MPD2    C210422   2.769   1.147  16.915 -0.3336 -0.0645  0.0474
  705MPD2    C310423   2.653   1.085  16.943  0.3381 -0.1824  0.2546
  705MPD2    C410424   2.606   0.976  16.871  0.7750  0.6120 -0.2265
  705MPD2    C510425   2.694   0.926  16.778 -0.9052 -0.1702 -0.1172
  705MPD2     H10426   2.810   1.229  16.974  2.3657 -0.6451 -0.9852
  705MPD2    H110427   2.512   0.930  16.900 -0.0168  1.4780 -1.4619
  705MPD2    H210428   2.888   0.948  16.678 -0.0213 -0.9691  0.1425
  705MPD2    H310429   2.662   0.846  16.713  1.9518 -2.1944  0.9721
  705MPD2     N10430   2.560   1.143  17.039  0.2403 -0.5916  0.2751
  705MPD2    H510431   2.472   1.094  17.054 -0.5005  0.9213  0.8438
  705MPD2    N110432   2.981   1.160  16.813 -0.1925  0.2598 -0.3132
  705MPD2    H710433   2.997   1.234  16.880  0.8357 -2.5496  2.5249
  706TMC3    C110434   3.442   1.259  16.740 -0.2887 -0.0968 -0.0468
  706TMC3    C210435   3.430   1.370  16.820  0.4001 -0.7469  0.0238
  706TMC3    C310436   3.301   1.410  16.858  0.2591 -0.6031  0.1278
  706TMC3    C410437   3.331   1.187  16.703 -0.2027 -0.4711  1.1270
  706TMC3    C510438   3.208   1.217  16.761 -0.7280  0.3048  0.6469
  706TMC3    C610439   3.189   1.329  16.844 -0.1169  0.1737 -0.2277
  706TMC3     C10440   3.571   1.234  16.682  0.0914  0.2560  0.3279
  706TMC3     O10441   3.661   1.295  16.740 -0.2139  0.9214 -0.0858
  706TMC3     H10442   3.519   1.426  16.846 -0.5109  0.5300  0.4194
  706TMC3    H110443   3.340   1.106  16.631  2.6494 -1.2557  2.3643
  706TMC3    H210444   3.089   1.366  16.859 -0.2586 -0.2829 -0.0626
  706TMC3    C710445   3.090   1.125  16.737  0.2486 -0.4850 -0.0265
  706TMC3    C810446   3.267   1.546  16.818 -0.2210 -0.6123 -0.3077
  706TMC3    O110447   3.103   1.034  16.655 -1.1652  0.1805  0.0397
  706TMC3    O210448   3.158   1.568  16.769  0.0829  0.0560 -0.0149
  707TMC3    C110449   4.153   0.169   2.098 -0.1220  0.3217  0.4315
  707TMC3    C210450   4.136   0.050   2.032 -0.2046 -0.1839 -0.8056
  707TMC3    C310451   4.009   4.721   2.016  0.5394  0.4006 -0.7018
  707TMC3    C410452   4.053   0.248   2.138 -0.1160 -0.9231 -0.1992
  707TMC3    C510453   3.929   0.196   2.117 -0.2014 -0.1156 -0.1311
  707TMC3    C610454   3.906   0.082   2.050 -0.1876  0.0343 -0.8390
  707TMC3     C10455   4.287   0.221   2.102 -0.9512  0.2518 -0.2238
  707TMC3     O10456   4.379   0.143   2.116 -0.8682 -0.1112  0.3698
  707TMC3     H10457   4.227   4.717   2.013 -1.0303 -2.4101  1.7498
  707TMC3    H110458   4.065   0.344   2.186  0.0119 -0.6321 -0.8132
  707TMC3    H210459   3.806   0.044   2.034 -0.0164 -1.2757  1.1619
  707TMC3    C710460   3.824   0.257   2.193 -1.0753  0.2192 -0.6316
  707TMC3    C810461   3.987   4.613   1.910  0.5452 -0.0844 -0.1211
  707TMC3    O110462   3.846   0.335   2.284  0.3486  0.2251 -0.1599
  707TMC3    O210463   3.877   4.597   1.861  1.1697 -0.0671  0.1155
  708MPD2     C10464   2.262   4.506  13.499  0.7627  0.3984  0.3200
  708MPD2    C110465   2.168   4.603  13.504  0.2422 -0.2203  0.1327
  708MPD2    C210466   2.083   4.602  13.612  0.7365 -0.7565  0.7823
  708MPD2    C310467   2.093   4.512  13.714 -0.0135  0.4764 -0.2766
  708MPD2    C410468   2.187   4.408  13.704  0.6348  0.0787 -0.3756
  708MPD2    C510469   2.269   4.405  13.595  0.2848 -0.3480 -0.8373
  708MPD2     H10470   1.999   4.670  13.614  0.6727 -0.7751 -2.0342
  708MPD2    H110471   2.215   4.346  13.788 -0.6465 -0.9501 -0.7061
  708MPD2    H210472   2.324   4.510  13.411 -0.0240 -1.3992 -0.3289
  708MPD2    H310473   2.346   4.330  13.580 -0.5530 -1.6008  1.1343
  708MPD2     N10474   2.002   4.530  13.816 -0.2736  0.4510 -0.6966
  708MPD2    H510475   1.938   4.609  13.813  0.7219  1.3900  2.0617
  708MPD2    N110476   2.168   4.704  13.401  0.6189  0.7550  0.1642
  708MPD2    H710477   2.222   4.699  13.315 -2.3045  4.1229 -1.8774
  709TMC3    C110478   2.098   0.179  13.288  0.3648 -0.5483 -0.3480
  709TMC3    C210479   2.110   0.103  13.179 -0.4984 -0.1099  0.0111
  709TMC3    C310480   1.999   0.087  13.095 -0.4160 -0.0269  0.0840
  709TMC3    C410481   1.994   0.266  13.299  1.1538 -0.0089 -0.2528
  709TMC3    C510482   1.891   0.257  13.208 -0.1025  0.1414 -0.5513
  709TMC3    C610483   1.883   0.161  13.107  0.3412 -0.5650  0.1521
  709TMC3     C10484   2.098   0.102  13.412 -0.1505  0.0930 -0.4338
  709TMC3     O10485   2.023   0.143  13.502 -0.2339  0.0135 -0.9842
  709TMC3     H10486   2.201   0.048  13.155  0.2457  1.0210  0.2476
  709TMC3    H110487   1.992   0.331  13.386  0.0258  0.5847 -0.7209
  709TMC3    H210488   1.788   0.149  13.056  0.6448 -2.0310 -0.0721
  709TMC3    C710489   1.763   0.260  13.276  0.9569  0.9877 -0.2146
  709TMC3    C810490   2.006   4.684  13.016  0.2897  0.2552  0.0798
  709TMC3    O110491   1.656   0.250  13.210 -0.4795  0.6517 -1.0678
  709TMC3    O210492   2.106   4.618  13.022  0.2832  0.2263  0.3850
  710TMC3    C110493   1.484   0.630   1.128 -0.3611  0.2485 -0.4681
  710TMC3    C210494   1.576   0.708   1.070  0.4543  0.1459  0.6959
  710TMC3    C310495   1.701   0.654   1.052 -0.2988  0.7893  0.7866
  710TMC3    C410496   1.502   0.496   1.161  0.3798  0.2354  0.1763
  710TMC3    C510497   1.638   0.453   1.135  0.8245 -0.3079  0.7828
  710TMC3    C610498   1.730   0.529   1.075 -0.0658  0.6106 -0.1645
  710TMC3     C10499   1.357   0.686   1.175  0.7117  0.5926 -0.3980
  710TMC3     O10500   1.278   0.607   1.224  0.0093 -0.0257 -0.3973
  710TMC3     H10501   1.551   0.812   1.052  0.2082  0.1388  1.0062
  710TMC3    H110502   1.438   0.432   1.221 -0.8886  0.6957 -0.6970
  710TMC3    H210503   1.830   0.495   1.053  0.3823  2.3952 -0.8350
  710TMC3    C710504   1.673   0.317   1.178 -0.4606 -0.3462 -0.1226
  710TMC3    C810505   1.789   0.720   0.953 -0.2722 -0.5284  0.5506
  710TMC3    O110506   1.598   0.261   1.257 -0.4980 -0.5445 -0.2257
  710TMC3    O210507   1.840   0.646   0.867  0.5334 -0.1236 -0.1256
  711TMC3    C110508   2.167   1.678  15.441  0.5319  0.0637 -0.2290
  711TMC3    C210509   2.230   1.794  15.485  0.4809 -0.4393 -0.1141
  711TMC3    C310510   2.309   1.780  15.591 -0.2051 -0.0708  0.5883
  711TMC3    C410511   2.201   1.556  15.488 -0.1034 -0.2521 -0.1491
  711TMC3    C510512   2.292   1.547  15.582  0.7211  0.0244 -0.1783
  711TMC3    C610513   2.344   1.663  15.650  0.1725  0.8693 -0.3286
  711TMC3     C10514   2.090   1.692  15.312 -0.2640  0.2419  0.9206
  711TMC3     O10515   2.068   1.593  15.243  0.8549 -0.2575 -0.4793
  711TMC3     H10516   2.214   1.888  15.435 -0.8839 -0.4276  0.3352
  711TMC3    H110517   2.171   1.468  15.431  0.4477 -0.2711 -0.4079
  711TMC3    H210518   2.403   1.654  15.741 -0.5480  4.0560  0.4260
  711TMC3    C710519   2.359   1.425  15.608  0.4613 -0.2023 -0.5728
  711TMC3    C810520   2.376   1.909  15.628  0.0280 -0.2749  0.2576
  711TMC3    O110521   2.468   1.426  15.663  0.0215 -0.1781  0.2122
  711TMC3    O210522   2.332   2.014  15.576  0.6776  0.1706  0.2649
  712MPD2     C10523   4.238   3.235  13.907 -0.2504 -0.1647  0.7751
  712MPD2    C110524   4.150   3.226  13.798 -0.5918  0.0259 -0.3724
  712MPD2    C210525   4.168   3.315  13.693 -0.6684 -0.2770 -0.3851
  712MPD2    C310526   4.278   3.401  13.698  0.3361 -0.4611  0.1415
  712MPD2    C410527   4.370   3.396  13.797 -0.6013 -0.0777 -0.0945
  712MPD2    C510528   4.344   3.320  13.908 -0.3941 -0.1903 -0.3632
  712MPD2     H10529   4.122   3.309  13.595  0.1438  1.0668 -0.8456
  712MPD2    H110530   4.464   3.449  13.784 -0.2654 -0.2709  1.5702
  712MPD2    H210531   4.224   3.173  13.996 -1.3534 -3.1677 -1.4772
  712MPD2    H310532   4.412   3.340  13.990  2.3049 -0.8007 -2.4372
  712MPD2     N10533   4.325   3.471  13.590  0.3792  0.1713 -0.1541
  712MPD2    H510534   4.420   3.505  13.596  0.9362 -1.4941  0.4876
  712MPD2    N110535   4.033   3.141  13.790 -0.3409  0.3037 -0.2768
  712MPD2    H710536   3.972   3.154  13.710  1.2794 -0.0219 -1.5558
  713TMC3    C110537   4.351   3.571  13.380  0.9692 -1.1614  0.9060
  713TMC3    C210538   4.469   3.613  13.419 -0.5595  0.1439  0.0042
  713TMC3    C310539   4.528   3.714  13.354 -0.1387  0.3678  0.0022
  713TMC3    C410540   4.279   3.621  13.271  0.8670 -0.0315 -0.2315
  713TMC3    C510541   4.333   3.737  13.213 -0.2997  0.1308  0.2924
  713TMC3    C610542   4.460   3.788  13.257  0.2809  0.5921 -0.6326
  713TMC3     C10543   4.263   3.515  13.477  0.0138  0.4255  0.1685
  713TMC3     O10544   4.143   3.505  13.453 -0.1722 -0.2065  0.2269
  713TMC3     H10545   4.535   3.560  13.487 -0.0645  0.1288 -0.4879
  713TMC3    H110546   4.189   3.575  13.232 -0.1398  1.6712  0.0705
  713TMC3    H210547   4.509   3.875  13.214  0.7467  1.3434  1.4200
  713TMC3    C710548   4.268   3.796  13.098 -0.1408 -0.3784  0.3831
  713TMC3    C810549   4.654   3.767  13.413  0.0179  0.7623 -0.0904
  713TMC3    O110550   4.341   3.887  13.067  0.1733 -0.4900 -0.2086
  713TMC3    O210551   0.015   3.689  13.468 -0.2510  0.0387 -0.0033
  714MPD2     C10552   1.229   2.439   1.511  0.2486 -0.0410 -0.3948
  714MPD2    C110553   1.143   2.335   1.532  0.4170 -0.7338 -0.0133
  714MPD2    C210554   1.012   2.359   1.501  0.2600 -0.1312  0.2199
  714MPD2    C310555   0.965   2.485   1.451  0.3370 -0.4157 -0.5312
  714MPD2    C410556   1.058   2.587   1.440  0.2886  0.1367 -0.1761
  714MPD2    C510557   1.191   2.561   1.459 -0.3851 -0.5819 -0.4768
  714MPD2     H10558   0.942   2.278   1.515 -1.3435  0.8624 -2.0316
  714MPD2    H110559   1.027   2.686   1.409  2.8283  0.9717 -0.0945
  714MPD2    H210560   1.334   2.424   1.533  0.2837 -1.2370 -1.3862
  714MPD2    H310561   1.255   2.647   1.442 -0.5944 -0.5024 -0.8631
  714MPD2     N10562   0.827   2.495   1.421  0.1317 -0.2536 -0.9837
  714MPD2    H510563   0.768   2.413   1.437 -1.0867  0.8589  0.2458
  714MPD2    N110564   1.193   2.216   1.597  0.4416  0.2299 -0.0938
  714MPD2    H710565   1.292   2.212   1.620  0.5542  1.5324 -0.3905
  715TMC3    C110566   1.188   1.987   1.686 -0.8410 -0.0007 -0.5549
  715TMC3    C210567   1.128   1.866   1.681 -0.0968  0.2596 -0.4123
  715TMC3    C310568   1.203   1.762   1.710  0.2719 -0.4676 -0.1214
  715TMC3    C410569   1.316   2.012   1.722 -0.5517  0.2294  0.5351
  715TMC3    C510570   1.389   1.899   1.762  0.3154  0.1215 -0.1994
  715TMC3    C610571   1.332   1.771   1.755 -0.2051 -0.2966 -0.0050
  715TMC3     C10572   1.122   2.102   1.625 -0.1040  0.3240 -0.4032
  715TMC3     O10573   1.004   2.080   1.615  0.4073 -0.1268  0.2832
  715TMC3     H10574   1.025   1.849   1.653  0.3356  0.4208 -2.1064
  715TMC3    H110575   1.352   2.114   1.734 -0.0401  0.1693 -0.5106
  715TMC3    H210576   1.389   1.681   1.773 -1.1975 -0.4501  2.3474
  715TMC3    C710577   1.532   1.912   1.782 -1.1646 -0.4847  0.1097
  715TMC3    C810578   1.139   1.639   1.725  0.2484  0.7522 -0.8376
  715TMC3    O110579   1.583   1.999   1.703  0.1375 -0.4564 -0.5062
  715TMC3    O210580   1.021   1.646   1.752 -0.1883 -0.0002  0.3441
  716MPD2     C10581   2.116   4.196  10.183 -0.2642 -0.3416 -0.0410
  716MPD2    C110582   2.009   4.245  10.109 -0.7737  0.3684 -0.0423
  716MPD2    C210583   1.922   4.152  10.053 -0.6552 -0.6704 -0.4202
  716MPD2    C310584   1.933   4.018  10.068  0.9527  0.1671 -0.6026
  716MPD2    C410585   2.043   3.965  10.134 -0.2232  0.0048  0.0215
  716MPD2    C510586   2.136   4.056  10.191 -0.1304 -0.9280  0.6525
  716MPD2     H10587   1.844   4.177   9.982  0.2002  0.6991 -0.8797
  716MPD2    H110588   2.060   3.859  10.150 -2.3732 -0.4696 -0.9247
  716MPD2    H210589   2.181   4.265  10.236  0.0573 -1.1132  0.5645
  716MPD2    H310590   2.212   4.011  10.255 -0.9971 -2.7892  0.3686
  716MPD2     N10591   1.837   3.941   9.995 -0.7220 -0.3652  0.3603
  716MPD2    H510592   1.768   3.989   9.938 -1.5314 -2.3917 -0.3666
  716MPD2    N110593   1.974   4.379  10.115  0.6144 -0.8202  0.2546
  716MPD2    H710594   2.037   4.441  10.164 -0.5939  1.6154 -1.2465
  717TMC3    C110595   1.735   3.746   9.900 -0.0744  0.8611 -0.0483
  717TMC3    C210596   1.608   3.796   9.882 -0.3802 -0.1539 -0.1253
  717TMC3    C310597   1.526   3.736   9.790  0.0524  0.1203 -0.4201
  717TMC3    C410598   1.766   3.622   9.862  0.2174 -0.1564  0.1396
  717TMC3    C510599   1.673   3.552   9.797  0.2326 -0.1599 -0.2559
  717TMC3    C610600   1.546   3.606   9.760  0.2625 -0.2832 -0.4336
  717TMC3     C10601   1.830   3.803   9.993 -0.0139  0.7525 -0.3028
  717TMC3     O10602   1.901   3.728  10.051  0.8102  0.0204  0.7412
  717TMC3     H10603   1.592   3.899   9.910 -3.1371 -0.2924 -1.1526
  717TMC3    H110604   1.868   3.586   9.865  0.2817  0.0039 -0.1613
  717TMC3    H210605   1.476   3.538   9.713  0.1389 -0.4730  0.0242
  717TMC3    C710606   1.696   3.409   9.761 -0.0666 -0.1314 -0.3725
  717TMC3    C810607   1.402   3.795   9.754  0.5214  0.5727 -0.3987
  717TMC3    O110608   1.619   3.354   9.679  0.9401  0.4907 -0.1374
  717TMC3    O210609   1.385   3.903   9.806  0.3089  0.0491 -0.1465
  718MPD2     C10610   0.910   3.592  13.155  0.4748 -0.3052  0.4716
  718MPD2    C110611   0.816   3.503  13.102  0.3574 -0.2807 -0.1562
  718MPD2    C210612   0.808   3.383  13.164 -0.1303  0.1504  0.5768
  718MPD2    C310613   0.880   3.348  13.279 -0.4449  0.2121 -0.4948
  718MPD2    C410614   0.967   3.440  13.332 -0.4342  0.0291 -0.0762
  718MPD2    C510615   0.987   3.558  13.264  0.9755  0.0960 -0.5323
  718MPD2     H10616   0.741   3.301  13.145 -1.4984  1.4664 -0.2653
  718MPD2    H110617   1.030   3.412  13.415 -1.0952  1.3572  0.8775
  718MPD2    H210618   0.934   3.690  13.116 -3.1335  1.3056  2.3438
  718MPD2    H310619   1.054   3.632  13.305  1.3009 -1.6538  2.1469
  718MPD2     N10620   0.862   3.216  13.324 -0.0007  0.0384  0.5240
  718MPD2    H510621   0.801   3.150  13.277  0.1294  0.9898 -0.9785
  718MPD2    N110622   0.742   3.539  12.990  0.0490  0.0289 -0.2564
  718MPD2    H710623   0.766   3.629  12.951  0.9203 -0.9642 -2.0121
  719TMC3    C110624   0.593   3.495  12.805  0.3836 -0.4009 -0.5534
  719TMC3    C210625   0.500   3.409  12.747 -0.9196 -0.1066 -0.0232
  719TMC3    C310626   0.490   3.388  12.615 -0.9432 -0.1847 -0.8499
  719TMC3    C410627   0.676   3.562  12.722  0.0726  0.1157 -0.3962
  719TMC3    C510628   0.666   3.547  12.590 -0.6770  0.7710 -0.0459
  719TMC3    C610629   0.569   3.464  12.530 -1.1332  0.1657  0.1475
  719TMC3     C10630   0.639   3.460  12.937 -0.5370  0.7311 -0.8805
  719TMC3     O10631   0.576   3.373  12.992  0.0475  0.1455 -0.1197
  719TMC3     H10632   0.422   3.370  12.812 -0.3170  2.9926  2.5890
  719TMC3    H110633   0.767   3.609  12.759 -1.1501  3.5884 -1.7771
  719TMC3    H210634   0.576   3.440  12.425 -2.9192 -1.3576  0.3817
  719TMC3    C710635   0.722   3.653  12.511  0.1481  0.7497  0.2531
  719TMC3    C810636   0.507   3.245  12.592  0.3243 -0.4676  0.7544
  719TMC3    O110637   0.664   3.699  12.411 -0.3697  0.0108 -0.0824
  719TMC3    O210638   0.519   3.214  12.474  0.5706  0.4807 -0.4034
  720MPD2     C10639   3.635   0.079  14.238  0.6237  0.6379  0.2318
  720MPD2    C110640   3.718   0.154  14.158  0.1494  0.0060  0.0850
  720MPD2    C210641   3.840   0.190  14.211  0.3701  0.5283 -0.4110
  720MPD2    C310642   3.876   0.172  14.348 -0.0855 -0.4352  0.3798
  720MPD2    C410643   3.784   0.096  14.420 -0.0624 -0.4891 -0.3104
  720MPD2    C510644   3.665   0.061  14.369  0.1381  0.2089  0.1767
  720MPD2     H10645   3.909   0.244  14.149  1.7948 -0.9189 -0.0993
  720MPD2    H110646   3.799   0.075  14.525 -1.1084  0.0843 -0.0390
  720MPD2    H210647   3.537   0.048  14.203  0.4719  0.9867  0.3479
  720MPD2    H310648   3.594   0.009  14.433  1.0461  1.2204  2.0120
  720MPD2     N10649   3.990   0.231  14.404 -0.1128  0.3718  0.1865
  720MPD2    H510650   4.055   0.285  14.347  0.1935 -0.0851  0.1040
  720MPD2    N110651   3.677   0.182  14.025 -0.9719  0.2669 -0.4770
  720MPD2    H710652   3.584   0.155  13.994 -1.2759 -0.4799  1.0451
  721TMC3    C110653   4.147   0.292  14.580 -0.5744 -0.0230 -0.8000
  721TMC3    C210654   4.169   0.317  14.713 -0.7154 -0.6312 -0.4251
  721TMC3    C310655   4.297   0.363  14.739  0.4337 -0.4081 -0.1474
  721TMC3    C410656   4.253   0.289  14.493  0.0941  0.1068 -0.6182
  721TMC3    C510657   4.383   0.318  14.530 -0.4064  0.5589 -0.0375
  721TMC3    C610658   4.402   0.369  14.654 -0.3776 -0.0621  0.1525
  721TMC3     C10659   4.028   0.220  14.541  0.5583 -0.5361 -0.7400
  721TMC3     O10660   3.971   0.162  14.637  0.4055 -0.2212 -0.0131
  721TMC3     H10661   4.092   0.312  14.789 -0.1436  1.8924  0.3184
  721TMC3    H110662   4.244   0.262  14.388  0.8376 -0.4362 -0.5481
  721TMC3    H210663   4.502   0.392  14.689  0.2198 -1.2424 -0.8062
  721TMC3    C710664   4.504   0.291  14.447  0.2359  0.3846  0.1558
  721TMC3    C810665   4.328   0.405  14.873 -0.6923 -1.0388  0.3364
  721TMC3    O110666   4.513   0.338  14.333 -0.6840 -0.2254  0.0453
  721TMC3    O210667   4.430   0.469  14.889 -0.6605  0.4333 -0.6391
  722MPD2     C10668   3.106   3.422  13.138 -0.1559  0.4365 -0.1086
  722MPD2    C110669   3.046   3.531  13.085  0.4515  0.1712  0.2685
  722MPD2    C210670   2.909   3.513  13.048  0.0056  0.0061 -0.0860
  722MPD2    C310671   2.833   3.393  13.059  0.7138 -0.1733 -0.0312
  722MPD2    C410672   2.901   3.289  13.128 -0.3161  0.1280 -0.1941
  722MPD2    C510673   3.031   3.306  13.164 -0.8263  0.4816 -0.0530
  722MPD2     H10674   2.860   3.604  13.016 -0.5884  0.3030  1.6623
  722MPD2    H110675   2.861   3.193  13.161  2.9170 -0.8371  0.9196
  722MPD2    H210676   3.209   3.419  13.170 -0.2181 -1.8585 -0.0751
  722MPD2    H310677   3.070   3.217  13.212 -1.2516  0.4630  0.2546
  722MPD2     N10678   2.698   3.394  13.025  0.9858  0.7655 -0.2487
  722MPD2    H510679   2.659   3.475  12.979 -1.4781  0.1321  0.7177
  722MPD2    N110680   3.117   3.651  13.053 -0.2648  0.1857  0.3870
  722MPD2    H710681   3.065   3.723  13.004 -0.3525  0.3798  0.7654
  723TMC3    C110682   2.468   3.353  13.055 -0.4620 -0.1317  0.1511
  723TMC3    C210683   2.368   3.265  13.052 -0.0714 -0.2298 -0.0597
  723TMC3    C310684   2.260   3.301  12.971  0.4275 -0.4217  0.0274
  723TMC3    C410685   2.455   3.485  13.026 -0.0647  0.9018 -0.5100
  723TMC3    C510686   2.355   3.523  12.947 -0.0863 -0.8978 -0.4709
  723TMC3    C610687   2.257   3.429  12.920  0.5865 -0.0080 -0.6126
  723TMC3     C10688   2.606   3.303  13.074 -0.3308  0.0662  0.1074
  723TMC3     O10689   2.627   3.189  13.116  0.0309  0.3683 -0.2368
  723TMC3     H10690   2.394   3.165  13.084 -2.0921 -1.1989 -1.4954
  723TMC3    H110691   2.532   3.556  13.055 -0.1988  0.4701  0.9577
  723TMC3    H210692   2.168   3.448  12.861  0.5416 -3.1026 -1.5811
  723TMC3    C710693   2.348   3.666  12.923 -0.1743  0.4184  0.2074
  723TMC3    C810694   2.143   3.215  12.962  0.1584 -1.4335 -0.4220
  723TMC3    O110695   2.372   3.739  13.019 -0.5895 -0.0954  0.1397
  723TMC3    O210696   2.056   3.261  12.889 -0.7348  0.8712  0.5141
  724TMC3    C110697   3.475   2.383   9.224 -0.5551  0.1160  0.7653
  724TMC3    C210698   3.476   2.251   9.261  0.4131 -0.3711  0.3685
  724TMC3    C310699   3.578   2.205   9.337 -0.5268 -0.4045  0.5839
  724TMC3    C410700   3.580   2.462   9.246 -0.2031  0.7050  0.4727
  724TMC3    C510701   3.690   2.410   9.314  0.0814  0.6717  0.4727
  724TMC3    C610702   3.681   2.294   9.375 -0.0084  0.3541  0.1055
  724TMC3     C10703   3.370   2.433   9.142 -0.1871 -0.3797  0.3228
  724TMC3     O10704   3.350   2.555   9.129 -0.0674 -0.3778  0.8361
  724TMC3     H10705   3.380   2.202   9.270 -0.7830  1.9887  0.4658
  724TMC3    H110706   3.583   2.556   9.191 -1.2811  0.9543  0.8378
  724TMC3    H210707   3.764   2.266   9.438  0.7669  1.7450 -0.2996
  724TMC3    C710708   3.816   2.481   9.297  0.3409 -0.0594  0.1383
  724TMC3    C810709   3.538   2.091   9.417 -0.4730 -0.1374 -0.1275
  724TMC3    O110710   3.811   2.586   9.234  0.3387  0.2225  0.7235
  724TMC3    O210711   3.458   2.007   9.374 -0.3926 -0.6971 -0.2545
  725TMC3    C110712   4.674   0.603  12.871  0.7380  0.1186 -0.0161
  725TMC3    C210713   4.539   0.627  12.863 -0.0673 -0.2589 -0.0332
  725TMC3    C310714   4.472   0.554  12.773 -0.2458 -0.4496 -0.6341
  725TMC3    C410715   0.017   0.506  12.795  0.7816  0.5009  0.2798
  725TMC3    C510716   4.658   0.431  12.709  0.3650 -0.0050  0.4807
  725TMC3    C610717   4.524   0.450  12.695 -0.2442 -0.4381  0.5683
  725TMC3     C10718   0.026   0.697  12.952 -0.4738  0.3771  0.0853
  725TMC3     O10719   4.691   0.802  12.983  0.3815 -0.2835  0.2157
  725TMC3     H10720   4.486   0.692  12.933 -0.0828 -0.5649  0.2381
  725TMC3    H110721   0.123   0.484  12.801  0.5874 -0.8886 -1.2400
  725TMC3    H210722   4.464   0.381  12.637 -0.2307 -0.0687  0.1163
  725TMC3    C710723   0.005   0.323  12.638 -0.3630  0.4495  0.1409
  725TMC3    C810724   4.333   0.581  12.747  0.3788 -0.7060 -0.9838
  725TMC3    O110725   0.081   0.346  12.553 -0.5936  0.7465  0.1899
  725TMC3    O210726   4.264   0.610  12.845 -0.5398  0.8916 -0.1135
  726MPD2     C10727   3.002   1.955  10.316  0.0557  0.1567  0.0269
  726MPD2    C110728   2.897   1.957  10.237  0.6561 -0.2079 -0.0444
  726MPD2    C210729   2.790   1.884  10.271 -0.8507 -0.4744 -0.1212
  726MPD2    C310730   2.788   1.809  10.385 -0.1657 -0.0640  0.0132
  726MPD2    C410731   2.905   1.800  10.460 -0.0334  0.4173  0.6799
  726MPD2    C510732   3.011   1.880  10.427  0.5079 -0.5224  0.7684
  726MPD2     H10733   2.701   1.902  10.211 -0.4727  1.0893 -0.2052
  726MPD2    H110734   2.913   1.739  10.549 -1.8061 -2.4799 -1.1649
  726MPD2    H210735   3.088   2.019  10.298  0.1245  0.1312  0.2752
  726MPD2    H310736   3.104   1.889  10.482  1.2242 -0.5833 -0.4282
  726MPD2     N10737   2.672   1.742  10.441 -0.3035  0.7210 -0.4789
  726MPD2    H510738   2.674   1.688  10.527 -0.2967  0.0025 -0.9241
  726MPD2    N110739   2.882   2.050  10.135 -0.1985  0.1999 -0.0428
  726MPD2    H710740   2.789   2.064  10.096  0.4207 -2.1421 -2.3921
  727TMC3    C110741   2.906   2.273  10.056 -0.1759  0.3384  0.4075
  727TMC3    C210742   2.980   2.387  10.075  0.2040  0.6925  0.4037
  727TMC3    C310743   2.924   2.510  10.097 -0.1052 -0.0827  0.6492
  727TMC3    C410744   2.771   2.286  10.028  0.7420 -0.4259  0.2651
  727TMC3    C510745   2.722   2.418  10.032 -0.4788  0.3410 -0.0784
  727TMC3    C610746   2.788   2.525  10.073  0.1739 -0.4859 -0.3773
  727TMC3     C10747   2.970   2.155  10.106 -0.1684 -0.9371  0.2788
  727TMC3     O10748   3.089   2.164  10.133  0.4701 -0.5338 -0.2866
  727TMC3     H10749   3.088   2.387  10.087  0.1481 -2.0172  0.8267
  727TMC3    H110750   2.706   2.204  10.002  0.1684  0.9362 -2.5734
  727TMC3    H210751   2.741   2.623  10.077 -1.2500 -1.2136  0.6337
  727TMC3    C710752   2.599   2.443   9.954 -0.2243  0.2030 -0.4383
  727TMC3    C810753   2.968   2.583  10.212  0.0855  0.1966  0.0905
  727TMC3    O110754   2.536   2.544   9.987 -0.2744 -0.7883 -0.3126
  727TMC3    O210755   3.050   2.533  10.281 -0.1008  0.3042  0.3341
  728TMC3    C110756   1.539   0.651  15.362  1.0097  0.4549 -0.3202
  728TMC3    C210757   1.670   0.661  15.326 -0.0615 -0.2166  0.7801
  728TMC3    C310758   1.700   0.721  15.200  0.6485 -0.0754  0.0412
  728TMC3    C410759   1.438   0.709  15.287 -0.0354  0.0758 -0.9174
  728TMC3    C510760   1.471   0.779  15.174 -0.0388 -0.9351 -0.3404
  728TMC3    C610761   1.601   0.774  15.125  0.5776 -0.3602  0.6477
  728TMC3     C10762   1.511   0.579  15.486 -0.3665 -0.8431 -0.1050
  728TMC3     O10763   1.600   0.535  15.551  0.3813  0.0813  0.3620
  728TMC3     H10764   1.747   0.635  15.397  1.5054  0.5710 -0.6210
  728TMC3    H110765   1.339   0.710  15.330 -0.2025 -2.1579 -1.2061
  728TMC3    H210766   1.631   0.812  15.029 -0.6446  1.1536  0.8655
  728TMC3    C710767   1.377   0.861  15.112  0.2623  0.2547  0.2323
  728TMC3    C810768   1.839   0.747  15.159 -0.0965  0.0587  0.7351
  728TMC3    O110769   1.263   0.819  15.094  0.0845  0.1643  0.2924
  728TMC3    O210770   1.852   0.820  15.064 -0.0337  0.1247 -0.0875
  729MPD2     C10771   3.714   1.714  17.644  0.6226  0.8133 -0.5366
  729MPD2    C110772   3.834   1.748   0.020 -0.4079  0.0157  0.5011
  729MPD2    C210773   3.829   1.812   0.141  0.4269  0.0811 -0.5959
  729MPD2    C310774   3.699   1.837   0.194  0.3307  0.4916  0.1405
  729MPD2    C410775   3.587   1.786   0.137  0.0463 -0.6754 -0.0381
  729MPD2    C510776   3.594   1.725   0.017 -0.3351 -0.4752  0.2111
  729MPD2     H10777   3.915   1.855   0.191 -0.6767  2.4461 -0.7062
  729MPD2    H110778   3.489   1.810   0.176  0.3841 -0.8019  0.9093
  729MPD2    H210779   3.720   1.655  17.553  2.6730  0.4502 -0.1570
  729MPD2    H310780   3.501   1.690  17.663  0.0694 -2.2907  0.8129
  729MPD2     N10781   3.673   1.900   0.315  0.3320 -0.1445 -0.7248
  729MPD2    H510782   3.578   1.934   0.322  1.1064  1.4742  1.7266
  729MPD2    N110783   3.947   1.750  17.629 -0.1026  0.2178 -0.1401
  729MPD2    H710784   3.929   1.719  17.534 -1.1877 -2.0472  0.7860
  730TMC3    C110785   3.733   2.062   0.467 -0.3503  0.2446 -0.2195
  730TMC3    C210786   3.828   2.102   0.558  0.1875 -0.8833 -0.2739
  730TMC3    C310787   3.849   2.233   0.587  0.0695 -0.1249  0.1167
  730TMC3    C410788   3.678   2.161   0.388  0.4502  0.5776 -0.4666
  730TMC3    C510789   3.700   2.295   0.416 -0.2786 -0.1550 -0.4771
  730TMC3    C610790   3.794   2.332   0.511 -0.2724 -0.2722  0.0497
  730TMC3     C10791   3.769   1.944   0.400 -0.4583  0.1473  0.1231
  730TMC3     O10792   3.886   1.909   0.416  0.3971  0.1889 -0.0472
  730TMC3     H10793   3.869   2.029   0.626  0.5942 -0.8241 -0.4520
  730TMC3    H110794   3.602   2.136   0.314  0.7860 -1.2364 -0.1966
  730TMC3    H210795   3.830   2.434   0.518  1.7148 -1.1696  2.8147
  730TMC3    C710796   3.665   2.384   0.307 -0.8582 -0.1297  0.0379
  730TMC3    C810797   3.987   2.264   0.628 -0.2598  0.8290  0.3085
  730TMC3    O110798   3.635   2.331   0.201  0.3792 -0.2488  0.5009
  730TMC3    O210799   4.036   2.203   0.721  0.0039 -0.1345  0.4365
  731MPD2     C10800   4.047   0.445  12.206 -0.6998 -0.2243  0.2470
  731MPD2    C110801   4.142   0.350  12.227 -0.0327  0.5156  0.2115
  731MPD2    C210802   4.169   0.302  12.347  0.9558 -0.1781 -0.6237
  731MPD2    C310803   4.097   0.353  12.456 -0.6574 -1.1007  0.6562
  731MPD2    C410804   4.001   0.453  12.432  0.0060  0.1823 -0.7812
  731MPD2    C510805   3.975   0.496  12.307 -0.4392 -1.2112 -0.2828
  731MPD2     H10806   4.244   0.226  12.369 -0.4088 -0.9125  1.5463
  731MPD2    H110807   3.940   0.499  12.509 -2.6066 -2.2806 -1.3725
  731MPD2    H210808   4.017   0.470  12.105  0.7511 -0.0546 -0.1395
  731MPD2    H310809   3.915   0.583  12.284  1.0033 -0.0782  0.2037
  731MPD2     N10810   4.138   0.311  12.585  0.6894  0.0030 -0.3434
  731MPD2    H510811   4.210   0.240  12.592  0.4781 -0.1962 -0.1841
  731MPD2    N110812   4.198   0.296  12.106  0.1514  0.2128 -0.1335
  731MPD2    H710813   4.164   0.331  12.017 -1.2444  0.1884  0.3936
  732TMC3    C110814   4.338   0.194  11.942  0.1972 -0.9361 -0.0920
  732TMC3    C210815   4.238   0.133  11.866  0.0898 -0.2299  0.2188
  732TMC3    C310816   4.264   0.129  11.729 -0.3755 -0.1126  0.7956
  732TMC3    C410817   4.454   0.243  11.894 -1.1939  0.9711  0.0740
  732TMC3    C510818   4.476   0.222  11.756  1.2097 -0.0454  0.1245
  732TMC3    C610819   4.379   0.169  11.671 -1.1304 -0.2848 -0.4470
  732TMC3     C10820   4.316   0.222  12.089 -0.0464  0.1506  0.1883
  732TMC3     O10821   4.392   0.177  12.169 -0.0716 -0.0363  0.0581
  732TMC3     H10822   4.141   0.117  11.912  0.0640 -2.4675 -0.6182
  732TMC3    H110823   4.521   0.302  11.955  2.2833  0.1745 -3.0076
  732TMC3    H210824   4.400   0.162  11.565  0.6690  1.5410 -0.2201
  732TMC3    C710825   4.601   0.269  11.694  0.2918  0.6523 -0.7386
  732TMC3    C810826   4.157   0.063  11.645  0.2115  0.1683 -0.1688
  732TMC3    O110827   4.604   0.255  11.573 -0.1233  0.0196  0.3332
  732TMC3    O210828   4.143   0.102  11.529  0.4027 -0.4994 -0.4501
  733TMC3    C110829   0.692   2.893  13.392  0.6804  0.6596  0.3331
  733TMC3    C210830   0.767   2.993  13.464 -0.1214  0.0654 -0.4571
  733TMC3    C310831   0.895   3.017  13.412 -0.8574 -0.2719 -0.6869
  733TMC3    C410832   0.737   2.836  13.279  0.0271 -0.1068  0.3318
  733TMC3    C510833   0.851   2.870  13.224  0.4048 -0.2340  0.2811
  733TMC3    C610834   0.923   2.969  13.284  0.1839 -0.0026  0.2242
  733TMC3     C10835   0.552   2.879  13.410  0.3192 -0.3298  0.2484
  733TMC3     O10836   0.496   2.866  13.303  0.0304  0.1458  0.8621
  733TMC3     H10837   0.734   3.045  13.553  0.1638 -0.0238 -0.2995
  733TMC3    H110838   0.688   2.743  13.253  0.6005 -0.5255  0.7498
  733TMC3    H210839   1.004   3.010  13.224  0.0966 -1.6413 -1.0373
  733TMC3    C710840   0.872   2.860  13.081 -0.0837 -0.9878  0.1954
  733TMC3    C810841   0.934   3.156  13.425  0.7244 -0.1613 -0.1458
  733TMC3    O110842   0.909   2.752  13.036  0.6152 -0.0768  0.6668
  733TMC3    O210843   1.027   3.190  13.500 -0.0892  0.6418  0.1550
  734MPD2     C10844   2.303   0.465  12.665 -0.5757 -0.1088 -0.1245
  734MPD2    C110845   2.224   0.401  12.568  0.1166  0.7185 -0.2515
  734MPD2    C210846   2.160   0.478  12.468 -0.1729  0.7643 -0.2738
  734MPD2    C310847   2.169   0.613  12.463  0.3208  0.5130  0.4927
  734MPD2    C410848   2.229   0.678  12.574 -0.3499 -0.2378  0.2544
  734MPD2    C510849   2.294   0.603  12.669 -0.2715 -0.5809  0.5444
  734MPD2     H10850   2.114   0.426  12.385  0.4941 -0.3200  0.0390
  734MPD2    H110851   2.228   0.785  12.590  0.7171 -0.0863 -0.7008
  734MPD2    H210852   2.372   0.406  12.724 -0.5867  1.1232  1.1182
  734MPD2    H310853   2.342   0.652  12.752 -2.1311 -0.8616  1.7744
  734MPD2     N10854   2.112   0.681  12.353  0.3369  0.7937  0.4807
  734MPD2    H510855   2.077   0.621  12.279 -1.3633 -0.6879  2.4994
  734MPD2    N110856   2.217   0.263  12.567 -0.1127 -0.6821  0.7823
  734MPD2    H710857   2.277   0.205  12.625  0.3883 -0.4200  0.5251
  735TMC3    C110858   2.116   0.058  12.525  0.0046 -0.0177 -0.5050
  735TMC3    C210859   1.997   4.709  12.499 -0.6790  0.2630 -0.2589
  735TMC3    C310860   1.996   4.595  12.423 -0.2115 -0.3929  0.4031
  735TMC3    C410861   2.233   0.005  12.484 -0.7477  0.0038  0.0387
  735TMC3    C510862   2.227   4.594  12.437  0.6379  0.0995  0.0022
  735TMC3    C610863   2.113   4.527  12.404 -0.8165 -0.1949  0.0004
  735TMC3     C10864   2.110   0.195  12.515 -0.1472  0.1863  0.4921
  735TMC3     O10865   2.009   0.236  12.459  0.0799  0.7503 -0.8817
  735TMC3     H10866   1.899   0.023  12.529 -0.1770  0.8460  0.6887
  735TMC3    H110867   2.326   0.061  12.490 -0.5507  0.0945 -3.4521
  735TMC3    H210868   2.111   4.436  12.346  1.7004  0.0111 -0.4159
  735TMC3    C710869   2.346   4.557  12.365  0.3285 -0.2478 -0.6522
  735TMC3    C810870   1.926   4.619  12.297  0.0527 -0.5465 -0.4515
  735TMC3    O110871   2.401   4.651  12.315  0.7127  0.7787  0.0743
  735TMC3    O210872   1.926   4.526  12.214 -0.2214 -0.8083  0.0836
  736MPD2     C10873   2.513   4.223  12.363 -0.0774  0.4815  0.0176
  736MPD2    C110874   2.495   4.354  12.328  0.1557  0.0177 -0.2786
  736MPD2    C210875   2.570   4.415  12.231  0.5911 -0.0375  0.6674
  736MPD2    C310876   2.653   4.331  12.157  0.4830 -0.1221 -0.1335
  736MPD2    C410877   2.671   4.204  12.194 -0.2326  0.7107 -0.0466
  736MPD2    C510878   2.603   4.147  12.293  0.2909 -0.7000  0.6321
  736MPD2     H10879   2.567   4.522  12.211 -0.0370  0.0116  1.0291
  736MPD2    H110880   2.728   4.141  12.126  0.0993  0.5043  0.4284
  736MPD2    H210881   2.450   4.181  12.440 -0.7961 -3.1201 -2.5491
  736MPD2    H310882   2.601   4.040  12.307 -0.1450 -0.9514 -1.3070
  736MPD2     N10883   2.733   4.372  12.049 -0.0467  0.0626  0.1371
  736MPD2    H510884   2.794   4.298  12.016 -1.2535 -1.7209  1.8933
  736MPD2    N110885   2.380   4.427  12.385  0.1344  0.7385  0.9431
  736MPD2    H710886   2.333   4.380  12.462 -0.5984 -0.9499 -0.5586
  737TMC3    C110887   2.811   4.518  11.871 -0.1098  0.0994  0.4419
  737TMC3    C210888   2.817   4.648  11.827 -0.5456 -0.9500 -0.0290
  737TMC3    C310889   2.861   4.661  11.699 -0.0591 -0.1828 -0.3696
  737TMC3    C410890   2.845   4.408  11.796  0.1250 -0.0628 -0.4298
  737TMC3    C510891   2.885   4.429  11.669  0.0951  0.3908 -0.4923
  737TMC3    C610892   2.899   4.559  11.619  0.4629  0.0022  0.0333
  737TMC3     C10893   2.732   4.500  11.993 -0.5992 -0.3941 -0.4427
  737TMC3     O10894   2.685   4.607  12.038 -0.1071 -0.6074 -0.8704
  737TMC3     H10895   2.792   0.012  11.889 -0.5787 -1.1298  0.2076
  737TMC3    H110896   2.847   4.309  11.841 -0.8617  0.1694  0.1224
  737TMC3    H210897   2.929   4.575  11.516 -1.6665 -1.8219 -0.8698
  737TMC3    C710898   2.970   4.319  11.614 -0.5533 -0.2756 -0.5351
  737TMC3    C810899   2.816   0.058  11.633 -0.3356 -0.3813 -0.6236
  737TMC3    O110900   2.979   4.212  11.674  0.5249 -0.4185 -0.2596
  737TMC3    O210901   2.726   0.117  11.697 -0.1011  0.0606 -0.4412
  738MPD2     C10902   2.471   3.969  15.648 -0.1392 -0.0441  0.1006
  738MPD2    C110903   2.511   3.915  15.525  0.2409 -0.4966 -0.1660
  738MPD2    C210904   2.601   3.984  15.445 -1.1642  0.1042  0.6233
  738MPD2    C310905   2.632   4.112  15.472 -0.3696 -0.0667  1.1366
  738MPD2    C410906   2.585   4.167  15.585 -0.8689 -0.3887 -0.2947
  738MPD2    C510907   2.506   4.096  15.669  0.0991  0.0089 -0.2111
  738MPD2     H10908   2.647   3.939  15.357 -0.2148 -1.3689  1.8830
  738MPD2    H110909   2.602   4.270  15.614  0.5168 -0.6392 -0.2556
  738MPD2    H210910   2.414   3.918  15.724  0.6493 -0.2030  0.5844
  738MPD2    H310911   2.459   4.146  15.753  1.5257 -0.3755  0.8212
  738MPD2     N10912   2.714   4.195  15.396 -0.3671 -0.0095 -0.1561
  738MPD2    H510913   2.720   4.285  15.443  0.0726 -1.8247  3.2018
  738MPD2    N110914   2.455   3.792  15.475 -0.8004 -0.1690  0.2903
  738MPD2    H710915   2.494   3.750  15.391 -0.4717  2.7339 -1.0168
  739TMC3    C110916   2.848   4.293  15.244  0.1411 -0.6438 -0.6668
  739TMC3    C210917   2.960   4.273  15.166  0.0078 -0.1883 -0.2798
  739TMC3    C310918   3.060   4.365  15.164  0.1969 -0.0580  0.3089
  739TMC3    C410919   2.840   4.399  15.329  0.1292 -0.0675  0.2370
  739TMC3    C510920   2.939   4.494  15.322  0.0121 -0.0604  0.3314
  739TMC3    C610921   3.050   4.479  15.237 -0.0046  0.8334  0.5503
  739TMC3     C10922   2.765   4.176  15.278 -0.4024  0.1556 -0.1623
  739TMC3     O10923   2.762   4.086  15.197 -0.3978  0.9738 -0.1183
  739TMC3     H10924   2.964   4.190  15.096 -1.1135 -1.8443  1.6153
  739TMC3    H110925   2.750   4.431  15.379 -0.2198  0.0574 -0.4651
  739TMC3    H210926   3.139   4.541  15.243  1.7735 -1.8343  1.6888
  739TMC3    C710927   2.916   4.619  15.388  0.4665  0.4223 -0.3843
  739TMC3    C810928   3.141   4.352  15.046 -0.4141  0.6279 -0.0942
  739TMC3    O110929   2.830   4.622  15.478 -0.1146  0.2313 -0.3310
  739TMC3    O210930   3.086   4.331  14.939  0.3637 -0.1145  0.1258
  740TMC3    C110931   3.527   0.818  14.715 -0.0421 -0.6310  0.1890
  740TMC3    C210932   3.583   0.773  14.832 -0.5519  0.7279  0.1851
  740TMC3    C310933   3.716   0.739  14.829  0.1962  0.7868  0.0040
  740TMC3    C410934   3.597   0.831  14.594  0.3066  0.3899 -0.4545
  740TMC3    C510935   3.727   0.790  14.600  0.4787  0.1264  0.2589
  740TMC3    C610936   3.787   0.736  14.712 -0.9335 -0.6185 -0.0762
  740TMC3     C10937   3.393   0.874  14.721  0.1957  0.3344  0.1231
  740TMC3     O10938   3.351   0.961  14.641 -0.1868 -0.2144 -0.5600
  740TMC3     H10939   3.543   0.796  14.930  2.1198 -0.6067  1.5899
  740TMC3    H110940   3.552   0.901  14.524 -0.2215 -1.8651 -2.3800
  740TMC3    H210941   3.891   0.705  14.714 -1.5990 -2.8128  0.3073
  740TMC3    C710942   3.798   0.753  14.480  0.2906 -0.1829 -0.2789
  740TMC3    C810943   3.759   0.660  14.948 -0.4517  0.2508 -0.0394
  740TMC3    O110944   3.915   0.710  14.495 -0.0164 -0.2865 -0.0734
  740TMC3    O210945   3.670   0.627  15.025 -0.1934  0.9143 -0.1729
  741TMC3    C110946   3.271   0.037  14.642  0.1513 -0.4555 -0.9947
  741TMC3    C210947   3.166   4.680  14.600 -0.4152  0.7699 -0.4666
  741TMC3    C310948   3.097   4.608  14.699 -0.1355 -0.0032 -0.1303
  741TMC3    C410949   3.309   0.052  14.772 -0.2140  0.4105  0.3590
  741TMC3    C510950   3.229   0.000  14.867 -0.1963  0.2806  0.6974
  741TMC3    C610951   3.119   4.643  14.834  0.4175  0.4375 -0.5638
  741TMC3     C10952   3.327   0.133  14.551  0.2391  0.2905 -0.3062
  741TMC3     O10953   3.441   0.166  14.591 -0.5662  0.1230 -0.1746
  741TMC3     H10954   3.150   4.655  14.496 -0.8432  0.1057 -0.2406
  741TMC3    H110955   3.380   0.128  14.804  1.0762 -1.1659  1.2147
  741TMC3    H210956   3.061   4.597  14.914 -0.7323  2.3486 -0.3031
  741TMC3    C710957   3.247   0.022  15.006 -0.5371 -0.3851 -0.1062
  741TMC3    C810958   2.982   4.540  14.651  0.4841 -0.5867  0.2349
  741TMC3    O110959   3.157   4.717  15.079  0.0505 -0.3460 -0.8218
  741TMC3    O210960   2.941   4.590  14.547 -0.2558  0.7533  0.4900
  742TMC3    C110961   3.063   3.265  15.492 -0.5035  0.0364  0.2645
  742TMC3    C210962   3.016   3.305  15.368 -0.0927  0.2804  0.6928
  742TMC3    C310963   3.082   3.265  15.263 -0.7391 -1.0066 -1.1205
  742TMC3    C410964   3.153   3.173  15.511 -0.4026 -0.3823 -0.1629
  742TMC3    C510965   3.216   3.121  15.395  0.8310 -0.0786 -0.1925
  742TMC3    C610966   3.173   3.158  15.271  0.2841 -0.0447 -0.4775
  742TMC3     C10967   2.983   3.323  15.603  0.7127  0.5410 -0.1308
  742TMC3     O10968   2.944   3.242  15.685  0.1277  0.2472 -0.0644
  742TMC3     H10969   2.948   3.388  15.355 -0.2213  0.2821  1.3549
  742TMC3    H110970   3.177   3.137  15.611  2.0962  2.6078  0.3277
  742TMC3    H210971   3.226   3.122  15.183  0.2448  0.5823 -0.7597
  742TMC3    C710972   3.327   3.019  15.399 -0.6577 -0.3279  0.4383
  742TMC3    C810973   3.004   3.279  15.146  0.8263 -0.5114  0.1184
  742TMC3    O110974   3.351   2.963  15.291 -0.1820 -0.1579 -0.2485
  742TMC3    O210975   2.883   3.300  15.149  0.2364 -0.1152  0.1800
  743MPD2     C10976   0.227   4.189   2.296  0.0882 -0.5765 -0.2774
  743MPD2    C110977   0.288   4.173   2.175 -0.1913 -0.6176 -0.1304
  743MPD2    C210978   0.426   4.160   2.162 -0.0535  0.4858  0.2312
  743MPD2    C310979   0.503   4.180   2.276 -0.5279  0.0188  0.1372
  743MPD2    C410980   0.443   4.198   2.399  0.7637  0.1770 -0.6791
  743MPD2    C510981   0.305   4.208   2.400 -0.3872  0.1896 -0.3118
  743MPD2     H10982   0.473   4.140   2.066  1.7980  2.6531  0.6911
  743MPD2    H110983   0.495   4.216   2.492 -0.1369 -0.7641  0.0102
  743MPD2    H210984   0.119   4.199   2.295  0.2027  0.8095  0.7031
  743MPD2    H310985   0.246   4.218   2.490  1.5631  2.7327  0.6810
  743MPD2     N10986   0.644   4.170   2.263 -0.3893 -0.2373 -0.4640
  743MPD2    H510987   0.686   4.169   2.171 -0.2199 -3.4710 -0.3470
  743MPD2    N110988   0.200   4.150   2.065 -0.6791  0.2631  0.3370
  743MPD2    H710989   0.101   4.160   2.084 -1.0637 -2.1388 -0.3830
  744TMC3    C110990   0.127   4.093   1.845 -0.1287  0.8623 -0.1740
  744TMC3    C210991   4.713   4.128   1.879 -0.0121  0.0340  0.0608
  744TMC3    C310992   4.627   4.161   1.775 -0.2553 -0.0031 -0.2145
  744TMC3    C410993   0.157   4.069   1.716 -0.0209  0.2320  0.2432
  744TMC3    C510994   0.064   4.108   1.619  0.3698  0.1512 -0.3753
  744TMC3    C610995   4.660   4.150   1.642 -1.2347  0.0235  0.5732
  744TMC3     C10996   0.241   4.122   1.934  0.0761  0.1523  0.3348
  744TMC3     O10997   0.351   4.104   1.886  0.6277  0.6937 -0.4788
  744TMC3     H10998   4.693   4.157   1.981 -0.7931  0.1244 -0.1200
  744TMC3    H110999   0.261   4.052   1.690 -0.5264 -2.5743  0.0447
  744TMC3    H211000   4.594   4.168   1.558 -1.4357 -0.8122  0.5517
  744TMC3    C711001   0.100   4.072   1.483  0.3850  0.2148 -0.6611
  744TMC3    C811002   4.506   4.229   1.804 -0.4129 -0.5058  0.2123
  744TMC3    O111003   0.062   4.138   1.384  0.1035  0.1063 -0.4238
  744TMC3    O211004   4.504   4.291   1.912 -0.1482 -0.1465  0.6484
  745TMC3    C111005   3.869   2.982  13.823 -0.2127  0.3713 -0.7946
  745TMC3    C211006   3.755   3.046  13.861  0.8994  0.1052  0.2386
  745TMC3    C311007   3.655   3.053  13.774 -0.4065 -0.2511  0.8079
  745TMC3    C411008   3.884   2.911  13.707 -0.1996 -0.3247 -0.1758
  745TMC3    C511009   3.772   2.913  13.622 -0.0655 -0.1936  0.0703
  745TMC3    C611010   3.658   2.983  13.653  0.5204  1.0421  0.4579
  745TMC3     C11011   3.995   3.046  13.872  0.2983 -0.1372 -0.0267
  745TMC3     O11012   4.026   3.017  13.986  0.2340 -0.4488 -0.2068
  745TMC3     H11013   3.758   3.089  13.961  0.2246  0.4732  0.1019
  745TMC3    H111014   3.972   2.852  13.686  0.2674  1.5462 -3.3879
  745TMC3    H211015   3.573   2.980  13.586 -0.2220  1.9257  1.3660
  745TMC3    C711016   3.769   2.828  13.502  0.4590  0.3002 -0.1137
  745TMC3    C811017   3.551   3.150  13.789 -0.1282  0.0393 -0.4353
  745TMC3    O111018   3.662   2.805  13.446 -0.0410 -0.1636  0.0828
  745TMC3    O211019   3.459   3.152  13.706 -0.4078 -0.1806  0.0590
  746TMC3    C111020   1.031   4.692  10.799  0.5557 -0.1002 -0.7496
  746TMC3    C211021   1.132   4.685  10.708  0.0149  0.4987 -0.3987
  746TMC3    C311022   1.138   4.575  10.626 -0.2789 -0.2780  0.2107
  746TMC3    C411023   0.935   4.597  10.802 -0.1564 -0.4455 -0.3154
  746TMC3    C511024   0.943   4.492  10.718  0.5814  0.1691  0.0801
  746TMC3    C611025   1.048   4.474  10.627  0.0180  0.4339 -0.5790
  746TMC3     C11026   1.020   0.085  10.877  0.8193  0.2210 -0.8481
  746TMC3     O11027   1.006   0.077  10.998 -0.5150 -0.1872 -0.1436
  746TMC3     H11028   1.214   0.034  10.715  1.9868 -1.9399  1.1030
  746TMC3    H111029   0.851   4.601  10.870 -0.5851 -0.8370 -0.8207
  746TMC3    H211030   1.054   4.392  10.556  0.8476 -0.0905  0.0923
  746TMC3    C711031   0.867   4.374  10.747  0.1144 -0.1925  0.2373
  746TMC3    C811032   1.265   4.541  10.562 -0.3613  0.0212  0.0692
  746TMC3    O111033   0.765   4.394  10.807  0.0598 -0.6023  0.4552
  746TMC3    O211034   1.295   4.426  10.540  0.2310  0.4398 -0.0461
  747TMC3    C111035   3.702   4.514  10.899  0.5838 -0.3365 -0.3371
  747TMC3    C211036   3.646   4.403  10.958  0.1461  0.2082 -0.2489
  747TMC3    C311037   3.570   4.431  11.064  0.4755 -0.1973  0.5263
  747TMC3    C411038   3.697   4.642  10.951  0.3987  0.5149  0.7017
  747TMC3    C511039   3.625   4.653  11.067 -0.3815 -0.6813  0.0982
  747TMC3    C611040   3.558   4.555  11.130 -0.2329 -0.0458  0.1620
  747TMC3     C11041   3.799   4.497  10.794 -0.4308  0.0504  0.8632
  747TMC3     O11042   3.816   4.603  10.740  0.1047  0.3902  0.5322
  747TMC3     H11043   3.645   4.304  10.915 -1.2775  0.3455 -0.5107
  747TMC3    H111044   3.758   4.719  10.904 -0.7674  1.2251  0.3375
  747TMC3    H211045   3.505   4.570  11.223 -0.4918  2.5889 -0.4207
  747TMC3    C711046   3.621   0.057  11.136  0.5888 -0.7869  0.1347
  747TMC3    C811047   3.493   4.319  11.118  0.0645 -0.8587  0.6968
  747TMC3    O111048   3.616   0.048  11.257  0.2493  0.1868  0.2505
  747TMC3    O211049   3.532   4.207  11.097 -0.6744 -0.2644  0.0155
  748MPD2     C11050   4.083   0.830   2.372 -0.8513 -0.3180  0.0583
  748MPD2    C111051   4.154   0.713   2.400  0.2018 -0.2897 -0.7681
  748MPD2    C211052   4.282   0.699   2.359  0.4931 -0.4917 -0.0494
  748MPD2    C311053   4.340   0.807   2.288 -0.5404  0.5551 -0.1931
  748MPD2    C411054   4.274   0.924   2.276  1.1829  0.2480 -0.7675
  748MPD2    C511055   4.148   0.938   2.320  0.2511 -0.0816  0.0480
  748MPD2     H11056   4.328   0.603   2.381 -0.9065 -0.9910  0.6772
  748MPD2    H111057   4.317   1.006   2.220 -0.7522  1.6620 -0.1819
  748MPD2    H211058   3.978   0.839   2.399 -0.0252  2.4059  2.3947
  748MPD2    H311059   4.086   1.026   2.307  0.2795 -0.2662 -1.3260
  748MPD2     N11060   4.468   0.783   2.232 -0.0239  0.3773 -0.2444
  748MPD2    H511061   4.505   0.691   2.251  0.2450  0.0818 -2.1646
  748MPD2    N111062   4.078   0.616   2.472 -0.1645 -0.3890 -0.5068
  748MPD2    H711063   3.996   0.651   2.522  1.2473  3.0786 -0.5963
  749TMC3    C111064   4.680   0.821   2.123 -0.4083 -0.9054 -0.8182
  749TMC3    C211065   0.012   0.698   2.160 -0.4979 -0.3073 -0.3708
  749TMC3    C311066   0.144   0.667   2.134  0.5940  0.3186 -0.2939
  749TMC3    C411067   0.044   0.906   2.057  0.1414 -0.3761  0.8796
  749TMC3    C511068   0.173   0.876   2.039 -0.2091 -0.2400 -0.2857
  749TMC3    C611069   0.227   0.760   2.070 -0.3686  0.1131  0.3576
  749TMC3     C11070   4.552   0.874   2.168  0.1197 -0.4423 -0.4278
  749TMC3     O11071   4.519   0.984   2.128 -0.1267 -0.5263  0.4115
  749TMC3     H11072   4.678   0.617   2.206  0.1978 -0.9411 -0.6314
  749TMC3    H111073   0.014   1.003   2.019 -1.1920 -2.4972 -3.5171
  749TMC3    H211074   0.320   0.733   2.021 -0.9950  0.5542 -1.0680
  749TMC3    C711075   0.265   0.987   2.017  0.8771 -0.1238 -0.1165
  749TMC3    C811076   0.196   0.545   2.186  0.3202 -0.2467  0.9796
  749TMC3    O111077   0.215   1.101   2.002  0.0775  0.5196 -0.6892
  749TMC3    O211078   0.121   0.485   2.261 -0.1189 -0.0716 -0.3699
  750MPD2     C11079   1.539   1.908  11.202  0.2293  1.0295 -0.3602
  750MPD2    C111080   1.422   1.878  11.265 -0.2235 -0.3862  0.0450
  750MPD2    C211081   1.370   1.754  11.272 -0.2975 -0.4350 -0.0743
  750MPD2    C311082   1.443   1.653  11.210 -0.9903 -0.1595 -0.2419
  750MPD2    C411083   1.570   1.677  11.158 -0.5496 -0.1501  0.0947
  750MPD2    C511084   1.611   1.805  11.149  0.4280 -0.2851 -0.0457
  750MPD2     H11085   1.274   1.728  11.315 -0.1358 -0.9064 -0.0008
  750MPD2    H111086   1.639   1.601  11.123 -0.8369 -0.2143 -0.3320
  750MPD2    H211087   1.580   2.008  11.197  0.0981  1.0571 -0.9901
  750MPD2    H311088   1.702   1.832  11.097 -0.1851  1.5537 -0.1580
  750MPD2     N11089   1.393   1.516  11.205  0.5389 -0.7803 -0.0659
  750MPD2    H511090   1.452   1.443  11.166  1.6729 -0.5966  1.3126
  750MPD2    N111091   1.362   1.989  11.326  0.3920  0.0910  0.5936
  750MPD2    H711092   1.416   2.075  11.323 -1.2902  1.1997  2.7143
  751TMC3    C111093   1.273   1.318  11.252  0.6795  0.3681 -0.0313
  751TMC3    C211094   1.152   1.250  11.279 -0.1783 -0.2581  0.1931
  751TMC3    C311095   1.142   1.116  11.257 -0.2905 -0.2534 -0.0860
  751TMC3    C411096   1.359   1.245  11.175 -0.3086 -0.5335  0.0399
  751TMC3    C511097   1.362   1.106  11.174 -0.3496 -0.4657  0.2172
  751TMC3    C611098   1.248   1.042  11.225  0.3832 -0.1077  0.2916
  751TMC3     C11099   1.271   1.467  11.252  0.2404  0.5473 -0.0618
  751TMC3     O11100   1.174   1.519  11.301  0.3340  0.4308 -0.0142
  751TMC3     H11101   1.067   1.313  11.304 -0.8433 -1.4418  0.9339
  751TMC3    H111102   1.455   1.287  11.145  0.5313 -2.4611  0.0045
  751TMC3    H211103   1.239   0.934  11.218  0.3155 -0.1362  0.8854
  751TMC3    C711104   1.400   1.059  11.036 -0.5373  0.3658 -0.1238
  751TMC3    C811105   1.020   1.061  11.201  0.4627 -0.4330  0.7864
  751TMC3    O111106   1.484   1.121  10.975  0.4267  0.5657  0.0999
  751TMC3    O211107   1.037   1.007  11.093 -0.2479 -0.0107 -0.1169
  752TMC3    C111108   0.232   2.396   0.193 -0.4640  0.3418  0.0680
  752TMC3    C211109   0.176   2.365   0.317 -0.6480  0.6528 -0.1858
  752TMC3    C311110   0.171   2.474   0.406 -0.5862  0.2621  0.7055
  752TMC3    C411111   0.278   2.514   0.157 -0.2092 -0.7901 -0.3799
  752TMC3    C511112   0.255   2.618   0.244 -0.9388 -0.3654  0.1301
  752TMC3    C611113   0.213   2.602   0.372  0.1130  0.4506 -0.6121
  752TMC3     C11114   0.250   2.290   0.093 -0.1332 -0.2180  0.1775
  752TMC3     O11115   0.349   2.299   0.018 -0.4828  0.4273  0.2224
  752TMC3     H11116   0.156   2.265   0.352  1.4689  1.4152  3.1665
  752TMC3    H111117   0.315   2.516   0.055 -0.6054 -0.3234 -0.5115
  752TMC3    H211118   0.222   2.681   0.446 -2.7902 -0.9907  1.2790
  752TMC3    C711119   0.310   2.753   0.221  0.2067 -0.0865 -0.4530
  752TMC3    C811120   0.120   2.441   0.540  0.0071  0.2489 -0.7089
  752TMC3    O111121   0.327   2.833   0.315  0.2218 -0.1255  0.6460
  752TMC3    O211122   0.096   2.324   0.560  0.7439 -0.4666 -0.6946
  753TMC3    C111123   1.891   2.855  13.536  0.4226 -0.0750 -0.0249
  753TMC3    C211124   1.922   2.846  13.671  1.2679 -0.5940  0.4096
  753TMC3    C311125   1.865   2.745  13.737 -0.0950  0.6102  0.4547
  753TMC3    C411126   1.817   2.763  13.472 -0.2762 -0.0252  0.1176
  753TMC3    C511127   1.760   2.663  13.546 -0.7296 -0.0891  0.0244
  753TMC3    C611128   1.786   2.656  13.679  0.0497 -0.3087 -0.3291
  753TMC3     C11129   1.916   2.984  13.467 -0.4668  0.4017 -0.3201
  753TMC3     O11130   1.833   3.023  13.384  0.0164 -0.1744 -0.1746
  753TMC3     H11131   1.990   2.912  13.723  0.0747  2.7123 -2.2757
  753TMC3    H111132   1.805   2.784  13.366  2.5016 -2.0891 -0.6120
  753TMC3    H211133   1.745   2.580  13.745  0.7671  0.5096  1.0553
  753TMC3    C711134   1.663   2.556  13.491 -0.0717  0.5521  0.4576
  753TMC3    C811135   1.931   2.716  13.868 -0.1114 -0.0178 -0.7811
  753TMC3    O111136   1.654   2.549  13.370 -0.7275  0.0482 -0.0935
  753TMC3    O211137   1.944   2.594  13.893  0.9120 -0.0961  0.2247
  754MPD2     C11138   1.006   1.662  13.333 -0.1052  0.6157  0.0364
  754MPD2    C111139   0.990   1.526  13.338 -0.4695  0.4469  0.1203
  754MPD2    C211140   0.859   1.482  13.326  0.4392 -0.4354 -0.4577
  754MPD2    C311141   0.752   1.569  13.307 -0.3066  0.2420  0.3722
  754MPD2    C411142   0.781   1.704  13.298  0.4479  0.5684  1.3330
  754MPD2    C511143   0.906   1.753  13.307 -0.2560  0.3616 -0.2669
  754MPD2     H11144   0.838   1.376  13.324  1.6396 -0.6521 -1.2247
  754MPD2    H111145   0.701   1.776  13.283  0.1613  0.1950  1.0675
  754MPD2    H211146   1.109   1.696  13.343 -0.5028  2.0441 -0.7130
  754MPD2    H311147   0.941   1.855  13.295  0.0175  0.4599  1.2992
  754MPD2     N11148   0.614   1.530  13.304  1.1485 -0.2229  0.2886
  754MPD2    H511149   0.545   1.581  13.250 -0.1977 -1.2591  1.0376
  754MPD2    N111150   1.102   1.440  13.361  0.1590 -0.0565  0.0286
  754MPD2    H711151   1.185   1.484  13.324 -1.2940  1.7442 -1.1254
  755MPD2     C11152   4.616   2.008  13.341 -0.4207  1.1208 -0.2611
  755MPD2    C111153   4.590   1.909  13.433  0.9044 -0.0259  0.2702
  755MPD2    C211154   4.659   1.791  13.419 -0.3413  0.0422  0.4643
  755MPD2    C311155   0.042   1.771  13.326 -0.2695 -0.1377 -0.0407
  755MPD2    C411156   0.063   1.879  13.247  0.4963 -0.9544  0.1735
  755MPD2    C511157   4.715   1.991  13.255 -0.1813  0.5014  0.3534
  755MPD2     H11158   4.649   1.716  13.497 -0.0290  0.2123  0.6713
  755MPD2    H111159   0.145   1.879  13.176  0.6478 -0.5694  0.3471
  755MPD2    H211160   4.565   2.103  13.345 -2.0240  0.2263  0.7690
  755MPD2    H311161   0.031   2.076  13.199  1.1476 -0.5867 -0.3822
  755MPD2     N11162   0.128   1.658  13.319  0.0917 -0.0039 -0.5103
  755MPD2    H511163   0.192   1.660  13.240  1.9581 -1.9658  0.9611
  755MPD2    N111164   4.509   1.924  13.550 -0.2720  0.0618  0.6632
  755MPD2    H711165   4.518   1.851  13.619 -2.6836 -0.8649  0.0076
  756MPD2     C11166   1.112   2.166   9.665 -0.1690 -0.6376 -0.0859
  756MPD2    C111167   1.186   2.093   9.752  0.1267 -0.2258 -0.1184
  756MPD2    C211168   1.171   1.954   9.758 -0.3141  0.2675  0.6499
  756MPD2    C311169   1.087   1.887   9.676 -0.4426  0.3317 -0.4552
  756MPD2    C411170   1.003   1.967   9.594  0.0488  0.5083 -0.4035
  756MPD2    C511171   1.017   2.103   9.586 -0.2493  0.8858  0.4675
  756MPD2     H11172   1.227   1.899   9.833 -0.0953 -0.2524  0.1033
  756MPD2    H111173   0.921   1.923   9.539  3.4048 -2.2068 -3.2587
  756MPD2    H211174   1.115   2.274   9.660 -0.5356 -0.6418 -0.3579
  756MPD2    H311175   0.945   2.164   9.534 -3.0327 -2.9695 -0.2048
  756MPD2     N11176   1.070   1.750   9.693 -1.2203 -0.7883 -0.4163
  756MPD2    H511177   1.106   1.716   9.781 -0.4877  0.1574 -0.3592
  756MPD2    N111178   1.276   2.147   9.837  0.8322  1.0397 -0.0144
  756MPD2    H711179   1.295   2.097   9.923 -0.8789 -2.2302 -1.5364
  757MPD2     C11180   0.484   0.866   9.365 -0.3303 -0.4607  0.5778
  757MPD2    C111181   0.611   0.813   9.402  0.8383  0.3001 -0.3167
  757MPD2    C211182   0.709   0.905   9.457 -0.7028 -0.1799  0.3741
  757MPD2    C311183   0.675   1.041   9.479 -0.0446  0.5534 -0.6937
  757MPD2    C411184   0.558   1.084   9.429  1.1294 -0.3813  0.2252
  757MPD2    C511185   0.465   0.995   9.374  0.1769 -0.1385 -0.3112
  757MPD2     H11186   0.803   0.867   9.496  0.7559  1.6720 -1.3183
  757MPD2    H111187   0.517   1.184   9.440  1.4835 -0.2603  0.4877
  757MPD2    H211188   0.403   0.801   9.336  0.0764 -0.2069 -1.0893
  757MPD2    H311189   0.368   1.036   9.346 -0.1553 -0.0581  0.9843
  757MPD2     N11190   0.770   1.124   9.542 -0.4427 -0.4981 -0.2077
  757MPD2    H511191   0.849   1.077   9.585  1.2450  1.6206 -1.0041
  757MPD2    N111192   0.627   0.676   9.408  0.6798 -0.4984 -0.0251
  757MPD2    H711193   0.541   0.624   9.396 -0.7422  1.9363 -0.4689
  758MPD2     C11194   0.638   1.085  16.352 -0.4322 -0.5214 -0.1489
  758MPD2    C111195   0.717   1.017  16.445  0.6940 -0.3884  0.5378
  758MPD2    C211196   0.708   1.058  16.574 -0.1628 -0.4092 -0.3699
  758MPD2    C311197   0.626   1.166  16.608 -0.5215 -0.1151 -0.3414
  758MPD2    C411198   0.557   1.238  16.513  0.6094  0.1148 -0.1043
  758MPD2    C511199   0.567   1.206  16.385  0.6674  0.0710 -0.0369
  758MPD2     H11200   0.758   0.999  16.650 -1.5538 -0.4203  0.5330
  758MPD2    H111201   0.497   1.324  16.540  0.6754  0.4496 -1.0409
  758MPD2    H211202   0.651   1.063  16.247 -1.2374 -0.4544 -0.2616
  758MPD2    H311203   0.533   1.273  16.307  1.3510 -1.7253 -1.8932
  758MPD2     N11204   0.623   1.215  16.738 -1.1114  0.0714 -0.1053
  758MPD2    H511205   0.550   1.281  16.763 -0.0448  1.1882  0.0626
  758MPD2    N111206   0.790   0.892  16.419  0.3036 -0.4727  0.1193
  758MPD2    H711207   0.778   0.841  16.332  0.2807  2.6836 -1.7267
  759MPD2     C11208   4.330   4.011  10.713 -0.0685  0.2833 -0.2037
  759MPD2    C111209   4.375   3.946  10.602  0.3582 -0.2055 -0.0809
  759MPD2    C211210   4.410   4.010  10.485  0.1790 -0.4749 -0.4732
  759MPD2    C311211   4.406   4.148  10.482 -0.2335 -0.1680  0.5962
  759MPD2    C411212   4.354   4.209  10.594  0.3373  0.5631 -0.0538
  759MPD2    C511213   4.309   4.145  10.707 -0.6359 -0.8676  0.0206
  759MPD2     H11214   4.460   3.962  10.402  0.7112  1.5607 -1.3195
  759MPD2    H111215   4.340   4.317  10.590 -1.4191  0.2957 -1.0481
  759MPD2    H211216   4.303   3.966  10.808 -1.0628  1.1535 -0.0747
  759MPD2    H311217   4.289   4.200  10.798 -0.0400  1.4135 -1.1961
  759MPD2     N11218   4.445   4.211  10.363 -0.6626  0.2889  0.5093
  759MPD2    H511219   4.487   4.162  10.285  0.6444  0.3971  1.1478
  759MPD2    N111220   4.387   3.808  10.594  0.0722  0.7593 -0.0535
  759MPD2    H711221   4.423   3.767  10.509 -2.5174 -1.0974 -0.2775
  760MPD2     C11222   3.794   1.755  12.031  0.2260  0.1023 -0.0204
  760MPD2    C111223   3.908   1.754  11.953  0.3612 -0.4345 -0.6097
  760MPD2    C211224   3.950   1.629  11.904 -0.0259  0.2562 -0.1665
  760MPD2    C311225   3.879   1.511  11.946 -1.0275 -0.1893  0.2426
  760MPD2    C411226   3.761   1.526  12.021  0.5708  0.0575  0.1188
  760MPD2    C511227   3.715   1.645  12.066  0.1198 -0.0480  0.1156
  760MPD2     H11228   4.040   1.618  11.845  0.2761  0.4940  0.2480
  760MPD2    H111229   3.706   1.439  12.054  0.9231 -0.1557  0.1396
  760MPD2    H211230   3.774   1.849  12.082  0.0165 -0.3258  0.6952
  760MPD2    H311231   3.625   1.655  12.126 -0.2324  2.0409 -0.7447
  760MPD2     N11232   3.928   1.377  11.931 -0.1063 -0.1216 -0.6477
  760MPD2    H511233   3.869   1.308  11.977 -0.3471  0.6899  0.2623
  760MPD2    N111234   3.972   1.881  11.948 -0.4916 -0.1758 -0.1898
  760MPD2    H711235   3.929   1.953  12.004  0.7155 -0.6638  1.3541
  761MPD2     C11236   0.545   0.884  11.228 -0.1594 -0.6792 -0.6540
  761MPD2    C111237   0.636   0.880  11.126  0.8311  0.6088 -0.5991
  761MPD2    C211238   0.750   0.958  11.138  0.5238  0.0996  0.3836
  761MPD2    C311239   0.776   1.029  11.254 -0.5823  0.1593  0.4579
  761MPD2    C411240   0.678   1.039  11.352  0.1389  0.1083 -0.2031
  761MPD2    C511241   0.564   0.970  11.338 -0.6184  0.3969 -0.3429
  761MPD2     H11242   0.831   0.944  11.068  0.9433  1.0427  0.6806
  761MPD2    H111243   0.691   1.102  11.439  2.0601 -1.9076  0.9534
  761MPD2    H211244   0.448   0.836  11.224  0.4848 -2.0494  0.2343
  761MPD2    H311245   0.482   0.984  11.407  0.2811 -2.0781  1.2195
  761MPD2     N11246   0.908   1.085  11.277 -0.1380  0.1817  0.5243
  761MPD2    H511247   0.917   1.142  11.361 -2.7707  0.0580  0.9013
  761MPD2    N111248   0.630   0.793  11.020 -0.5655  0.0292  0.3155
  761MPD2    H711249   0.578   0.707  11.030  1.0977 -0.6045  3.6796
  762MPD2     C11250   0.922   0.916  10.292 -0.0182  0.0558 -0.4454
  762MPD2    C111251   0.943   0.789  10.339 -0.5013 -0.1349 -0.0032
  762MPD2    C211252   1.050   0.720  10.288 -0.0370 -1.1464 -0.5633
  762MPD2    C311253   1.137   0.772  10.195  0.2143  0.0733 -0.2191
  762MPD2    C411254   1.117   0.901  10.151 -0.1146 -0.7888  0.4838
  762MPD2    C511255   1.011   0.971  10.204  0.5610  1.0077  0.1695
  762MPD2     H11256   1.059   0.613  10.305  0.2851 -1.1222 -0.5745
  762MPD2    H111257   1.185   0.957  10.088 -2.0405  1.5726  0.5309
  762MPD2    H211258   0.836   0.976  10.319  1.6399  0.6319  3.6269
  762MPD2    H311259   0.993   1.067  10.158 -0.2173  1.8038  2.1795
  762MPD2     N11260   1.246   0.686  10.154  0.4277  0.2767 -0.0912
  762MPD2    H511261   1.242   0.595  10.200  2.8825 -0.3166 -1.0753
  762MPD2    N111262   0.858   0.735  10.437 -0.0505  0.0185 -0.1427
  762MPD2    H711263   0.782   0.795  10.466  1.8244  1.5436  1.5543
  763MPD2     C11264   2.017   1.079  16.586  0.2434 -0.6284 -0.0864
  763MPD2    C111265   2.089   1.161  16.509 -1.3331 -0.1552 -0.5733
  763MPD2    C211266   2.162   1.253  16.573 -0.4882 -0.3593  0.0325
  763MPD2    C311267   2.156   1.276  16.711  0.3742  0.5786  0.1749
  763MPD2    C411268   2.063   1.202  16.787  1.0933 -0.1522  0.0522
  763MPD2    C511269   1.991   1.106  16.722  0.3063 -0.4349 -0.2289
  763MPD2     H11270   2.231   1.315  16.517 -1.8065  0.6368 -0.4689
  763MPD2    H111271   2.059   1.200  16.895  0.5419 -1.6156  0.0034
  763MPD2    H211272   1.964   0.997  16.539  0.3952 -0.5347 -0.4222
  763MPD2    H311273   1.941   1.028  16.779  0.7516 -0.8730 -0.4332
  763MPD2     N11274   2.243   1.371  16.762  0.4410  0.1712  0.5384
  763MPD2    H511275   2.303   1.419  16.696  0.8329 -0.8510  0.1619
  763MPD2    N111276   2.102   1.153  16.364  0.0850 -0.0754 -0.6358
  763MPD2    H711277   2.155   1.223  16.313  1.5140 -1.1396 -0.6429
  764MPD2     C11278   0.817   3.116  17.660  0.2414 -0.3123  0.0102
  764MPD2    C111279   0.719   3.203  17.634  0.4615 -0.3915  0.3771
  764MPD2    C211280   0.640   3.248   0.051 -0.5608  0.0266  0.2040
  764MPD2    C311281   0.663   3.204   0.181  0.5846  0.3175 -0.3217
  764MPD2    C411282   0.766   3.115   0.202  0.7074  0.0347 -0.3607
  764MPD2    C511283   0.842   3.071   0.099  0.0329  0.0878  0.4993
  764MPD2     H11284   0.571   3.325   0.018 -0.0751  0.6304  0.5890
  764MPD2    H111285   0.790   3.076   0.300  0.9677 -0.6948 -0.7174
  764MPD2    H211286   0.890   3.076  17.590  0.2627  1.2788 -0.8757
  764MPD2    H311287   0.916   2.994   0.114 -2.3288 -2.2942 -0.0178
  764MPD2     N11288   0.570   3.239   0.281 -0.3418 -0.5184  0.4735
  764MPD2    H511289   0.501   3.307   0.250 -0.2378 -0.1967  0.9439
  764MPD2    N111290   0.691   3.253  17.502  0.0015  0.1013  0.1089
  764MPD2    H711291   0.617   3.322  17.496 -0.2016 -0.1156  0.1551
  765MPD2     C11292   0.239   0.498  16.304  0.4163  0.1452  0.5165
  765MPD2    C111293   0.303   0.572  16.206 -0.1575 -0.0780 -0.3755
  765MPD2    C211294   0.387   0.506  16.116  0.4009 -0.5518 -0.4212
  765MPD2    C311295   0.413   0.370  16.127  0.1848  0.6156  0.2555
  765MPD2    C411296   0.350   0.296  16.228  0.0282 -0.1694  0.5566
  765MPD2    C511297   0.264   0.355  16.314  0.2964  0.1326  0.1932
  765MPD2     H11298   0.443   0.565  16.045  3.1191  1.3241  3.2889
  765MPD2    H111299   0.376   0.194  16.253 -0.2527  0.1522  2.1980
  765MPD2    H211300   0.166   0.543  16.371  0.0025  2.1792 -1.3353
  765MPD2    H311301   0.228   0.294  16.397  1.8721 -1.9749 -0.6953
  765MPD2     N11302   0.501   0.309  16.033  0.8264 -0.3311 -1.0213
  765MPD2    H511303   0.547   0.371  15.967  1.0748 -2.6141 -3.0018
  765MPD2    N111304   0.268   0.713  16.192 -0.4058 -0.4145  0.3633
  765MPD2    H711305   0.188   0.740  16.248 -1.1505 -0.2035 -0.7851
  766MPD2     C11306   4.512   0.830  15.639  0.5994 -0.2665  0.2236
  766MPD2    C111307   4.635   0.887  15.630 -0.8131 -0.2565 -0.4601
  766MPD2    C211308   4.703   0.879  15.506  0.2777  0.2745 -0.2236
  766MPD2    C311309   4.644   0.834  15.391 -0.3410  0.3651  0.3507
  766MPD2    C411310   4.518   0.778  15.407 -0.9664  0.5005 -0.0992
  766MPD2    C511311   4.455   0.773  15.533  0.0479 -0.3652 -0.1878
  766MPD2     H11312   0.087   0.901  15.510  0.7296 -1.5636 -1.7591
  766MPD2    H111313   4.466   0.739  15.320 -0.8748 -1.5250  0.7345
  766MPD2    H211314   4.455   0.815  15.731 -0.7989 -0.1137 -0.6120
  766MPD2    H311315   4.357   0.727  15.533 -0.9242  1.6847 -2.0998
  766MPD2     N11316   4.709   0.817  15.263  0.0418 -0.1326 -0.2922
  766MPD2    H511317   4.657   0.791  15.179  0.3193 -0.6980 -0.2860
  766MPD2    N111318   4.700   0.952  15.736  0.1016 -0.0595  0.6218
  766MPD2    H711319   0.048   1.024  15.719  0.5155 -0.2563  1.5002
  767MPD2     C11320   4.281   1.010  15.241 -0.2927 -0.0840 -0.2241
  767MPD2    C111321   4.400   1.045  15.178  0.2629 -0.4259  0.0536
  767MPD2    C211322   4.416   1.008  15.044  0.2577 -0.6733 -0.5417
  767MPD2    C311323   4.316   0.933  14.974  0.2441  0.1830 -0.3496
  767MPD2    C411324   4.189   0.925  15.030 -1.1085 -0.7649  0.1169
  767MPD2    C511325   4.176   0.952  15.168 -0.0883  0.8310  0.2244
  767MPD2     H11326   4.510   1.031  14.996  0.0652  1.7542  0.2456
  767MPD2    H111327   4.104   0.874  14.987 -1.6304  1.4150 -1.4339
  767MPD2    H211328   4.263   1.018  15.348 -0.4493  0.0858 -0.2643
  767MPD2    H311329   4.080   0.931  15.214  0.6037 -2.0369  0.3911
  767MPD2     N11330   4.334   0.878  14.845 -0.8670 -0.3096 -0.3949
  767MPD2    H511331   4.432   0.878  14.818 -0.7788 -1.1365 -0.0699
  767MPD2    N111332   4.490   1.125  15.249  0.1910  1.1389 -0.4855
  767MPD2    H711333   4.473   1.134  15.348 -3.1360 -1.2077 -0.7986
  768MPD2     C11334   0.376   3.802  11.568 -0.2145 -0.3135  0.6530
  768MPD2    C111335   0.454   3.817  11.455 -0.2445 -0.6670  0.4241
  768MPD2    C211336   0.589   3.804  11.479 -0.0319  0.1678 -0.3048
  768MPD2    C311337   0.641   3.772  11.606 -0.5142  0.3666 -0.6350
  768MPD2    C411338   0.557   3.760  11.710  0.0612 -0.0993  0.1349
  768MPD2    C511339   0.423   3.778  11.687  0.4508  0.1470  0.3130
  768MPD2     H11340   0.658   3.834  11.401  1.8291 -0.3388  1.1291
  768MPD2    H111341   0.593   3.746  11.811  3.3382 -0.4897 -1.1056
  768MPD2    H211342   0.269   3.820  11.555  0.3373  2.0727 -0.5598
  768MPD2    H311343   0.350   3.768  11.766 -0.6832 -1.5635 -0.9373
  768MPD2     N11344   0.780   3.742  11.631  0.2014  0.1500 -0.6441
  768MPD2    H511345   0.809   3.747  11.728  1.1734  1.7938 -1.0239
  768MPD2    N111346   0.413   3.836  11.322  0.5273 -0.2740  0.5071
  768MPD2    H711347   0.470   3.866  11.243  1.6880 -4.1409 -0.0886
  769MPD2     C11348   1.497   2.317  15.054 -0.0338  0.5155 -0.4548
  769MPD2    C111349   1.457   2.187  15.083 -0.9820  0.5142 -0.2984
  769MPD2    C211350   1.468   2.139  15.217  0.9232  0.3190 -0.0248
  769MPD2    C311351   1.510   2.223  15.317 -0.2452 -0.6387  0.1812
  769MPD2    C411352   1.561   2.348  15.286  0.0287 -0.0662 -0.2695
  769MPD2    C511353   1.545   2.397  15.156  0.3009 -0.4479 -0.0323
  769MPD2     H11354   1.441   2.040  15.252  0.5047  0.3164 -0.3600
  769MPD2    H111355   1.615   2.415  15.352  0.5075 -0.5936 -0.1271
  769MPD2    H211356   1.485   2.360  14.954 -2.0578 -0.7723 -0.7564
  769MPD2    H311357   1.570   2.500  15.130 -0.5886  0.1351  1.3932
  769MPD2     N11358   1.482   2.187  15.451 -0.0878  0.3536 -0.0236
  769MPD2    H511359   1.424   2.103  15.458  0.1425  0.2893  1.0177
  769MPD2    N111360   1.400   2.116  14.978 -0.1714 -0.6074  0.1289
  769MPD2    H711361   1.408   2.169  14.892 -0.8687 -0.3627  0.2153
  770MPD2     C11362   0.907   1.218  14.885  0.4044 -0.5185 -0.3355
  770MPD2    C111363   1.005   1.248  14.972 -0.5804 -0.3402  1.0353
  770MPD2    C211364   1.087   1.362  14.945  0.2175 -0.5333  0.1952
  770MPD2    C311365   1.071   1.437  14.838 -0.4460  0.4635  0.7719
  770MPD2    C411366   0.967   1.411  14.753 -0.4577 -0.1777 -0.3126
  770MPD2    C511367   0.879   1.305  14.780 -0.1932 -0.2309 -0.4205
  770MPD2     H11368   1.161   1.396  15.017  0.3267  2.6155 -1.4212
  770MPD2    H111369   0.943   1.470  14.665 -1.8405 -0.5672 -0.1922
  770MPD2    H211370   0.844   1.130  14.893  0.2834 -0.3425  0.6730
  770MPD2    H311371   0.788   1.284  14.724  0.3273 -1.9785 -0.6255
  770MPD2     N11372   1.158   1.545  14.828  0.3773  0.2727 -0.6182
  770MPD2    H511373   1.238   1.549  14.891 -0.8052  2.3766  0.7892
  770MPD2    N111374   1.030   1.161  15.083 -0.6711 -0.5237 -0.1470
  770MPD2    H711375   0.967   1.081  15.090 -1.3336  0.0341  0.3198
  771MPD2     C11376   2.693   4.508  13.658  0.1227 -0.3870  0.2711
  771MPD2    C111377   2.661   4.622  13.596  0.0452 -1.0476  0.1979
  771MPD2    C211378   2.630   4.620  13.459 -0.1876 -0.0603 -0.3809
  771MPD2    C311379   2.619   4.501  13.393  0.3467 -0.1290 -0.3209
  771MPD2    C411380   2.638   4.377  13.463  0.0015 -0.5049  0.1923
  771MPD2    C511381   2.675   4.387  13.595 -0.1558  0.0246 -0.0606
  771MPD2     H11382   2.608   4.718  13.418 -0.1674 -0.2923 -0.9541
  771MPD2    H111383   2.614   4.280  13.420  3.3322 -1.2446 -0.0332
  771MPD2    H211384   2.712   4.509  13.764  1.8707  0.2776 -0.0526
  771MPD2    H311385   2.676   4.291  13.645  0.2143  0.0187 -0.0770
  771MPD2     N11386   2.562   4.510  13.258  0.0276 -0.1196 -0.2563
  771MPD2    H511387   2.543   4.604  13.225  0.3508  0.0675  0.0819
  771MPD2    N111388   2.645   0.022  13.662 -0.1661  0.1667  0.0036
  771MPD2    H711389   2.631   0.104  13.604 -1.4752  1.0303  1.5244
  772MPD2     C11390   2.363   0.696  14.180 -0.2764  0.1753  0.2880
  772MPD2    C111391   2.287   0.614  14.110  1.0964 -0.5454  0.5156
  772MPD2    C211392   2.153   0.635  14.105 -0.6067  0.0952 -0.5894
  772MPD2    C311393   2.098   0.741  14.180  0.1356 -0.1039  0.0272
  772MPD2    C411394   2.178   0.822  14.258 -0.6891 -0.2204  0.1576
  772MPD2    C511395   2.311   0.798  14.256 -0.3040  0.5191 -0.3182
  772MPD2     H11396   2.083   0.570  14.053 -1.4775 -1.5216  2.5985
  772MPD2    H111397   2.134   0.905  14.312  1.9167  0.0500  1.8341
  772MPD2    H211398   2.471   0.683  14.181 -0.4155 -1.0647 -0.3298
  772MPD2    H311399   2.380   0.860  14.312 -0.9329 -0.6838  1.8148
  772MPD2     N11400   1.959   0.776  14.180  0.4233 -0.0505  0.1693
  772MPD2    H511401   1.933   0.854  14.240 -0.0293  0.5049 -0.7376
  772MPD2    N111402   2.332   0.507  14.028 -0.2291 -0.3561  0.2702
  772MPD2    H711403   2.262   0.466  13.967  0.9254  1.8282 -2.5339
  773MPD2     C11404   0.673   1.485   0.798  0.2763  0.2850 -0.7762
  773MPD2    C111405   0.788   1.432   0.741 -0.0882 -0.6144 -0.4522
  773MPD2    C211406   0.824   1.299   0.771 -0.6273 -0.0660  0.3627
  773MPD2    C311407   0.749   1.226   0.858 -0.6215  0.9308  0.6513
  773MPD2    C411408   0.644   1.291   0.926 -0.2405  0.3141 -0.1004
  773MPD2    C511409   0.604   1.412   0.890 -0.3390 -0.8860 -0.2589
  773MPD2     H11410   0.907   1.254   0.719  0.0347  1.3614  0.1865
  773MPD2    H111411   0.583   1.246   1.003 -1.0712  0.5240 -0.6360
  773MPD2    H211412   0.632   1.583   0.775 -0.4291 -0.2682 -1.8322
  773MPD2    H311413   0.510   1.450   0.930 -0.3997 -0.1790 -1.0841
  773MPD2     N11414   0.801   1.099   0.894  0.4505 -0.1906 -0.0431
  773MPD2    H511415   0.881   1.055   0.850  0.0072 -1.4801  0.4172
  773MPD2    N111416   0.861   1.512   0.642  0.1868  0.0554  0.5010
  773MPD2    H711417   0.932   1.470   0.583  0.3929  0.3851  0.5135
  774MPD2     C11418   0.693   0.425  13.635 -0.2271  0.4871 -0.4167
  774MPD2    C111419   0.610   0.522  13.692  0.8670  0.9638 -0.1412
  774MPD2    C211420   0.638   0.655  13.643  0.3687  0.0973  0.5787
  774MPD2    C311421   0.737   0.699  13.560 -0.2055 -0.5637  0.3573
  774MPD2    C411422   0.818   0.595  13.507 -0.2699  0.1365  0.4495
  774MPD2    C511423   0.787   0.471  13.544 -0.5851  0.7397 -0.3499
  774MPD2     H11424   0.575   0.724  13.698  1.2809  1.4931 -0.1436
  774MPD2    H111425   0.904   0.604  13.442 -1.3480 -3.3105 -1.4490
  774MPD2    H211426   0.698   0.319  13.660  0.4852  0.5374 -0.3507
  774MPD2    H311427   0.859   0.400  13.507 -1.2178 -0.3701  0.5281
  774MPD2     N11428   0.760   0.835  13.540 -0.0070 -0.0828 -0.0631
  774MPD2    H511429   0.686   0.895  13.575 -0.0579 -0.2117  0.0510
  774MPD2    N111430   0.519   0.485  13.792  0.0327  0.2497 -0.6304
  774MPD2    H711431   0.515   0.391  13.830  1.0261  0.8894  1.0461
  775MPD2     C11432   1.772   1.833  16.187 -0.6771 -0.3465 -0.0487
  775MPD2    C111433   1.764   1.943  16.267 -0.0903 -0.0309 -0.0363
  775MPD2    C211434   1.790   2.066  16.219 -0.4643  0.2702 -0.0993
  775MPD2    C311435   1.824   2.093  16.086  0.1924  0.9880  0.3583
  775MPD2    C411436   1.837   1.977  16.007 -0.8557 -0.6615 -0.6275
  775MPD2    C511437   1.812   1.853  16.058  0.0150  0.2382 -0.3666
  775MPD2     H11438   1.781   2.159  16.274  1.5546 -1.0765  2.4553
  775MPD2    H111439   1.858   1.977  15.901  1.5414  2.8711 -0.1440
  775MPD2    H211440   1.759   1.730  16.219 -1.0751 -0.4299 -0.4776
  775MPD2    H311441   1.826   1.763  15.999 -1.2427  1.1067 -1.9859
  775MPD2     N11442   1.855   2.220  16.031  0.3958 -0.1681  0.1821
  775MPD2    H511443   1.869   2.233  15.931  1.5789  1.8889  0.5957
  775MPD2    N111444   1.720   1.920  16.405 -0.3420 -0.4194  0.2044
  775MPD2    H711445   1.678   1.830  16.427 -1.0832  0.1056  0.9736
  776MPD2     C11446   1.581   2.321  11.992  0.2721 -0.2867  0.5999
  776MPD2    C111447   1.526   2.377  11.877 -0.2755 -0.7092  0.4523
  776MPD2    C211448   1.571   2.501  11.847  0.6968 -0.1013 -0.2638
  776MPD2    C311449   1.679   2.561  11.917 -0.8199  0.1137 -1.1896
  776MPD2    C411450   1.740   2.496  12.018 -0.1477 -0.1558  0.5926
  776MPD2    C511451   1.683   2.376  12.060 -0.3038 -0.5612  0.0991
  776MPD2     H11452   1.523   2.560  11.770  1.6140  1.5049  0.3713
  776MPD2    H111453   1.819   2.539  12.078 -0.4900 -1.8470  2.2410
  776MPD2    H211454   1.564   2.218  12.021  0.3535 -0.2229  0.8759
  776MPD2    H311455   1.726   2.324  12.145  0.1713  1.0463  0.8644
  776MPD2     N11456   1.723   2.698  11.896  0.0768  0.3886 -0.5677
  776MPD2    H511457   1.803   2.724  11.953 -1.1972 -0.6642  1.7338
  776MPD2    N111458   1.429   2.318  11.802 -0.4347  0.2706 -0.3229
  776MPD2    H711459   1.389   2.231  11.837  0.5022 -1.3909 -3.3843
  777MPD2     C11460   0.651   0.188   1.227 -0.0562  0.1107  0.2994
  777MPD2    C111461   0.676   0.071   1.294 -0.3069 -0.2235 -0.3423
  777MPD2    C211462   0.682   4.678   1.218 -0.8054 -0.0205 -0.3727
  777MPD2    C311463   0.648   4.669   1.082  0.3500  0.4751  0.4009
  777MPD2    C411464   0.623   0.062   1.019 -0.3459 -0.2318 -0.3743
  777MPD2    C511465   0.631   0.176   1.094  0.1848 -0.2747 -0.0284
  777MPD2     H11466   0.705   4.583   1.266  1.3034  2.2022  2.9908
  777MPD2    H111467   0.603   0.069   0.913 -0.8773 -0.6968 -0.3064
  777MPD2    H211468   0.647   0.285   1.274 -0.4671  0.1002  0.2822
  777MPD2    H311469   0.622   0.269   1.039  0.1217 -0.4071 -0.2426
  777MPD2     N11470   0.653   4.546   1.019 -0.5817 -0.7266  0.6476
  777MPD2    H511471   0.672   4.465   1.078  3.9993 -1.0928 -1.3481
  777MPD2    N111472   0.711   0.086   1.433  1.0304  0.8879  0.5518
  777MPD2    H711473   0.722   0.184   1.453 -1.4519  1.7173 -2.1142
  778MPD2     C11474   2.378   0.350  14.981  0.2324 -0.0998 -0.1131
  778MPD2    C111475   2.458   0.262  14.904  0.3536  0.2705 -0.0334
  778MPD2    C211476   2.560   0.315  14.830  0.1697 -0.1518 -0.0921
  778MPD2    C311477   2.593   0.449  14.835  0.3381  0.8349  0.6177
  778MPD2    C411478   2.526   0.533  14.917 -0.2256  0.2791  0.1558
  778MPD2    C511479   2.419   0.481  14.984  0.1251 -0.0490 -0.1229
  778MPD2     H11480   2.616   0.254  14.759  1.4055  0.4699  0.3517
  778MPD2    H111481   2.545   0.639  14.928  0.0385  0.5712 -3.2755
  778MPD2    H211482   2.287   0.316  15.030  1.2483 -2.0774  0.4206
  778MPD2    H311483   2.359   0.555  15.037 -1.0297 -1.9937  1.3006
  778MPD2     N11484   2.712   0.485  14.763 -0.4164 -0.6859  0.1749
  778MPD2    H511485   2.745   0.419  14.693 -2.1975  0.2328 -1.5372
  778MPD2    N111486   2.434   0.122  14.912  0.1095 -0.2148  0.2161
  778MPD2    H711487   2.495   0.066  14.853  1.4210  2.7642 -1.2631
  779MPD2     C11488   2.190   3.799  13.935  0.1875 -0.2728 -0.8868
  779MPD2    C111489   2.198   3.828  14.073  0.0543 -0.2141 -1.3568
  779MPD2    C211490   2.268   3.948  14.109  0.8109 -0.2810  0.2667
  779MPD2    C311491   2.307   4.038  14.014 -0.3410 -0.2449  0.0894
  779MPD2    C411492   2.265   4.021  13.885 -0.4793  0.1532  0.4202
  779MPD2    C511493   2.219   3.900  13.844  0.3173 -0.1539 -0.0382
  779MPD2     H11494   2.282   3.962  14.216  0.1342  0.0103  0.3155
  779MPD2    H111495   2.275   4.103  13.815  0.1984 -0.8047 -0.6074
  779MPD2    H211496   2.146   3.704  13.909 -1.7804 -0.3353  2.7313
  779MPD2    H311497   2.188   3.888  13.741  1.2704  1.7625 -0.5468
  779MPD2     N11498   2.366   4.158  14.061  0.0093  0.2157 -0.4823
  779MPD2    H511499   2.373   4.176  14.161 -2.2353 -0.6778 -0.1702
  779MPD2    N111500   2.164   3.740  14.175 -0.1509 -0.1879 -0.1005
  779MPD2    H711501   2.182   3.767  14.271  1.1411 -1.9395  0.1494
  780MPD2     C11502   1.095   3.807   1.414  0.0008 -0.1174  0.3803
  780MPD2    C111503   1.037   3.717   1.335 -0.1472 -0.0276 -0.0069
  780MPD2    C211504   1.055   3.734   1.198 -0.0584  0.5098  0.0167
  780MPD2    C311505   1.112   3.845   1.143 -0.1251  0.4742  0.0988
  780MPD2    C411506   1.163   3.934   1.235  0.8947 -0.2535 -0.4223
  780MPD2    C511507   1.162   3.914   1.367  0.1264  0.3328 -0.4990
  780MPD2     H11508   1.005   3.663   1.133 -0.8020  1.0102  0.0313
  780MPD2    H111509   1.206   4.024   1.191 -1.0639  0.3260 -1.1530
  780MPD2    H211510   1.075   3.807   1.521  0.5200 -1.8649  0.4817
  780MPD2    H311511   1.206   3.990   1.431  0.6062 -0.1377 -0.2728
  780MPD2     N11512   1.113   3.874   1.003  0.6101 -0.0220  0.2358
  780MPD2    H511513   1.079   3.793   0.951  1.1412  0.0970 -0.2971
  780MPD2    N111514   0.983   3.602   1.399 -0.3254 -0.0335 -0.6399
  780MPD2    H711515   0.994   3.594   1.500 -0.7106  1.1065 -0.5108
  781MPD2     C11516   3.587   1.151  12.061  0.3578  0.5883 -0.0660
  781MPD2    C111517   3.621   1.030  12.107 -0.1121  0.3971  0.1774
  781MPD2    C211518   3.687   0.938  12.028 -0.3211  0.2006  0.0136
  781MPD2    C311519   3.735   0.984  11.902  0.1520  0.4115 -0.4371
  781MPD2    C411520   3.708   1.110  11.860 -0.9379  0.4720 -0.3048
  781MPD2    C511521   3.635   1.190  11.936  0.8855 -0.0871 -0.7385
  781MPD2     H11522   3.704   0.839  12.069 -1.3443  0.0518  0.0865
  781MPD2    H111523   3.744   1.141  11.762  1.2886  0.5651  0.5419
  781MPD2    H211524   3.525   1.224  12.112 -1.2289 -1.0637  0.3717
  781MPD2    H311525   3.612   1.285  11.888  5.4420  0.8890 -0.9430
  781MPD2     N11526   3.809   0.908  11.809 -0.0212  0.3177  0.2073
  781MPD2    H511527   3.817   0.945  11.715 -3.0538 -3.3600 -1.5038
  781MPD2    N111528   3.588   0.985  12.231  0.4077  0.6076 -0.1408
  781MPD2    H711529   3.604   0.885  12.244 -1.1868  0.3991  0.2128
  782MPD2     C11530   1.983   1.133  10.019  0.2973  0.3796 -0.0947
  782MPD2    C111531   1.996   1.107  10.149 -0.0993 -0.1958  0.7856
  782MPD2    C211532   2.067   1.194  10.231 -0.2211 -0.5415 -0.1603
  782MPD2    C311533   2.144   1.294  10.178  0.9992 -0.3690  1.0544
  782MPD2    C411534   2.122   1.325  10.044  0.0811  0.5670  0.1228
  782MPD2    C511535   2.048   1.240   9.965 -0.2656  0.3700  0.1267
  782MPD2     H11536   2.077   1.174  10.337 -1.5423 -2.5365 -0.4100
  782MPD2    H111537   2.175   1.410  10.002  1.5117 -0.3153  0.1201
  782MPD2    H211538   1.918   1.077   9.953  0.4933  0.1505 -0.0928
  782MPD2    H311539   2.042   1.264   9.860  1.8714 -0.0890 -0.1007
  782MPD2     N11540   2.223   1.371  10.258  1.0015 -0.1712  0.5200
  782MPD2    H511541   2.272   1.448  10.213 -0.6234  0.0645 -0.8351
  782MPD2    N111542   1.950   0.983  10.193 -0.3837  0.5037  0.4663
  782MPD2    H711543   1.885   0.935  10.132  3.5209 -1.0379 -2.5001
  783MPD2     C11544   1.179   0.944  10.774  0.1742 -0.1365 -0.7733
  783MPD2    C111545   1.298   0.961  10.838 -0.4472  0.3649  0.1990
  783MPD2    C211546   1.412   0.945  10.757 -0.4155 -0.4069  0.4338
  783MPD2    C311547   1.414   0.901  10.626 -0.3071  0.5446  0.9169
  783MPD2    C411548   1.292   0.898  10.563 -0.1794 -0.5381  0.1687
  783MPD2    C511549   1.178   0.910  10.642 -0.2469  0.1175 -0.1108
  783MPD2     H11550   1.510   0.947  10.803 -0.9443 -0.1031  1.5279
  783MPD2    H111551   1.279   0.871  10.459  2.0395 -1.2844  0.0816
  783MPD2    H211552   1.083   0.961  10.821  2.5558 -0.0380  4.1056
  783MPD2    H311553   1.081   0.882  10.605  0.2741  0.4348 -1.7432
  783MPD2     N11554   1.541   0.850  10.576  0.0572  0.0782  0.3494
  783MPD2    H511555   1.623   0.854  10.637  0.6104 -0.0727 -0.3825
  783MPD2    N111556   1.294   0.999  10.975  0.4548  0.0981  0.4907
  783MPD2    H711557   1.208   0.998  11.029  0.9348  1.2819  1.2922
  784MPD2     C11558   3.931   1.811   1.079 -0.2423 -0.7790 -0.2705
  784MPD2    C111559   3.969   1.944   1.081 -0.6534  0.0697 -0.5434
  784MPD2    C211560   3.879   2.042   1.045 -0.8519  0.8923 -0.1746
  784MPD2    C311561   3.765   2.008   0.983  0.4784  0.7148  0.3882
  784MPD2    C411562   3.736   1.876   0.968  0.2693  0.2257  0.2152
  784MPD2    C511563   3.814   1.781   1.023 -0.2089  0.9078  0.2158
  784MPD2     H11564   3.898   2.148   1.060  2.0252  0.3395  0.1411
  784MPD2    H111565   3.643   1.839   0.926 -0.4037  1.5594  0.5227
  784MPD2    H211566   4.003   1.732   1.089  0.6532 -0.0666 -1.0612
  784MPD2    H311567   3.771   1.682   1.018 -0.5311  1.0905 -0.6677
  784MPD2     N11568   3.683   2.106   0.927 -0.2099 -0.1018 -0.0232
  784MPD2    H511569   3.712   2.203   0.937  0.5259 -0.4969  1.7663
  784MPD2    N111570   4.094   1.992   1.128 -0.4354  0.2514 -0.9021
  784MPD2    H711571   4.113   2.092   1.132  0.5243  0.0951 -1.6491
  785MPD2     C11572   4.390   0.373  10.959  0.2653 -0.2640 -0.1904
  785MPD2    C111573   4.421   0.491  10.893 -0.4140 -0.5235 -0.3403
  785MPD2    C211574   4.324   0.584  10.871  0.2524  0.1345  0.3301
  785MPD2    C311575   4.192   0.558  10.911  0.3311  0.0435  0.3913
  785MPD2    C411576   4.163   0.439  10.991  0.2018 -0.2787  0.3275
  785MPD2    C511577   4.262   0.350  11.014 -0.2807  0.2055 -0.0953
  785MPD2     H11578   4.339   0.681  10.826 -1.6261  0.4550  0.3965
  785MPD2    H111579   4.072   0.415  11.044 -0.5990  0.6080 -0.6351
  785MPD2    H211580   4.464   0.295  10.976  1.1378  0.2371 -1.7213
  785MPD2    H311581   4.244   0.253  11.060  1.5984 -0.4461 -0.7353
  785MPD2     N11582   4.101   0.660  10.891  0.1092  0.6460  0.3523
  785MPD2    H511583   4.128   0.742  10.837  1.1388 -0.0842 -0.2454
  785MPD2    N111584   4.551   0.509  10.835  0.0729 -0.6275  0.0826
  785MPD2    H711585   4.615   0.431  10.849  1.4984  0.4710 -0.4108
  786MPD2     C11586   2.956   3.309  14.642 -0.1528 -0.1356 -0.1702
  786MPD2    C111587   2.875   3.260  14.735  0.3410 -0.2852  0.0769
  786MPD2    C211588   2.916   3.255  14.866  0.1126  0.0280 -0.2298
  786MPD2    C311589   3.043   3.289  14.907  0.8113  0.3114  0.6152
  786MPD2    C411590   3.122   3.350  14.813 -0.2564 -0.3442 -0.2886
  786MPD2    C511591   3.075   3.361  14.686 -0.1689  0.1016 -0.3800
  786MPD2     H11592   2.844   3.211  14.935  0.1282 -0.6579 -0.6567
  786MPD2    H111593   3.218   3.393  14.841 -0.3185 -0.8351  0.6593
  786MPD2    H211594   2.923   3.327  14.540 -1.3085  1.7357  0.5323
  786MPD2    H311595   3.135   3.410  14.610  0.2527  1.8698  1.1066
  786MPD2     N11596   3.091   3.283  15.035  0.5316 -0.2305 -0.0365
  786MPD2    H511597   3.188   3.298  15.058  0.1036 -1.3926  2.5066
  786MPD2    N111598   2.756   3.190  14.708  0.2855 -0.2037 -0.4795
  786MPD2    H711599   2.699   3.164  14.788 -0.7383  0.8729 -0.8677
  787MPD2     C11600   2.534   2.825  15.203  0.2859 -0.3524  0.6770
  787MPD2    C111601   2.584   2.776  15.087  1.2531 -0.5979 -0.2935
  787MPD2    C211602   2.680   2.669  15.103 -0.6963  0.2891 -0.3746
  787MPD2    C311603   2.718   2.613  15.229  0.2512  0.1326  0.1124
  787MPD2    C411604   2.666   2.681  15.343  0.1311 -0.6301  0.1058
  787MPD2    C511605   2.574   2.787  15.327 -1.1490 -0.4690 -0.2744
  787MPD2     H11606   2.721   2.618  15.017  2.4830  1.2012  0.5989
  787MPD2    H111607   2.699   2.640  15.438  2.2685  0.3295 -0.2063
  787MPD2    H211608   2.469   2.911  15.195  0.1081 -0.5547 -0.0970
  787MPD2    H311609   2.523   2.831  15.412 -0.6786  0.8247 -0.6742
  787MPD2     N11610   2.813   2.513  15.220  0.3483 -0.1918  0.7822
  787MPD2    H511611   2.845   2.478  15.131  0.1563  1.9519 -0.1135
  787MPD2    N111612   2.537   2.815  14.958  0.7032 -0.0154  0.0559
  787MPD2    H711613   2.481   2.899  14.955  0.2134 -0.4108 -1.6386
  788MPD2     C11614   0.173   1.641   1.386  0.2175 -0.1264  0.1934
  788MPD2    C111615   0.054   1.580   1.351  0.1276  0.2067  0.3176
  788MPD2    C211616   4.709   1.638   1.245 -0.3922  0.4239 -0.2298
  788MPD2    C311617   0.031   1.751   1.172 -0.2085  0.1758  0.1716
  788MPD2    C411618   0.151   1.799   1.217  0.0255 -0.1906 -0.2263
  788MPD2    C511619   0.223   1.742   1.318 -0.3188  0.2961  0.1022
  788MPD2     H11620   4.617   1.591   1.213 -0.7411  0.5403  0.6183
  788MPD2    H111621   0.193   1.888   1.171 -0.5621  0.4487  0.4738
  788MPD2    H211622   0.233   1.597   1.464 -1.0716 -1.1247  0.6190
  788MPD2    H311623   0.316   1.785   1.353  0.1326 -0.2568 -0.4167
  788MPD2     N11624   4.682   1.807   1.063 -0.1621 -0.1664  0.1251
  788MPD2    H511625   0.000   1.886   1.014 -0.4746 -0.3856 -0.4831
  788MPD2    N111626   4.715   1.468   1.412  0.3893 -0.0200 -0.3637
  788MPD2    H711627   4.624   1.436   1.381  0.3360 -1.7987  1.6503
  789MPD2     C11628   0.362   1.178  17.224 -0.0523 -0.0792  0.8390
  789MPD2    C111629   0.266   1.148  17.126  0.4374  0.3085 -0.4798
  789MPD2    C211630   0.160   1.227  17.108  0.0060 -0.6814  0.2525
  789MPD2    C311631   0.133   1.337  17.195  0.8838  0.0511  0.3763
  789MPD2    C411632   0.221   1.362  17.297  0.7990 -0.3825 -0.7534
  789MPD2    C511633   0.336   1.287  17.307  0.3416  0.4127  0.2356
  789MPD2     H11634   0.096   1.198  17.025 -1.4316 -0.2498  1.2173
  789MPD2    H111635   0.196   1.446  17.361  1.8877 -0.7641  0.1792
  789MPD2    H211636   0.457   1.127  17.230 -0.6665 -1.3203 -0.1228
  789MPD2    H311637   0.412   1.312  17.381 -1.0711  2.5298  0.9989
  789MPD2     N11638   0.014   1.420  17.195 -0.0957 -0.0892  0.1480
  789MPD2    H511639   4.717   1.486  17.270  2.4765  0.6557  0.1395
  789MPD2    N111640   0.271   1.036  17.034  0.3862  0.3611 -0.1905
  789MPD2    H711641   0.209   1.027  16.954  0.8018 -0.6009 -0.4041
  790MPD2     C11642   1.032   2.822  13.847 -0.0555  0.1739  0.1338
  790MPD2    C111643   1.094   2.700  13.868  0.1948 -0.4530 -0.0378
  790MPD2    C211644   1.126   2.615  13.757  0.1140 -0.1645 -0.5070
  790MPD2    C311645   1.084   2.653  13.636 -0.1339 -0.0563  0.1111
  790MPD2    C411646   1.032   2.779  13.616  0.0147 -0.8635 -0.6946
  790MPD2    C511647   1.006   2.865  13.716 -0.0531  0.0081 -1.3041
  790MPD2     H11648   1.170   2.516  13.765  0.3336 -0.1031 -0.9664
  790MPD2    H111649   1.021   2.821  13.517  0.2620 -1.0793 -0.8125
  790MPD2    H211650   0.999   2.885  13.929 -0.1920  1.0476 -0.5902
  790MPD2    H311651   0.964   2.965  13.708  0.4996  0.6260  3.4978
  790MPD2     N11652   1.100   2.563  13.527 -0.3831 -0.0530  0.2144
  790MPD2    H511653   1.128   2.469  13.553 -0.3319 -0.1013 -0.0167
  790MPD2    N111654   1.115   2.655  14.000 -0.0208  0.5184  0.3260
  790MPD2    H711655   1.073   2.712  14.072 -2.0761 -0.4089 -0.1435
  791MPD2     C11656   0.583   2.643  12.917 -0.4757 -0.3358 -0.3830
  791MPD2    C111657   0.596   2.526  12.987 -0.0162  0.0615  0.3805
  791MPD2    C211658   0.491   2.433  12.977 -0.1446  1.0523  0.3447
  791MPD2    C311659   0.375   2.465  12.907 -0.2464  0.1278  0.2770
  791MPD2    C411660   0.364   2.581  12.832  0.1353  0.6079 -0.6231
  791MPD2    C511661   0.469   2.672  12.843 -0.1993  0.5514  0.4004
  791MPD2     H11662   0.498   2.339  13.029 -0.3560  1.0329  0.3371
  791MPD2    H111663   0.282   2.596  12.763  1.7466  1.9916 -2.2236
  791MPD2    H211664   0.659   2.719  12.928  0.6950 -1.7098  1.0066
  791MPD2    H311665   0.463   2.756  12.774 -1.2745  0.7027  0.6790
  791MPD2     N11666   0.276   2.361  12.903 -0.6517  0.3211  0.1093
  791MPD2    H511667   0.290   2.281  12.965  0.7459  0.7720  0.3878
  791MPD2    N111668   0.717   2.509  13.060 -0.5587 -0.2957  0.0370
  791MPD2    H711669   0.782   2.586  13.048  1.8531 -1.7449  3.8812
  792MPD2     C11670   2.214   2.196  11.633 -0.2749  0.6646 -0.2179
  792MPD2    C111671   2.079   2.220  11.598  0.5091  0.5230 -0.0881
  792MPD2    C211672   2.036   2.177  11.467 -0.3731 -0.5381 -0.0390
  792MPD2    C311673   2.124   2.132  11.367 -0.0862 -0.6965 -0.2125
  792MPD2    C411674   2.258   2.131  11.405 -0.1047  0.0279 -0.1333
  792MPD2    C511675   2.299   2.153  11.536  0.4688 -0.1140  0.5440
  792MPD2     H11676   1.933   2.185  11.434  0.1161 -0.6043 -1.5930
  792MPD2    H111677   2.328   2.103  11.327  0.1698  0.3736 -0.0102
  792MPD2    H211678   2.255   2.200  11.733 -2.4867 -1.9074  0.7822
  792MPD2    H311679   2.403   2.135  11.562  0.5252  0.1873  0.5274
  792MPD2     N11680   2.082   2.101  11.232  0.4962  0.8288 -0.1540
  792MPD2    H511681   2.151   2.110  11.158  0.5395 -0.4117 -0.2572
  792MPD2    N111682   2.008   2.277  11.693 -0.4115  0.4237  0.0037
  792MPD2    H711683   2.051   2.302  11.781  1.7735 -0.7551 -0.7256
  793MPD2     C11684   1.367   2.500  10.553 -0.0649 -0.3583  0.1576
  793MPD2    C111685   1.446   2.411  10.475  0.1038  0.1977  0.9261
  793MPD2    C211686   1.542   2.331  10.535  0.8669 -0.5285 -0.4060
  793MPD2    C311687   1.554   2.333  10.671 -0.0276  0.2513 -0.4025
  793MPD2    C411688   1.477   2.412  10.752 -0.1299  0.9595  0.5004
  793MPD2    C511689   1.385   2.497  10.692 -0.4918 -0.1974  0.2388
  793MPD2     H11690   1.608   2.268  10.476  0.3583 -1.1490 -0.3228
  793MPD2    H111691   1.491   2.417  10.859  0.6518 -1.2395  0.5130
  793MPD2    H211692   1.313   2.580  10.503  1.9375  0.4829 -0.6739
  793MPD2    H311693   1.316   2.554  10.754 -2.3133 -1.9753 -0.1424
  793MPD2     N11694   1.653   2.249  10.726  0.6114  0.1247 -0.4746
  793MPD2    H511695   1.707   2.197  10.657  1.2440  0.7165 -0.4285
  793MPD2    N111696   1.448   2.441  10.333  0.1167  0.4642  0.9419
  793MPD2    H711697   1.400   2.524  10.300  0.1063 -0.4639 -1.3794
  794MPD2     C11698   0.954   2.218   0.105  0.1103  0.1973 -0.4464
  794MPD2    C111699   0.959   2.095   0.048  0.0140 -0.0455  0.3585
  794MPD2    C211700   0.962   2.096  17.599 -0.4518  0.2816  0.0578
  794MPD2    C311701   0.953   2.218  17.530  0.5584 -1.1527  0.3277
  794MPD2    C411702   0.934   2.334  17.596 -0.4043 -0.4538  0.7700
  794MPD2    C511703   0.929   2.332   0.041 -0.2352  0.5343 -0.1356
  794MPD2     H11704   0.960   1.997  17.555 -1.8197  1.2540 -2.0366
  794MPD2    H111705   0.914   2.427  17.545 -0.7476 -0.3970  1.0043
  794MPD2    H211706   0.933   2.228   0.211 -1.8751  0.0120 -0.8132
  794MPD2    H311707   0.899   2.424   0.091 -0.1345  0.9929 -0.9193
  794MPD2     N11708   0.944   2.232  17.388  0.0255  0.2325  0.0453
  794MPD2    H511709   0.928   2.324  17.347  0.9680 -0.1587 -1.2213
  794MPD2    N111710   0.935   1.972   0.110 -0.0645 -0.2481 -0.0628
  794MPD2    H711711   0.938   1.894   0.045 -3.7074  1.9632 -2.8425
  795MPD2     C11712   3.898   3.935  12.786 -0.4283  0.0623  0.0482
  795MPD2    C111713   3.838   3.863  12.889 -0.1832  0.2318  0.3955
  795MPD2    C211714   3.915   3.826  12.995  0.6403 -0.3845  0.2838
  795MPD2    C311715   4.056   3.836  12.987  0.1263 -0.2614 -0.2993
  795MPD2    C411716   4.118   3.900  12.885  0.5635 -1.0355  0.4851
  795MPD2    C511717   4.033   3.956  12.790  0.0125  0.1509  0.1739
  795MPD2     H11718   3.873   3.788  13.087  1.1559 -2.8769 -0.5285
  795MPD2    H111719   4.225   3.908  12.871 -0.0760  2.0217 -2.8767
  795MPD2    H211720   3.847   3.961  12.694 -1.3701  1.8649  1.0822
  795MPD2    H311721   4.078   4.009  12.707 -1.2024 -2.7336 -2.3442
  795MPD2     N11722   4.131   3.784  13.090 -0.2681 -0.1237 -0.3843
  795MPD2    H511723   4.085   3.718  13.152 -1.5918  1.6176  0.4855
  795MPD2    N111724   3.701   3.836  12.906  0.0695 -0.5034  0.3343
  795MPD2    H711725   3.676   3.791  12.993  0.0719 -0.1374  0.5240
  796MPD2     C11726   2.456   0.503  16.189  0.8092  0.2962 -0.5557
  796MPD2    C111727   2.541   0.579  16.266  0.4735  0.9214 -0.3615
  796MPD2    C211728   2.574   0.706  16.233 -0.0674  0.1775 -0.3447
  796MPD2    C311729   2.533   0.757  16.113  0.1754  1.4132  0.1503
  796MPD2    C411730   2.451   0.674  16.035 -0.3254  0.0964 -0.0360
  796MPD2    C511731   2.410   0.555  16.073  0.1909  0.1254  0.6988
  796MPD2     H11732   2.648   0.764  16.288 -0.5117 -1.1737  1.6830
  796MPD2    H111733   2.401   0.717  15.949 -0.9106  0.9388  0.7149
  796MPD2    H211734   2.426   0.404  16.220  0.6161  0.5441  0.0468
  796MPD2    H311735   2.329   0.516  16.013  0.3116 -1.4372  1.5432
  796MPD2     N11736   2.567   0.889  16.071  0.3542  0.1751 -0.5589
  796MPD2    H511737   2.629   0.938  16.135  0.5658 -1.2952  0.3685
  796MPD2    N111738   2.586   0.527  16.392  0.1276 -0.5148  0.2209
  796MPD2    H711739   2.564   0.429  16.406 -0.2324 -0.0974  2.5246
  797MPD2     C11740   3.418   0.149  17.163  0.4812 -0.7939 -0.2579
  797MPD2    C111741   3.478   0.193  17.278 -0.4233  0.1578  0.8020
  797MPD2    C211742   3.397   0.248  17.378 -0.3445 -0.8584 -1.1680
  797MPD2    C311743   3.260   0.245  17.363 -0.2161 -0.0286 -0.0915
  797MPD2    C411744   3.202   0.201  17.245  0.1140 -0.0074  0.4066
  797MPD2    C511745   3.282   0.145  17.153  0.3306 -0.2159 -0.2532
  797MPD2     H11746   3.452   0.296  17.458 -1.5177  0.5431 -1.2002
  797MPD2    H111747   3.095   0.197  17.230  0.3200 -3.7121 -0.0911
  797MPD2    H211748   3.478   0.100  17.088  2.1028 -0.5870  0.9224
  797MPD2    H311749   3.243   0.086  17.071  0.5632 -0.1346 -0.4218
  797MPD2     N11750   3.169   0.286  17.462 -0.4712  0.4141  0.3489
  797MPD2    H511751   3.071   0.275  17.442 -0.8329  3.8327  0.2633
  797MPD2    N111752   3.616   0.227  17.290  0.3517  0.0025  0.6875
  797MPD2    H711753   3.649   0.260  17.379 -0.8825  0.3040  1.0362
  798MPD2     C11754   3.557   0.793   0.034  0.1748 -0.1374  0.3781
  798MPD2    C111755   3.499   0.667   0.015 -0.2536  0.3964  0.3671
  798MPD2    C211756   3.588   0.577  17.647 -0.3315 -0.2408  0.0062
  798MPD2    C311757   3.721   0.611  17.613  0.5553 -0.3209  0.5739
  798MPD2    C411758   3.775   0.730  17.642  0.1790  0.1741 -0.0231
  798MPD2    C511759   3.686   0.823   0.012 -0.6242 -0.4908  0.3064
  798MPD2     H11760   3.551   0.478  17.625 -2.4555  0.9277 -1.7133
  798MPD2    H111761   3.877   0.764  17.625  1.2862 -3.4692 -0.6081
  798MPD2    H211762   3.498   0.873   0.077  0.3367  0.0259  0.3023
  798MPD2    H311763   3.713   0.919   0.054 -1.5941  0.2288 -0.7332
  798MPD2     N11764   3.793   0.515  17.540 -0.3006 -0.0421 -0.2785
  798MPD2    H511765   3.742   0.429  17.520 -0.3605 -0.3812  1.3154
  798MPD2    N111766   3.365   0.627   0.039 -0.1231 -0.2792 -0.6638
  798MPD2    H711767   3.341   0.532   0.014 -0.0882 -0.5032  0.1594
  799MPD2     C11768   2.711   1.946  15.347 -0.0731 -0.4464  0.1928
  799MPD2    C111769   2.785   1.934  15.229 -0.7506  0.2428 -0.4895
  799MPD2    C211770   2.747   2.006  15.128  0.0714 -0.1163 -0.0401
  799MPD2    C311771   2.636   2.091  15.130  0.0219  0.5422  0.1002
  799MPD2    C411772   2.558   2.095  15.244  0.1077  0.3892 -0.0614
  799MPD2    C511773   2.600   2.028  15.355  0.2793 -0.8831  0.3859
  799MPD2     H11774   2.797   1.996  15.032 -2.3165  1.0104 -1.4345
  799MPD2    H111775   2.465   2.150  15.255  0.6161  1.3815 -0.7868
  799MPD2    H211776   2.743   1.900  15.440  0.6187  1.3663  0.8587
  799MPD2    H311777   2.552   2.030  15.452 -3.6126  0.4442 -1.5674
  799MPD2     N11778   2.594   2.176  15.023  0.1016 -0.2293 -0.7650
  799MPD2    H511779   2.511   2.234  15.030 -0.1868 -0.6323 -0.8547
  799MPD2    N111780   2.880   1.829  15.206  0.3143 -0.0092  0.9122
  799MPD2    H711781   2.920   1.828  15.112  0.4331 -1.0102  0.9696
  800MPD2     C11782   3.376   3.584  13.993  0.4273  0.1689 -0.3349
  800MPD2    C111783   3.499   3.554  14.039  0.3184  0.1726  0.3048
  800MPD2    C211784   3.555   3.439  14.002  0.2988 -0.1144 -0.2770
  800MPD2    C311785   3.492   3.353  13.916 -0.4111 -0.3762 -0.1438
  800MPD2    C411786   3.361   3.370  13.878  0.3874 -0.1319 -0.6926
  800MPD2    C511787   3.308   3.488  13.917 -0.1604  0.6087  0.1173
  800MPD2     H11788   3.645   3.410  14.055  0.3920 -2.7916 -1.9292
  800MPD2    H111789   3.305   3.308  13.809  0.0573  1.0619 -1.4989
  800MPD2    H211790   3.320   3.674  14.014 -1.0854 -1.0290  0.7105
  800MPD2    H311791   3.202   3.503  13.900 -0.5781 -0.6265  1.6560
  800MPD2     N11792   3.578   3.244  13.882 -0.1916 -0.3611 -0.1839
  800MPD2    H511793   3.674   3.246  13.913  0.3379 -0.4961 -1.8101
  800MPD2    N111794   3.557   3.646  14.136  0.1893  0.2501 -0.3530
  800MPD2    H711795   3.499   3.721  14.170 -1.0653 -0.8118 -0.1597
  801MPD2     C11796   3.317   4.140  14.529 -0.5279  0.7280  0.4649
  801MPD2    C111797   3.343   4.096  14.404 -0.4904 -0.3745  0.0961
  801MPD2    C211798   3.261   4.130  14.303 -1.3569  0.6776 -0.3429
  801MPD2    C311799   3.148   4.210  14.328  0.1944 -0.2916 -0.5870
  801MPD2    C411800   3.108   4.238  14.451  0.1761 -0.2285 -0.2531
  801MPD2    C511801   3.195   4.200  14.554 -0.7643 -0.4470 -0.8238
  801MPD2     H11802   3.285   4.102  14.201 -0.5815  0.1759 -0.0232
  801MPD2    H111803   3.025   4.305  14.474 -1.2985 -1.9866 -0.4593
  801MPD2    H211804   3.365   4.114  14.623  1.0070  0.0377 -0.4996
  801MPD2    H311805   3.157   4.216  14.654  2.4063  0.3108  0.2529
  801MPD2     N11806   3.059   4.238  14.218 -0.6937 -0.4718  0.9409
  801MPD2    H511807   2.972   4.279  14.249 -2.4636 -3.1706 -0.5709
  801MPD2    N111808   3.466   4.033  14.374 -0.2521  0.2593 -0.0659
  801MPD2    H711809   3.476   3.989  14.283  0.8829  2.1139 -0.8368
  802MPD2     C11810   2.047   4.320  17.649 -0.1792 -0.0434 -0.1016
  802MPD2    C111811   2.094   4.303   0.087 -0.1557 -0.3008  0.6058
  802MPD2    C211812   2.122   4.173   0.137 -0.2037 -0.7363  0.1696
  802MPD2    C311813   2.113   4.066   0.056  0.4182  0.2092 -0.5402
  802MPD2    C411814   2.069   4.086  17.618 -0.1094  0.0372 -0.3114
  802MPD2    C511815   2.032   4.207  17.569  0.2725 -0.9339  0.2049
  802MPD2     H11816   2.145   4.148   0.240  1.9753  0.2987 -0.0699
  802MPD2    H111817   2.088   4.007  17.547 -0.6786  0.1030 -0.5434
  802MPD2    H211818   1.993   4.406  17.611 -2.2693 -1.9485 -1.4533
  802MPD2    H311819   1.991   4.221  17.469  2.5903 -0.9150 -0.7481
  802MPD2     N11820   2.168   3.945   0.092  0.4341 -0.2893 -0.7623
  802MPD2    H511821   2.213   3.934   0.183  0.7824  2.3871 -0.6094
  802MPD2    N111822   2.099   4.406   0.179  0.3844 -0.5847  0.1597
  802MPD2    H711823   2.129   4.380   0.273 -3.1299 -0.5201  1.2823
  803MPD2     C11824   3.873   2.254  12.026  0.1081  0.0182  0.0471
  803MPD2    C111825   3.936   2.255  12.148 -0.4079  0.2643  0.2717
  803MPD2    C211826   3.899   2.157  12.242 -0.0368  0.1951  0.1560
  803MPD2    C311827   3.795   2.073  12.217 -0.7136  0.1358  0.1461
  803MPD2    C411828   3.723   2.088  12.103 -0.3591  0.3785  0.7517
  803MPD2    C511829   3.766   2.171  12.007  0.3035 -0.4186 -0.4020
  803MPD2     H11830   3.953   2.153  12.336  1.1864 -1.9113 -0.6259
  803MPD2    H111831   3.630   2.034  12.092 -1.0036  1.2950  1.7230
  803MPD2    H211832   3.897   2.332  11.954  0.3844 -0.9228 -0.8681
  803MPD2    H311833   3.702   2.178  11.920  0.4807  2.7143 -0.2837
  803MPD2     N11834   3.762   1.981  12.316  0.0606  1.1206  0.3112
  803MPD2    H511835   3.673   1.932  12.304  1.3299 -1.0118 -0.4590
  803MPD2    N111836   4.020   2.354  12.197  0.1858 -0.2066 -0.2158
  803MPD2    H711837   4.030   2.349  12.298 -1.3892  0.4678 -0.0190
  804MPD2     C11838   3.157   3.514  16.782  0.3770 -0.5149  0.2179
  804MPD2    C111839   3.097   3.505  16.902  0.2662  0.0598  0.3200
  804MPD2    C211840   3.133   3.596  17.001  0.1810  0.1586 -0.1011
  804MPD2    C311841   3.222   3.698  16.981 -0.1893  0.0992  0.6165
  804MPD2    C411842   3.278   3.713  16.851 -0.9535  0.3271 -0.5875
  804MPD2    C511843   3.240   3.619  16.756 -0.4611  0.4597  0.5602
  804MPD2     H11844   3.098   3.589  17.104  1.4470 -0.7460  0.2699
  804MPD2    H111845   3.359   3.781  16.826 -1.0369  1.0611  1.1159
  804MPD2    H211846   3.156   3.443  16.700  1.6390  0.5545 -0.7378
  804MPD2    H311847   3.291   3.619  16.660 -1.2390 -1.0926  0.1353
  804MPD2     N11848   3.278   3.762  17.093 -0.0306  0.6488 -0.1863
  804MPD2    H511849   3.236   3.732  17.180  0.5318  2.8592  0.8234
  804MPD2    N111850   3.003   3.407  16.933  0.9745  0.4447 -0.2805
  804MPD2    H711851   2.960   3.420  17.024 -0.5955  2.8900 -1.3412
  805MPD2     C11852   2.493   2.109  15.795  0.0942 -0.5255 -0.1627
  805MPD2    C111853   2.562   1.994  15.768 -0.8809 -0.5609  0.8005
  805MPD2    C211854   2.683   1.964  15.828 -0.9188 -0.1450 -0.0808
  805MPD2    C311855   2.751   2.063  15.906 -0.2618  0.5011  0.1148
  805MPD2    C411856   2.680   2.183  15.922  0.3520 -0.0690  0.4059
  805MPD2    C511857   2.554   2.206  15.868 -0.1686 -0.2059  0.5179
  805MPD2     H11858   2.725   1.866  15.806  0.2237 -0.0185  1.6084
  805MPD2    H111859   2.717   2.269  15.977  0.3987 -0.8185  1.5576
  805MPD2    H211860   2.400   2.147  15.753  0.0973 -0.3477 -0.0072
  805MPD2    H311861   2.514   2.305  15.883 -2.7050 -1.0870 -0.4222
  805MPD2     N11862   2.873   2.038  15.968 -0.7977 -0.2535  0.1260
  805MPD2    H511863   2.897   1.940  15.957  1.4357  0.0740  2.0248
  805MPD2    N111864   2.497   1.895  15.693 -0.1008  0.8393 -0.5685
  805MPD2    H711865   2.533   1.801  15.703 -2.1314  0.1099 -0.1287
  806MPD2     C11866   2.772   0.575   0.372 -0.1530 -0.3826  0.3541
  806MPD2    C111867   2.725   0.619   0.496  0.1424  0.1129 -0.2734
  806MPD2    C211868   2.710   0.759   0.513 -0.2350  0.1232 -0.6829
  806MPD2    C311869   2.724   0.852   0.405 -0.3616  0.2475 -0.0151
  806MPD2    C411870   2.772   0.802   0.283 -0.1380 -0.9696  0.9682
  806MPD2    C511871   2.800   0.665   0.271 -0.4632  0.2401  0.6092
  806MPD2     H11872   2.703   0.801   0.613 -4.1826 -1.1049 -0.4657
  806MPD2    H111873   2.797   0.869   0.201 -2.2200  0.3210  1.3817
  806MPD2    H211874   2.791   0.470   0.353  1.2904  0.0793 -0.8247
  806MPD2    H311875   2.826   0.614   0.179 -1.8519  0.2678  0.2011
  806MPD2     N11876   2.701   0.991   0.422 -0.5073 -0.2951  0.2248
  806MPD2    H511877   2.737   1.054   0.351  1.6093 -0.0884  1.4676
  806MPD2    N111878   2.709   0.528   0.596 -0.1050  0.1353 -0.6733
  806MPD2    H711879   2.740   0.433   0.579 -0.4068 -0.1228  0.2098
  807MPD2     C11880   2.292   0.207   1.266  0.0937  0.3954  0.1991
  807MPD2    C111881   2.430   0.213   1.302 -0.1466 -0.4897  0.6762
  807MPD2    C211882   2.460   0.175   1.435 -0.4009  0.1772  0.4970
  807MPD2    C311883   2.364   0.140   1.528  0.2248 -0.0089  0.2024
  807MPD2    C411884   2.228   0.140   1.495  0.2979  0.8044 -0.3451
  807MPD2    C511885   2.197   0.175   1.362  0.0706 -0.3411 -0.3325
  807MPD2     H11886   2.563   0.175   1.469 -0.1507 -0.1859 -0.2803
  807MPD2    H111887   2.149   0.124   1.567 -0.2960 -0.8223 -1.3618
  807MPD2    H211888   2.246   0.240   1.174  0.7516 -0.7669 -0.5315
  807MPD2    H311889   2.090   0.179   1.346  0.1987 -0.8352 -1.2839
  807MPD2     N11890   2.417   0.118   1.660  0.2364  0.2191  0.2182
  807MPD2    H511891   2.516   0.133   1.679  0.8428 -1.9262 -1.2359
  807MPD2    N111892   2.532   0.255   1.207 -0.0739 -0.3984 -0.4436
  807MPD2    H711893   2.626   0.259   1.244 -1.2969 -1.4428  2.8430
  808MPD2     C11894   4.334   2.362  10.291  0.0248 -0.2347 -0.3128
  808MPD2    C111895   4.224   2.376  10.220  0.2486  0.3631 -0.6159
  808MPD2    C211896   4.205   2.490  10.135 -0.1337 -0.3105  0.5166
  808MPD2    C311897   4.315   2.574  10.121 -0.4509  0.1048  0.3087
  808MPD2    C411898   4.425   2.565  10.205  0.0594  0.2969 -0.4216
  808MPD2    C511899   4.438   2.453  10.286  0.5750 -0.2934  0.0556
  808MPD2     H11900   4.112   2.500  10.080  0.1228  0.1459  0.1731
  808MPD2    H111901   4.509   2.634  10.198 -1.0658  1.6965  0.0163
  808MPD2    H211902   4.363   2.275  10.349  0.9566 -0.1619 -0.6798
  808MPD2    H311903   4.526   2.436  10.348 -0.9891 -1.9583  1.8002
  808MPD2     N11904   4.321   2.672  10.020  0.0291  0.6262 -0.1241
  808MPD2    H511905   4.394   2.743  10.024 -0.9688  1.7238 -1.2786
  808MPD2    N111906   4.125   2.283  10.227  0.5215 -0.6275 -0.3078
  808MPD2    H711907   4.042   2.291  10.170  0.6426 -0.2192 -0.4282
  809MPD2     C11908   0.095   3.397   9.575  0.0879 -0.2160  0.7869
  809MPD2    C111909   0.111   3.313   9.687  0.2549 -0.2574  0.6243
  809MPD2    C211910   0.005   3.230   9.720 -0.2984  0.0338  0.0219
  809MPD2    C311911   4.613   3.229   9.650  0.0413  0.2982 -0.2779
  809MPD2    C411912   4.597   3.316   9.544 -0.5021 -0.2800 -0.2474
  809MPD2    C511913   4.694   3.400   9.510  0.1739  0.4371 -0.1909
  809MPD2     H11914   0.021   3.170   9.809 -0.1008 -0.3956 -0.3045
  809MPD2    H111915   4.503   3.322   9.490 -1.1656  1.0119  1.0682
  809MPD2    H211916   0.162   3.479   9.551  0.2181 -0.6593 -0.3846
  809MPD2    H311917   4.675   3.468   9.429  0.0253  1.2039  0.4865
  809MPD2     N11918   4.507   3.146   9.689  0.0250 -0.1352 -0.2107
  809MPD2    H511919   4.420   3.150   9.637 -1.1091 -3.6748  1.4091
  809MPD2    N111920   0.231   3.301   9.769  0.8453 -1.0280  0.1497
  809MPD2    H711921   0.223   3.229   9.840  2.8336  0.9453  2.3413
  810MPD2     C11922   3.196   1.831  11.085  0.0993  0.3067 -0.2461
  810MPD2    C111923   3.246   1.860  10.956 -0.1672  0.8285 -0.0341
  810MPD2    C211924   3.266   1.994  10.920 -0.0439 -0.7417 -0.4581
  810MPD2    C311925   3.241   2.092  11.014 -0.4495  0.6410 -0.3494
  810MPD2    C411926   3.183   2.066  11.139  0.0210  0.9921  0.0087
  810MPD2    C511927   3.170   1.936  11.175 -0.3298  0.2160  0.4973
  810MPD2     H11928   3.301   2.029  10.824  0.3015  2.9204  1.0012
  810MPD2    H111929   3.148   2.144  11.206 -4.0544 -1.6734  0.9612
  810MPD2    H211930   3.158   1.733  11.113 -2.1512  0.4244 -2.9560
  810MPD2    H311931   3.132   1.912  11.273  1.8163  2.3846  1.8427
  810MPD2     N11932   3.263   2.225  10.993 -0.3114 -0.3997 -0.2250
  810MPD2    H511933   3.217   2.295  11.050 -1.8006  0.0690 -2.0150
  810MPD2    N111934   3.248   1.752  10.853  0.4078 -0.1412  0.0268
  810MPD2    H711935   3.234   1.660  10.893 -3.1060  1.2683  2.0551
  811MPD2     C11936   3.111   1.599   9.960  0.0163  0.0474  0.4286
  811MPD2    C111937   3.168   1.681  10.054  0.1584 -0.5706  0.7009
  811MPD2    C211938   3.219   1.810  10.021 -0.3740 -0.7080 -0.6608
  811MPD2    C311939   3.175   1.864   9.903  0.1993  0.3436  0.4475
  811MPD2    C411940   3.109   1.781   9.815  0.3592 -0.4081 -0.2443
  811MPD2    C511941   3.074   1.650   9.838  0.4375  1.0825 -0.2298
  811MPD2     H11942   3.273   1.866  10.096 -0.0947  0.1070 -1.4716
  811MPD2    H111943   3.094   1.817   9.714 -1.6871 -0.2767  0.0978
  811MPD2    H211944   3.100   1.492   9.973  1.6750 -0.1675  0.0552
  811MPD2    H311945   3.033   1.587   9.759 -0.7492  0.0126  1.2519
  811MPD2     N11946   3.219   1.994   9.875  0.7025 -0.0510  0.5585
  811MPD2    H511947   3.294   2.035   9.930  1.1252 -0.4050  0.2402
  811MPD2    N111948   3.186   1.610  10.171 -0.4318 -0.8080 -0.1294
  811MPD2    H711949   3.136   1.524  10.191  0.2901 -1.4576 -1.0741
  812MPD2     C11950   2.166   2.103  12.568  0.6315 -0.1282 -0.1211
  812MPD2    C111951   2.095   2.170  12.661 -0.5193  0.4044  0.1612
  812MPD2    C211952   2.026   2.088  12.757  0.3474  0.1007 -0.0459
  812MPD2    C311953   2.036   1.951  12.754  0.7039 -0.4921 -0.5821
  812MPD2    C411954   2.090   1.897  12.647 -0.0444 -0.0139  0.3760
  812MPD2    C511955   2.173   1.971  12.563  0.1696  0.2263 -0.7228
  812MPD2     H11956   1.964   2.136  12.832  1.2546  0.4757  0.4662
  812MPD2    H111957   2.087   1.789  12.634  0.8217  0.1002 -0.8230
  812MPD2    H211958   2.232   2.155  12.499  1.1066  1.3472  1.4351
  812MPD2    H311959   2.230   1.930  12.481 -0.8648  1.7053 -2.2023
  812MPD2     N11960   1.959   1.874  12.844  0.5925 -0.1093  0.5831
  812MPD2    H511961   1.921   1.927  12.922  0.3350  0.4750  0.0596
  812MPD2    N111962   2.091   2.309  12.664  0.3590 -0.7269  0.5510
  812MPD2    H711963   2.143   2.356  12.590 -0.7448  1.3228  1.0682
  813MPD2     C11964   1.204   4.054  12.825 -0.3615 -0.2728  0.1737
  813MPD2    C111965   1.143   4.174  12.795  0.6025  0.0115  0.0315
  813MPD2    C211966   1.043   4.234  12.872  0.4152  0.5383  0.6568
  813MPD2    C311967   1.006   4.162  12.987 -0.6015 -0.1451  0.5015
  813MPD2    C411968   1.075   4.044  13.019 -0.2712  0.4049  0.3670
  813MPD2    C511969   1.180   3.998  12.947  0.1385 -0.4539 -0.5119
  813MPD2     H11970   0.981   4.319  12.847 -0.1590 -1.0877 -3.4297
  813MPD2    H111971   1.058   3.985  13.108  1.0114 -1.5942 -0.7129
  813MPD2    H211972   1.280   4.018  12.756 -0.5656  0.3437 -0.3747
  813MPD2    H311973   1.235   3.916  12.992 -1.8701 -1.7951 -0.5164
  813MPD2     N11974   0.893   4.205  13.060 -0.6127  0.3246 -0.2142
  813MPD2    H511975   0.841   4.282  13.021 -1.7587  0.3576  1.3678
  813MPD2    N111976   1.199   4.233  12.679  0.2958 -0.1229 -0.0277
  813MPD2    H711977   1.272   4.178  12.634  0.7029 -0.2277  0.7560
  814MPD2     C11978   1.690   0.536  12.415 -0.4013 -0.9392 -0.4995
  814MPD2    C111979   1.630   0.578  12.300 -0.5200 -0.1687 -0.2513
  814MPD2    C211980   1.625   0.716  12.273 -0.2296 -0.0489  0.4082
  814MPD2    C311981   1.675   0.804  12.366  0.1306  0.0623  0.0012
  814MPD2    C411982   1.725   0.755  12.483 -0.5122 -0.6920  0.0841
  814MPD2    C511983   1.740   0.622  12.503 -1.1262  0.7168 -0.1471
  814MPD2     H11984   1.584   0.743  12.176  0.6497 -0.3395 -0.0438
  814MPD2    H111985   1.759   0.821  12.563 -2.6783 -0.1433  0.5661
  814MPD2    H211986   1.690   0.436  12.456 -0.7687 -1.4509 -1.7465
  814MPD2    H311987   1.782   0.586  12.596  1.1436 -1.5178 -2.0702
  814MPD2     N11988   1.680   0.944  12.350 -0.3768  0.0063 -0.2022
  814MPD2    H511989   1.702   0.995  12.435 -1.2657 -0.6184  0.3941
  814MPD2    N111990   1.582   0.488  12.199 -0.6661 -0.5250  0.3002
  814MPD2    H711991   1.537   0.530  12.117  2.2105 -2.8108 -2.4304
  815MPD2     C11992   2.218   4.137  12.032 -0.5227  0.1504 -1.3830
  815MPD2    C111993   2.207   4.000  12.030  0.6504 -0.0671  0.5486
  815MPD2    C211994   2.112   3.941  12.111 -0.5398 -0.3189 -0.3982
  815MPD2    C311995   2.023   4.017  12.186  0.0129  0.5622  0.9804
  815MPD2    C411996   2.034   4.157  12.185 -0.1362 -0.0238 -0.2436
  815MPD2    C511997   2.141   4.215  12.117  1.2774 -0.0380 -0.5204
  815MPD2     H11998   2.092   3.835  12.097 -2.3563  0.1190 -1.2495
  815MPD2    H111999   1.980   4.227  12.248  0.2640  0.5254 -0.5172
  815MPD2    H212000   2.296   4.190  11.978  1.1094 -1.1526 -0.3301
  815MPD2    H312001   2.149   4.323  12.120 -1.1513  0.1033  0.9595
  815MPD2     N12002   1.922   3.953  12.266 -0.4162 -0.0225 -0.0064
  815MPD2    H512003   1.926   3.854  12.287  0.5646 -0.2668 -1.3488
  815MPD2    N112004   2.296   3.926  11.945 -0.6593  0.1371  0.6765
  815MPD2    H712005   2.345   3.973  11.870  1.3143  0.1155  1.9460
  816MPD2     C12006   1.183   2.919  17.534 -0.2592 -0.3479 -0.0576
  816MPD2    C112007   1.214   3.021  17.446 -0.2856  0.5027 -0.7398
  816MPD2    C212008   1.328   3.015  17.368  0.4816 -0.7854 -0.4095
  816MPD2    C312009   1.402   2.896  17.367 -0.5692  0.3948  0.3087
  816MPD2    C412010   1.356   2.786  17.439 -0.0562 -0.4352 -0.2613
  816MPD2    C512011   1.245   2.792  17.520  0.5037 -0.1161 -0.5520
  816MPD2     H12012   1.368   3.097  17.309  2.2181 -1.6540 -0.4262
  816MPD2    H112013   1.406   2.691  17.446  1.0485  0.1736  0.0709
  816MPD2    H212014   1.100   2.929  17.603 -0.9924 -0.8185 -0.8605
  816MPD2    H312015   1.212   2.713  17.588  1.3345 -0.7334 -0.8595
  816MPD2     N12016   1.518   2.889  17.284  0.3859 -0.0635 -0.9243
  816MPD2    H512017   1.534   2.967  17.220 -3.2455 -0.3895 -2.2279
  816MPD2    N112018   1.136   3.138  17.452 -0.0738  0.2751  0.1789
  816MPD2    H712019   1.076   3.147  17.534  0.0451 -1.1674  0.4253
  817MPD2     C12020   2.169   4.540   9.713  0.1572 -0.2406 -0.2327
  817MPD2    C112021   2.058   4.463   9.716 -0.2177  0.3853 -0.5928
  817MPD2    C212022   1.935   4.523   9.686  0.0705  0.2668 -0.5781
  817MPD2    C312023   1.922   4.657   9.656 -0.1781 -0.1200 -0.4102
  817MPD2    C412024   2.036   0.017   9.675 -1.0292  0.6964  1.5680
  817MPD2    C512025   2.152   4.679   9.707 -0.0690 -0.0765 -1.0125
  817MPD2     H12026   1.843   4.465   9.688 -0.3485  0.9018 -1.5321
  817MPD2    H112027   2.034   0.125   9.663  0.3843  0.7302  1.6218
  817MPD2    H212028   2.268   4.500   9.733  1.0954  2.3956  0.3685
  817MPD2    H312029   2.243   0.015   9.720  1.1791 -2.0686 -0.9559
  817MPD2     N12030   1.795   4.699   9.610  0.0248 -0.3535  0.9292
  817MPD2    H512031   1.731   4.622   9.591 -2.2010  1.5226  0.9374
  817MPD2    N112032   2.061   4.323   9.734 -0.2305  0.3288  0.1135
  817MPD2    H712033   1.980   4.269   9.704  0.1337  0.0986 -0.4733
  818MPD2     C12034   0.810   4.524  10.375  0.3971 -0.3612 -0.1009
  818MPD2    C112035   0.686   4.484  10.426  0.2432  0.1895  0.3442
  818MPD2    C212036   0.654   4.355  10.451  0.0585 -0.2587  0.0507
  818MPD2    C312037   0.748   4.253  10.429 -0.0143  0.4759  0.2716
  818MPD2    C412038   0.865   4.287  10.368 -0.3946 -0.0662 -0.3977
  818MPD2    C512039   0.899   4.423  10.352  0.2870 -0.4048 -0.3533
  818MPD2     H12040   0.561   4.334  10.502  0.2687 -0.9978  0.1348
  818MPD2    H112041   0.943   4.216  10.339  0.1402  0.3852 -0.0514
  818MPD2    H212042   0.846   4.626  10.365 -1.3757  0.2187 -0.4713
  818MPD2    H312043   0.997   4.452  10.316 -0.3254  2.6969  0.3893
  818MPD2     N12044   0.713   4.114  10.450  0.3759 -0.2783  0.1194
  818MPD2    H512045   0.776   4.055  10.397 -1.0493 -1.0024 -0.7869
  818MPD2    N112046   0.574   4.578  10.439 -0.0768 -0.6271 -0.4175
  818MPD2    H712047   0.491   4.541  10.483 -0.1872 -1.6569 -1.4727
  819MPD2     C12048   3.038   1.433  16.015 -0.6391  0.5393  0.1960
  819MPD2    C112049   3.120   1.332  15.974  0.6228 -0.1921 -0.3412
  819MPD2    C212050   3.254   1.326  16.013 -0.0326 -0.3116 -0.6304
  819MPD2    C312051   3.312   1.428  16.083 -0.1837  0.8484  0.5665
  819MPD2    C412052   3.228   1.535  16.116 -0.1310 -0.5151  0.2700
  819MPD2    C512053   3.095   1.536  16.086 -0.4189  0.3893 -0.7565
  819MPD2     H12054   3.328   1.248  15.998 -0.0063 -0.7235  1.5758
  819MPD2    H112055   3.265   1.619  16.173 -0.9390  0.7050 -1.0379
  819MPD2    H212056   2.938   1.448  15.975 -0.1223 -3.2299 -2.5142
  819MPD2    H312057   3.040   1.626  16.112  1.5658  0.3748  3.4416
  819MPD2     N12058   3.443   1.412  16.133 -0.2555  0.4817  0.2148
  819MPD2    H512059   3.504   1.337  16.100  1.3925  2.2181 -0.7160
  819MPD2    N112060   3.063   1.239  15.889 -0.1595 -0.6062  0.0719
  819MPD2    H712061   2.969   1.263  15.858 -0.5302 -2.9017 -0.5906
  820MPD2     C12062   2.237   1.092  15.524 -0.3887 -0.5617  0.1791
  820MPD2    C112063   2.326   1.187  15.569  0.3110  1.3194  0.0350
  820MPD2    C212064   2.455   1.141  15.588 -0.2803 -0.1087  0.4336
  820MPD2    C312065   2.499   1.017  15.568  0.1151 -0.2641 -0.3884
  820MPD2    C412066   2.404   0.928  15.531  0.2078  0.1885  0.7260
  820MPD2    C512067   2.273   0.962  15.511  0.1521 -0.2217 -0.4666
  820MPD2     H12068   2.533   1.208  15.625 -0.2999 -0.1875  0.6157
  820MPD2    H112069   2.435   0.826  15.507  1.0924  0.6193  0.0354
  820MPD2    H212070   2.131   1.108  15.509  0.0838  0.4582 -2.1819
  820MPD2    H312071   2.203   0.880  15.496  0.9270 -1.1656  1.0378
  820MPD2     N12072   2.636   0.973  15.589  0.6064  0.0025  0.0255
  820MPD2    H512073   2.651   0.875  15.611  0.8256 -0.1711 -0.8603
  820MPD2    N112074   2.281   1.319  15.585  0.3987  1.1608  0.2090
  820MPD2    H712075   2.184   1.346  15.569 -0.7379 -1.5350  2.5392
  821MPD2     C12076   3.826   2.714  13.223  0.6603  0.2242 -0.3606
  821MPD2    C112077   3.920   2.750  13.323 -0.0555 -0.6534 -0.1565
  821MPD2    C212078   4.060   2.741  13.303 -0.4600 -0.0183  0.7166
  821MPD2    C312079   4.099   2.717  13.174 -0.4769 -0.4742  0.8521
  821MPD2    C412080   4.008   2.678  13.073  0.0076 -0.5953 -0.2157
  821MPD2    C512081   3.874   2.669  13.100  0.5642 -0.4928 -0.7265
  821MPD2     H12082   4.121   2.771  13.387  1.2958 -1.4807 -0.0380
  821MPD2    H112083   4.044   2.671  12.971  3.2169  1.3239  0.7783
  821MPD2    H212084   3.718   2.718  13.233  0.7064  1.0439 -0.1455
  821MPD2    H312085   3.797   2.650  13.026  0.2867 -1.9663 -0.0677
  821MPD2     N12086   4.232   2.738  13.140 -0.0414  0.9615 -0.4032
  821MPD2    H512087   4.252   2.749  13.041  1.0984 -0.7323 -0.3591
  821MPD2    N112088   3.894   2.805  13.453 -0.8099  0.0733  0.4376
  821MPD2    H712089   3.971   2.845  13.505  0.4341  0.0631 -1.3840
  822MPD2     C12090   4.111   2.908  15.873 -1.1834  0.1768 -0.2311
  822MPD2    C112091   4.101   2.864  15.998  0.4787 -0.3306  0.4567
  822MPD2    C212092   4.010   2.918  16.089  0.6052 -0.0709 -0.8189
  822MPD2    C312093   3.942   3.036  16.053 -0.5988  0.2018  0.1840
  822MPD2    C412094   3.950   3.070  15.922  0.4342  0.0728  0.2829
  822MPD2    C512095   4.026   3.001  15.832  0.1217  0.1941 -0.5887
  822MPD2     H12096   4.003   2.889  16.193 -0.2782 -1.3837 -1.2434
  822MPD2    H112097   3.889   3.152  15.886 -1.1458 -1.1630  0.1398
  822MPD2    H212098   4.175   2.876  15.791 -1.5500 -0.0134 -0.4417
  822MPD2    H312099   4.032   3.040  15.731  3.7389 -1.1133 -0.8834
  822MPD2     N12100   3.847   3.093  16.144 -0.2081 -0.6386  0.3394
  822MPD2    H512101   3.825   3.042  16.228  0.0485 -1.9774 -0.4011
  822MPD2    N112102   4.196   2.766  16.049 -0.0196  0.0199 -0.0143
  822MPD2    H712103   4.201   2.740  16.147  0.2055 -0.8830 -0.2631
  823MPD2     C12104   3.367   3.236  16.824 -0.3074 -0.1322 -0.5038
  823MPD2    C112105   3.457   3.150  16.762 -0.3003 -1.1266 -0.6014
  823MPD2    C212106   3.505   3.044  16.825 -0.1184  0.0008  0.1640
  823MPD2    C312107   3.481   3.020  16.959 -0.0088 -0.2603  0.4236
  823MPD2    C412108   3.379   3.093  17.018  0.3550  0.3266  0.4698
  823MPD2    C512109   3.323   3.202  16.950  0.2793  0.1774  0.2445
  823MPD2     H12110   3.582   2.987  16.777  0.9519  0.4463  1.3572
  823MPD2    H112111   3.342   3.074  17.118  0.3598 -0.6442  0.2899
  823MPD2    H212112   3.329   3.323  16.772  0.8152  0.0160 -1.0783
  823MPD2    H312113   3.247   3.264  16.998 -0.7927 -0.9028 -0.0700
  823MPD2     N12114   3.551   2.928  17.043 -0.1559  0.6402  0.0609
  823MPD2    H512115   3.503   2.910  17.131 -0.7661  0.7998 -0.2421
  823MPD2    N112116   3.490   3.196  16.634  0.1482  0.7978  0.2489
  823MPD2    H712117   3.455   3.287  16.607 -0.1790 -0.1279 -2.4702
  824MPD2     C12118   4.510   2.015  15.945 -0.8321  0.1099  0.0841
  824MPD2    C112119   4.573   2.124  15.893  0.3626 -0.1626  0.3653
  824MPD2    C212120   4.654   2.111  15.786  0.4623 -0.2116  0.0824
  824MPD2    C312121   4.663   1.990  15.717 -0.0825 -0.3822 -0.6164
  824MPD2    C412122   4.598   1.884  15.771 -0.2866  0.7505 -0.0611
  824MPD2    C512123   4.525   1.891  15.887 -0.1526  0.2995  0.5359
  824MPD2     H12124   4.710   2.195  15.746 -0.9161 -0.1179 -1.6043
  824MPD2    H112125   4.605   1.785  15.728  2.0720  0.3514  1.2959
  824MPD2    H212126   4.435   2.026  16.023 -1.1920 -0.8293 -0.1221
  824MPD2    H312127   4.459   1.810  15.918  0.4507  0.6446  2.7507
  824MPD2     N12128   0.025   1.990  15.602 -0.3469 -0.5499  0.2559
  824MPD2    H512129   0.078   2.073  15.578 -1.5359  0.4909  1.2002
  824MPD2    N112130   4.551   2.251  15.948 -0.0618  0.1357 -1.3530
  824MPD2    H712131   4.583   2.333  15.897  0.5272  0.5418 -0.3343
  825MPD2     C12132   0.535   2.054  14.916 -0.4426 -0.4288 -0.4751
  825MPD2    C112133   0.503   2.116  15.034 -0.1043 -0.5693 -0.5914
  825MPD2    C212134   0.507   2.257  15.040 -0.3861 -0.9654  0.9080
  825MPD2    C312135   0.551   2.332  14.928  0.2043 -0.6523  0.1332
  825MPD2    C412136   0.587   2.266  14.814  0.0285 -0.4396  0.4313
  825MPD2    C512137   0.580   2.125  14.810  0.2041  0.3401 -0.2573
  825MPD2     H12138   0.468   2.301  15.132 -1.1927 -0.7023  0.4370
  825MPD2    H112139   0.605   2.320  14.722 -0.3708 -1.4281 -0.2347
  825MPD2    H212140   0.518   1.948  14.898  2.2552 -1.0453  0.6336
  825MPD2    H312141   0.596   2.084  14.711  0.4803  1.0328 -0.4985
  825MPD2     N12142   0.546   2.472  14.916  0.2087 -0.4854  0.5714
  825MPD2    H512143   0.581   2.509  14.828 -1.0917 -1.0555 -0.1755
  825MPD2    N112144   0.440   2.041  15.135  0.1214 -0.2369 -0.2396
  825MPD2    H712145   0.459   1.941  15.137  0.4233 -0.1678  0.8369
  826MPD2     C12146   0.032   2.123  13.969  0.1096  0.4556 -0.4219
  826MPD2    C112147   4.716   2.167  13.845 -0.0986  0.0150 -0.6871
  826MPD2    C212148   4.606   2.252  13.843 -0.1086 -0.1068 -0.0161
  826MPD2    C312149   4.546   2.296  13.959 -0.2383  0.1310  0.2564
  826MPD2    C412150   4.608   2.275  14.084  0.0487  0.1883  0.1743
  826MPD2    C512151   4.706   2.178  14.084 -0.0240  0.1335  0.0769
  826MPD2     H12152   4.570   2.290  13.749 -1.0421  0.0411  0.3976
  826MPD2    H112153   4.561   2.311  14.175  0.0343 -0.1380  0.2980
  826MPD2    H212154   0.121   2.063  13.983  0.9971  2.1366  1.2261
  826MPD2    H312155   0.024   2.141  14.178 -0.4284  0.5889  0.4315
  826MPD2     N12156   4.448   2.395  13.966 -0.1383  0.2228 -0.3623
  826MPD2    H512157   4.426   2.430  14.058  2.0017  0.1572  0.1874
  826MPD2    N112158   0.064   2.109  13.737 -0.2727  0.0944 -0.1302
  826MPD2    H712159   0.139   2.046  13.764 -0.3531 -0.0126 -0.1555
  827MPD2     C12160   1.067   2.901  10.408 -0.3075  0.2461 -0.4507
  827MPD2    C112161   1.073   2.829  10.527 -0.1864 -0.2630  0.1445
  827MPD2    C212162   1.014   2.701  10.533 -0.1133  0.9846  0.3897
  827MPD2    C312163   0.951   2.651  10.417  0.4791 -0.0134 -0.7063
  827MPD2    C412164   0.947   2.727  10.306  0.5210  0.4769  0.0187
  827MPD2    C512165   0.999   2.850  10.297 -0.3094 -0.0888 -0.7439
  827MPD2     H12166   1.020   2.642  10.625  1.2320  2.3648  1.1874
  827MPD2    H112167   0.896   2.698  10.215 -0.1607  1.3204  0.1264
  827MPD2    H212168   1.098   3.005  10.402 -0.6434  0.3508 -0.3791
  827MPD2    H312169   0.984   2.911  10.209 -1.0087 -0.6341 -1.0010
  827MPD2     N12170   0.916   2.516  10.423 -0.2906  0.1000  0.3086
  827MPD2    H512171   0.924   2.473  10.515 -1.0623 -0.4809  0.1062
  827MPD2    N112172   1.151   2.889  10.634  0.0856  0.2408  0.3772
  827MPD2    H712173   1.202   2.976  10.622  0.3135  0.2177  1.2146
  828MPD2     C12174   4.173   3.110  12.523 -0.2112  0.4886  0.0966
  828MPD2    C112175   4.061   3.086  12.442 -0.4849 -0.3905 -0.1940
  828MPD2    C212176   4.083   3.024  12.325  0.3299 -0.1189  0.3312
  828MPD2    C312177   4.207   2.992  12.275 -0.9256 -0.3237  0.2807
  828MPD2    C412178   4.316   3.008  12.357  0.1654  0.0853  0.3202
  828MPD2    C512179   4.296   3.069  12.479  0.1211 -0.1887 -0.1214
  828MPD2     H12180   3.997   3.007  12.261  0.4090 -1.7094  0.6475
  828MPD2    H112181   4.416   2.984  12.323  1.5875  2.4717  2.8400
  828MPD2    H212182   4.171   3.165  12.617  2.7419 -0.5013  0.7237
  828MPD2    H312183   4.384   3.087  12.540 -1.1420  3.1617  0.7212
  828MPD2     N12184   4.232   2.936  12.145  0.2221  0.3550  0.1388
  828MPD2    H512185   4.323   2.894  12.130  1.1918  1.7875  2.0154
  828MPD2    N112186   3.925   3.117  12.479 -0.1577  0.5609  0.2169
  828MPD2    H712187   3.851   3.086  12.417  0.0962 -1.1948  0.7963
  829MPD2     C12188   3.459   3.231  11.864 -0.1990  0.4892  0.8469
  829MPD2    C112189   3.368   3.282  11.954  0.3189 -0.0598  0.4330
  829MPD2    C212190   3.394   3.264  12.088 -0.0339 -0.4662  0.3810
  829MPD2    C312191   3.503   3.202  12.136  0.0066  0.6358 -0.1262
  829MPD2    C412192   3.592   3.150  12.049  0.3938  0.4781  0.3072
  829MPD2    C512193   3.568   3.165  11.919  0.2272  0.0568 -0.1643
  829MPD2     H12194   3.343   3.322  12.165  0.0783 -1.3787  1.1425
  829MPD2    H112195   3.680   3.101  12.090 -0.1527  1.1112  2.2090
  829MPD2    H212196   3.461   3.244  11.756  0.6506  0.5999  0.8718
  829MPD2    H312197   3.636   3.132  11.841 -0.0585 -0.4968 -0.1750
  829MPD2     N12198   3.527   3.192  12.274  0.0585  0.0170  0.1000
  829MPD2    H512199   3.609   3.137  12.299  1.3254  0.3617 -3.2828
  829MPD2    N112200   3.253   3.354  11.900  1.4916 -0.6578  0.2120
  829MPD2    H712201   3.252   3.367  11.799  0.7907 -1.1140  0.1600
  830MPD2     C12202   4.214   1.115  15.996  0.4432  0.1159  0.3735
  830MPD2    C112203   4.123   1.210  15.958 -0.2177 -0.4010  0.3192
  830MPD2    C212204   4.127   1.255  15.823 -0.0988 -0.2291  0.5733
  830MPD2    C312205   4.226   1.212  15.735  0.4503  0.4453 -0.2349
  830MPD2    C412206   4.311   1.111  15.773 -0.4049  0.8926  1.1906
  830MPD2    C512207   4.301   1.060  15.897  0.3714 -0.6628 -0.0258
  830MPD2     H12208   4.067   1.337  15.784 -0.8433 -1.6911 -1.3634
  830MPD2    H112209   4.388   1.071  15.709 -2.5901 -1.2852 -0.0731
  830MPD2    H212210   4.220   1.081  16.098  1.3070  0.7451  0.5325
  830MPD2    H312211   4.367   0.982  15.932  1.0342  0.2468  0.7790
  830MPD2     N12212   4.224   1.283  15.609 -0.5402 -0.3048 -0.3457
  830MPD2    H512213   4.163   1.363  15.598 -1.5251 -1.1606 -1.0965
  830MPD2    N112214   4.022   1.259  16.051  0.3757 -0.3243 -0.8756
  830MPD2    H712215   4.042   1.224  16.144 -0.6675 -0.2492 -0.6157
  831MPD2     C12216   3.983   3.337  16.575  0.0204  0.2013 -0.0593
  831MPD2    C112217   4.019   3.239  16.488 -0.0843  0.0995 -0.8499
  831MPD2    C212218   3.966   3.112  16.509 -0.4301  0.5813 -0.4277
  831MPD2    C312219   3.896   3.079  16.623 -0.5583 -0.1996 -0.0828
  831MPD2    C412220   3.865   3.185  16.711  0.9476 -0.3366 -0.4680
  831MPD2    C512221   3.899   3.318  16.682  0.1991  0.5432  0.2612
  831MPD2     H12222   3.986   3.034  16.437 -0.2994 -0.3344  0.5952
  831MPD2    H112223   3.809   3.160  16.801 -0.6681 -1.6844 -1.8224
  831MPD2    H212224   4.028   3.434  16.562  0.3802 -0.2516 -2.1722
  831MPD2    H312225   3.885   3.406  16.745 -0.1429 -0.0310  0.9789
  831MPD2     N12226   3.860   2.946  16.660  0.4013 -0.4953  0.6096
  831MPD2    H512227   3.806   2.924  16.743  0.2396 -0.7324  0.4423
  831MPD2    N112228   4.104   3.280  16.385  0.1443  0.2747 -0.1040
  831MPD2    H712229   4.127   3.376  16.363  0.2783 -0.1506 -1.8186
  832MPD2     C12230   2.263   4.101  17.266  0.3985  0.1467  0.7548
  832MPD2    C112231   2.197   4.225  17.271  0.1917 -0.8687  0.1740
  832MPD2    C212232   2.074   4.240  17.223  0.0661 -0.6727  0.8491
  832MPD2    C312233   2.005   4.124  17.175  0.1578 -0.0445  0.0597
  832MPD2    C412234   2.065   4.002  17.187  0.2955  0.2801  0.3277
  832MPD2    C512235   2.194   3.991  17.219  0.2352 -0.4155  0.2391
  832MPD2     H12236   2.028   4.338  17.217  0.9210 -0.2503  1.2421
  832MPD2    H112237   2.018   3.910  17.156  1.1611  0.5448 -1.8395
  832MPD2    H212238   2.365   4.082  17.297  0.4421 -0.1769  0.4145
  832MPD2    H312239   2.238   3.892  17.217 -0.5232 -0.7803  1.6552
  832MPD2     N12240   1.870   4.129  17.132  0.3500 -0.6097 -0.1345
  832MPD2    H512241   1.838   4.036  17.106 -3.3285  0.8648 -0.9143
  832MPD2    N112242   2.265   4.336  17.321 -0.2609 -0.0641 -0.0901
  832MPD2    H712243   2.364   4.319  17.335 -0.1141 -0.4557 -1.6164
  833MPD2     C12244   4.639   1.318  12.935  0.5947 -0.2039 -0.1325
  833MPD2    C112245   4.575   1.252  12.833  0.4422  0.4850  0.7153
  833MPD2    C212246   4.642   1.156  12.765  0.0266 -0.2149 -0.7011
  833MPD2    C312247   0.043   1.100  12.800  0.4101 -0.4678  0.1249
  833MPD2    C412248   0.105   1.157  12.911 -0.1211 -0.4122  0.0815
  833MPD2    C512249   0.035   1.263  12.975 -0.2704 -0.2632 -0.3110
  833MPD2     H12250   4.586   1.109  12.684  0.4254  0.9089 -1.6211
  833MPD2    H112251   0.198   1.121  12.953 -0.3887 -0.8855  0.2696
  833MPD2    H212252   4.594   1.399  12.990 -2.9838 -1.9666 -0.4579
  833MPD2    H312253   0.083   1.311  13.059 -1.0214 -1.3426  0.7293
  833MPD2     N12254   0.096   0.995  12.728  0.3920 -0.0077 -0.3149
  833MPD2    H512255   0.197   0.996  12.725  0.4308  0.8999  1.4177
  833MPD2    N112256   4.448   1.286  12.779  0.5794  0.3473 -0.3597
  833MPD2    H712257   4.411   1.220  12.711 -1.3618  1.3472 -0.2693
  834MPD2     C12258   4.349   0.575  11.880 -0.1890 -0.2695 -0.1504
  834MPD2    C112259   4.481   0.592  11.842 -0.4616  0.2307 -0.1826
  834MPD2    C212260   4.578   0.601  11.939 -0.3271 -0.4619 -0.0992
  834MPD2    C312261   4.539   0.615  12.071  0.6439 -0.4444 -0.0901
  834MPD2    C412262   4.406   0.615  12.105  0.4432 -0.4773  0.7247
  834MPD2    C512263   4.313   0.587  12.015 -0.1701 -0.3264 -0.7478
  834MPD2     H12264   4.681   0.597  11.906  0.4296  1.4502  1.9985
  834MPD2    H112265   4.371   0.618  12.208 -0.6963  0.0478  0.3308
  834MPD2    H212266   4.269   0.576  11.807 -1.2084  0.4872  0.9818
  834MPD2    H312267   4.212   0.594  12.053  0.5749  0.0584  1.1967
  834MPD2     N12268   4.646   0.642  12.168 -0.2011 -0.8455  0.0711
  834MPD2    H512269   0.014   0.659  12.124 -0.3311 -0.7159 -0.1487
  834MPD2    N112270   4.505   0.591  11.702 -0.1201 -0.1710  0.0652
  834MPD2    H712271   4.424   0.588  11.641  0.1669  3.8557 -0.5271
  835MPD2     C12272   0.170   3.540  11.115  0.0748 -0.0961 -0.6419
  835MPD2    C112273   0.067   3.473  11.176 -0.0581 -0.4167  0.2134
  835MPD2    C212274   0.089   3.347  11.225 -0.1213  0.5049  0.5516
  835MPD2    C312275   0.211   3.282  11.224  0.8744  0.1871 -0.1471
  835MPD2    C412276   0.315   3.353  11.162  0.2934  0.5712  0.2022
  835MPD2    C512277   0.297   3.482  11.112 -0.2072 -0.4409 -0.0180
  835MPD2     H12278   0.007   3.290  11.267 -1.9647  0.9176 -2.4754
  835MPD2    H112279   0.412   3.303  11.158 -0.9008 -1.6647 -0.7978
  835MPD2    H212280   0.150   3.633  11.063 -0.9710 -0.3775 -0.7460
  835MPD2    H312281   0.383   3.522  11.060  0.0388 -2.8001 -1.4542
  835MPD2     N12282   0.219   3.156  11.288  0.3712  0.2170  0.0905
  835MPD2    H512283   0.132   3.119  11.325 -0.3828  0.1223 -1.8192
  835MPD2    N112284   4.653   3.504  11.167  0.3516  0.3111 -0.2655
  835MPD2    H712285   4.589   3.429  11.191 -1.4596  1.3133 -1.9818
  836MPD2     C12286   4.417   3.028  11.566 -0.3939  0.5097  0.4746
  836MPD2    C112287   4.520   3.053  11.653  0.0272  0.2711  0.7264
  836MPD2    C212288   4.495   3.118  11.770 -0.7288  0.8235  0.2630
  836MPD2    C312289   4.373   3.165  11.791  0.7387 -0.2836 -0.0234
  836MPD2    C412290   4.269   3.146  11.701  0.7045  0.1212  0.5423
  836MPD2    C512291   4.291   3.083  11.578  0.0394 -0.6486 -0.3836
  836MPD2     H12292   4.579   3.155  11.828 -2.4365  1.3278  2.4324
  836MPD2    H112293   4.175   3.200  11.707 -0.3697 -1.7618  0.4758
  836MPD2    H212294   4.435   2.972  11.475 -2.7948 -2.6852  1.9689
  836MPD2    H312295   4.211   3.069  11.506 -1.9888 -1.9628  2.1187
  836MPD2     N12296   4.345   3.231  11.913 -0.6007 -0.0416  0.2018
  836MPD2    H512297   4.253   3.273  11.923 -1.0537 -0.2982 -2.9347
  836MPD2    N112298   4.646   3.022  11.616 -0.2068  0.5353  0.1083
  836MPD2    H712299   4.657   2.996  11.519 -2.9102  0.5914 -0.2038
  837MPD2     C12300   3.761   2.558   9.772  0.2868 -0.3270 -0.2839
  837MPD2    C112301   3.651   2.597   9.839  0.2651  0.1075 -0.3476
  837MPD2    C212302   3.640   2.731   9.878  0.1139  0.3352  0.4405
  837MPD2    C312303   3.724   2.827   9.834  0.4451  0.7718  0.0317
  837MPD2    C412304   3.840   2.788   9.767  0.5864 -0.1518  0.3290
  837MPD2    C512305   3.849   2.660   9.729  0.2932  0.0079 -0.5124
  837MPD2     H12306   3.544   2.761   9.919  0.2405 -0.6367  1.4482
  837MPD2    H112307   3.894   2.865   9.715 -0.0554 -0.2068 -0.4318
  837MPD2    H212308   3.781   2.461   9.728  0.2877 -1.4526  2.2072
  837MPD2    H312309   3.916   2.627   9.650  2.9708  0.6667  1.4826
  837MPD2     N12310   3.680   2.962   9.851  0.1390 -0.0128  0.1158
  837MPD2    H512311   3.590   2.971   9.898  0.2192  0.4127  0.1856
  837MPD2    N112312   3.539   2.510   9.860  0.2604  0.0813 -0.3532
  837MPD2    H712313   3.460   2.543   9.914  2.4721  3.3701  0.8783
  838MPD2     C12314   1.759   1.954  11.942  0.7128 -0.0072  0.8204
  838MPD2    C112315   1.691   1.841  11.906  0.0980  0.5913  0.1782
  838MPD2    C212316   1.585   1.813  11.987 -0.0432 -0.0962  0.2664
  838MPD2    C312317   1.568   1.869  12.110 -0.3605 -0.0869  0.0581
  838MPD2    C412318   1.652   1.965  12.156 -0.2712 -0.2453  0.1046
  838MPD2    C512319   1.741   2.008  12.065  0.1122 -0.3920  0.1784
  838MPD2     H12320   1.530   1.725  11.956  1.1594 -0.7634  0.0240
  838MPD2    H112321   1.654   2.018  12.251 -3.3897 -1.8958  1.1044
  838MPD2    H212322   1.837   1.996  11.878  1.6922 -0.2352  1.8664
  838MPD2    H312323   1.813   2.085  12.091 -0.9618  0.2552  1.2565
  838MPD2     N12324   1.470   1.818  12.195 -1.1790  0.0811  0.8105
  838MPD2    H512325   1.423   1.734  12.162  1.0290 -1.5431  1.8258
  838MPD2    N112326   1.714   1.775  11.784  0.0969  0.7428  0.2392
  838MPD2    H712327   1.640   1.714  11.752 -1.0073  1.5208  1.3200
  839MPD2     C12328   1.242   1.151  11.624 -0.0892 -0.1625 -0.0982
  839MPD2    C112329   1.357   1.107  11.561 -0.0942  0.0662  0.2952
  839MPD2    C212330   1.457   1.192  11.526  0.1242 -0.6980 -0.3605
  839MPD2    C312331   1.440   1.329  11.548  0.1721  0.3802 -0.4209
  839MPD2    C412332   1.329   1.377  11.615 -0.1753 -0.2591  0.0402
  839MPD2    C512333   1.235   1.286  11.654 -0.3528  0.2781 -0.6467
  839MPD2     H12334   1.545   1.144  11.484 -0.6541 -0.7536 -1.9125
  839MPD2    H112335   1.325   1.484  11.630 -0.9372 -0.0736 -1.4556
  839MPD2    H212336   1.161   1.084  11.646  0.6788  0.2682  4.0827
  839MPD2    H312337   1.143   1.314  11.702 -1.1063  0.0198 -1.9289
  839MPD2     N12338   1.535   1.436  11.516  0.5831  0.0658  0.8149
  839MPD2    H512339   1.513   1.532  11.542 -1.3915 -0.1375 -0.1740
  839MPD2    N112340   1.376   0.966  11.541 -0.1779 -0.0103 -0.4368
  839MPD2    H712341   1.465   0.940  11.499  0.3296  2.9103 -1.2267
  840MPD2     C12342   1.559   3.344  10.546 -0.1366  1.2688 -0.1283
  840MPD2    C112343   1.562   3.324  10.687  0.1774  0.2517 -0.1208
  840MPD2    C212344   1.662   3.395  10.753 -0.1876  0.4847 -0.4977
  840MPD2    C312345   1.740   3.492  10.690 -0.1817  0.3293  0.1152
  840MPD2    C412346   1.727   3.514  10.554 -0.6630 -0.2170 -0.2495
  840MPD2    C512347   1.635   3.441  10.485 -0.6370 -0.0348  0.0650
  840MPD2     H12348   1.681   3.361  10.854  0.8295  2.2662 -0.0792
  840MPD2    H112349   1.796   3.580  10.501  1.4404 -3.0254 -0.9873
  840MPD2    H212350   1.482   3.302  10.482 -0.7792  1.7205  0.3409
  840MPD2    H312351   1.621   3.454  10.379 -1.7423  0.7893  0.3161
  840MPD2     N12352   1.830   3.572  10.765 -0.0743 -0.4080  0.2841
  840MPD2    H512353   1.902   3.626  10.717  0.5815  0.5692  2.3601
  840MPD2    N112354   1.477   3.231  10.750  0.6257  0.3408 -0.1205
  840MPD2    H712355   1.418   3.179  10.686  1.1599  1.1262 -1.2435
  841MPD2     C12356   0.972   4.005  14.979  0.0193  0.1944  0.0058
  841MPD2    C112357   1.016   3.921  14.875 -0.1101  0.3974 -0.6279
  841MPD2    C212358   1.059   3.983  14.760  0.2949 -0.4215  0.3275
  841MPD2    C312359   1.055   4.120  14.746 -0.3785 -0.0921  0.6539
  841MPD2    C412360   1.010   4.194  14.846 -0.4545 -0.6455  0.1122
  841MPD2    C512361   0.965   4.138  14.960  0.1632  1.2350  0.3229
  841MPD2     H12362   1.078   3.922  14.672 -1.4722  0.5619 -0.7236
  841MPD2    H112363   1.004   4.302  14.844 -0.0027 -0.6788 -2.1514
  841MPD2    H212364   0.947   3.968  15.077  0.2217  1.8872  0.6893
  841MPD2    H312365   0.940   4.199  15.047 -1.0300 -0.4713  1.1742
  841MPD2     N12366   1.112   4.165  14.630  0.0851 -0.0133  0.0017
  841MPD2    H512367   1.130   4.095  14.559  2.7815  0.6654  0.0207
  841MPD2    N112368   1.025   3.784  14.884 -0.4406 -0.3940  0.2016
  841MPD2    H712369   1.059   3.736  14.801 -1.1605 -0.7261  0.0979
  842MPD2     C12370   1.375   4.617  16.855 -0.3045  0.0010 -0.6038
  842MPD2    C112371   1.315   4.490  16.853  0.4373  0.1066 -0.3700
  842MPD2    C212372   1.277   4.427  16.975 -0.0144  0.4962  0.4604
  842MPD2    C312373   1.298   4.500  17.094  0.5941  0.0593 -0.0257
  842MPD2    C412374   1.358   4.630  17.093  0.1219  0.2535 -0.3795
  842MPD2    C512375   1.402   4.681  16.973 -0.8070  0.1718 -0.2371
  842MPD2     H12376   1.242   4.325  16.967 -2.6616  1.4493 -0.3257
  842MPD2    H112377   1.375   4.690  17.182  0.2600  3.0664 -2.2881
  842MPD2    H212378   1.404   4.661  16.760 -0.2664 -1.5315 -1.3001
  842MPD2    H312379   1.446   0.058  16.966  0.4336 -0.4598 -1.2302
  842MPD2     N12380   1.260   4.447  17.225 -0.1509  0.1153  0.2084
  842MPD2    H512381   1.283   4.509  17.302  3.5754  0.3603 -1.0855
  842MPD2    N112382   1.288   4.443  16.727 -0.1224 -0.6530 -0.6727
  842MPD2    H712383   1.309   4.510  16.654  1.3996 -1.3489 -0.8591
  843MPD2     C12384   3.095   0.585   0.547 -0.4585  0.2427 -0.0152
  843MPD2    C112385   3.202   0.520   0.593  0.0598 -0.5483  0.6365
  843MPD2    C212386   3.326   0.591   0.588 -0.0865 -0.4478 -0.1159
  843MPD2    C312387   3.335   0.721   0.541  0.3433  1.0453 -0.5239
  843MPD2    C412388   3.224   0.789   0.502 -0.5238  0.4164  0.0071
  843MPD2    C512389   3.108   0.715   0.503 -0.0482  0.2912 -0.1432
  843MPD2     H12390   3.410   0.535   0.628  1.5758  1.2167 -1.2680
  843MPD2    H112391   3.226   0.893   0.470  0.6822  0.1875 -0.6357
  843MPD2    H212392   3.011   0.521   0.526  1.6770 -2.8343  0.8491
  843MPD2    H312393   3.027   0.773   0.460 -0.6689 -1.5019 -1.3754
  843MPD2     N12394   3.468   0.789   0.530  0.6223 -0.5634 -0.3962
  843MPD2    H512395   3.459   0.890   0.518 -0.7295 -0.7188 -0.6404
  843MPD2    N112396   3.182   0.388   0.639 -0.5911 -0.2665 -0.1932
  843MPD2    H712397   3.092   0.342   0.647 -0.7153 -0.5143 -3.1106
  844MPD2     C12398   1.979   3.915  16.753 -0.2972 -0.0479 -0.5915
  844MPD2    C112399   2.104   3.858  16.736  0.1502  1.0908  0.0695
  844MPD2    C212400   2.211   3.930  16.776  0.0969  0.2580 -0.0065
  844MPD2    C312401   2.198   4.052  16.834 -0.2472  0.7899  0.3724
  844MPD2    C412402   2.071   4.106  16.856 -0.3078 -0.6373 -0.0199
  844MPD2    C512403   1.965   4.036  16.810  0.6036 -0.0804  0.0378
  844MPD2     H12404   2.311   3.892  16.755 -0.1746 -0.8129  0.6710
  844MPD2    H112405   2.052   4.202  16.902  1.5620 -0.0019 -0.5980
  844MPD2    H212406   1.890   3.857  16.731 -1.3702  1.6229 -0.6939
  844MPD2    H312407   1.862   4.068  16.818 -0.0864 -2.3560  0.2990
  844MPD2     N12408   2.310   4.123  16.885 -0.4079  0.0135  0.2945
  844MPD2    H512409   2.398   4.074  16.870  0.8104  2.1056  0.5951
  844MPD2    N112410   2.109   3.737  16.659  0.1781 -0.3005  0.3863
  844MPD2    H712411   2.022   3.701  16.621  0.1129 -1.1637  1.3453
  845MPD2     C12412   2.525   0.303  17.290  0.2674  0.1417  0.2309
  845MPD2    C112413   2.418   0.227  17.283  0.2497  0.4783 -0.0516
  845MPD2    C212414   2.420   0.103  17.227  0.1332  0.0942 -0.6550
  845MPD2    C312415   2.532   0.057  17.165 -0.8003 -0.1513  0.0246
  845MPD2    C412416   2.644   0.134  17.167  0.4118 -0.2870 -0.2531
  845MPD2    C512417   2.640   0.257  17.237  0.6155  0.0499  0.1647
  845MPD2     H12418   2.337   0.035  17.211 -1.2525  1.4122  0.8996
  845MPD2    H112419   2.744   0.104  17.139 -0.0314 -1.1660 -0.9085
  845MPD2    H212420   2.537   0.401  17.333  0.8434 -0.0324  0.4742
  845MPD2    H312421   2.734   0.308  17.255 -0.0257  1.1670  0.3353
  845MPD2     N12422   2.537   4.654  17.100  0.2925  0.2285  0.2263
  845MPD2    H512423   2.447   4.606  17.103 -0.2788  1.2419 -0.4103
  845MPD2    N112424   2.299   0.292  17.333  0.2400  0.0265 -0.2097
  845MPD2    H712425   2.307   0.382  17.380  0.6645 -0.2818  0.3070
  846MPD2     C12426   3.761   0.596  13.991  0.1291 -0.3448  0.4183
  846MPD2    C112427   3.673   0.696  14.008  0.5842  0.1220  0.3619
  846MPD2    C212428   3.648   0.737  14.137 -0.5866  0.8084  0.0294
  846MPD2    C312429   3.734   0.698  14.245 -1.1886 -0.5360 -0.0693
  846MPD2    C412430   3.831   0.599  14.219 -0.5431  0.6176  0.5565
  846MPD2    C512431   3.842   0.545  14.094  0.4918  0.0401  0.4973
  846MPD2     H12432   3.571   0.809  14.164  0.1217  0.8831  1.8742
  846MPD2    H112433   3.893   0.556  14.296  0.5768 -1.1752 -1.3845
  846MPD2    H212434   3.782   0.552  13.893 -2.0711 -0.7194  0.1274
  846MPD2    H312435   3.915   0.468  14.071 -1.5389 -1.4079 -1.0841
  846MPD2     N12436   3.718   0.762  14.371  0.1460  0.4403  0.1261
  846MPD2    H512437   3.634   0.819  14.372 -0.7254 -0.8027 -2.2314
  846MPD2    N112438   3.605   0.762  13.904 -0.4449 -0.4507 -0.0489
  846MPD2    H712439   3.544   0.840  13.926 -0.9622 -0.3354 -1.9134
  847MPD2     C12440   3.770   1.543  14.277  0.3593 -0.2444 -0.2368
  847MPD2    C112441   3.837   1.602  14.384  0.0626 -0.8259  0.4289
  847MPD2    C212442   3.949   1.544  14.435 -0.6171 -0.4259  0.4290
  847MPD2    C312443   3.994   1.425  14.390  0.1657 -0.1778  0.1645
  847MPD2    C412444   3.924   1.365  14.284 -0.8033 -0.4661 -0.1927
  847MPD2    C512445   3.823   1.431  14.222 -0.4104  0.1488  0.4468
  847MPD2     H12446   4.017   1.600  14.499 -0.0776  2.4435 -2.6656
  847MPD2    H112447   3.956   1.275  14.234 -2.5514 -1.4480  0.4462
  847MPD2    H212448   3.690   1.594  14.226  0.0274  0.0208  0.5512
  847MPD2    H312449   3.778   1.381  14.137  2.4700 -0.0713 -0.9287
  847MPD2     N12450   4.119   1.381  14.435  0.0270 -0.2043 -0.5889
  847MPD2    H512451   4.171   1.450  14.488  1.5906 -2.8218  1.2915
  847MPD2    N112452   3.798   1.723  14.446 -0.1801  0.2512  0.0751
  847MPD2    H712453   3.874   1.762  14.502  0.1559 -1.6276  0.9507
  848MPD2     C12454   1.612   4.352  16.393  0.1597  0.1856 -0.4939
  848MPD2    C112455   1.642   4.417  16.508 -0.1542  0.3218  0.4679
  848MPD2    C212456   1.702   4.540  16.491  0.0023 -0.3475  0.3389
  848MPD2    C312457   1.725   4.593  16.369 -0.8607  0.4237 -0.9182
  848MPD2    C412458   1.692   4.522  16.255 -0.2777 -0.0540 -0.3141
  848MPD2    C512459   1.645   4.399  16.269  0.6993 -0.1220  0.1668
  848MPD2     H12460   1.716   4.603  16.579  1.6219 -0.1930 -0.0371
  848MPD2    H112461   1.716   4.563  16.158  0.7752  1.1301  0.4502
  848MPD2    H212462   1.564   4.255  16.403 -0.2643  0.4857  0.3487
  848MPD2    H312463   1.623   4.343  16.179  1.8837  3.3551 -2.2722
  848MPD2     N12464   1.762   0.007  16.351  0.1073  0.1366  0.4571
  848MPD2    H512465   1.774   0.040  16.256  0.5576  2.3176  1.2622
  848MPD2    N112466   1.616   4.375  16.639 -0.0618 -0.2486 -0.2939
  848MPD2    H712467   1.632   4.438  16.717 -1.4819 -0.4641  0.1774
  849MPD2     C12468   1.545   0.251  13.497  0.1675  0.4119 -0.8749
  849MPD2    C112469   1.676   0.210  13.510 -0.1588  0.7623 -0.1017
  849MPD2    C212470   1.716   0.167  13.632 -0.0576 -0.5677 -0.1441
  849MPD2    C312471   1.622   0.137  13.728  0.0482 -0.4461  0.0180
  849MPD2    C412472   1.491   0.166  13.710  0.4335 -0.1447  0.2923
  849MPD2    C512473   1.457   0.238  13.598  1.3895 -0.6960 -0.1702
  849MPD2     H12474   1.815   0.126  13.643 -0.4549 -1.7364 -0.8961
  849MPD2    H112475   1.410   0.149  13.780  0.1254  1.2112  0.2699
  849MPD2    H212476   1.505   0.298  13.408  2.1777 -1.1647 -2.6029
  849MPD2    H312477   1.358   0.275  13.575 -0.4303 -3.5155  3.0568
  849MPD2     N12478   1.669   0.065  13.843  0.0308 -0.0898 -0.4801
  849MPD2    H512479   1.770   0.058  13.849 -0.0075 -1.1840 -1.2288
  849MPD2    N112480   1.776   0.223  13.410 -0.8016 -0.1508 -0.3857
  849MPD2    H712481   1.868   0.183  13.425 -0.3442  1.1732  0.2837
  850MPD2     C12482   3.796   2.490  14.707  0.0390 -0.4378  0.7687
  850MPD2    C112483   3.802   2.456  14.839  0.4190 -0.2335  0.5549
  850MPD2    C212484   3.913   2.500  14.908 -0.6855 -0.4045 -0.1246
  850MPD2    C312485   4.020   2.558  14.841 -0.1611 -0.0190  0.0872
  850MPD2    C412486   4.013   2.573  14.707 -0.1612  0.2115 -0.1179
  850MPD2    C512487   3.903   2.542  14.640 -0.7074 -0.5780  0.3175
  850MPD2     H12488   3.920   2.482  15.014  2.2866 -2.2021 -0.6298
  850MPD2    H112489   4.097   2.611  14.650  0.8228  1.2231  1.9901
  850MPD2    H212490   3.700   2.487  14.657  0.5053  0.5518 -0.2002
  850MPD2    H312491   3.889   2.576  14.538  1.5050  1.3503  0.6547
  850MPD2     N12492   4.142   2.591  14.905 -0.3408 -0.3816  0.6797
  850MPD2    H512493   4.214   2.633  14.846 -0.1380  0.5950  1.6319
  850MPD2    N112494   3.681   2.402  14.896 -0.2748 -0.1365  0.9803
  850MPD2    H712495   3.605   2.389  14.830  0.3371 -1.7917  0.5992
  851MPD2     C12496   4.285   2.123  15.426  0.4818  0.0435 -0.1242
  851MPD2    C112497   4.176   2.064  15.360  0.0280  0.6085 -0.4154
  851MPD2    C212498   4.178   1.934  15.313 -0.0780 -0.1222 -0.0790
  851MPD2    C312499   4.294   1.864  15.329 -0.4845  0.4448  0.0768
  851MPD2    C412500   4.401   1.920  15.399  1.4687 -0.2084 -0.3013
  851MPD2    C512501   4.394   2.048  15.439 -0.1944  0.5515  0.8668
  851MPD2     H12502   4.091   1.883  15.274  0.0005  0.5327 -1.0982
  851MPD2    H112503   4.492   1.866  15.420  0.9859 -1.8685 -2.4183
  851MPD2    H212504   4.280   2.227  15.456 -2.5064 -0.7547  2.1456
  851MPD2    H312505   4.477   2.087  15.496  0.7296 -0.6316  0.3428
  851MPD2     N12506   4.296   1.731  15.283  0.2671  0.3125 -0.9126
  851MPD2    H512507   4.207   1.695  15.251  0.0016 -1.1484  1.4448
  851MPD2    N112508   4.062   2.141  15.342 -0.3780 -0.2822  0.0636
  851MPD2    H712509   4.073   2.241  15.351 -1.7068 -0.2699  1.6586
  852MPD2     C12510   3.800   0.375  10.278  0.2531  0.5268  0.0781
  852MPD2    C112511   3.918   0.440  10.321 -0.4493 -0.7209 -0.4144
  852MPD2    C212512   4.040   0.389  10.271  0.1163  0.4322  0.7567
  852MPD2    C312513   4.036   0.278  10.180  0.2853  0.3570 -0.5091
  852MPD2    C412514   3.914   0.208  10.162 -0.4628 -0.1379  0.8201
  852MPD2    C512515   3.798   0.263  10.208  0.2304 -0.1609  0.5297
  852MPD2     H12516   4.131   0.446  10.289 -0.7109  2.4858 -1.4869
  852MPD2    H112517   3.923   0.122  10.096 -0.4772 -0.5790  1.3956
  852MPD2    H212518   3.699   0.405  10.304  0.5480  0.2159  1.5586
  852MPD2    H312519   3.708   0.212  10.173  0.7954  0.3767 -1.7245
  852MPD2     N12520   4.148   0.227  10.113  0.6047  0.5270 -0.5457
  852MPD2    H512521   4.236   0.274  10.132  0.2250  0.9905  0.0688
  852MPD2    N112522   3.927   0.543  10.419  0.6674 -0.0542  0.1448
  852MPD2    H712523   4.012   0.598  10.428  1.5079 -1.2504 -0.5345
  853MPD2     C12524   0.836   4.584  12.371 -0.1859  0.8919 -0.0807
  853MPD2    C112525   0.833   4.712  12.339 -0.1584 -0.3425 -0.5292
  853MPD2    C212526   0.846   0.023  12.202 -0.3838 -0.3205 -0.3131
  853MPD2    C312527   0.850   4.643  12.106 -0.2756  0.5396 -0.0862
  853MPD2    C412528   0.841   4.514  12.143  0.5099  0.0628 -0.5631
  853MPD2    C512529   0.838   4.489  12.276  0.2716 -0.1191 -1.2281
  853MPD2     H12530   0.842   0.125  12.164  0.9912  0.4263  1.5510
  853MPD2    H112531   0.840   4.426  12.080  1.2016 -0.6332  0.4063
  853MPD2    H212532   0.847   4.554  12.474 -1.5933 -0.0490 -0.2060
  853MPD2    H312533   0.827   4.384  12.300 -1.4831  0.3943  0.1316
  853MPD2     N12534   0.843   4.673  11.965  0.1360  0.1748 -0.5362
  853MPD2    H512535   0.859   4.598  11.899  3.6765  0.8604 -0.4225
  853MPD2    N112536   0.807   0.083  12.447 -0.5526 -0.5843 -0.1190
  853MPD2    H712537   0.798   0.036  12.536 -2.3487  0.1089  0.0562
  854MPD2     C12538   2.673   0.002  12.671  0.5612  0.1255  0.0902
  854MPD2    C112539   2.721   0.085  12.768  0.1018  0.0760 -0.5999
  854MPD2    C212540   2.792   0.031  12.882 -0.2382 -0.5388  0.0487
  854MPD2    C312541   2.812   4.615  12.889 -0.3265 -0.2913  0.1678
  854MPD2    C412542   2.775   4.538  12.779 -0.4228  0.2469 -0.1647
  854MPD2    C512543   2.700   4.592  12.678 -0.4802  0.2702  0.2553
  854MPD2     H12544   2.831   0.103  12.953 -0.0669 -1.1521  0.5774
  854MPD2    H112545   2.799   4.432  12.775 -0.2382  0.3901 -2.6675
  854MPD2    H212546   2.638   0.050  12.580 -0.1720 -0.4906  0.0461
  854MPD2    H312547   2.647   4.536  12.601  1.3061 -0.0046 -0.7914
  854MPD2     N12548   2.875   4.552  13.000  0.3355  0.6736 -0.2381
  854MPD2    H512549   2.895   4.453  12.989  0.3341  0.8274 -1.7256
  854MPD2    N112550   2.693   0.222  12.736 -0.2488  0.4348 -0.6065
  854MPD2    H712551   2.665   0.246  12.641 -2.7705 -0.4367 -0.0836
  855MPD2     C12552   3.070   4.708  13.988 -0.1501  0.1368 -0.2028
  855MPD2    C112553   3.133   4.597  13.950 -0.0188 -0.3309 -0.5500
  855MPD2    C212554   3.112   4.545  13.825 -0.7882 -0.4612  0.5257
  855MPD2    C312555   3.023   4.601  13.736  0.0697 -0.0364  0.0602
  855MPD2    C412556   2.956   4.716  13.773  0.4493 -0.3295 -0.0366
  855MPD2    C512557   2.983   0.044  13.893  0.6026  0.0457 -0.4831
  855MPD2     H12558   3.174   4.459  13.803  0.1460  0.1282  0.8101
  855MPD2    H112559   2.898   0.049  13.699 -1.4475 -1.8269  0.3558
  855MPD2    H212560   3.075   0.037  14.084 -2.0227  0.0795 -0.0680
  855MPD2    H312561   2.927   0.132  13.922  2.0865 -0.0019  2.6192
  855MPD2     N12562   3.013   4.562  13.600 -0.6446 -0.3834 -1.0557
  855MPD2    H512563   2.953   4.623  13.546 -0.9998  0.9339  0.7972
  855MPD2    N112564   3.214   4.524  14.039  0.1705 -1.1744 -0.5862
  855MPD2    H712565   3.249   4.441  13.993 -1.1696 -0.0897 -3.5544
  856MPD2     C12566   4.538   1.054  14.007  0.1293 -0.4413 -0.2773
  856MPD2    C112567   4.602   1.167  14.051  0.0077  0.5987  0.5796
  856MPD2    C212568   4.514   1.274  14.094 -0.5836 -0.6767  0.5070
  856MPD2    C312569   4.379   1.256  14.104 -0.8661  0.5362  0.0109
  856MPD2    C412570   4.319   1.140  14.073  0.2315  0.0905  0.5433
  856MPD2    C512571   4.400   1.043  14.025 -0.4470 -1.0976  0.2551
  856MPD2     H12572   4.558   1.369  14.124  1.9165 -1.3456 -1.0612
  856MPD2    H112573   4.213   1.125  14.089  0.6283 -1.5587  1.6124
  856MPD2    H212574   4.581   0.961  13.971 -2.0768 -1.9301  0.9159
  856MPD2    H312575   4.356   0.947  14.001  1.3963 -1.5144 -1.5299
  856MPD2     N12576   4.295   1.366  14.150  0.1618  0.3821  0.4688
  856MPD2    H512577   4.195   1.362  14.130 -0.3098  1.2771  2.7622
  856MPD2    N112578   0.026   1.187  14.052  0.2576 -0.1247  0.0670
  856MPD2    H712579   0.073   1.273  14.075 -2.0750  0.9191  0.8771
  857MPD2     C12580   1.825   2.856  13.102  0.4323  0.2614  0.1410
  857MPD2    C112581   1.953   2.819  13.139 -0.0525  0.0853  0.0606
  857MPD2    C212582   2.056   2.905  13.121  0.1133 -0.3202  0.0834
  857MPD2    C312583   2.029   3.034  13.078  0.5416 -0.3195 -0.4409
  857MPD2    C412584   1.903   3.075  13.041 -0.3403 -1.3483  0.1763
  857MPD2    C512585   1.803   2.984  13.054 -0.0901  0.2141  0.9187
  857MPD2     H12586   2.156   2.884  13.155  0.2407  0.6759  0.3362
  857MPD2    H112587   1.864   3.169  13.004 -1.1195 -1.2122  1.3511
  857MPD2    H212588   1.737   2.792  13.107  0.3934  0.3693  0.8246
  857MPD2    H312589   1.702   3.021  13.041 -0.1640 -0.3247 -0.1164
  857MPD2     N12590   2.138   3.120  13.062 -0.5906 -0.5175  0.1326
  857MPD2    H512591   2.230   3.099  13.101  0.2346  1.6746 -0.6150
  857MPD2    N112592   1.981   2.685  13.153  0.2183 -0.7538  0.0374
  857MPD2    H712593   1.901   2.627  13.131  0.9016 -1.7777  0.2846
  858MPD2     C12594   2.055   1.909  17.146  0.4294  0.2111  0.0297
  858MPD2    C112595   2.195   1.920  17.138  0.0639 -0.2124  0.1803
  858MPD2    C212596   2.252   2.028  17.206 -0.1986  0.2205 -0.5727
  858MPD2    C312597   2.176   2.111  17.285 -0.3180 -0.2351 -0.3482
  858MPD2    C412598   2.040   2.092  17.290 -0.6514 -0.4739  0.7598
  858MPD2    C512599   1.984   1.988  17.223  0.7186  0.9549 -0.5213
  858MPD2     H12600   2.360   2.043  17.212 -0.1866 -0.3698  0.6914
  858MPD2    H112601   1.975   2.155  17.349 -1.2226 -1.0703  0.7699
  858MPD2    H212602   2.006   1.827  17.095  0.1968 -0.4564  1.3351
  858MPD2    H312603   1.882   1.964  17.250  0.8110 -0.2771 -1.2766
  858MPD2     N12604   2.230   2.221  17.357  0.1448 -0.3313  0.0727
  858MPD2    H512605   2.158   2.284  17.391 -1.0173 -1.2699 -0.6848
  858MPD2    N112606   2.275   1.820  17.087  0.4074 -0.1527 -0.3283
  858MPD2    H712607   2.222   1.741  17.051 -1.2205  0.2652  1.1109
  859MPD2     C12608   1.230   3.890  15.510 -0.2379 -0.4745  0.3596
  859MPD2    C112609   1.275   3.933  15.390 -0.2067 -0.3173 -0.1018
  859MPD2    C212610   1.312   3.838  15.292  0.5310  0.2498  0.0673
  859MPD2    C312611   1.307   3.703  15.317 -0.0726  0.1537 -0.0947
  859MPD2    C412612   1.267   3.664  15.444 -0.5530 -0.5000 -0.1596
  859MPD2    C512613   1.224   3.758  15.537 -0.4501 -0.4218 -0.0838
  859MPD2     H12614   1.352   3.870  15.196  2.9717 -1.2230  0.6147
  859MPD2    H112615   1.267   3.559  15.471 -1.4380 -0.5621 -0.4009
  859MPD2    H212616   1.214   3.958  15.594 -1.0556 -0.2548  0.0212
  859MPD2    H312617   1.211   3.720  15.638 -1.5513 -2.2443 -0.9180
  859MPD2     N12618   1.353   3.605  15.228  0.0686 -0.1576 -0.3142
  859MPD2    H512619   1.322   3.511  15.254  1.3482 -0.2195  0.9583
  859MPD2    N112620   1.260   4.075  15.375 -0.4422  0.4186  0.1731
  859MPD2    H712621   1.239   4.127  15.460 -0.5913 -2.8322  2.1509
  860MPD2     C12622   3.874   4.685  11.591 -0.6035  0.3026 -0.8628
  860MPD2    C112623   3.942   4.667  11.704 -0.5833  0.3339  0.8246
  860MPD2    C212624   3.881   4.595  11.801  0.4334  0.0275 -0.2706
  860MPD2    C312625   3.739   4.598  11.801  0.4732  0.8201  0.3702
  860MPD2    C412626   3.662   4.642  11.695 -0.6992  0.5610  0.3622
  860MPD2    C512627   3.738   4.673  11.582 -0.7446  0.0142 -0.1115
  860MPD2     H12628   3.933   4.570  11.893 -1.2785  1.0409  0.9693
  860MPD2    H112629   3.554   4.642  11.693 -0.6742  0.3803 -0.9749
  860MPD2    H212630   3.924   0.007  11.504  1.1689  0.1229  0.0720
  860MPD2    H312631   3.688   4.711  11.494 -1.0070 -0.2417 -0.0762
  860MPD2     N12632   3.669   4.576  11.919 -0.0678 -0.1844  0.4365
  860MPD2    H512633   3.579   4.621  11.925  0.2616  0.1984  2.2491
  860MPD2    N112634   4.078   4.709  11.724 -0.1950 -0.1352 -0.2624
  860MPD2    H712635   4.113   4.682  11.815 -2.4661  1.5771  1.1077
  861MPD2     C12636   2.856   2.572  11.223 -0.1888 -0.0526  0.1392
  861MPD2    C112637   2.738   2.612  11.289 -0.5061 -1.1381  0.0556
  861MPD2    C212638   2.657   2.698  11.222 -0.4943 -0.7627  0.3887
  861MPD2    C312639   2.677   2.732  11.087  0.3634 -0.4506  0.1859
  861MPD2    C412640   2.785   2.672  11.022  0.0164 -0.2129 -0.8694
  861MPD2    C512641   2.873   2.595  11.092  0.0134 -0.0810 -0.6365
  861MPD2     H12642   2.578   2.745  11.279 -1.9588 -1.1519 -1.3347
  861MPD2    H112643   2.804   2.708  10.922  0.1716  0.4108 -0.6109
  861MPD2    H212644   2.937   2.519  11.272  0.1756  2.1260  1.9264
  861MPD2    H312645   2.960   2.552  11.043 -0.8480 -1.8340 -0.6268
  861MPD2     N12646   2.599   2.823  11.017  0.3402 -0.5026  0.0111
  861MPD2    H512647   2.633   2.859  10.928 -1.5155  0.6821 -0.2049
  861MPD2    N112648   2.709   2.586  11.426 -0.1167  0.1119  0.0281
  861MPD2    H712649   2.637   2.645  11.466 -0.1450  0.0649  0.0478
  862MPD2     C12650   2.447   3.043  10.343  0.1742 -0.5611  0.1347
  862MPD2    C112651   2.431   2.955  10.452 -0.2851  1.0615  1.1787
  862MPD2    C212652   2.439   2.817  10.422  0.0831 -0.0923  0.1718
  862MPD2    C312653   2.462   2.768  10.294 -0.6221  0.1004  0.1391
  862MPD2    C412654   2.463   2.859  10.191 -0.3378  0.6671 -0.7548
  862MPD2    C512655   2.459   2.993  10.217 -0.1026  0.5923 -0.1806
  862MPD2     H12656   2.425   2.751  10.507 -0.0030 -2.1989 -1.4800
  862MPD2    H112657   2.480   2.826  10.089  2.6302 -0.5618  0.1481
  862MPD2    H212658   2.442   3.151  10.347  1.0247 -0.4870 -0.7171
  862MPD2    H312659   2.470   3.059  10.132  0.4300 -1.7580 -1.9198
  862MPD2     N12660   2.484   2.631  10.266  0.4260  0.7611  0.4465
  862MPD2    H512661   2.497   2.610  10.167 -1.0092  1.3448  0.1246
  862MPD2    N112662   2.417   2.993  10.590  0.0551 -0.0176  0.1943
  862MPD2    H712663   2.408   2.908  10.645  0.3704 -1.0970 -1.4021
  863MPD2     C12664   0.748   0.779  17.329 -0.1515  0.2915  0.0759
  863MPD2    C112665   0.799   0.905  17.363 -0.0782 -0.3220 -0.3340
  863MPD2    C212666   0.894   0.914  17.463 -0.8464  0.2435 -0.5680
  863MPD2    C312667   0.942   0.799  17.530  0.4109 -0.7479 -0.7792
  863MPD2    C412668   0.880   0.680  17.500 -0.5617 -0.3035 -0.0561
  863MPD2    C512669   0.785   0.670  17.401  0.5587  0.1809 -0.6936
  863MPD2     H12670   0.929   1.013  17.488  0.4221 -0.8143  1.9384
  863MPD2    H112671   0.906   0.592  17.557  1.0834  0.9894  1.1695
  863MPD2    H212672   0.677   0.761  17.249  1.1023 -0.1490 -0.9333
  863MPD2    H312673   0.747   0.571  17.377 -1.3062  0.6788  0.2036
  863MPD2     N12674   1.037   0.799  17.632  0.4553  0.3747  0.6062
  863MPD2    H512675   1.055   0.708  17.673 -1.7209 -0.1442  0.3874
  863MPD2    N112676   0.754   1.013  17.283 -0.6731 -0.2176  0.5720
  863MPD2    H712677   0.696   0.991  17.203  2.0236 -1.3294 -1.0746
  864MPD2     C12678   1.282   1.982   0.231  0.0592 -0.3653  0.3521
  864MPD2    C112679   1.328   1.917   0.120 -0.2178 -0.1034 -0.9008
  864MPD2    C212680   1.358   1.981   0.002 -0.2980 -1.0251 -0.9059
  864MPD2    C312681   1.353   2.117   0.002 -0.0214 -0.1492  0.6390
  864MPD2    C412682   1.306   2.182   0.105  0.2459  0.1323 -0.2940
  864MPD2    C512683   1.279   2.117   0.223 -0.6859  0.3179  1.2162
  864MPD2     H12684   1.377   1.931  17.597  0.3504  0.1532 -1.4031
  864MPD2    H112685   1.304   2.290   0.114 -2.0956 -0.2341  3.5199
  864MPD2    H212686   1.258   1.936   0.326  1.3427  2.4089  2.0371
  864MPD2    H312687   1.261   2.171   0.315 -2.8000 -0.3633  1.1976
  864MPD2     N12688   1.372   2.198  17.578  0.1437  0.5934  0.1456
  864MPD2    H512689   1.342   2.295  17.575  1.2896  0.9944  1.4329
  864MPD2    N112690   1.316   1.769   0.120  0.1380  0.3286 -0.5101
  864MPD2    H712691   1.256   1.731   0.193 -0.9683  0.6204 -1.2719
  865MPD2     C12692   1.369   2.478  16.711 -0.0678 -0.7184  0.3545
  865MPD2    C112693   1.356   2.382  16.802 -0.2289  0.7994 -0.1041
  865MPD2    C212694   1.283   2.403  16.918  0.8393  0.3674 -0.1956
  865MPD2    C312695   1.221   2.525  16.947  0.6092  0.6014 -0.0994
  865MPD2    C412696   1.215   2.614  16.836  0.3936  0.0925 -0.0627
  865MPD2    C512697   1.299   2.597  16.727  0.2846  0.0380  0.3270
  865MPD2     H12698   1.278   2.331  16.998 -1.0911  0.5091 -0.1992
  865MPD2    H112699   1.170   2.711  16.857 -0.5681 -0.3187 -0.2312
  865MPD2    H212700   1.432   2.467  16.623  1.8661  0.9448  1.5146
  865MPD2    H312701   1.313   2.670  16.648 -0.0207 -1.5340 -1.1751
  865MPD2     N12702   1.159   2.545  17.069  0.3004  0.5703  0.1423
  865MPD2    H512703   1.096   2.624  17.079 -2.0718 -1.3118  0.0944
  865MPD2    N112704   1.438   2.261  16.784 -0.0042 -0.0864  0.8035
  865MPD2    H712705   1.489   2.262  16.697 -0.1322  0.2772  0.7321
  866MPD2     C12706   3.179   2.630  11.631 -0.5464 -0.6286  0.8205
  866MPD2    C112707   3.211   2.656  11.502  0.3367  0.4555 -0.5948
  866MPD2    C212708   3.129   2.740  11.429 -0.5143  0.0593 -0.5531
  866MPD2    C312709   3.016   2.804  11.481  0.2442  0.0331  0.0358
  866MPD2    C412710   3.002   2.796  11.615 -0.2423  0.5874 -0.5638
  866MPD2    C512711   3.085   2.715  11.691 -0.2473  0.7568  0.2305
  866MPD2     H12712   3.157   2.759  11.326 -0.0153 -0.2370 -0.4751
  866MPD2    H112713   2.923   2.848  11.668 -2.0575  0.7775 -3.4484
  866MPD2    H212714   3.239   2.565  11.694  1.8970 -0.2846 -1.1807
  866MPD2    H312715   3.061   2.708  11.797 -0.3027 -0.3166  0.1457
  866MPD2     N12716   2.941   2.905  11.412  0.3225  0.0473 -0.0042
  866MPD2    H512717   2.862   2.944  11.461 -1.0483 -0.4214 -1.8115
  866MPD2    N112718   3.331   2.589  11.452 -0.4595 -0.5556 -0.2028
  866MPD2    H712719   3.377   2.524  11.515  2.8865  0.5645 -1.4464
  867MPD2     C12720   0.516   2.569  16.741 -0.1171  0.3498 -0.1413
  867MPD2    C112721   0.586   2.582  16.861 -0.0375 -0.5889 -0.1023
  867MPD2    C212722   0.575   2.705  16.932  0.4327 -0.0657 -0.1159
  867MPD2    C312723   0.511   2.812  16.882 -0.1990  0.7214  0.0335
  867MPD2    C412724   0.452   2.798  16.759  0.6419  0.3836  0.0032
  867MPD2    C512725   0.448   2.680  16.689 -0.9353 -0.1347 -0.0838
  867MPD2     H12726   0.603   2.708  17.037  2.3491  1.6553 -0.6855
  867MPD2    H112727   0.396   2.882  16.720  1.1941  0.5960 -0.3162
  867MPD2    H212728   0.516   2.480  16.679  0.9300  0.8043 -0.7829
  867MPD2    H312729   0.392   2.678  16.596  0.8713  0.3018 -1.1817
  867MPD2     N12730   0.500   2.935  16.949 -0.6885 -0.0853  0.4183
  867MPD2    H512731   0.461   3.011  16.895 -0.9917 -2.2652 -2.4568
  867MPD2    N112732   0.656   2.470  16.903  0.6041  0.2346 -0.5584
  867MPD2    H712733   0.655   2.386  16.846  0.8168 -1.1276  1.4488
  868MPD2     C12734   1.704   1.237  13.437  0.4360 -0.0680  0.1746
  868MPD2    C112735   1.783   1.348  13.448  0.2803  0.1337  0.2648
  868MPD2    C212736   1.726   1.467  13.459 -0.3032 -0.2682 -0.5243
  868MPD2    C312737   1.590   1.484  13.489 -0.5259 -0.3345  0.6242
  868MPD2    C412738   1.514   1.370  13.498  0.7706 -0.1442 -0.0938
  868MPD2    C512739   1.571   1.247  13.475  0.4733  0.0780 -0.5672
  868MPD2     H12740   1.785   1.557  13.463 -0.9096  0.1009  0.0577
  868MPD2    H112741   1.407   1.371  13.513  0.5086 -1.7767 -1.9019
  868MPD2    H212742   1.751   1.139  13.436  0.6090 -0.0120  2.3204
  868MPD2    H312743   1.518   1.155  13.494 -1.6243  1.5712  0.9143
  868MPD2     N12744   1.551   1.610  13.520 -0.2472  0.1483 -0.3110
  868MPD2    H512745   1.610   1.685  13.486  1.2081 -0.6886  0.3702
  868MPD2    N112746   1.926   1.324  13.458 -0.2281 -0.3559 -0.0206
  868MPD2    H712747   1.944   1.225  13.467  0.2662 -0.2821 -0.2368
  869MPD2     C12748   3.178   0.003   2.543 -0.0719 -0.3377 -0.0882
  869MPD2    C112749   3.255   4.646   2.469  0.6731 -0.1234  0.9574
  869MPD2    C212750   3.223   4.631   2.337 -0.3175  0.5376 -0.0377
  869MPD2    C312751   3.111   4.695   2.282  0.1802  0.0930  0.0145
  869MPD2    C412752   3.026   0.034   2.371  0.0774 -1.0454 -0.5379
  869MPD2    C512753   3.060   0.055   2.503 -0.1432 -0.2741  0.7285
  869MPD2     H12754   3.298   4.582   2.277 -0.5873  0.6237 -0.4412
  869MPD2    H112755   2.937   0.067   2.319 -1.4750 -0.4020  2.5377
  869MPD2    H212756   3.198   0.017   2.649  0.3567 -1.6987  0.0145
  869MPD2    H312757   2.999   0.114   2.571  0.2069  1.8803 -0.8441
  869MPD2     N12758   3.070   4.682   2.147 -0.5206 -0.4105 -0.4470
  869MPD2    H512759   2.981   0.001   2.122  0.1133  0.7292 -0.8428
  869MPD2    N112760   3.372   4.597   2.527 -0.3556 -0.5037 -0.1604
  869MPD2    H712761   3.394   4.635   2.618  0.8211 -2.7172  0.4749
  870MPD2     C12762   3.464   2.942   1.638 -0.6672 -0.1206 -0.5474
  870MPD2    C112763   3.356   2.878   1.582 -0.3801  0.2927  0.1386
  870MPD2    C212764   3.244   2.954   1.560  0.2299 -0.0944 -0.4858
  870MPD2    C312765   3.243   3.088   1.594 -0.3121  0.0182 -0.5192
  870MPD2    C412766   3.349   3.144   1.658 -0.1228  0.5802  0.6880
  870MPD2    C512767   3.462   3.071   1.683  0.6866  0.1266 -0.6118
  870MPD2     H12768   3.158   2.918   1.505  0.6022  0.4908 -1.4535
  870MPD2    H112769   3.349   3.249   1.685 -1.7711  1.3368 -2.1757
  870MPD2    H212770   3.557   2.886   1.643 -0.5214  0.4652  2.9955
  870MPD2    H312771   3.538   3.115   1.746  0.9345 -0.4483 -0.5016
  870MPD2     N12772   3.134   3.165   1.553 -0.5330 -0.2705 -0.4415
  870MPD2    H512773   3.084   3.114   1.481 -0.9411 -1.2576  0.5450
  870MPD2    N112774   3.368   2.749   1.528 -0.2854  0.3748  0.0063
  870MPD2    H712775   3.464   2.717   1.525 -0.5568 -0.3684 -0.8084
  871MPD2     C12776   3.935   2.221  16.887 -0.7861  0.0256 -0.1835
  871MPD2    C112777   3.926   2.262  17.017  1.0532 -0.8005 -0.6364
  871MPD2    C212778   3.960   2.171  17.118 -0.1047 -0.2645 -0.7588
  871MPD2    C312779   4.026   2.050  17.097 -0.1719  0.0038 -0.8303
  871MPD2    C412780   4.034   2.014  16.961 -0.2051  0.4249 -0.5531
  871MPD2    C512781   3.989   2.098  16.864  0.2773 -0.3865 -0.4552
  871MPD2     H12782   3.946   2.196  17.222  1.2114  2.5907 -1.2790
  871MPD2    H112783   4.074   1.919  16.928  0.3665  0.3721  0.3074
  871MPD2    H212784   3.899   2.279  16.803  0.0686 -2.0587 -2.0014
  871MPD2    H312785   3.990   2.065  16.761  0.4670 -0.1622 -0.5246
  871MPD2     N12786   4.070   1.969  17.200 -0.5055 -0.0298 -0.2122
  871MPD2    H512787   4.059   1.999  17.296  1.3305 -1.7876  0.5477
  871MPD2    N112788   3.868   2.390  17.047 -0.8167 -0.2432  0.1854
  871MPD2    H712789   3.803   2.432  16.981 -1.4973  2.0574  2.2766
  872MPD2     C12790   0.267   0.136  14.438 -0.2585  0.1606  0.0496
  872MPD2    C112791   0.211   0.234  14.367  0.5588  0.2353  0.1122
  872MPD2    C212792   0.075   0.245  14.379 -0.0518  0.0756 -0.2249
  872MPD2    C312793   0.005   0.176  14.478 -0.4050  0.2673 -0.6647
  872MPD2    C412794   0.063   0.078  14.551 -0.7163  0.2205 -0.3540
  872MPD2    C512795   0.196   0.060  14.524 -0.2887 -0.5054  0.2972
  872MPD2     H12796   0.029   0.327  14.325  1.4073  0.9755 -0.1286
  872MPD2    H112797   0.015   0.023  14.632  0.0789  0.3836  0.2213
  872MPD2    H212798   0.373   0.112  14.437 -0.7297 -1.8927 -0.9429
  872MPD2    H312799   0.253   4.702  14.569 -1.1811 -1.2114  0.1701
  872MPD2     N12800   4.594   0.204  14.510 -0.0323  0.4660 -0.8093
  872MPD2    H512801   4.561   0.156  14.592 -0.2863 -1.3035 -1.9521
  872MPD2    N112802   0.277   0.321  14.284 -0.0731 -0.2621 -0.6274
  872MPD2    H712803   0.231   0.405  14.249  1.1321  1.3265  1.6169
  873MPD2     C12804   0.920   0.455   1.449 -0.2202 -0.4727  0.8473
  873MPD2    C112805   1.010   0.384   1.526 -0.3625  0.0521 -0.1307
  873MPD2    C212806   1.057   0.264   1.475  0.1688  0.0507  0.0659
  873MPD2    C312807   1.040   0.226   1.341 -0.7756  0.1963  0.0717
  873MPD2    C412808   0.954   0.309   1.264 -0.3756 -0.1424 -0.0334
  873MPD2    C512809   0.899   0.419   1.319 -0.2750  0.4814 -0.9938
  873MPD2     H12810   1.126   0.209   1.539  2.1966  0.1732 -2.0082
  873MPD2    H112811   0.917   0.279   1.167  2.3474 -0.9153 -0.8424
  873MPD2    H212812   0.867   0.542   1.485 -0.1834  0.8967 -2.3563
  873MPD2    H312813   0.826   0.476   1.262 -1.3149  1.0158  0.8769
  873MPD2     N12814   1.075   0.097   1.289 -0.0162  0.2000  0.0637
  873MPD2    H512815   1.030   0.077   1.200  0.9961 -0.2047 -0.3657
  873MPD2    N112816   1.035   0.435   1.657  0.2337  0.4806  0.0333
  873MPD2    H712817   0.984   0.519   1.679 -3.8308 -2.2885  1.1169
  874MPD2     C12818   1.048   0.169  16.235 -0.1420 -0.0457 -0.4166
  874MPD2    C112819   1.152   0.077  16.228 -0.7280 -0.6362  0.1728
  874MPD2    C212820   1.283   0.117  16.218 -0.3100 -0.2068 -0.8586
  874MPD2    C312821   1.311   0.251  16.211  0.3973 -0.4825  0.3002
  874MPD2    C412822   1.210   0.343  16.233  0.3959 -0.1783  0.0987
  874MPD2    C512823   1.075   0.303  16.247  1.0589 -0.1745  0.4374
  874MPD2     H12824   1.359   0.043  16.197 -1.2462 -1.4871  0.2402
  874MPD2    H112825   1.234   0.449  16.232  0.9058 -0.2994 -2.1271
  874MPD2    H212826   0.944   0.138  16.241 -0.3865  1.1972  1.8201
  874MPD2    H312827   1.007   0.386  16.262  1.9303  0.1639  2.6020
  874MPD2     N12828   1.445   0.288  16.202 -0.2171  0.3808 -0.1713
  874MPD2    H512829   1.503   0.209  16.178  0.8729  0.8319  1.0269
  874MPD2    N112830   1.115   4.663  16.257  0.4931  0.3380 -0.7032
  874MPD2    H712831   1.019   4.632  16.249  0.0344  1.3984  0.6343
  875MPD2     C12832   2.605   3.473  14.711 -0.1488 -0.0242 -0.2903
  875MPD2    C112833   2.478   3.421  14.737  0.1017  0.0732  0.0735
  875MPD2    C212834   2.430   3.413  14.867 -0.5654  0.1565  0.5679
  875MPD2    C312835   2.502   3.461  14.973  0.1033  0.3296 -0.4754
  875MPD2    C412836   2.615   3.536  14.942 -0.5029  0.6424 -0.9132
  875MPD2    C512837   2.671   3.531  14.817 -0.0586  0.1324 -0.3798
  875MPD2     H12838   2.328   3.378  14.873 -0.7099  0.5076  0.1676
  875MPD2    H112839   2.677   3.573  15.022 -1.9776  1.3366 -0.0783
  875MPD2    H212840   2.654   3.485  14.615  1.8769  0.6951  0.8190
  875MPD2    H312841   2.776   3.551  14.800 -0.1167 -0.4445 -1.4112
  875MPD2     N12842   2.444   3.483  15.101  0.3045  0.0426  0.0560
  875MPD2    H512843   2.489   3.541  15.171 -0.5459  0.4154  0.3018
  875MPD2    N112844   2.378   3.399  14.639 -0.2936 -0.2673 -0.5083
  875MPD2    H712845   2.288   3.366  14.671 -0.2884  0.8762  0.6478
  876MPD2     C12846   0.925   4.331  16.000  0.0318 -0.8024  0.2118
  876MPD2    C112847   1.058   4.350  16.007 -0.2195 -0.2453 -0.2981
  876MPD2    C212848   1.135   4.270  16.087  0.3461  0.7491 -0.1034
  876MPD2    C312849   1.078   4.170  16.158  0.1333  0.2229 -0.2162
  876MPD2    C412850   0.941   4.150  16.163 -0.0409 -0.6853  0.4801
  876MPD2    C512851   0.864   4.240  16.079  0.0710  0.2695 -0.1185
  876MPD2     H12852   1.243   4.275  16.089  0.3321  1.2912 -0.8065
  876MPD2    H112853   0.878   4.085  16.223  2.4408 -0.6712  3.0616
  876MPD2    H212854   0.857   4.398  15.948  0.8233  1.0120  1.4909
  876MPD2    H312855   0.757   4.234  16.092 -0.0955  0.7757 -1.2405
  876MPD2     N12856   1.171   4.104  16.250  0.2426  0.2111 -0.1232
  876MPD2    H512857   1.271   4.122  16.244  0.2891  1.0411  3.0267
  876MPD2    N112858   1.123   4.453  15.927  0.1267  0.5956  0.1403
  876MPD2    H712859   1.062   4.515  15.875  0.4305 -1.2865 -2.4525
  877MPD2     C12860   1.188   0.177  15.290 -0.1907  0.0686 -0.1560
  877MPD2    C112861   1.307   0.197  15.354 -0.0396  0.0059 -0.3133
  877MPD2    C212862   1.409   0.259  15.286  0.0298  0.2718  0.2805
  877MPD2    C312863   1.392   0.292  15.155  0.0756 -0.1216  0.2706
  877MPD2    C412864   1.272   0.275  15.096  0.2946 -0.5210  0.0348
  877MPD2    C512865   1.163   0.224  15.164 -0.1040  0.1269 -0.8809
  877MPD2     H12866   1.502   0.282  15.337  0.7607 -0.0851 -0.9029
  877MPD2    H112867   1.254   0.304  14.993  2.1551 -1.7049 -0.6270
  877MPD2    H212868   1.109   0.124  15.340 -0.7802  0.7556 -0.3618
  877MPD2    H312869   1.062   0.223  15.124  0.1713 -1.6901 -1.5318
  877MPD2     N12870   1.485   0.373  15.083 -0.1652 -0.4178  0.4376
  877MPD2    H512871   1.460   0.405  14.989  2.0876 -0.1910 -0.0860
  877MPD2    N112872   1.329   0.139  15.480 -0.3721  0.1592 -0.2851
  877MPD2    H712873   1.417   0.158  15.527 -1.3942 -1.9408  2.5184
  878MPD2     C12874   1.818   4.354  12.689 -0.6000 -0.3666 -0.0842
  878MPD2    C112875   1.745   4.466  12.674 -0.3710  0.2038  0.9673
  878MPD2    C212876   1.776   4.581  12.742 -0.9530  0.0904 -0.9805
  878MPD2    C312877   1.894   4.582  12.818 -0.1973 -0.0406  0.6822
  878MPD2    C412878   1.973   4.471  12.818  0.0835  0.6546 -0.5393
  878MPD2    C512879   1.934   4.359  12.753 -0.4496 -0.1753 -0.9607
  878MPD2     H12880   1.703   4.660  12.747 -1.2579 -0.0806 -2.8276
  878MPD2    H112881   2.059   4.460  12.882  1.1557  1.3397 -1.8562
  878MPD2    H212882   1.786   4.256  12.652 -0.6154 -1.2565  2.3092
  878MPD2    H312883   1.993   4.272  12.779  0.2516  0.9614  1.2753
  878MPD2     N12884   1.908   4.685  12.915  0.7645 -0.0882  0.3740
  878MPD2    H512885   1.840   0.039  12.912  1.0009  0.1009 -0.1595
  878MPD2    N112886   1.631   4.456  12.590 -0.6674 -0.1155  0.1715
  878MPD2    H712887   1.610   4.363  12.554 -3.0780  0.0057  1.2765
  879MPD2     C12888   1.620   1.349   0.008  0.4344  0.0636  0.2429
  879MPD2    C112889   1.655   1.227   0.066 -0.1403 -0.0586  0.8386
  879MPD2    C212890   1.641   1.112  17.688  0.7146  0.0859 -0.4611
  879MPD2    C312891   1.582   1.105  17.561 -0.5507  0.0778 -0.8432
  879MPD2    C412892   1.555   1.229  17.500  0.4221 -0.9914  0.6567
  879MPD2    C512893   1.577   1.348  17.569  0.6892 -0.7812 -0.5656
  879MPD2     H12894   1.684   1.018   0.030 -0.4845  0.0564  1.0900
  879MPD2    H112895   1.524   1.242  17.397  1.2735  2.4151  0.8182
  879MPD2    H212896   1.631   1.444   0.059  3.9528 -1.8051  2.9769
  879MPD2    H312897   1.558   1.444  17.524  1.7179  0.0318  0.7453
  879MPD2     N12898   1.537   0.993  17.486 -0.0306  0.0338  0.1632
  879MPD2    H512899   1.486   1.007  17.400 -0.7046  1.4861  0.8111
  879MPD2    N112900   1.711   1.234   0.194  0.6123  0.4808 -0.3809
  879MPD2    H712901   1.714   1.323   0.244  1.1709  1.4091 -2.0734
  880MPD2     C12902   3.341   2.718   0.196 -0.2543 -0.1415 -0.1126
  880MPD2    C112903   3.305   2.761   0.316  0.2686  0.1828 -0.5176
  880MPD2    C212904   3.284   2.679   0.423  0.4638 -0.3156 -0.0400
  880MPD2    C312905   3.311   2.544   0.404  0.2841  0.5668 -0.3518
  880MPD2    C412906   3.360   2.497   0.286  0.6524  0.6588 -0.2620
  880MPD2    C512907   3.370   2.585   0.177  0.1377 -0.6863  0.6599
  880MPD2     H12908   3.257   2.718   0.521  2.4798  1.3048 -0.1179
  880MPD2    H112909   3.384   2.394   0.262 -3.1391 -0.5551  1.0822
  880MPD2    H212910   3.375   2.785   0.118  0.8071  1.2456  1.5579
  880MPD2    H312911   3.396   2.552   0.077  0.0265  0.0094  0.4017
  880MPD2     N12912   3.306   2.464   0.516 -0.5199  0.0259  0.5958
  880MPD2    H512913   3.270   2.504   0.602 -1.4120  1.9895 -0.7122
  880MPD2    N112914   3.280   2.898   0.320  0.2623  0.2292 -0.2866
  880MPD2    H712915   3.288   2.933   0.225  1.6785 -2.5555 -1.1803
  881MPD2     C12916   2.802   3.523  17.460 -0.0574  0.6256  0.5830
  881MPD2    C112917   2.796   3.384  17.462 -0.0069 -0.6610  0.1161
  881MPD2    C212918   2.827   3.323  17.585 -0.5011  0.3128  0.1925
  881MPD2    C312919   2.839   3.397   0.012 -0.2675 -0.1558  0.4683
  881MPD2    C412920   2.821   3.531   0.010  0.0140 -0.2343 -0.1891
  881MPD2    C512921   2.814   3.599  17.573 -0.2217 -0.2606  0.0058
  881MPD2     H12922   2.845   3.217  17.577 -0.0933  0.5818 -2.6202
  881MPD2    H112923   2.800   3.590   0.099  2.2226 -0.8073  0.7175
  881MPD2    H212924   2.765   3.574  17.371 -0.0016 -0.4847 -0.0718
  881MPD2    H312925   2.788   3.704  17.570 -0.9340 -0.4200  0.5587
  881MPD2     N12926   2.880   3.341   0.135 -0.0516  0.0520  0.5638
  881MPD2    H512927   2.878   3.402   0.216 -0.8104  3.2589 -1.8905
  881MPD2    N112928   2.795   3.316  17.333 -0.1810  0.1752  0.6205
  881MPD2    H712929   2.792   3.376  17.252  0.8797  1.6326  1.6546
  882MPD2     C12930   1.719   0.401  14.346 -0.8250  0.3045  0.0230
  882MPD2    C112931   1.634   0.460  14.433 -0.7795 -0.4226 -0.1537
  882MPD2    C212932   1.495   0.460  14.411  0.1408  0.4929 -0.1806
  882MPD2    C312933   1.446   0.403  14.292 -0.6152 -0.4366 -0.5640
  882MPD2    C412934   1.530   0.321  14.224  0.1907 -0.0449  0.0239
  882MPD2    C512935   1.662   0.319  14.252 -0.6255  0.8297  0.3070
  882MPD2     H12936   1.430   0.522  14.472  1.5983  0.9718  0.9027
  882MPD2    H112937   1.496   0.267  14.137 -0.8899 -2.4496  1.9345
  882MPD2    H212938   1.824   0.396  14.372 -0.9826 -0.3336  0.5332
  882MPD2    H312939   1.735   0.269  14.189  0.1750  2.7358 -0.2652
  882MPD2     N12940   1.309   0.404  14.251 -0.5669  0.7815  0.8691
  882MPD2    H512941   1.287   0.334  14.181 -0.9634  0.2736  1.4985
  882MPD2    N112942   1.682   0.515  14.556 -0.0417 -0.2934 -0.5932
  882MPD2    H712943   1.780   0.539  14.560  0.3281 -1.9124 -0.0815
  883MPD2     C12944   3.270   0.773  16.748 -0.0482 -0.1288  0.4952
  883MPD2    C112945   3.374   0.739  16.656 -0.4405 -0.5693 -0.7381
  883MPD2    C212946   3.504   0.763  16.700 -0.0882  0.4660 -0.1474
  883MPD2    C312947   3.536   0.830  16.820 -0.5031  0.0070 -0.1797
  883MPD2    C412948   3.432   0.867  16.900  0.1093 -0.3585  0.8410
  883MPD2    C512949   3.301   0.826  16.869 -0.1247 -0.0500 -0.0689
  883MPD2     H12950   3.587   0.720  16.644  2.6606  2.8789  2.0727
  883MPD2    H112951   3.451   0.930  16.986 -0.3427  1.0498 -0.0777
  883MPD2    H212952   3.165   0.756  16.729 -0.5822  1.3187  2.1078
  883MPD2    H312953   3.226   0.863  16.938 -0.5664 -1.6607  0.3067
  883MPD2     N12954   3.664   0.879  16.829 -1.0556  0.0357 -0.2647
  883MPD2    H512955   3.722   0.839  16.756  1.1321  1.6878  0.5580
  883MPD2    N112956   3.347   0.687  16.523 -0.4735 -0.7966  0.3611
  883MPD2    H712957   3.424   0.666  16.461 -0.4439 -1.0656  0.4916
  884MPD2     C12958   0.598   0.858  15.603 -0.2181 -0.0987  0.2852
  884MPD2    C112959   0.642   0.951  15.513  0.1850 -0.5707 -0.4090
  884MPD2    C212960   0.564   1.062  15.479  0.3662  1.1522  0.0625
  884MPD2    C312961   0.440   1.074  15.540 -0.1078 -0.8236  0.2568
  884MPD2    C412962   0.393   0.980  15.626 -0.1524 -0.1997  0.3766
  884MPD2    C512963   0.473   0.872  15.660 -0.1484  0.5383  0.1966
  884MPD2     H12964   0.604   1.129  15.404 -2.5982  1.6834 -1.0440
  884MPD2    H112965   0.293   0.980  15.668 -0.7303  0.3593 -1.0101
  884MPD2    H212966   0.665   0.782  15.641 -0.0367  1.5610  3.3105
  884MPD2    H312967   0.437   0.809  15.740  0.7989  1.9907  1.7529
  884MPD2     N12968   0.353   1.180  15.494 -0.2711 -0.5556  0.0667
  884MPD2    H512969   0.391   1.233  15.416 -0.0796  2.0589  1.9591
  884MPD2    N112970   0.771   0.956  15.453  0.4468 -0.3865 -0.0049
  884MPD2    H712971   0.794   1.047  15.415 -1.1819 -0.0391 -0.1570
  885MPD2     C12972   3.213   1.453   0.625  0.8212 -0.2794 -0.3347
  885MPD2    C112973   3.277   1.335   0.591 -0.6334 -0.5077 -0.2753
  885MPD2    C212974   3.292   1.305   0.457  0.8765 -0.7227  0.2893
  885MPD2    C312975   3.263   1.401   0.363 -0.5964 -0.6957  0.6146
  885MPD2    C412976   3.197   1.522   0.398  0.6374 -0.3066 -0.1602
  885MPD2    C512977   3.168   1.540   0.532 -0.2562  0.0689 -0.3231
  885MPD2     H12978   3.339   1.214   0.421  1.2963 -0.4859  0.2355
  885MPD2    H112979   3.178   1.605   0.331  0.0174 -2.0190 -2.0942
  885MPD2    H212980   3.195   1.487   0.727  1.0186 -2.7783  0.5376
  885MPD2    H312981   3.111   1.628   0.562 -2.5532 -0.8690 -1.9822
  885MPD2     N12982   3.305   1.377   0.227  0.2942 -0.1023 -0.5076
  885MPD2    H512983   3.327   1.280   0.205  0.1011 -0.4746  0.9750
  885MPD2    N112984   3.328   1.252   0.692 -0.5753 -0.3274 -1.0990
  885MPD2    H712985   3.337   1.297   0.783  1.1954 -0.6059 -1.1512
  886MPD2     C12986   4.490   4.245  15.324  0.3703  0.6862  0.7086
  886MPD2    C112987   4.627   4.232  15.340  0.2068 -0.1398  0.0860
  886MPD2    C212988   4.708   4.319  15.265 -0.2325  0.1172 -0.2862
  886MPD2    C312989   4.657   4.409  15.173  0.5124 -0.3388  0.3115
  886MPD2    C412990   4.523   4.409  15.154 -0.3744 -0.1183 -0.2137
  886MPD2    C512991   4.441   4.327  15.227 -0.0515 -0.2591  0.4778
  886MPD2     H12992   0.092   4.320  15.288 -0.0063  0.8145 -1.3197
  886MPD2    H112993   4.477   4.480  15.088  1.6751 -0.2310 -1.7640
  886MPD2    H212994   4.423   4.174  15.372  0.9081 -0.7880 -0.7219
  886MPD2    H312995   4.334   4.328  15.213  0.1843 -0.0493 -1.2737
  886MPD2     N12996   0.015   4.492  15.085 -0.6172 -0.3299 -0.2662
  886MPD2    H512997   4.685   4.557  15.027 -0.5876 -0.3950 -0.3650
  886MPD2    N112998   4.686   4.152  15.432  0.5313 -0.3253 -0.3011
  886MPD2    H712999   0.065   4.145  15.436  0.5107 -0.7086 -0.3967
  887MPD2     C13000   0.644   4.101  15.661  0.5641  0.4755 -0.4530
  887MPD2    C113001   0.533   4.174  15.687  0.0771 -0.4141 -0.2155
  887MPD2    C213002   0.552   4.302  15.724 -0.1215 -0.3196  0.1104
  887MPD2    C313003   0.677   4.359  15.732  0.3356  0.2219  0.7043
  887MPD2    C413004   0.782   4.283  15.695  0.9540 -0.0714  0.7736
  887MPD2    C513005   0.768   4.150  15.668 -0.0497 -0.5021  0.0517
  887MPD2     H13006   0.466   4.366  15.745  0.1640 -0.2204  1.0039
  887MPD2    H113007   0.874   4.336  15.677  0.6681  0.3274  0.4836
  887MPD2    H213008   0.643   3.994  15.640 -0.4607  0.4799 -0.4350
  887MPD2    H313009   0.856   4.100  15.629 -0.6048  0.2775 -2.2561
  887MPD2     N13010   0.691   4.496  15.764 -0.2441  0.3259  0.1863
  887MPD2    H513011   0.598   4.535  15.775  0.7306  2.3347  1.2570
  887MPD2    N113012   0.399   4.123  15.685  0.3755 -0.2394 -0.1111
  887MPD2    H713013   0.331   4.190  15.717 -1.1705 -1.6568 -0.4244
  888MPD2     C13014   2.630   4.475  15.059 -0.0955  0.4184 -0.7352
  888MPD2    C113015   2.569   4.511  15.184  0.1202 -0.5453  0.2689
  888MPD2    C213016   2.598   4.639  15.233 -0.4948  0.0640  0.4976
  888MPD2    C313017   2.675   0.009  15.164 -0.3447 -0.0319  0.0425
  888MPD2    C413018   2.747   4.686  15.057  0.5602 -0.2556 -0.5279
  888MPD2    C513019   2.733   4.558  15.015  0.7772  0.7022 -0.1041
  888MPD2     H13020   2.553   4.664  15.328 -2.6239  1.0156 -0.7786
  888MPD2    H113021   2.812   0.029  14.998  0.9992  0.8242  1.1220
  888MPD2    H213022   2.627   4.378  15.011  2.1505  1.0598 -2.1627
  888MPD2    H313023   2.780   4.531  14.920 -0.5996 -1.7060 -0.0892
  888MPD2     N13024   2.670   0.143  15.211  0.1532  0.5734  0.7541
  888MPD2    H513025   2.603   0.174  15.281 -0.7212 -2.9079  1.4293
  888MPD2    N113026   2.483   4.426  15.260  0.3836 -0.2817  0.2452
  888MPD2    H713027   2.459   4.452  15.356  0.2823 -1.5230  0.5573
  889MPD2     C13028   2.248   3.815  12.604 -0.1759 -0.2235  0.0359
  889MPD2    C113029   2.277   3.814  12.737 -0.2047  0.0283  0.5855
  889MPD2    C213030   2.313   3.932  12.795  0.3451  0.5306  0.3623
  889MPD2    C313031   2.288   4.054  12.730 -0.5706  0.2582  0.3387
  889MPD2    C413032   2.227   4.053  12.608 -0.2649  0.3420  0.4418
  889MPD2    C513033   2.220   3.932  12.541  0.7183 -0.1041 -0.2988
  889MPD2     H13034   2.347   3.936  12.898  0.8918  0.8313  0.1702
  889MPD2    H113035   2.188   4.138  12.553 -0.1904  1.0211  1.4218
  889MPD2    H213036   2.205   3.724  12.564  0.3355 -0.6382  0.4242
  889MPD2    H313037   2.174   3.921  12.444 -0.6407  0.1979  0.3122
  889MPD2     N13038   2.332   4.171  12.798  0.7560 -0.2432  0.1439
  889MPD2    H513039   2.356   4.161  12.897 -1.6313 -1.2462  0.6221
  889MPD2    N113040   2.295   3.686  12.800 -0.4966  0.2904 -0.8669
  889MPD2    H713041   2.287   3.606  12.738  0.0983 -0.4095 -0.0366
  890MPD2     C13042   1.299   1.193  14.722  0.9418  0.1531  0.3797
  890MPD2    C113043   1.420   1.228  14.783  0.1068 -0.1073 -0.0782
  890MPD2    C213044   1.459   1.148  14.889 -0.0189 -0.2497 -0.0795
  890MPD2    C313045   1.380   1.052  14.950 -0.3867 -0.3472  0.2265
  890MPD2    C413046   1.255   1.035  14.905  0.3542  0.3958  0.5791
  890MPD2    C513047   1.220   1.111  14.792 -0.4523  0.3122  0.8200
  890MPD2     H13048   1.558   1.174  14.926 -1.3796  1.6598  2.2193
  890MPD2    H113049   1.181   0.959  14.929 -0.4482  0.8570 -0.4405
  890MPD2    H213050   1.246   1.247  14.644 -2.0957 -0.1375  2.2409
  890MPD2    H313051   1.120   1.104  14.750  0.2583  0.0735 -0.8542
  890MPD2     N13052   1.438   0.973  15.049 -0.0406  0.1348 -0.3834
  890MPD2    H513053   1.530   1.002  15.082 -0.2120  1.7610 -1.3047
  890MPD2    N113054   1.506   1.335  14.747 -0.4265  0.0413 -0.3799
  890MPD2    H713055   1.588   1.357  14.802  1.1383 -1.8894 -1.9369
  891MPD2     C13056   4.515   4.512  16.495  0.2580 -0.1106 -0.4468
  891MPD2    C113057   4.409   4.506  16.583  0.2738  0.0031  0.2721
  891MPD2    C213058   4.421   4.433  16.701  0.4814  0.0783 -0.2369
  891MPD2    C313059   4.545   4.396  16.742  0.5148  0.3240 -0.1359
  891MPD2    C413060   4.652   4.412  16.654 -0.4616 -0.6272  0.4237
  891MPD2    C513061   4.635   4.465  16.531 -0.1197  0.9086  0.0015
  891MPD2     H13062   4.341   4.413  16.771  0.2848 -1.0008 -0.7638
  891MPD2    H113063   0.034   4.403  16.683 -1.2573 -0.9234  3.1454
  891MPD2    H213064   4.512   4.562  16.399 -2.8716 -0.0348 -0.3116
  891MPD2    H313065   4.717   4.474  16.462 -1.0314 -3.1247 -1.6127
  891MPD2     N13066   4.558   4.344  16.877  0.4072  0.0490 -0.2692
  891MPD2    H513067   4.482   4.348  16.945  1.1317 -0.6008  0.5765
  891MPD2    N113068   4.279   4.551  16.552 -0.9673 -0.2522 -0.3161
  891MPD2    H713069   4.260   4.572  16.455 -0.2156  2.5486  0.1420
  892MPD2     C13070   0.707   0.889  14.778  0.0014 -0.7297  0.8777
  892MPD2    C113071   0.630   0.774  14.766  0.1171 -0.6801 -0.1646
  892MPD2    C213072   0.685   0.665  14.709 -0.5363 -0.2229  0.0286
  892MPD2    C313073   0.815   0.667  14.655 -0.3215  0.2300 -0.2529
  892MPD2    C413074   0.885   0.791  14.657  1.1300 -0.1352  0.2285
  892MPD2    C513075   0.832   0.897  14.718  0.1323  0.1135  0.3709
  892MPD2     H13076   0.633   0.570  14.703  0.0602 -0.7225  3.1149
  892MPD2    H113077   0.983   0.808  14.615  0.8707  0.4133 -0.1538
  892MPD2    H213078   0.664   0.984  14.806 -1.1381 -0.5130 -1.5614
  892MPD2    H313079   0.877   0.996  14.717 -0.9062  0.5805  0.2296
  892MPD2     N13080   0.868   0.563  14.582 -0.3889 -0.5473 -0.0490
  892MPD2    H513081   0.958   0.574  14.538  0.0247 -0.9517  0.7076
  892MPD2    N113082   0.501   0.757  14.818  0.0057  0.2727  0.4993
  892MPD2    H713083   0.442   0.680  14.789 -1.6673  0.2741  3.8606
  893MPD2     C13084   4.132   3.375   1.830 -0.4354 -0.0915 -0.0039
  893MPD2    C113085   3.999   3.338   1.815 -0.3861  0.0576 -0.4668
  893MPD2    C213086   3.969   3.206   1.801 -0.4025 -0.3131  0.9135
  893MPD2    C313087   4.070   3.110   1.800 -0.0007  0.7561  0.6005
  893MPD2    C413088   4.198   3.150   1.822  0.1583  0.8908  0.2660
  893MPD2    C513089   4.232   3.286   1.831 -0.1703 -0.6789 -0.2452
  893MPD2     H13090   3.868   3.166   1.804 -0.5335  0.0012  0.6785
  893MPD2    H113091   4.277   3.078   1.838 -1.5054 -0.4295  2.5601
  893MPD2    H213092   4.159   3.479   1.836  1.7357 -0.7631  1.8155
  893MPD2    H313093   4.334   3.318   1.851 -1.0229  2.4185 -0.8279
  893MPD2     N13094   4.054   2.973   1.800  0.1765  0.5428  0.8663
  893MPD2    H513095   4.129   2.914   1.834  1.9195  2.9821  1.2142
  893MPD2    N113096   3.900   3.440   1.829  0.2084 -0.0021  0.1520
  893MPD2    H713097   3.944   3.528   1.855 -0.1371  0.7843 -1.9121
  894MPD2     C13098   0.529   2.159   2.089  0.3887  0.2031  0.0447
  894MPD2    C113099   0.494   2.085   1.982 -0.2520 -0.8206  0.1017
  894MPD2    C213100   0.472   2.148   1.864  0.1537 -0.1633 -0.4156
  894MPD2    C313101   0.483   2.290   1.853  0.0143  0.1325  0.0882
  894MPD2    C413102   0.516   2.365   1.965 -0.1913 -0.0033  0.3158
  894MPD2    C513103   0.558   2.296   2.075  0.7739 -0.8960  0.1127
  894MPD2     H13104   0.440   2.095   1.775 -0.4047  1.2851 -1.0839
  894MPD2    H113105   0.514   2.473   1.962 -0.1715  0.0137  1.0907
  894MPD2    H213106   0.550   2.119   2.188 -0.3133 -1.1642 -0.3678
  894MPD2    H313107   0.584   2.351   2.165 -0.7195 -0.1898  0.1104
  894MPD2     N13108   0.466   2.348   1.723  0.3096 -0.4055  0.9594
  894MPD2    H513109   0.467   2.283   1.646 -0.5902  1.5456 -0.7121
  894MPD2    N113110   0.480   1.945   1.995  0.7962  0.4249 -0.2531
  894MPD2    H713111   0.452   1.899   1.909  0.3580  0.6481 -0.2270
  895MPD2     C13112   0.208   0.697  13.548  0.7057 -0.3999  0.4593
  895MPD2    C113113   0.087   0.659  13.600 -0.3318  0.7394  0.6220
  895MPD2    C213114   0.063   0.522  13.610 -0.1156  0.0524  0.5115
  895MPD2    C313115   0.155   0.432  13.558  0.1169  0.4053  0.0398
  895MPD2    C413116   0.281   0.472  13.524 -0.1623  0.1005  0.0031
  895MPD2    C513117   0.305   0.607  13.503 -0.5562  0.7544 -0.5135
  895MPD2     H13118   4.682   0.489  13.619 -0.1632  0.5366  1.7407
  895MPD2    H113119   0.352   0.392  13.505 -0.4422 -0.0309 -0.4899
  895MPD2    H213120   0.238   0.801  13.560 -0.6300  0.0336  0.0129
  895MPD2    H313121   0.405   0.643  13.484 -0.3160 -0.6734 -1.9474
  895MPD2     N13122   0.114   0.307  13.562 -0.3398  0.1970  0.3583
  895MPD2    H513123   0.019   0.287  13.591 -0.8875  0.5628 -1.2136
  895MPD2    N113124   4.702   0.747  13.626 -0.7032  0.8661 -0.3232
  895MPD2    H713125   4.618   0.703  13.662 -0.0664 -0.2090 -0.1415
  896MPD2     C13126   2.086   2.567   1.261  0.5042 -0.2120  0.1162
  896MPD2    C113127   2.043   2.520   1.136 -0.3132  0.6524 -0.6960
  896MPD2    C213128   1.911   2.482   1.114 -0.3845  0.0739  0.2056
  896MPD2    C313129   1.816   2.490   1.216 -0.1393  0.2595  0.1260
  896MPD2    C413130   1.860   2.547   1.333 -1.0868 -0.2717 -0.3822
  896MPD2    C513131   1.991   2.578   1.360 -0.1161 -0.0379  0.2267
  896MPD2     H13132   1.887   2.442   1.016 -2.0604  0.4705  0.4553
  896MPD2    H113133   1.790   2.576   1.410 -1.1844  1.1011 -0.9783
  896MPD2    H213134   2.186   2.601   1.285  0.8302  0.1617 -1.7336
  896MPD2    H313135   2.012   2.617   1.459 -0.1067 -2.6162  1.2154
  896MPD2     N13136   1.677   2.451   1.202  0.4008  0.0233  0.1740
  896MPD2    H513137   1.644   2.433   1.108  0.2304 -2.0938  0.6277
  896MPD2    N113138   2.145   2.509   1.039 -0.0245  0.4569 -0.5261
  896MPD2    H713139   2.238   2.542   1.064 -0.4968  0.1294  1.6792
  897MPD2     C13140   3.491   3.404  10.219 -1.0148  0.1941  0.6866
  897MPD2    C113141   3.536   3.511  10.301  0.1991  0.3254  0.1957
  897MPD2    C213142   3.444   3.560  10.390  0.1452 -0.0670  0.8206
  897MPD2    C313143   3.308   3.526  10.390 -0.0555  0.4680 -0.3658
  897MPD2    C413144   3.271   3.430  10.298  0.2937 -0.2075  0.2364
  897MPD2    C513145   3.357   3.370  10.210 -0.1382 -0.2544  0.6182
  897MPD2     H13146   3.467   3.651  10.445 -0.3442 -0.2302  1.2971
  897MPD2    H113147   3.167   3.401  10.295  0.5471 -1.0681 -0.1715
  897MPD2    H213148   3.550   3.360  10.140  0.3323 -1.3040  2.5179
  897MPD2    H313149   3.318   3.298  10.139  0.4034  1.4411 -1.4115
  897MPD2     N13150   3.219   3.591  10.481 -0.0906 -0.0683  0.2199
  897MPD2    H513151   3.246   3.668  10.541 -0.1366 -0.0980  0.2789
  897MPD2    N113152   3.669   3.550  10.281  0.1062  0.0383  0.8157
  897MPD2    H713153   3.718   3.511  10.201  0.3923  0.5958  0.7167
  898MPD2     C13154   4.387   0.980   0.885 -0.0621  0.1608 -0.3910
  898MPD2    C113155   4.349   0.902   0.781 -0.4736  0.6948 -0.2287
  898MPD2    C213156   4.317   0.966   0.663 -0.1064 -0.5852  0.4405
  898MPD2    C313157   4.310   1.109   0.654  0.4501  0.2868 -0.4519
  898MPD2    C413158   4.353   1.179   0.766 -0.4149 -0.2234  0.0356
  898MPD2    C513159   4.393   1.115   0.883  0.8115  0.4866  0.6162
  898MPD2     H13160   4.295   0.917   0.569 -0.6690  0.7117 -0.0984
  898MPD2    H113161   4.345   1.287   0.772  1.9687 -0.0614  0.3581
  898MPD2    H213162   4.405   0.940   0.984  2.3590 -2.0116 -1.7100
  898MPD2    H313163   4.420   1.180   0.966  0.7392  0.5218  0.6124
  898MPD2     N13164   4.293   1.167   0.523  0.0322 -0.0086  0.0918
  898MPD2    H513165   4.265   1.093   0.461  1.0992  0.3714 -0.8346
  898MPD2    N113166   4.350   0.760   0.785 -0.2954 -0.3072  0.7754
  898MPD2    H713167   4.326   0.708   0.702  2.5010 -1.8088  0.8965
  899MPD2     C13168   0.929   0.452   0.369  0.1910 -0.2034  0.5195
  899MPD2    C113169   0.952   0.577   0.422  0.7305 -0.0474 -0.1483
  899MPD2    C213170   0.864   0.647   0.502  0.9343  0.1788 -0.3520
  899MPD2    C313171   0.739   0.588   0.520 -0.5363 -0.5608  0.4516
  899MPD2    C413172   0.715   0.466   0.460 -0.1421  0.7021 -0.0478
  899MPD2    C513173   0.803   0.401   0.382 -0.2074  0.2317  0.3881
  899MPD2     H13174   0.876   0.750   0.533  0.3290  0.4748 -1.0899
  899MPD2    H113175   0.618   0.418   0.463 -0.1685  0.7055 -1.0493
  899MPD2    H213176   1.002   0.398   0.310  0.1988 -0.3090  0.6239
  899MPD2    H313177   0.779   0.300   0.352  3.0187 -0.3236 -0.2592
  899MPD2     N13178   0.630   0.650   0.581  0.0443 -0.5023  0.3618
  899MPD2    H513179   0.542   0.598   0.577 -1.0424  1.2809  1.1800
  899MPD2    N113180   1.075   0.629   0.390 -1.1793 -0.0896  0.1643
  899MPD2    H713181   1.131   0.563   0.337  0.7460  1.2880  0.4890
  900MPD2     C13182   1.007   2.325  12.843  0.4874 -0.7894  0.5514
  900MPD2    C113183   0.937   2.218  12.805 -0.7274 -0.0672  0.5979
  900MPD2    C213184   0.823   2.241  12.732  0.0718 -0.2954  0.9634
  900MPD2    C313185   0.788   2.366  12.700  0.0196  0.4475 -0.1263
  900MPD2    C413186   0.864   2.476  12.741 -0.3028  0.3077  0.0177
  900MPD2    C513187   0.978   2.453  12.813  0.1993 -0.3668 -0.0996
  900MPD2     H13188   0.748   2.163  12.716 -1.3243  1.1373  0.5490
  900MPD2    H113189   0.843   2.580  12.716 -3.4021 -0.4130 -0.4137
  900MPD2    H213190   1.096   2.316  12.904 -0.3056  0.5616  1.9021
  900MPD2    H313191   1.054   2.527  12.839 -1.0288  0.0536  2.3440
  900MPD2     N13192   0.668   2.384  12.627  0.6807 -0.1072  0.3499
  900MPD2    H513193   0.606   2.304  12.626  0.3530  0.1279  1.8784
  900MPD2    N113194   0.983   2.095  12.856 -0.3568 -0.3417 -0.1430
  900MPD2    H713195   1.071   2.095  12.906 -1.0737  0.4035  1.1276
  901MPD2     C13196   0.885   1.011  13.085 -0.0484  0.2843  0.2926
  901MPD2    C113197   1.013   1.038  13.045  0.1962  0.0335  0.6918
  901MPD2    C213198   1.042   1.169  13.011  0.6303 -0.2522  0.2638
  901MPD2    C313199   0.957   1.276  13.034 -0.3213 -0.3807  0.2127
  901MPD2    C413200   0.836   1.248  13.085  0.0033  0.0320 -0.6466
  901MPD2    C513201   0.796   1.122  13.107 -0.6103 -0.1980  0.3763
  901MPD2     H13202   1.136   1.196  12.965  1.5443  0.6760  2.6831
  901MPD2    H113203   0.764   1.328  13.095 -1.5859 -1.2940 -1.5100
  901MPD2    H213204   0.850   0.911  13.107 -0.8447  0.1818 -1.3862
  901MPD2    H313205   0.694   1.101  13.137 -0.3662 -2.6619 -0.5623
  901MPD2     N13206   1.002   1.401  12.986  0.4465 -0.3348  0.4663
  901MPD2    H513207   1.098   1.403  12.956 -0.0479 -2.7931 -1.2275
  901MPD2    N113208   1.094   0.928  13.015  0.4138  0.3411  0.1794
  901MPD2    H713209   1.076   0.835  13.053  1.9323  0.3024  0.8125
  902MPD2     C13210   4.693   4.685  12.722  0.3169  0.2153 -0.1457
  902MPD2    C113211   0.019   0.078  12.659  1.0134  0.2099  0.6334
  902MPD2    C213212   0.122   0.059  12.577  0.1211 -0.3485 -0.2364
  902MPD2    C313213   0.175   4.655  12.537  0.8066 -0.1596  0.1781
  902MPD2    C413214   0.119   4.546  12.589  0.4744  0.3624 -0.1249
  902MPD2    C513215   0.019   4.558  12.684 -0.3363 -0.2590  0.4276
  902MPD2     H13216   0.172   0.145  12.536 -1.5478  0.4032 -0.6918
  902MPD2    H113217   0.160   4.448  12.568 -1.4730 -0.6966  0.9847
  902MPD2    H213218   4.609   4.694  12.790 -0.1846  1.8291 -0.9624
  902MPD2    H313219   4.713   4.469  12.738 -2.7263 -0.8193 -1.7136
  902MPD2     N13220   0.291   4.636  12.452 -0.0832  0.2580 -0.1087
  902MPD2    H513221   0.326   4.545  12.426 -1.5133  0.4894 -2.8422
  902MPD2    N113222   4.686   0.203  12.694 -0.4040 -0.2765  0.6353
  902MPD2    H713223   4.622   0.205  12.773 -1.8657  2.7321 -0.6163
  903MPD2     C13224   0.396   0.284  11.679 -0.4380  0.1580  0.2315
  903MPD2    C113225   0.354   0.245  11.806 -0.4123 -0.2004  0.8068
  903MPD2    C213226   0.219   0.249  11.840 -0.7970 -0.4141  0.1315
  903MPD2    C313227   0.125   0.284  11.747 -0.5739  0.2339  0.2208
  903MPD2    C413228   0.165   0.324  11.622  0.0069 -0.8600 -0.1875
  903MPD2    C513229   0.298   0.309  11.584 -0.3060  0.4335 -0.3679
  903MPD2     H13230   0.194   0.229  11.943 -0.6887 -0.3852  0.1634
  903MPD2    H113231   0.088   0.343  11.548 -0.4378 -0.8338  0.2811
  903MPD2    H213232   0.503   0.282  11.661 -0.6053 -1.8661 -0.5304
  903MPD2    H313233   0.330   0.341  11.485  3.7032 -1.9424  0.1387
  903MPD2     N13234   4.709   0.278  11.784  0.2550  0.1054  0.1618
  903MPD2    H513235   4.699   0.249  11.881  1.3137 -1.0067 -0.0755
  903MPD2    N113236   0.456   0.204  11.892 -0.1221 -0.1122 -0.5016
  903MPD2    H713237   0.546   0.177  11.853  0.7143  0.8595  0.7095
  904MPD2     C13238   4.013   3.963  13.606  0.0226  0.6187  0.7093
  904MPD2    C113239   4.086   4.075  13.625 -0.0074 -0.0769 -0.2114
  904MPD2    C213240   4.217   4.065  13.664  0.0463 -0.0617 -0.6152
  904MPD2    C313241   4.271   3.937  13.683  0.7022  0.3627  0.7307
  904MPD2    C413242   4.188   3.826  13.672 -0.1094  0.1551  0.3155
  904MPD2    C513243   4.055   3.835  13.634  0.7660  0.2172  0.4492
  904MPD2     H13244   4.283   4.151  13.660 -1.5764  1.2037 -0.1375
  904MPD2    H113245   4.218   3.724  13.696  0.4801  0.2984  0.1712
  904MPD2    H213246   3.911   3.967  13.571  0.3278  0.1565 -0.2260
  904MPD2    H313247   4.000   3.746  13.607 -0.5210  0.8393  1.0495
  904MPD2     N13248   4.409   3.926  13.726  0.5809  0.2265  0.2988
  904MPD2    H513249   4.452   4.017  13.734  2.8738 -1.1961  4.1014
  904MPD2    N113250   4.034   4.199  13.588  0.4596  0.1169 -0.1592
  904MPD2    H713251   4.086   4.284  13.608  0.9580 -0.5270  1.2571
  905MPD2     C13252   4.188   4.512  12.997 -0.0742 -0.7419  0.2990
  905MPD2    C113253   4.175   4.577  13.119 -0.1377 -0.6930 -0.4070
  905MPD2    C213254   4.295   4.633  13.171 -0.2349 -0.6047 -0.4181
  905MPD2    C313255   4.411   4.618  13.104  0.0528 -0.8090  0.2735
  905MPD2    C413256   4.421   4.564  12.977 -0.3641 -0.8354  0.0888
  905MPD2    C513257   4.303   4.509  12.925  0.0676 -0.0776  0.0307
  905MPD2     H13258   4.304   4.677  13.270 -0.8349 -1.5831  0.0623
  905MPD2    H113259   4.518   4.551  12.932 -0.8738 -0.0840 -1.2149
  905MPD2    H213260   4.095   4.478  12.953 -0.4272  1.2026 -0.4197
  905MPD2    H313261   4.308   4.460  12.828  0.9532 -1.5651  0.8188
  905MPD2     N13262   4.529   4.661  13.171  0.0770  0.4816 -0.0629
  905MPD2    H513263   4.613   4.642  13.118  0.5793  1.6324  0.3187
  905MPD2    N113264   4.050   4.572  13.187 -0.3947 -0.3498 -0.6262
  905MPD2    H713265   3.973   4.512  13.159 -1.1040  0.4004 -0.2641
  906MPD2     C13266   2.056   3.808  11.555 -0.5014  0.1952  0.1746
  906MPD2    C113267   2.015   3.694  11.490 -0.2277 -0.0336 -0.4483
  906MPD2    C213268   1.976   3.584  11.575  0.2182  0.1980 -0.4667
  906MPD2    C313269   1.957   3.597  11.718 -0.2533 -0.2515 -0.0629
  906MPD2    C413270   1.997   3.713  11.770 -0.0272  0.0264 -0.0374
  906MPD2    C513271   2.051   3.811  11.691 -0.1242  0.2671  0.5413
  906MPD2     H13272   1.941   3.492  11.529  0.2809 -0.3851  0.6374
  906MPD2    H113273   1.983   3.736  11.875  2.4152  0.4423  0.2009
  906MPD2    H213274   2.091   3.896  11.502 -1.6734  0.5285 -0.0480
  906MPD2    H313275   2.096   3.894  11.743 -0.5254  1.4658 -1.0542
  906MPD2     N13276   1.879   3.500  11.780 -0.0447  0.3095 -0.2104
  906MPD2    H513277   1.831   3.435  11.719  1.4851 -0.7880 -0.2399
  906MPD2    N113278   2.016   3.685  11.354 -0.0172 -0.5979 -0.1555
  906MPD2    H713279   2.010   3.596  11.307 -0.6664 -0.7334  0.1793
  907MPD2     C13280   0.592   3.183  15.408 -0.1772  0.4551  0.4460
  907MPD2    C113281   0.615   3.046  15.403 -0.5494 -0.5466  0.0462
  907MPD2    C213282   0.698   2.990  15.505 -0.4283  0.1760  0.5034
  907MPD2    C313283   0.744   3.065  15.611  0.3623  0.8385  0.1790
  907MPD2    C413284   0.711   3.199  15.607 -0.0273  0.3699 -0.3237
  907MPD2    C513285   0.636   3.256  15.512 -0.4429  0.2791 -0.4448
  907MPD2     H13286   0.727   2.886  15.501 -3.0715 -0.4891 -0.8537
  907MPD2    H113287   0.762   3.261  15.680 -0.6151  1.1111 -0.5458
  907MPD2    H213288   0.542   3.234  15.327  1.8388  2.2562  0.3252
  907MPD2    H313289   0.625   3.363  15.507  0.0318  0.4348  1.9348
  907MPD2     N13290   0.836   3.011  15.703  0.9275  0.2641  0.2746
  907MPD2    H513291   0.857   2.912  15.694  1.0388  0.4221 -1.1826
  907MPD2    N113292   0.581   2.965  15.288  0.5357 -0.0895  0.0856
  907MPD2    H713293   0.595   2.866  15.300 -0.6003 -0.6056 -2.8775
  908MPD2     C13294   4.051   3.408   9.589 -0.1853  0.6704 -0.5612
  908MPD2    C113295   3.931   3.468   9.624  0.4929  0.1064 -0.5485
  908MPD2    C213296   3.927   3.534   9.745  0.8815  0.6089  0.0936
  908MPD2    C313297   4.032   3.534   9.835  0.2928 -0.4996 -0.2659
  908MPD2    C413298   4.154   3.480   9.793  1.3952  0.1400  0.8833
  908MPD2    C513299   4.157   3.414   9.673  0.5182 -0.1745  0.3337
  908MPD2     H13300   3.826   3.564   9.771 -0.2708 -4.2510  1.1300
  908MPD2    H113301   4.240   3.483   9.859  1.0670  2.0029  1.2515
  908MPD2    H213302   4.075   3.378   9.488  0.1373 -0.1121 -0.2517
  908MPD2    H313303   4.250   3.377   9.631  0.0077 -0.7389 -0.2934
  908MPD2     N13304   4.014   3.581   9.966  0.1326  0.3176  0.3546
  908MPD2    H513305   3.921   3.615   9.988  0.4068  1.9110 -0.9413
  908MPD2    N113306   3.825   3.452   9.537 -0.2105 -0.8676 -0.5482
  908MPD2    H713307   3.841   3.397   9.453 -0.1506 -2.3509  0.4516
  909MPD2     C13308   3.320   1.435  11.899  0.2935 -0.0219  0.3464
  909MPD2    C113309   3.370   1.559  11.916 -0.4233  0.2173 -0.3006
  909MPD2    C213310   3.340   1.627  12.031  0.3112  0.0624  0.0298
  909MPD2    C313311   3.257   1.577  12.121 -0.5595 -0.2001 -0.5994
  909MPD2    C413312   3.193   1.459  12.096 -0.7792  0.2597  0.2164
  909MPD2    C513313   3.228   1.383  11.989  0.2131  0.4642  0.0430
  909MPD2     H13314   3.391   1.720  12.052 -2.4556  1.5015  0.3763
  909MPD2    H113315   3.111   1.420  12.156 -0.3247 -0.3769  0.4275
  909MPD2    H213316   3.337   1.375  11.811  2.0637 -2.1255  2.1302
  909MPD2    H313317   3.179   1.287  11.973 -2.4100  1.7668  0.2763
  909MPD2     N13318   3.229   1.660  12.235 -0.5542 -0.1252 -0.5419
  909MPD2    H513319   3.272   1.752  12.242 -1.7597  0.5637 -2.0468
  909MPD2    N113320   3.456   1.614  11.824  0.2684  0.2869 -0.5376
  909MPD2    H713321   3.498   1.702  11.852 -0.4737  1.0579 -1.8838
  910MPD2     C13322   4.491   3.522  15.556 -0.1108  0.2060 -0.5332
  910MPD2    C113323   4.602   3.583  15.507  0.4178  0.2926 -0.6451
  910MPD2    C213324   4.585   3.685  15.412  0.5320 -0.6688 -0.3333
  910MPD2    C313325   4.463   3.722  15.369 -0.4006 -0.6145  0.0122
  910MPD2    C413326   4.352   3.661  15.416  0.4527  0.4934 -0.0057
  910MPD2    C513327   4.365   3.561  15.511 -0.8950  0.2275 -0.8428
  910MPD2     H13328   4.674   3.732  15.373  1.2765 -1.8795 -0.0788
  910MPD2    H113329   4.252   3.696  15.396  0.3075 -0.7695 -1.4826
  910MPD2    H213330   4.505   3.458  15.642 -0.3940  1.3655  0.3642
  910MPD2    H313331   4.281   3.514  15.562  1.7595 -1.2873  2.1185
  910MPD2     N13332   4.435   3.829  15.273  0.9144 -0.1966 -0.3200
  910MPD2    H513333   4.337   3.838  15.251  0.7838  0.7167  0.6521
  910MPD2    N113334   0.002   3.528  15.545  0.1785  0.7377 -0.1517
  910MPD2    H713335   0.007   3.446  15.605 -0.4477  1.9860  1.6281
  911MPD2     C13336   2.540   3.956  16.510  0.4674  0.3158 -0.0736
  911MPD2    C113337   2.586   4.054  16.593  0.2491 -0.2267  0.1352
  911MPD2    C213338   2.516   4.170  16.622 -0.4463  0.0472  0.4429
  911MPD2    C313339   2.387   4.181  16.580  0.7913 -0.0582  0.1454
  911MPD2    C413340   2.335   4.078  16.499 -0.2046  0.1764 -0.8816
  911MPD2    C513341   2.412   3.974  16.458  0.1546  0.5010 -0.2434
  911MPD2     H13342   2.550   4.249  16.689  1.8078 -1.5455  1.1617
  911MPD2    H113343   2.232   4.089  16.465 -0.4781  2.0720  0.5058
  911MPD2    H213344   2.593   3.863  16.496 -0.3068 -0.0648 -0.4641
  911MPD2    H313345   2.377   3.900  16.389  2.6043 -1.5325  0.6860
  911MPD2     N13346   2.301   4.300  16.582  0.5070  0.9569 -0.0763
  911MPD2    H513347   2.207   4.285  16.547  1.9659  2.3019 -4.5572
  911MPD2    N113348   2.715   4.029  16.640  0.1468 -0.3053 -0.4372
  911MPD2    H713349   2.756   3.940  16.613 -2.2315 -1.0969 -1.4649
  912MPD2     C13350   2.003   4.219  16.080  0.0081  0.2903 -0.4700
  912MPD2    C113351   2.016   4.208  16.214  0.5623 -0.1179 -0.1820
  912MPD2    C213352   2.048   4.081  16.266 -0.3951 -0.2735 -0.5372
  912MPD2    C313353   2.083   3.978  16.185  0.5279  0.5350  0.1677
  912MPD2    C413354   2.072   3.997  16.052  0.8522  0.0988 -0.6045
  912MPD2    C513355   2.036   4.121  16.001 -0.3498  0.0795  0.0313
  912MPD2     H13356   2.054   4.062  16.372 -0.3325 -2.7345 -0.9623
  912MPD2    H113357   2.058   3.919  15.978  1.0466 -0.8966  0.4015
  912MPD2    H213358   1.976   4.312  16.032  1.9655 -0.2378 -2.5955
  912MPD2    H313359   2.017   4.132  15.895  0.6314  1.4425 -0.0044
  912MPD2     N13360   2.109   3.847  16.248  0.0553  0.7905 -0.1654
  912MPD2    H513361   2.112   3.844  16.349  2.2196  3.4704 -0.1528
  912MPD2    N113362   1.990   4.320  16.292  0.3576  0.5929  0.3349
  912MPD2    H713363   1.980   4.407  16.241  2.4858  0.4953 -0.2250
  913MPD2     C13364   2.977   0.241  10.462  0.0127 -0.1409 -0.3184
  913MPD2    C113365   3.055   0.319  10.547 -0.2078  0.8902  0.4378
  913MPD2    C213366   3.084   0.450  10.507  0.0394  0.1466 -0.1205
  913MPD2    C313367   3.044   0.491  10.384 -0.3877  0.7836 -0.5979
  913MPD2    C413368   2.959   0.420  10.307  0.1753  0.8420  0.4968
  913MPD2    C513369   2.925   0.293  10.349 -0.7967  0.3527 -0.3884
  913MPD2     H13370   3.137   0.517  10.574 -0.7835 -0.3491  0.9989
  913MPD2    H113371   2.934   0.452  10.206  0.5602  1.7026  0.6768
  913MPD2    H213372   2.939   0.144  10.492 -0.5288 -0.3847 -1.7660
  913MPD2    H313373   2.867   0.232  10.280 -1.1801 -2.1389  2.1644
  913MPD2     N13374   3.084   0.620  10.341  0.2640 -0.5812  0.3509
  913MPD2    H513375   3.046   0.640  10.248  0.7265 -2.1028 -0.1564
  913MPD2    N113376   3.118   0.259  10.657 -0.3733 -0.2470  0.5816
  913MPD2    H713377   3.094   0.164  10.684  0.3837 -1.1388 -1.8907
  914MPD2     C13378   1.337   1.209  12.191  0.1129 -0.9228  0.2430
  914MPD2    C113379   1.294   1.255  12.318 -0.6415  0.4343  0.1674
  914MPD2    C213380   1.273   1.158  12.414 -0.5950  0.0420 -0.8038
  914MPD2    C313381   1.301   1.024  12.400 -0.0796 -0.9826 -0.5162
  914MPD2    C413382   1.339   0.986  12.271 -0.1909 -0.0967 -0.3001
  914MPD2    C513383   1.342   1.081  12.167  0.4074  0.5248 -0.2205
  914MPD2     H13384   1.254   1.184  12.518  0.1677 -0.4056 -0.5479
  914MPD2    H113385   1.383   0.888  12.255 -0.0339 -0.1649  0.5216
  914MPD2    H213386   1.354   1.279  12.110  0.2077 -1.2960 -0.0542
  914MPD2    H313387   1.380   1.058  12.068 -1.3003 -1.9386 -0.2932
  914MPD2     N13388   1.300   0.944  12.521 -0.5738 -0.0710 -0.2162
  914MPD2    H513389   1.286   0.990  12.611  1.5717  1.2198 -0.5357
  914MPD2    N113390   1.273   1.394  12.338  0.4972  0.1876 -0.2939
  914MPD2    H713391   1.306   1.462  12.270  1.0468  0.0220 -0.1960
  915MPD2     C13392   3.892   1.050  16.338 -0.3247  0.1864  0.2484
  915MPD2    C113393   3.768   1.060  16.275  0.8867  0.9350  0.4092
  915MPD2    C213394   3.664   1.107  16.354  0.0502  0.0770 -0.0935
  915MPD2    C313395   3.683   1.131  16.491 -0.2451  0.1693 -0.0629
  915MPD2    C413396   3.800   1.122  16.549  0.5247  0.1818  0.1610
  915MPD2    C513397   3.908   1.085  16.469  0.4166 -0.2606 -0.1928
  915MPD2     H13398   3.571   1.134  16.306 -0.1169  1.6598  1.1345
  915MPD2    H113399   3.815   1.138  16.655  0.8462 -0.9034  0.2765
  915MPD2    H213400   3.981   1.011  16.289 -0.5415 -0.1619  0.1307
  915MPD2    H313401   4.006   1.070  16.512  0.5037 -3.2382 -1.4705
  915MPD2     N13402   3.567   1.176  16.561 -0.2681  0.0304 -0.3821
  915MPD2    H513403   3.484   1.158  16.505  0.5364 -2.6268 -0.7646
  915MPD2    N113404   3.744   1.029  16.142 -0.0508 -0.5475  0.1358
  915MPD2    H713405   3.820   0.985  16.091  0.9291  0.5255  0.6832
  916MPD2     C13406   1.730   3.923  16.033  0.1977 -0.4048 -0.4639
  916MPD2    C113407   1.694   3.840  16.138 -0.4588  0.2744  0.0671
  916MPD2    C213408   1.702   3.700  16.122  0.1488  0.6868  0.3452
  916MPD2    C313409   1.758   3.650  16.006 -1.0249  0.2844  0.4061
  916MPD2    C413410   1.788   3.735  15.901  0.0820 -0.4354 -0.1343
  916MPD2    C513411   1.778   3.867  15.917  0.4030 -0.6674 -1.1402
  916MPD2     H13412   1.671   3.628  16.198  0.2928 -0.3294 -0.5502
  916MPD2    H113413   1.825   3.704  15.804 -2.6794  3.1299 -2.3277
  916MPD2    H213414   1.716   4.030  16.039 -1.9135 -0.6642 -0.7949
  916MPD2    H313415   1.807   3.936  15.837  2.9523 -1.1993 -0.6672
  916MPD2     N13416   1.775   3.509  15.996  0.1623  0.4926  0.4699
  916MPD2    H513417   1.754   3.450  16.075 -4.8894  0.2759 -1.0368
  916MPD2    N113418   1.612   3.897  16.239  0.7419 -0.2932  0.9992
  916MPD2    H713419   1.564   3.985  16.223  0.9609  0.1660  2.9262
  917MPD2     C13420   2.070   1.147  11.079  0.8586  0.1681  0.7961
  917MPD2    C113421   2.118   1.204  11.196 -0.4717  0.5521  0.0688
  917MPD2    C213422   2.230   1.291  11.186 -0.7952 -0.3279  0.2760
  917MPD2    C313423   2.296   1.306  11.072  0.0857  0.1876  0.6478
  917MPD2    C413424   2.250   1.254  10.958  0.7876  0.3807  0.3188
  917MPD2    C513425   2.139   1.181  10.965 -0.0236 -0.1732 -0.3929
  917MPD2     H13426   2.271   1.322  11.281 -0.1691  0.8790 -0.3756
  917MPD2    H113427   2.306   1.250  10.865  0.9172  2.2490  0.3245
  917MPD2    H213428   1.977   1.092  11.083  0.6447  0.5223  0.7178
  917MPD2    H313429   2.098   1.135  10.876 -1.8897  0.0487  0.3459
  917MPD2     N13430   2.425   1.373  11.068  0.0525  1.1407  0.1441
  917MPD2    H513431   2.471   1.379  10.977 -1.5823  0.1344 -0.7450
  917MPD2    N113432   2.049   1.166  11.311 -0.4566  0.0874 -0.3317
  917MPD2    H713433   1.969   1.105  11.301 -1.0648  0.7706  0.4187
  918MPD2     C13434   1.859   1.641  12.206 -0.6978 -1.2444  0.1954
  918MPD2    C113435   1.981   1.607  12.151 -0.2270  0.4467 -0.0309
  918MPD2    C213436   1.984   1.540  12.029 -0.2058  0.1260  0.2497
  918MPD2    C313437   1.878   1.484  11.965  0.1725 -0.0456 -0.1366
  918MPD2    C413438   1.759   1.506  12.033 -0.2572 -0.4707 -0.4894
  918MPD2    C513439   1.749   1.580  12.146 -0.3912  0.5700 -0.1254
  918MPD2     H13440   2.080   1.522  11.983 -0.2936  1.3301 -0.3906
  918MPD2    H113441   1.665   1.463  12.000  0.2146  0.2743 -2.7691
  918MPD2    H213442   1.851   1.695  12.299 -0.6407  1.3041 -1.2542
  918MPD2    H313443   1.658   1.582  12.205 -0.8546  2.2958 -0.9098
  918MPD2     N13444   1.891   1.395  11.854  0.5780 -0.0561  1.1109
  918MPD2    H513445   1.977   1.402  11.800  0.7131 -2.2161  1.0191
  918MPD2    N113446   2.111   1.634  12.212 -0.0494 -0.3087 -0.3328
  918MPD2    H713447   2.190   1.623  12.148 -1.1453 -0.9192 -1.5845
  919MPD2     C13448   2.794   0.323  11.508  0.0335  0.1208 -0.7740
  919MPD2    C113449   2.865   0.214  11.454 -0.1634 -0.1530  0.1466
  919MPD2    C213450   2.910   0.237  11.327  0.3166  0.3337  0.7583
  919MPD2    C313451   2.891   0.362  11.262 -1.0864 -0.9256  0.2196
  919MPD2    C413452   2.841   0.469  11.333 -0.5940 -1.1384 -0.7905
  919MPD2    C513453   2.792   0.451  11.459  0.1992  0.5172 -0.0816
  919MPD2     H13454   2.940   0.150  11.269 -0.4585  0.3731  0.3096
  919MPD2    H113455   2.809   0.559  11.282  1.9462  0.5739  0.6264
  919MPD2    H213456   2.750   0.308  11.606  0.7070  2.6411 -0.0736
  919MPD2    H313457   2.739   0.528  11.514  0.1155  0.3829  0.0245
  919MPD2     N13458   2.911   0.383  11.124  0.4999 -0.7183  0.3154
  919MPD2    H513459   2.900   0.475  11.084  1.1008 -0.5780  0.4769
  919MPD2    N113460   2.888   0.090  11.513 -0.6718  0.4009 -0.0547
  919MPD2    H713461   2.954   0.030  11.464  0.2089  0.7351  0.7304
  920MPD2     C13462   2.840   1.075  10.440  0.3629  0.6597 -0.1990
  920MPD2    C113463   2.755   0.984  10.383  0.6254  0.0576 -0.8899
  920MPD2    C213464   2.737   0.865  10.441 -0.5267  0.8521  0.8532
  920MPD2    C313465   2.801   0.821  10.556 -0.2640 -0.3294 -0.1914
  920MPD2    C413466   2.889   0.916  10.610  0.0216 -0.0512 -0.3339
  920MPD2    C513467   2.899   1.038  10.554 -0.0018  0.1919  0.5046
  920MPD2     H13468   2.665   0.796  10.399  0.7317  1.4288 -2.2593
  920MPD2    H113469   2.950   0.895  10.697  1.9053  1.3595 -1.3142
  920MPD2    H213470   2.858   1.176  10.405  1.2162  0.1315 -1.2779
  920MPD2    H313471   2.963   1.111  10.602  1.7615 -1.5082  0.7472
  920MPD2     N13472   2.779   0.694  10.617  0.1736 -0.3357  0.6681
  920MPD2    H513473   2.691   0.648  10.596 -0.0966 -0.0097  1.1004
  920MPD2    N113474   2.669   1.016  10.274 -0.5531 -0.5711  0.0220
  920MPD2    H713475   2.599   0.945  10.253 -0.4730 -0.2247 -1.3771
  921MPD2     C13476   3.541   4.579  16.935 -0.1602  0.4213 -0.7333
  921MPD2    C113477   3.568   4.486  16.835 -0.4998  0.5418  0.4863
  921MPD2    C213478   3.472   4.395  16.793  0.1033  0.0473  0.0331
  921MPD2    C313479   3.358   4.370  16.876  0.0609  0.9970  1.0045
  921MPD2    C413480   3.332   4.463  16.974  0.0818 -0.0559 -0.4106
  921MPD2    C513481   3.420   4.568  16.995 -0.7770  0.8656 -0.3393
  921MPD2     H13482   3.492   4.344  16.699 -3.7473  2.2273 -1.9896
  921MPD2    H113483   3.242   4.470  17.035  0.5332  2.1356  0.0202
  921MPD2    H213484   3.615   4.649  16.971  0.2314 -0.1905 -0.3495
  921MPD2    H313485   3.401   4.629  17.083 -0.5454  3.4716 -2.1061
  921MPD2     N13486   3.259   4.275  16.849  0.3115  0.9956  0.7019
  921MPD2    H513487   3.166   4.282  16.889  0.7092 -1.8947  2.1043
  921MPD2    N113488   3.693   4.501  16.770  0.6073  0.2831 -0.0126
  921MPD2    H713489   3.737   4.592  16.783  0.8585 -0.1530  2.3367
  922MPD2     C13490   4.460   2.318   0.449  0.4460 -0.4427  0.0614
  922MPD2    C113491   4.375   2.364   0.351  0.5866 -0.3088  0.3152
  922MPD2    C213492   4.239   2.376   0.383  0.1683  0.8673  0.1388
  922MPD2    C313493   4.193   2.335   0.512  0.2972  0.4149 -0.0924
  922MPD2    C413494   4.285   2.303   0.611 -0.4280  0.6575  0.7183
  922MPD2    C513495   4.417   2.288   0.581  0.0821 -0.1649  0.2206
  922MPD2     H13496   4.168   2.402   0.306 -0.0413  0.2222  0.1174
  922MPD2    H113497   4.258   2.292   0.715  0.3616 -0.2292  0.8268
  922MPD2    H213498   4.564   2.312   0.417  0.2200 -1.7628 -0.4158
  922MPD2    H313499   4.481   2.263   0.665 -1.1497 -1.3251  0.8027
  922MPD2     N13500   4.050   2.327   0.529  0.1351 -0.2845 -1.0460
  922MPD2    H513501   3.989   2.355   0.453 -1.5484  0.0243  0.4120
  922MPD2    N113502   4.416   2.401   0.222  0.7996 -0.4085 -0.2641
  922MPD2    H713503   4.345   2.443   0.162 -0.0140 -1.9811 -0.4027
  923MPD2     C13504   1.010   3.858   9.424 -0.7355 -0.0262  0.5606
  923MPD2    C113505   1.061   3.945   9.514  0.1098  0.9068 -0.4464
  923MPD2    C213506   1.154   3.903   9.605  0.3982  0.0011 -0.2314
  923MPD2    C313507   1.207   3.779   9.587 -0.7509  0.6885  0.0544
  923MPD2    C413508   1.157   3.690   9.497  0.5519 -0.0316  0.3793
  923MPD2    C513509   1.052   3.725   9.420  0.0875 -0.3996  0.2832
  923MPD2     H13510   1.191   3.974   9.678 -2.6704  0.1978  1.1096
  923MPD2    H113511   1.211   3.598   9.481  0.4557 -0.3667  2.0096
  923MPD2    H213512   0.931   3.883   9.353 -1.9794  0.4741  2.1362
  923MPD2    H313513   1.030   3.661   9.335  1.4358 -2.6041  1.5828
  923MPD2     N13514   1.326   3.728   9.663 -0.1422 -0.3835 -0.1342
  923MPD2    H513515   1.329   3.628   9.650  0.4685 -0.4389  0.4408
  923MPD2    N113516   0.994   4.069   9.510  0.2385  0.0881 -0.3441
  923MPD2    H713517   0.921   4.078   9.440  0.4818  1.2995 -0.4577
  924MPD2     C13518   0.994   2.303  15.608 -0.5184  0.4533 -0.2681
  924MPD2    C113519   0.960   2.342  15.738 -0.3595 -0.3637  1.1134
  924MPD2    C213520   1.017   2.454  15.794 -0.1691  0.4513  0.6586
  924MPD2    C313521   1.111   2.526  15.722 -0.7532 -0.0698  0.4166
  924MPD2    C413522   1.137   2.486  15.598 -0.4674  0.6685 -0.4801
  924MPD2    C513523   1.089   2.369  15.548 -0.0713 -0.3221  0.1294
  924MPD2     H13524   0.995   2.490  15.894 -0.9079  2.5918 -0.2763
  924MPD2    H113525   1.200   2.550  15.539  2.5042 -1.2263  0.6508
  924MPD2    H213526   0.963   2.212  15.560 -0.0691  0.8863 -1.3795
  924MPD2    H313527   1.117   2.338  15.448 -2.9106 -0.3412 -0.6536
  924MPD2     N13528   1.158   2.650  15.763  0.1442  0.1292  0.4573
  924MPD2    H513529   1.196   2.720  15.700  0.8728  0.1816  0.9665
  924MPD2    N113530   0.863   2.269  15.815  0.0116  0.2164 -0.4384
  924MPD2    H713531   0.803   2.206  15.762 -0.6455 -0.5138  1.1675
  925MPD2     C13532   4.402   0.363  15.163 -0.6635 -0.8144  0.2076
  925MPD2    C113533   4.294   0.301  15.096 -0.4106  0.1623 -0.1973
  925MPD2    C213534   4.203   0.234  15.173 -0.0405 -0.4078  0.7734
  925MPD2    C313535   4.208   0.225  15.313  0.0967 -0.5731  0.6509
  925MPD2    C413536   4.318   0.287  15.377  0.1153  0.9389  0.4782
  925MPD2    C513537   4.412   0.355  15.299 -0.3702 -0.0719  0.5390
  925MPD2     H13538   4.114   0.191  15.129 -1.0320  1.2449  1.1647
  925MPD2    H113539   4.321   0.295  15.485  2.6654 -0.4102  0.5041
  925MPD2    H213540   4.484   0.417  15.118 -2.0391 -0.5823 -2.0312
  925MPD2    H313541   4.487   0.399  15.363  0.0855 -1.7310  1.1321
  925MPD2     N13542   4.111   0.162  15.393  0.6865 -0.2955 -0.0138
  925MPD2    H513543   4.112   0.177  15.494 -0.7361 -1.8465  0.2286
  925MPD2    N113544   4.268   0.315  14.958 -0.3628  0.0637  0.0108
  925MPD2    H713545   4.219   0.239  14.913  0.9939 -0.0310 -1.3221
  926MPD2     C13546   3.958   3.167  13.264 -0.3344  0.3150  0.2867
  926MPD2    C113547   3.873   3.281  13.265  0.4751 -0.1348 -0.0685
  926MPD2    C213548   3.858   3.351  13.151 -0.2880 -0.5099 -0.6427
  926MPD2    C313549   3.924   3.311  13.035 -0.8071 -0.2304 -0.3134
  926MPD2    C413550   4.000   3.193  13.036  0.3278  0.4058  0.2554
  926MPD2    C513551   4.024   3.129  13.151  0.3338  0.1381  0.0298
  926MPD2     H13552   3.806   3.447  13.150  0.6578 -0.0220 -3.0015
  926MPD2    H113553   4.048   3.151  12.949  0.7166  2.6251 -0.5944
  926MPD2    H213554   3.976   3.118  13.359  0.7037 -1.0203 -0.6117
  926MPD2    H313555   4.092   3.045  13.156  0.3408  0.1755  0.5796
  926MPD2     N13556   3.901   3.379  12.909 -0.6634  0.0634  0.4484
  926MPD2    H513557   3.961   3.356  12.829 -0.0693  0.5353  0.7575
  926MPD2    N113558   3.813   3.337  13.379 -0.6669  0.4330 -0.0551
  926MPD2    H713559   3.773   3.427  13.358  0.1228  0.1540 -2.7978
  927MPD2     C13560   1.882   1.073   0.958 -0.3879  0.1004  0.6255
  927MPD2    C113561   1.871   0.950   0.908 -0.0042 -1.0485  0.2403
  927MPD2    C213562   1.938   0.920   0.797  0.1432  0.5367  0.1667
  927MPD2    C313563   2.023   1.008   0.734 -0.7226 -0.1180 -0.3277
  927MPD2    C413564   2.026   1.138   0.781 -0.2293 -0.5416 -0.8895
  927MPD2    C513565   1.948   1.170   0.890  0.4292 -0.6384  0.3022
  927MPD2     H13566   1.919   0.826   0.746 -0.3341 -0.2459  1.8114
  927MPD2    H113567   2.077   1.216   0.726 -0.9051  0.6106  0.1059
  927MPD2    H213568   1.818   1.106   1.039  1.8365  0.8455  2.0699
  927MPD2    H313569   1.955   1.272   0.926 -0.3076 -0.5763  0.2726
  927MPD2     N13570   2.108   0.949   0.637  0.2210  0.2401  0.0446
  927MPD2    H513571   2.107   0.847   0.631  1.1420  0.3005 -1.0554
  927MPD2    N113572   1.800   0.852   0.987 -0.4196  0.2602 -0.4220
  927MPD2    H713573   1.743   0.885   1.064 -0.7807 -1.2637 -0.0436
  928MPD2     C13574   0.284   3.767   1.362 -0.6895 -0.1083  0.7573
  928MPD2    C113575   0.241   3.901   1.367  0.5741  0.6391 -0.2788
  928MPD2    C213576   0.285   3.985   1.260 -0.0998  0.2426 -0.5556
  928MPD2    C313577   0.361   3.931   1.150  0.4590  0.5247  0.1183
  928MPD2    C413578   0.387   3.795   1.151 -0.1092 -0.6290  0.1706
  928MPD2    C513579   0.351   3.721   1.256 -0.1827 -0.1538 -0.0793
  928MPD2     H13580   0.257   4.089   1.265  1.1309  0.5718 -0.3681
  928MPD2    H113581   0.425   3.739   1.066 -1.8544 -1.1944 -0.2425
  928MPD2    H213582   0.261   3.698   1.443 -0.5169 -2.4562 -1.1938
  928MPD2    H313583   0.356   3.612   1.253  0.6182 -0.2055  2.8043
  928MPD2     N13584   0.412   4.009   1.039 -0.0807 -0.3534 -0.0662
  928MPD2    H513585   0.463   3.954   0.971  2.3042  1.2321  0.4397
  928MPD2    N113586   0.170   3.954   1.485  0.0241  0.3334  0.6937
  928MPD2    H713587   0.165   3.895   1.567  0.7278  2.5382  2.3515
  929MPD2     C13588   1.273   3.556  10.638 -0.2229  0.2898 -0.0956
  929MPD2    C113589   1.161   3.517  10.712  0.3281  0.8608 -0.0157
  929MPD2    C213590   1.034   3.551  10.663 -0.0431 -1.1699  0.2196
  929MPD2    C313591   1.020   3.632  10.550 -0.2927 -0.3418 -0.4078
  929MPD2    C413592   1.131   3.674  10.482  0.1596  0.3596 -0.2833
  929MPD2    C513593   1.251   3.621  10.520 -0.0361  0.0638 -0.1867
  929MPD2     H13594   0.947   3.535  10.726 -1.1782  0.5383 -0.9097
  929MPD2    H113595   1.129   3.740  10.396 -1.7673 -0.1328 -0.5979
  929MPD2    H213596   1.373   3.533  10.671 -0.6240 -1.7965 -0.3332
  929MPD2    H313597   1.340   3.635  10.459 -0.4281  0.4211 -0.6812
  929MPD2     N13598   0.899   3.674  10.500 -0.3235 -0.5337  0.7997
  929MPD2    H513599   0.898   3.739  10.421  1.8398  0.4792  1.6311
  929MPD2    N113600   1.180   3.468  10.844  0.1674  0.1191  0.3083
  929MPD2    H713601   1.276   3.479  10.876  0.9348 -1.3785 -1.5128
  930MPD2     C13602   2.713   1.753  14.843 -0.8127  0.7223  0.0297
  930MPD2    C113603   2.719   1.800  14.714 -0.1310  0.6500  0.1526
  930MPD2    C213604   2.672   1.713  14.620 -0.3625  0.2500  0.2664
  930MPD2    C313605   2.609   1.599  14.646  0.6183  0.4534  0.2892
  930MPD2    C413606   2.588   1.562  14.774 -0.6412 -0.5078  0.3215
  930MPD2    C513607   2.649   1.635  14.872 -0.0924  0.1916  0.3947
  930MPD2     H13608   2.683   1.741  14.516  0.5789  1.4215  0.6827
  930MPD2    H113609   2.523   1.477  14.794 -1.3316 -0.0667 -0.0477
  930MPD2    H213610   2.753   1.813  14.924  0.5877 -2.4773  1.7136
  930MPD2    H313611   2.624   1.601  14.971 -2.0496  1.2941  0.2912
  930MPD2     N13612   2.563   1.511  14.544  0.1741  0.6599  0.4303
  930MPD2    H513613   2.491   1.448  14.577  0.6578  1.0410  2.1642
  930MPD2    N113614   2.790   1.921  14.683  0.3650 -0.2238  0.8188
  930MPD2    H713615   2.821   1.981  14.759  0.2868  1.5000 -0.5098
  931MPD2     C13616   1.938   0.120   1.052 -0.0920  0.1639  0.1742
  931MPD2    C113617   1.848   0.159   1.147  0.0052 -0.1186 -0.1546
  931MPD2    C213618   1.825   0.085   1.258 -0.4769  0.2613 -0.4171
  931MPD2    C313619   1.905   4.693   1.279  0.1073 -0.3055  0.2363
  931MPD2    C413620   1.991   4.649   1.176 -0.2655  0.6513  0.2139
  931MPD2    C513621   2.003   0.003   1.058  0.2078  0.1108  0.3536
  931MPD2     H13622   1.762   0.129   1.335 -0.9565 -3.3439  1.2596
  931MPD2    H113623   2.053   4.560   1.183  0.4375  1.1404  0.1253
  931MPD2    H213624   1.962   0.185   0.969  0.2308  0.8159  0.7785
  931MPD2    H313625   2.088   4.703   0.995  1.5436  0.4737  2.0254
  931MPD2     N13626   1.908   4.621   1.400 -0.4422 -0.0304 -0.5653
  931MPD2    H513627   1.960   4.534   1.407 -0.2141  0.1132 -0.4886
  931MPD2    N113628   1.785   0.278   1.115 -0.1128 -0.1123 -0.3228
  931MPD2    H713629   1.818   0.339   1.041  0.8269 -0.0833  0.1190
  932MPD2     C13630   4.375   0.045  11.282 -0.1460  0.6674  0.8798
  932MPD2    C113631   4.491   0.100  11.240  0.1475 -0.0334 -0.4093
  932MPD2    C213632   4.590   0.013  11.192 -0.4153  0.1051  0.6850
  932MPD2    C313633   4.575   4.595  11.205 -0.1413  0.5572 -0.3710
  932MPD2    C413634   4.459   4.545  11.257 -0.5901  0.2039 -0.2613
  932MPD2    C513635   4.364   4.631  11.293 -0.3961 -0.2704  0.1568
  932MPD2     H13636   4.680   0.053  11.146  0.8257  0.5913  3.5447
  932MPD2    H113637   4.456   4.436  11.261  0.9298  0.0870 -2.5822
  932MPD2    H213638   4.294   0.108  11.316 -2.1238 -0.6277 -1.4355
  932MPD2    H313639   4.274   4.594  11.341 -1.6467  0.8093 -1.3768
  932MPD2     N13640   4.684   4.508  11.175  0.2311 -0.7529  0.2653
  932MPD2    H513641   4.689   4.417  11.220  1.4564 -0.2168  1.2236
  932MPD2    N113642   4.524   0.238  11.249  0.0674 -0.8472 -0.4138
  932MPD2    H713643   4.619   0.262  11.225 -0.2027 -1.0241 -1.6930
  933MPD2     C13644   4.195   4.265   1.601  0.2923  0.3565  0.1964
  933MPD2    C113645   4.290   4.289   1.702 -0.4482 -0.0950  0.9119
  933MPD2    C213646   4.256   4.386   1.800  0.3076  0.1899  0.1992
  933MPD2    C313647   4.133   4.443   1.801 -0.6556  0.0545  0.2987
  933MPD2    C413648   4.037   4.403   1.703  0.1060 -0.3522 -0.3165
  933MPD2    C513649   4.071   4.324   1.598 -0.1194 -0.0300  0.8652
  933MPD2     H13650   4.320   4.413   1.883 -0.4114 -1.7618  1.4132
  933MPD2    H113651   3.933   4.434   1.700 -0.8019 -3.4835 -0.6473
  933MPD2    H213652   4.208   4.187   1.526 -1.1517  0.1830  0.1260
  933MPD2    H313653   4.008   4.306   1.511 -1.0372 -2.0791  1.9487
  933MPD2     N13654   4.101   4.537   1.899  0.3004  0.5044  0.6412
  933MPD2    H513655   4.177   4.567   1.960 -0.4986  1.4333  1.1984
  933MPD2    N113656   4.416   4.221   1.702  0.1456  0.2478 -0.1121
  933MPD2    H713657   4.432   4.152   1.629  1.0584  1.4181 -1.0157
  934MPD2     C13658   1.923   1.596   1.686  0.2335 -0.2145  0.6232
  934MPD2    C113659   1.890   1.722   1.624  0.8156  0.9121 -0.2166
  934MPD2    C213660   1.792   1.791   1.689 -0.9442 -1.0150  0.5010
  934MPD2    C313661   1.722   1.748   1.792 -0.0490  0.1748  0.8988
  934MPD2    C413662   1.755   1.635   1.843 -0.4702 -0.8189  0.3406
  934MPD2    C513663   1.849   1.554   1.789  0.2847  0.2762  0.7586
  934MPD2     H13664   1.773   1.892   1.654  0.8364 -1.3060 -1.2943
  934MPD2    H113665   1.702   1.596   1.929  0.9114 -0.0252  1.5523
  934MPD2    H213666   1.996   1.531   1.638  1.4306  0.1260  1.9634
  934MPD2    H313667   1.866   1.453   1.824  0.7317  0.0962  0.0084
  934MPD2     N13668   1.593   1.796   1.835 -0.5130 -0.7231  0.1600
  934MPD2    H513669   1.538   1.747   1.905 -0.0201 -1.1103  0.2738
  934MPD2    N113670   1.958   1.777   1.513 -0.1360 -0.4747 -0.2598
  934MPD2    H713671   1.920   1.861   1.470  3.4277  1.1719 -0.1242
  935MPD2     C13672   1.105   1.126   1.671 -0.0653 -0.9832 -0.4506
  935MPD2    C113673   1.006   1.222   1.680 -0.2499  0.3725  0.7935
  935MPD2    C213674   1.043   1.359   1.692 -0.3830  0.5765  0.5391
  935MPD2    C313675   1.171   1.392   1.701  0.1301 -0.5639 -0.4281
  935MPD2    C413676   1.267   1.287   1.685 -0.2815  0.2792 -0.6474
  935MPD2    C513677   1.237   1.155   1.674  0.1182 -0.7107 -0.3531
  935MPD2     H13678   0.964   1.433   1.700 -0.4615  0.6268 -0.7028
  935MPD2    H113679   1.372   1.311   1.679 -0.1136 -0.0279  1.3447
  935MPD2    H213680   1.075   1.024   1.654  1.9727 -1.8326  0.9477
  935MPD2    H313681   1.307   1.075   1.652 -0.0272 -0.6213 -1.1347
  935MPD2     N13682   1.216   1.526   1.707 -0.0753 -0.0521  0.0611
  935MPD2    H513683   1.317   1.540   1.699 -0.5566  2.5334 -1.4979
  935MPD2    N113684   0.870   1.195   1.682  0.0018  0.2747 -0.0744
  935MPD2    H713685   0.806   1.273   1.668  0.1019  0.5482  0.9605
  936MPD2     C13686   0.808   2.885  12.795 -0.0567 -0.8045 -0.2836
  936MPD2    C113687   0.755   2.963  12.892 -0.3006  0.6108  0.2476
  936MPD2    C213688   0.651   3.050  12.865  0.3422 -0.3408 -0.9162
  936MPD2    C313689   0.619   3.070  12.734 -0.3422  0.1375 -0.1300
  936MPD2    C413690   0.677   2.999  12.634 -0.3753  0.3044  0.1807
  936MPD2    C513691   0.761   2.897  12.670 -0.1142  0.7792 -0.3551
  936MPD2     H13692   0.595   3.110  12.936 -0.3335 -1.8264 -0.1794
  936MPD2    H113693   0.651   3.012  12.530  0.1553 -0.0034  0.0055
  936MPD2    H213694   0.885   2.810  12.812  0.3593 -0.5046 -0.8476
  936MPD2    H313695   0.812   2.841  12.592  0.8576  2.6115 -1.0293
  936MPD2     N13696   0.551   3.189  12.714 -0.9464 -0.0037 -0.3518
  936MPD2    H513697   0.566   3.257  12.788  0.1768 -1.5794  0.8480
  936MPD2    N113698   0.797   2.964  13.027 -0.0470  0.8765 -0.4163
  936MPD2    H713699   0.748   3.019  13.097 -1.3452 -2.5057  1.3365
  937MPD2     C13700   3.168   4.150  11.470 -0.3933  0.1672  0.5895
  937MPD2    C113701   3.122   4.273  11.426  0.0324  0.4672  0.2645
  937MPD2    C213702   3.201   4.330  11.333  0.2088  0.2687 -0.3829
  937MPD2    C313703   3.310   4.271  11.277  0.3744 -0.5056 -0.3198
  937MPD2    C413704   3.345   4.141  11.316 -0.1379  0.5200  0.4467
  937MPD2    C513705   3.269   4.082  11.411 -0.0193  0.1297 -0.2152
  937MPD2     H13706   3.183   4.436  11.316 -1.9424 -0.2254 -1.2060
  937MPD2    H113707   3.422   4.084  11.266 -0.6814  0.4821 -0.3515
  937MPD2    H213708   3.117   4.096  11.548 -0.1201  0.3741  0.9110
  937MPD2    H313709   3.290   3.979  11.437 -0.1991  0.1283 -0.0767
  937MPD2     N13710   3.386   4.357  11.193  0.5197 -0.3679 -0.1232
  937MPD2    H513711   3.344   4.447  11.172  0.9089 -0.1337  0.1069
  937MPD2    N113712   3.026   4.355  11.493 -0.1126  0.0376 -0.7405
  937MPD2    H713713   3.000   4.440  11.444  0.7032  1.2925  1.0147
  938MPD2     C13714   0.694   1.270   2.002 -0.6706  0.3592  0.5298
  938MPD2    C113715   0.576   1.288   1.934 -0.5220  0.4131 -0.1348
  938MPD2    C213716   0.482   1.181   1.945 -0.2703 -0.6702 -0.2258
  938MPD2    C313717   0.497   1.063   2.020 -0.1099  0.0942 -0.0337
  938MPD2    C413718   0.618   1.052   2.083 -0.5893  0.0243  0.0344
  938MPD2    C513719   0.718   1.147   2.068  0.0573  0.3773 -0.3996
  938MPD2     H13720   0.394   1.189   1.882 -0.5745  0.7870  0.3758
  938MPD2    H113721   0.640   0.971   2.152  0.8053 -0.6837 -1.2533
  938MPD2    H213722   0.769   1.349   2.002  0.3968 -0.6466 -2.9402
  938MPD2    H313723   0.795   1.143   2.144  1.4491  0.4735 -1.8183
  938MPD2     N13724   0.402   0.964   2.030 -0.0715  0.2286 -0.1956
  938MPD2    H513725   0.440   0.871   2.042 -0.2158  0.2364  0.3172
  938MPD2    N113726   0.560   1.404   1.844  0.3064 -0.2817 -0.1493
  938MPD2    H713727   0.468   1.422   1.806 -0.2996 -1.6931  0.6652
  939MPD2     C13728   1.902   2.888   0.913  0.1751  0.1898  0.3559
  939MPD2    C113729   1.981   2.880   1.025 -0.7683 -0.3847  0.1392
  939MPD2    C213730   2.121   2.859   1.003 -0.0362 -0.2133 -0.1741
  939MPD2    C313731   2.169   2.854   0.872 -0.3306  0.0533  0.7891
  939MPD2    C413732   2.077   2.854   0.767 -0.3226  0.4333  0.4328
  939MPD2    C513733   1.941   2.865   0.786 -0.5643 -0.0100  0.0338
  939MPD2     H13734   2.198   2.869   1.079  0.9150 -0.6716 -1.0840
  939MPD2    H113735   2.111   2.838   0.665  1.0952 -0.0260  0.9935
  939MPD2    H213736   1.796   2.904   0.932  0.8161  1.4104  2.8409
  939MPD2    H313737   1.861   2.869   0.713 -0.6299 -1.0943  0.0490
  939MPD2     N13738   2.308   2.836   0.854  0.6195  0.0628 -0.2736
  939MPD2    H513739   2.364   2.813   0.935 -1.4967 -2.1180  0.5774
  939MPD2    N113740   1.929   2.898   1.151  0.3497  0.0206 -0.0667
  939MPD2    H713741   1.830   2.908   1.174 -0.1204  1.4787 -2.7556
  940MPD2     C13742   1.431   2.859  13.412  0.3075  0.4664 -0.3329
  940MPD2    C113743   1.327   2.955  13.420 -0.1024 -0.3454  0.1435
  940MPD2    C213744   1.267   3.005  13.307  0.3599  1.0578 -0.0225
  940MPD2    C313745   1.324   2.969  13.182  0.5378 -0.3240 -0.1511
  940MPD2    C413746   1.422   2.873  13.168  0.1589  0.0320 -0.4624
  940MPD2    C513747   1.468   2.819  13.283 -0.6706 -0.0109  0.5598
  940MPD2     H13748   1.197   3.088  13.311 -0.7068  0.2646 -2.0479
  940MPD2    H113749   1.459   2.834  13.074 -0.4978  0.7727 -1.0297
  940MPD2    H213750   1.474   2.807  13.497 -0.3878 -0.1797 -0.3757
  940MPD2    H313751   1.543   2.741  13.276  0.5276  1.3293 -1.5366
  940MPD2     N13752   1.267   3.014  13.062 -0.7917 -0.4756  0.8030
  940MPD2    H513753   1.306   2.965  12.982  0.7815  2.1801 -0.0460
  940MPD2    N113754   1.295   3.024  13.541 -0.0381 -0.3883  0.0020
  940MPD2    H713755   1.214   3.085  13.546  1.2104  1.5231 -2.7200
  941MPD2     C13756   0.566   2.003   9.648  0.0688  0.2619  0.3666
  941MPD2    C113757   0.653   1.949   9.741 -0.3940 -0.2229 -0.1945
  941MPD2    C213758   0.659   1.815   9.768  0.0480  0.2129 -0.6041
  941MPD2    C313759   0.573   1.732   9.707 -0.3477 -0.7563 -0.2397
  941MPD2    C413760   0.485   1.786   9.610  0.6729 -0.3167 -0.4289
  941MPD2    C513761   0.484   1.917   9.578 -0.1477  0.2374 -0.1646
  941MPD2     H13762   0.721   1.783   9.851  0.4795  1.8244 -0.3002
  941MPD2    H113763   0.431   1.714   9.549 -0.5290 -0.0858  0.3590
  941MPD2    H213764   0.560   2.106   9.617 -0.9355  0.6495  1.8781
  941MPD2    H313765   0.419   1.947   9.496 -1.0514 -0.7861  0.1737
  941MPD2     N13766   0.554   1.595   9.726  0.1778  0.8974  0.1638
  941MPD2    H513767   0.477   1.548   9.680  0.1277  0.0194  1.1535
  941MPD2    N113768   0.743   2.023   9.821  0.4570  0.2309 -0.1081
  941MPD2    H713769   0.791   1.972   9.894  0.4907 -0.1461 -0.3943
  942MPD2     C13770   0.077   3.926  10.185 -0.6811 -0.5857  0.5699
  942MPD2    C113771   0.057   3.927  10.049 -0.4287 -0.1029 -0.5462
  942MPD2    C213772   0.170   3.925   9.974 -0.0298  1.1759  0.3457
  942MPD2    C313773   0.296   3.928  10.024 -0.2525  0.3976  0.0963
  942MPD2    C413774   0.311   3.928  10.161 -0.4461 -0.8102  0.1002
  942MPD2    C513775   0.203   3.921  10.245  0.1272  0.4127  0.5545
  942MPD2     H13776   0.165   3.931   9.866  0.3611 -1.2397  0.1960
  942MPD2    H113777   0.410   3.920  10.206 -1.5498 -3.2838  2.0507
  942MPD2    H213778   4.719   3.925  10.258 -1.2129  0.7357 -0.0012
  942MPD2    H313779   0.212   3.930  10.352 -0.7005 -2.6734  0.8801
  942MPD2     N13780   0.421   3.928   9.951  0.2599  0.8762 -1.2715
  942MPD2    H513781   0.503   3.919  10.011 -0.0972  1.6035 -0.6791
  942MPD2    N113782   4.651   3.926   9.982  0.0267  0.2971 -0.1123
  942MPD2    H713783   4.643   3.915   9.881  1.6461 -0.5806 -0.1428
  943MPD2     C13784   3.959   1.723   9.968  0.3680  0.0944  0.3583
  943MPD2    C113785   4.026   1.764  10.080 -0.0929 -0.7096  0.1483
  943MPD2    C213786   4.134   1.852  10.075  0.3180 -0.5736  0.1491
  943MPD2    C313787   4.160   1.920   9.952 -0.5082 -0.6784 -0.2873
  943MPD2    C413788   4.074   1.884   9.846 -0.2267  0.2910  0.0192
  943MPD2    C513789   3.975   1.790   9.850 -0.3558 -0.7772  0.0320
  943MPD2     H13790   4.185   1.886  10.165 -1.3462  0.4091  0.7258
  943MPD2    H113791   4.086   1.938   9.752  1.0616 -0.4309 -0.2372
  943MPD2    H213792   3.881   1.648   9.974 -1.4835  2.0148  0.2368
  943MPD2    H313793   3.912   1.772   9.763  1.2497 -1.8359 -0.9074
  943MPD2     N13794   4.252   2.028   9.936  0.0537 -0.8357  0.1954
  943MPD2    H513795   4.257   2.073   9.845  0.2661  0.5482  0.9053
  943MPD2    N113796   3.985   1.711  10.199  0.0060  0.0296  0.9003
  943MPD2    H713797   3.891   1.673  10.199  0.4699 -1.1272  0.1215
  944MPD2     C13798   3.507   0.946  11.570 -0.4383 -0.1763  0.3051
  944MPD2    C113799   3.449   0.983  11.452 -0.0608 -0.4378  0.4372
  944MPD2    C213800   3.353   1.083  11.447 -0.9196 -0.4765  0.6850
  944MPD2    C313801   3.295   1.125  11.565 -0.1112  0.3559  0.2730
  944MPD2    C413802   3.349   1.079  11.684  0.6626  0.0389  0.1896
  944MPD2    C513803   3.455   0.992  11.684 -0.7704 -0.6032  1.1101
  944MPD2     H13804   3.326   1.129  11.353 -0.5044 -1.7297 -0.0357
  944MPD2    H113805   3.327   1.115  11.784  2.6615  1.8446 -0.0369
  944MPD2    H213806   3.594   0.881  11.577  0.3394  0.8268 -0.0465
  944MPD2    H313807   3.495   0.967  11.781  2.9269 -0.9342 -0.4797
  944MPD2     N13808   3.200   1.230  11.560  1.1124  0.5010  0.7125
  944MPD2    H513809   3.192   1.272  11.468  3.4729  1.1731  0.8244
  944MPD2    N113810   3.487   0.916  11.341  0.1631  0.4050  0.0909
  944MPD2    H713811   3.567   0.854  11.347 -0.6518 -0.5171  1.3979
    1TCq1    O113812   1.932   2.051  14.575  0.5776 -0.1516 -0.0991
    1TCq1    C113813   2.050   1.987  14.588 -0.5970  0.2242  0.3997
    1TCq1    O213814   2.086   1.902  14.507 -0.0901  0.7160  0.2536
    1TCq1    C213815   2.072   1.974  14.731 -0.1785  0.2366  0.0105
    1TCq1    C313816   2.110   1.852  14.782  0.6757 -0.2433  0.7587
    1TCq1    C413817   2.171   1.854  14.899 -0.8176  0.1470  0.4354
    1TCq1    C513818   2.170   1.959  14.979  0.6339  0.6573  0.8609
    1TCq1    C613819   2.105   2.073  14.933 -0.1336  0.2604  0.3245
    1TCq1    C713820   2.061   2.087  14.809  0.3047  0.6896 -0.2665
    1TCq1    C813821   2.088   2.184  15.030  0.9833  0.1251 -0.2101
    1TCq1    O413822   2.156   2.180  15.131 -0.4291  0.0929 -0.2673
    1TCq1    C913823   2.216   1.726  14.938  0.4423  0.0139 -0.8010
    1TCq1    O513824   2.163   1.629  14.879  0.5741 -0.2468 -0.1448
    1TCq1    O613825   2.292   1.718  15.043  0.4677 -0.1103 -0.1344
    1TCq1    H113826   1.895   2.087  14.659 -0.7450 -2.0624  0.1329
    1TCq1    H213827   2.119   1.768  14.714 -0.4421 -0.6687  1.1303
    1TCq1    H313828   2.226   1.957  15.072  1.1663  1.1015  0.5521
    1TCq1    H413829   2.024   2.175  14.757 -2.0438  1.1265  2.1747
    2MPD2     C13830   1.860   2.617  15.177 -0.8594 -0.9697 -0.4100
    2MPD2    C113831   1.819   2.591  15.046 -0.1889  0.0935  0.3545
    2MPD2    C213832   1.863   2.474  14.988 -0.0846  0.0463  0.4020
    2MPD2    C313833   1.947   2.389  15.056 -0.0105 -0.4502  0.3990
    2MPD2    C413834   1.992   2.426  15.181  0.4087 -0.9026 -0.2888
    2MPD2    C513835   1.946   2.536  15.243 -0.0267  0.3409  0.2446
    2MPD2     H13836   1.829   2.430  14.895 -1.0982  1.4611  0.1056
    2MPD2    H113837   2.049   2.358  15.242  0.6192 -0.3401  0.1450
    2MPD2    H213838   1.836   2.709  15.229 -0.7563 -1.5076  0.5946
    2MPD2    H313839   1.990   2.565  15.338  2.1336  0.8218 -0.9138
    2MPD2     N13840   1.984   2.268  14.990  0.0495  0.3622 -0.1507
    2MPD2    H513841   1.930   2.249  14.906  3.3061  1.5505 -2.5246
    2MPD2    N113842   1.749   2.690  14.984  0.1705 -0.3976 -0.2610
    2MPD2    H713843   1.725   2.771  15.040 -1.3568 -0.0115 -1.4879
    3TMC2    C113844   1.672   2.834  14.807 -0.2509 -0.3582 -0.3383
    3TMC2    C213845   1.737   2.938  14.866  0.3460  0.6853 -0.2365
    3TMC2    C313846   1.746   3.056  14.802 -0.2065  0.2770 -0.6900
    3TMC2    C413847   1.612   2.845  14.684 -0.0543  0.7144 -0.7815
    3TMC2    C513848   1.615   2.974  14.630  0.2520  0.7223  0.4550
    3TMC2    C613849   1.663   3.083  14.698  0.1213  0.3309 -0.6944
    3TMC2     C13850   1.712   2.701  14.855 -0.6040  0.2647 -0.1517
    3TMC2     O13851   1.719   2.612  14.776  0.5516  0.0547  0.3640
    3TMC2     H13852   1.777   2.938  14.967  2.0669 -2.1547 -0.9216
    3TMC2    H113853   1.581   2.755  14.633 -0.4617  1.1429 -1.2929
    3TMC2    H213854   1.665   3.184  14.657  0.2868  0.9766  0.9043
    3TMC2    C713855   1.603   2.981  14.485 -0.1508  0.1353  0.8523
    3TMC2    C813856   1.809   3.173  14.868  0.2184 -0.0776  0.1160
    3TMC2    O113857   1.646   2.877  14.429 -0.6805 -0.0754  0.5839
    3TMC2    O213858   1.758   3.281  14.867  0.4536 -0.3398  0.0624
    3TMC2    O513859   1.942   3.157  14.885  0.1621  0.4218 -0.2695
    3TMC2    H513860   1.971   3.066  14.861 -1.3093 -0.3716  0.9045
    4MPD2     C13861   0.523   3.604  13.732 -0.3121  0.3243  0.3296
    4MPD2    C113862   0.606   3.686  13.667 -0.5615  0.3310  0.1834
    4MPD2    C213863   0.727   3.723  13.721  0.3727 -0.1955  0.1254
    4MPD2    C313864   0.772   3.681  13.845  0.0597  0.0174 -1.1745
    4MPD2    C413865   0.686   3.595  13.913  0.3513  0.0804 -0.2292
    4MPD2    C513866   0.561   3.568  13.859  0.0919  0.8701  0.5794
    4MPD2     H13867   0.799   3.787  13.671 -1.2058  1.4282 -0.0839
    4MPD2    H113868   0.706   3.536  14.001 -1.4485  1.3795  1.0571
    4MPD2    H213869   0.442   3.559  13.676  0.0481 -0.7813  0.7065
    4MPD2    H313870   0.502   3.491  13.906  1.2348 -0.2794  0.1164
    4MPD2     N13871   0.896   3.721  13.903 -0.0564 -0.4707  0.5131
    4MPD2    H513872   0.962   3.754  13.833 -0.1106  2.7652  2.0062
    4MPD2    N113873   0.566   3.733  13.536  0.7286 -0.1648 -0.4263
    4MPD2    H713874   0.473   3.714  13.501 -0.0560  0.7044  1.2015
    5TCq2    C113875   0.941   3.678  14.030  0.3969 -0.1974 -0.3868
    5TCq2    O213876   0.887   3.608  14.116  0.5298  0.4073 -0.2201
    5TCq2    C213877   1.084   3.700  14.038  0.2684 -0.5864 -0.1523
    5TCq2    C313878   1.149   3.772  13.944  0.6520  0.3395 -0.4905
    5TCq2    C413879   1.286   3.750  13.927 -0.5585 -0.7633  0.9022
    5TCq2    C513880   1.355   3.662  14.009  0.2695  0.1337 -0.7614
    5TCq2    C613881   1.283   3.593  14.105  0.5525 -1.0637 -0.5864
    5TCq2    C713882   1.147   3.602  14.112  0.9946 -0.7846 -0.3319
    5TCq2    C813883   1.335   3.475  14.178 -0.7285  0.6588 -0.4611
    5TCq2    O413884   1.270   3.405  14.257 -0.3373 -0.5069  0.6400
    5TCq2    C913885   1.358   3.830  13.831 -0.6699  0.0807  0.1317
    5TCq2    O513886   1.477   3.853  13.860  0.3850 -0.0681  0.0290
    5TCq2    O613887   1.292   3.896  13.748 -0.4433  0.3109  0.7086
    5TCq2    H213888   1.101   3.847  13.882 -0.4280  0.0531 -0.0002
    5TCq2    H313889   1.463   3.658  13.995  0.3383 -0.3393 -0.1375
    5TCq2    H413890   1.095   3.526  14.169  0.8983 -0.3851  0.1117
    6MPD1     C13891   0.439   0.705  12.520 -0.1538  0.3504  0.3059
    6MPD1    C113892   0.414   0.699  12.656  0.2910 -0.0387  0.5536
    6MPD1    C213893   0.378   0.575  12.705 -0.1144  0.3204 -0.7943
    6MPD1    C313894   0.384   0.459  12.630  0.8526  0.1372  0.7258
    6MPD1    C413895   0.422   0.463  12.498  0.1420  0.5589 -0.5744
    6MPD1    C513896   0.452   0.586  12.450 -0.9194 -0.1931 -0.0100
    6MPD1     H13897   0.338   0.571  12.806  1.8547  0.9055  0.0073
    6MPD1    H113898   0.415   0.370  12.442 -0.6312  1.2166 -1.5757
    6MPD1    H213899   0.455   0.805  12.481  1.5883 -0.5445 -1.2718
    6MPD1    H313900   0.470   0.593  12.343 -0.5147 -1.2005 -0.0084
    6MPD1     N13901   0.367   0.319  12.681  0.2956  0.4343  0.1225
    6MPD1    H513902   0.371   0.252  12.605  0.3710  1.2923 -0.6383
    6MPD1    N113903   0.403   0.813  12.729 -0.2918  0.1470  0.5084
    6MPD1    H613904   0.463   0.882  12.684 -0.8956 -0.1651 -0.7823
    6MPD1    H713905   0.443   0.799  12.821  0.9531 -1.5158 -0.2952
    7MPD2     C13906   4.716   4.362  13.072 -0.7413 -1.1936  0.8927
    7MPD2    C113907   0.125   4.384  13.092 -0.9777 -0.2987  0.1864
    7MPD2    C213908   0.195   4.275  13.140 -0.5669 -0.1608  0.3525
    7MPD2    C313909   0.141   4.146  13.152  0.2032  0.4987  0.5798
    7MPD2    C413910   0.006   4.129  13.138  0.0946  0.1317  0.1769
    7MPD2    C513911   4.656   4.239  13.105  0.6209  0.2116  0.7506
    7MPD2     H13912   0.302   4.272  13.160 -0.0149 -0.2715 -2.6467
    7MPD2    H113913   4.683   4.037  13.175 -0.3830 -0.1296 -1.0278
    7MPD2    H213914   4.653   4.433  13.020 -1.3227 -2.0877  0.3953
    7MPD2    H313915   4.553   4.220  13.077  1.5495  0.7388 -2.9649
    7MPD2     N13916   0.209   4.030  13.192  0.5371  0.0035 -0.3562
    7MPD2    H513917   0.154   3.946  13.205  0.9204 -0.6281 -2.7547
    7MPD2    N113918   0.203   4.496  13.055  0.0548  0.0522 -0.1968
    7MPD2    H713919   0.304   4.488  13.049  0.0457 -1.6556  2.3068
    8TMC3    C113920   0.385   3.882  13.206  0.1385 -0.4076  0.2223
    8TMC3    C213921   0.449   3.845  13.323 -0.0700  0.3195  0.9006
    8TMC3    C313922   0.582   3.818  13.315 -0.1435  0.0412  0.6684
    8TMC3    C413923   0.450   3.852  13.089 -0.0523 -0.4534  0.0187
    8TMC3    C513924   0.582   3.829  13.078  0.0421 -0.0310 -0.3184
    8TMC3    C613925   0.652   3.819  13.198 -0.1760  0.2204 -0.0629
    8TMC3     C13926   0.346   4.018  13.207 -0.3160  0.7901 -0.3163
    8TMC3     O13927   0.434   4.096  13.169  0.5903 -0.7344 -0.2197
    8TMC3     H13928   0.399   3.872  13.415  1.1219 -1.3882  2.0275
    8TMC3    H113929   0.398   3.861  12.994  0.7747 -1.9093 -0.5714
    8TMC3    H213930   0.760   3.821  13.193  0.0330 -1.1206  3.7440
    8TMC3    C713931   0.652   3.898  12.971 -0.2002  0.3857 -0.1835
    8TMC3    C813932   0.649   3.782  13.439  0.3069  0.0028 -0.1453
    8TMC3    O113933   0.730   3.827  12.907 -0.1817  0.0203  0.7299
    8TMC3    O213934   0.772   3.804  13.436  0.8867  0.3350  0.0149
    9TMC3    C113935   0.336   0.147  12.828  0.1762  0.0346 -0.7284
    9TMC3    C213936   0.415   0.067  12.745  0.1554 -0.5416  1.1046
    9TMC3    C313937   0.409   4.655  12.766 -0.1390 -0.6618 -1.3325
    9TMC3    C413938   0.247   0.101  12.922 -0.1547 -0.1191  0.3884
    9TMC3    C513939   0.245   4.685  12.930 -0.3278 -0.0170 -0.0420
    9TMC3    C613940   0.315   4.605  12.849 -0.1341 -0.1873 -0.1152
    9TMC3     C13941   0.341   0.290  12.809 -0.2997 -0.1936  0.1061
    9TMC3     O13942   0.302   0.367  12.894 -0.0145  0.6731  0.5634
    9TMC3     H13943   0.496   0.104  12.685 -0.9416  0.0438 -0.0088
    9TMC3    H113944   0.199   0.166  12.994  0.0009 -1.9411  2.1276
    9TMC3    H213945   0.282   4.505  12.826  1.9308 -0.5928 -1.2893
    9TMC3    C713946   0.145   4.612  13.012  0.7602 -0.8418  0.1138
    9TMC3    C813947   0.522   4.575  12.731  0.7603 -0.2866  1.0731
    9TMC3    O113948   0.035   4.652  13.032 -0.4450  0.1142  0.4743
    9TMC3    O213949   0.601   4.614  12.644 -0.6552  0.4373  0.0051
   10MPD2     C13950   0.733   4.097  12.756 -0.2245 -0.1791 -0.7020
   10MPD2    C113951   0.627   4.111  12.849  0.3298  0.0072  0.5232
   10MPD2    C213952   0.564   4.236  12.852 -0.4544  0.4057  0.4036
   10MPD2    C313953   0.597   4.340  12.772 -0.0251 -0.6256  0.3499
   10MPD2    C413954   0.701   4.324  12.690 -0.5516  0.4661  0.4968
   10MPD2    C513955   0.767   4.204  12.683 -0.0273 -0.9845 -0.0287
   10MPD2     H13956   0.480   4.252  12.919 -1.0309 -0.3650 -0.1301
   10MPD2    H113957   0.738   4.403  12.625  1.8965 -0.6507  0.5261
   10MPD2    H213958   0.783   4.002  12.749 -0.8626 -0.3983 -2.4472
   10MPD2    H313959   0.857   4.197  12.624 -0.1031  0.1327 -0.2676
   10MPD2     N13960   0.524   4.458  12.800  0.3069  0.2854 -0.2678
   10MPD2    H513961   0.450   4.446  12.869 -0.1172 -0.0513 -0.7810
   10MPD2    N113962   0.597   4.019  12.955  0.2865  0.7133 -0.3147
   10MPD2    H713963   0.520   4.039  13.018  0.3479 -1.0531  0.3421
   11MPD2     C13964   1.640   3.079  14.203 -0.1028  0.4423 -1.2163
   11MPD2    C113965   1.582   3.147  14.300 -0.0964  0.2483  0.3781
   11MPD2    C213966   1.519   3.268  14.270 -0.2177  0.2975 -0.1363
   11MPD2    C313967   1.519   3.315  14.141  0.0737  0.4097  0.0923
   11MPD2    C413968   1.579   3.240  14.043  0.6342 -0.5392  0.7119
   11MPD2    C513969   1.630   3.124  14.074  0.2462 -0.0595 -0.1465
   11MPD2     H13970   1.462   3.316  14.350  2.9155  0.3554  2.0562
   11MPD2    H113971   1.594   3.271  13.940 -1.5194  4.2649  1.8549
   11MPD2    H213972   1.686   2.983  14.224 -0.4360  0.5577  0.0706
   11MPD2    H313973   1.679   3.061  14.001 -4.6183  0.7166 -4.1103
   11MPD2     N13974   1.443   3.429  14.106 -0.1951 -0.1216 -0.4493
   11MPD2    H513975   1.455   3.458  14.009  0.7489  2.0551  0.3007
   11MPD2    N113976   1.579   3.105  14.433 -0.5724 -0.0061  0.3926
   11MPD2    H713977   1.530   3.167  14.496 -0.8526  0.1304  0.0398
    1MPD1     C13978   3.079   1.106  17.495 -0.3652 -0.2124  0.1674
    1MPD1    C113979   3.013   1.032  17.399  0.8123  0.3501  0.2243
    1MPD1    C213980   3.070   0.917  17.362  0.0673  0.5167 -0.6134
    1MPD1    C313981   3.194   0.873  17.411 -1.2105 -0.3182  0.2671
    1MPD1    C413982   3.265   0.953  17.500  0.3542  0.3719 -0.0771
    1MPD1    C513983   3.202   1.063  17.544  0.2397 -0.6815  1.0549
    1MPD1     H13984   3.018   0.869  17.280 -1.0984  2.0386 -0.7596
    1MPD1    H113985   3.363   0.924  17.537 -0.4639 -1.3564  0.7505
    1MPD1    H213986   3.027   1.191  17.537  0.7788  1.9362 -2.7522
    1MPD1    H313987   3.263   1.127  17.606  1.0774  0.2262 -0.7060
    1MPD1     N13988   3.265   0.766  17.349  0.1513  0.2425 -0.7605
    1MPD1    H513989   3.365   0.771  17.367  0.2607 -0.3948 -1.1845
    1MPD1    N113990   2.872   1.046  17.367  0.3644 -0.1507 -0.5090
    1MPD1    H613991   2.845   1.143  17.347  3.4437  0.6963 -0.5779
    1MPD1    H713992   2.842   1.002  17.280  1.0552 -1.7548  0.0717
    2MPD1     C13993   4.039   0.884  17.339 -0.2175 -0.3355  0.4400
    2MPD1    C113994   3.920   0.939  17.377 -0.7395  0.1718 -0.5340
    2MPD1    C213995   3.804   0.884  17.336 -0.2118 -0.1339  0.1723
    2MPD1    C313996   3.809   0.774  17.250 -0.1403  1.0214  0.3328
    2MPD1    C413997   3.930   0.742  17.194 -0.2474  0.3621 -0.2805
    2MPD1    C513998   4.042   0.788  17.249 -0.9340  0.5451 -0.2036
    2MPD1     H13999   3.714   0.918  17.385 -0.1124 -0.3171  0.4803
    2MPD1    H114000   3.950   0.662  17.124  0.8460  1.1880 -0.9171
    2MPD1    H214001   4.130   0.896  17.396 -1.3580 -0.0384  2.2007
    2MPD1    H314002   4.141   0.754  17.221 -0.9725  1.0943 -1.0335
    2MPD1     N14003   3.684   0.723  17.211  0.9469  0.4527 -0.9471
    2MPD1    H514004   3.603   0.778  17.235  0.7932 -0.4151  0.4916
    2MPD1    N114005   3.915   1.037  17.477  0.1357 -0.4763  0.1140
    2MPD1    H614006   3.839   1.104  17.461 -0.4448 -0.9077  1.0789
    2MPD1    H714007   4.003   1.087  17.491  0.6921 -1.5213  0.2859
    3TMC3    C114008   3.527   0.582  17.112 -0.5346  0.6789  0.1922
    3TMC3    C214009   3.494   0.502  17.005  0.0165  0.2655  0.5052
    3TMC3    C314010   3.361   0.467  16.993  0.1662  0.2892  0.0600
    3TMC3    C414011   3.434   0.631  17.202  0.1295 -0.4881  0.1526
    3TMC3    C514012   3.308   0.597  17.183  0.8642  0.2366 -0.7850
    3TMC3    C614013   3.270   0.515  17.075  0.0117 -0.7360  0.4705
    3TMC3     C14014   3.668   0.609  17.129 -0.2032 -0.1823 -0.7276
    3TMC3     O14015   3.753   0.542  17.075  0.3537 -0.1696 -0.1501
    3TMC3     H14016   3.576   0.458  16.950 -0.1274  0.9073 -0.2126
    3TMC3    H114017   3.469   0.685  17.289  0.9568  0.8172 -0.9885
    3TMC3    H214018   3.164   0.495  17.065  0.1968 -0.7814 -1.3911
    3TMC3    C714019   3.211   0.670  17.266  0.2394  0.5957  0.6180
    3TMC3    C814020   3.309   0.406  16.872  0.1191 -0.2519  0.5705
    3TMC3    O114021   3.098   0.638  17.240 -0.1954  0.1866 -0.0893
    3TMC3    O214022   3.186   0.391  16.863 -0.2449  0.1592 -0.1371
    4MPD1     C14023   3.324   0.162  16.410 -0.3568 -0.1636  0.6017
    4MPD1    C114024   3.455   0.168  16.461  0.5714  0.3398  0.0285
    4MPD1    C214025   3.478   0.223  16.591  0.3805 -0.2799  0.5208
    4MPD1    C314026   3.375   0.284  16.662  0.6903  0.4672 -0.3861
    4MPD1    C414027   3.249   0.292  16.603 -0.0286  0.3136  0.5725
    4MPD1    C514028   3.233   0.225  16.486  0.3367  0.0482 -0.3532
    4MPD1     H14029   3.573   0.211  16.642  2.1401  2.5570 -2.0653
    4MPD1    H114030   3.171   0.358  16.636 -1.1837 -0.5157 -0.4945
    4MPD1    H214031   3.291   0.118  16.316 -0.5693  1.1000  0.0845
    4MPD1    H314032   3.131   0.221  16.451  0.0559  1.1889  0.3497
    4MPD1     N14033   3.399   0.358  16.785  0.1251  0.1050 -0.5062
    4MPD1    H514034   3.496   0.384  16.795  1.0351 -3.3840 -0.3413
    4MPD1    N114035   3.561   0.102  16.388  0.6329  0.4584  0.3138
    4MPD1    H614036   3.550   0.089  16.288  0.9476  0.6375  0.2542
    4MPD1    H714037   3.645   0.153  16.415  1.8827 -1.1544 -0.4820
    1TCq1    O114038   3.785   0.361  10.812  0.1147  0.4965  0.6565
    1TCq1    C114039   3.852   0.278  10.734  0.0772 -0.1193 -0.4158
    1TCq1    O214040   3.835   0.258  10.614  0.1683 -0.1821  0.0433
    1TCq1    C214041   3.977   0.243  10.797  0.3840  0.1402 -0.0944
    1TCq1    C314042   4.087   0.215  10.720  0.3704  0.2587 -0.6794
    1TCq1    C414043   4.172   0.114  10.750 -0.3044 -0.2709 -0.1074
    1TCq1    C514044   4.162   0.044  10.870 -0.8378 -0.1930 -0.1119
    1TCq1    C614045   4.050   0.071  10.948 -0.1425 -0.9637  0.0228
    1TCq1    C714046   3.965   0.176  10.920  0.5304 -0.0623  0.5414
    1TCq1    C814047   4.021   0.004  11.069 -0.5148  0.1576  0.4804
    1TCq1    O414048   3.965   0.069  11.153  0.3772  0.3799 -0.2057
    1TCq1    C914049   4.249   0.049  10.643  0.3435 -0.2132 -0.6548
    1TCq1    O514050   4.261   0.108  10.529  0.2522  0.6506 -0.3011
    1TCq1    O614051   4.318   4.668  10.667 -0.1265 -0.2206  0.5025
    1TCq1    H114052   3.847   0.395  10.880  0.8824  2.1903 -0.8805
    1TCq1    H214053   4.101   0.253  10.620  1.9624 -0.8624 -0.8675
    1TCq1    H314054   4.223   4.678  10.889  0.5986  1.0178  0.8190
    1TCq1    H414055   3.874   0.184  10.979  0.0745  1.7843 -0.4271
    2MPD1     C14056   3.894   4.275  11.306  0.3060 -0.2674 -0.1972
    2MPD1    C114057   3.992   4.252  11.209 -0.3855 -0.7975  0.6639
    2MPD1    C214058   4.041   4.364  11.136  1.0281  0.2663  0.0688
    2MPD1    C314059   3.990   4.490  11.155 -0.5415  0.7689  0.2681
    2MPD1    C414060   3.908   4.513  11.259 -0.8394 -0.6648 -0.2374
    2MPD1    C514061   3.872   4.407  11.345  0.4602  0.2240  0.2392
    2MPD1     H14062   4.120   4.342  11.065  1.2854  3.2246 -0.5643
    2MPD1    H114063   3.878   4.615  11.279 -3.4622 -1.3302 -0.7773
    2MPD1    H214064   3.843   4.197  11.362 -1.4535  0.1184 -1.2459
    2MPD1    H314065   3.812   4.427  11.434  0.6831 -3.1084  1.1338
    2MPD1     N14066   4.037   4.589  11.062  0.1894  0.2992 -0.7959
    2MPD1    H514067   4.089   4.545  10.986 -1.7562 -2.5605 -0.4631
    2MPD1    N114068   4.035   4.123  11.165  0.1799 -0.1277 -0.0814
    2MPD1    H614069   4.026   4.048  11.234  1.7237  1.1682  1.5258
    2MPD1    H714070   4.129   4.123  11.128 -0.1714  2.0871 -0.9565
    1TCq1    O114071   4.534   0.291   9.975 -0.3377 -0.0571 -0.0020
    1TCq1    C114072   4.662   0.322   9.957 -0.6597 -0.5417 -0.3850
    1TCq1    O214073   0.019   0.269   9.879 -0.2378  0.1092  0.3065
    1TCq1    C214074   4.692   0.454  10.015  0.0400  0.4183  0.3146
    1TCq1    C314075   4.601   0.558   9.991 -0.1699  1.2230 -0.3504
    1TCq1    C414076   4.639   0.692  10.000 -0.5099  0.3745 -0.3362
    1TCq1    C514077   0.050   0.722  10.020  0.4541  0.1802 -0.8488
    1TCq1    C614078   0.135   0.611  10.050 -0.0027  0.3238 -0.1452
    1TCq1    C714079   0.096   0.479  10.048  0.3214 -0.1086 -0.0340
    1TCq1    C814080   0.268   0.650  10.087  0.3592  0.3301  0.0030
    1TCq1    O414081   0.327   0.584  10.174 -0.5341  0.2389 -0.0358
    1TCq1    C914082   4.542   0.784   9.944  0.6140 -0.4845  0.6964
    1TCq1    O514083   4.583   0.898   9.917  0.2415 -0.5486  0.0804
    1TCq1    O614084   4.425   0.738   9.932  0.3142  0.2540 -0.0527
    1TCq1    H114085   4.490   0.341  10.047 -0.0907  3.3202 -2.1945
    1TCq1    H214086   4.506   0.531   9.946  0.4299  0.2969 -1.0554
    1TCq1    H314087   0.083   0.824  10.012  0.6644  0.0170 -2.1292
    1TCq1    H414088   0.176   0.408  10.066 -0.8477 -0.8989  2.0418
    2MPD1     C14089   0.732   0.850   9.998  0.1292  0.6156  1.1815
    2MPD1    C114090   0.638   0.910   9.913  1.4139  0.6902 -0.4693
    2MPD1    C214091   0.507   0.870   9.920  0.6881  0.9514  0.2180
    2MPD1    C314092   0.461   0.783  10.014  0.2954 -0.0610 -0.1206
    2MPD1    C414093   0.552   0.739  10.105  0.0646 -0.5745 -0.1797
    2MPD1    C514094   0.690   0.763  10.096  0.9436  0.2083  0.1187
    2MPD1     H14095   0.431   0.905   9.851  1.9378  1.2635 -0.9986
    2MPD1    H114096   0.528   0.662  10.177 -2.7092  1.7499  1.3573
    2MPD1    H214097   0.835   0.883   9.988 -0.0168  0.7776  0.1622
    2MPD1    H314098   0.762   0.723  10.168 -0.3792 -2.1298  0.1499
    2MPD1     N14099   0.323   0.744  10.005 -0.2539 -0.1115  0.4998
    2MPD1    H514100   0.264   0.774   9.928  2.2205  0.6199 -1.1118
    2MPD1    N114101   0.683   0.985   9.802 -0.1990  0.2198  0.0293
    2MPD1    H614102   0.765   1.041   9.827  2.0752 -3.1125  0.1065
    2MPD1    H714103   0.616   1.054   9.771 -0.5339 -0.6724 -1.2222
    1MPD1     C14104   3.203   3.661  12.209  0.0925 -0.2590 -0.0449
    1MPD1    C114105   3.097   3.743  12.244  0.5497  0.0520 -0.0986
    1MPD1    C214106   3.031   3.802  12.136 -0.1851  0.2558 -0.0233
    1MPD1    C314107   3.081   3.806  12.009  0.2443  0.0784 -0.0872
    1MPD1    C414108   3.195   3.736  11.981 -0.9580 -0.1133  0.9284
    1MPD1    C514109   3.259   3.666  12.084 -0.8340  0.2743  0.1831
    1MPD1     H14110   2.934   3.847  12.156 -0.5038 -1.0532  1.3800
    1MPD1    H114111   3.231   3.713  11.882 -0.5833 -0.3365  1.1180
    1MPD1    H214112   3.254   3.597  12.280  0.9615 -2.2041 -2.4428
    1MPD1    H314113   3.340   3.597  12.066  0.1957  1.3227  0.8035
    1MPD1     N14114   3.003   3.874  11.914 -0.1104  0.0530  0.3592
    1MPD1    H514115   2.913   3.910  11.944 -1.1062 -1.4379 -0.8352
    1MPD1    N114116   3.040   3.728  12.375 -0.0943 -0.7264 -0.1470
    1MPD1    H614117   2.984   3.808  12.403 -2.7879 -2.5192 -0.3036
    1MPD1    H714118   3.106   3.719  12.452  2.0150 -0.7395 -1.9641
    2MPD1     C14119   1.694   3.951  11.939  0.4364 -0.7906 -0.1938
    2MPD1    C114120   1.644   3.872  11.839  1.0233 -0.1695 -0.1499
    2MPD1    C214121   1.675   3.894  11.706 -0.1406  0.0835 -0.2129
    2MPD1    C314122   1.759   3.994  11.667  0.1625  0.1286 -0.0134
    2MPD1    C414123   1.813   4.073  11.764  0.0691  0.2110  0.5291
    2MPD1    C514124   1.785   4.051  11.892 -0.3148  0.2520 -0.1863
    2MPD1     H14125   1.618   3.841  11.630 -1.5900  0.5027  0.5790
    2MPD1    H114126   1.859   4.167  11.736 -1.7694  1.1136  0.5818
    2MPD1    H214127   1.670   3.950  12.044 -0.7293  0.3196 -0.4469
    2MPD1    H314128   1.832   4.118  11.964  0.3112 -0.5237  0.1296
    2MPD1     N14129   1.781   4.036  11.534  0.1674 -0.1313 -0.0347
    2MPD1    H514130   1.835   4.121  11.522 -2.5351  1.4990 -0.8135
    2MPD1    N114131   1.552   3.772  11.872 -0.1929 -0.2556 -0.2671
    2MPD1    H614132   1.580   3.729  11.960  0.9532  1.3644  0.1633
    2MPD1    H714133   1.543   3.701  11.800  1.5303 -1.6168  0.8723
    3MPD1     C14134   1.631   3.833  10.445  0.0057  0.2820 -0.2138
    3MPD1    C114135   1.753   3.894  10.473  0.5223 -0.5839 -0.3902
    3MPD1    C214136   1.782   3.926  10.603 -0.2788  0.1278 -0.1831
    3MPD1    C314137   1.693   3.927  10.705 -0.4075 -0.3139  0.2408
    3MPD1    C414138   1.568   3.875  10.677  0.4442  0.5823 -0.0516
    3MPD1    C514139   1.541   3.825  10.550 -0.1460 -0.3081 -0.0071
    3MPD1     H14140   1.879   3.967  10.629 -2.4285  3.7170  2.0286
    3MPD1    H114141   1.489   3.889  10.750  0.2463  1.8120 -0.4926
    3MPD1    H214142   1.609   3.810  10.342 -1.4252  1.0092 -0.0638
    3MPD1    H314143   1.443   3.785  10.524  0.1017  0.1420 -1.6390
    3MPD1     N14144   1.731   3.990  10.830 -0.0464 -0.7186 -0.0869
    3MPD1    H514145   1.822   4.035  10.835 -0.9765  0.8336  2.6332
    3MPD1    N114146   1.853   3.890  10.379 -1.1694 -0.0608  0.2016
    3MPD1    H614147   1.814   3.897  10.285  0.1429 -0.5139 -0.3691
    3MPD1    H714148   1.919   3.962  10.406 -0.4775 -0.1973 -1.1171
    4MPD2     C14149   2.498   4.388  11.735 -0.1577 -0.3919  0.6010
    4MPD2    C114150   2.567   4.324  11.629  0.1952  0.0754  0.0353
    4MPD2    C214151   2.609   4.402  11.523  0.2534 -0.4476  0.2955
    4MPD2    C314152   2.578   4.535  11.511 -0.0205 -0.0228 -0.3998
    4MPD2    C414153   2.496   4.592  11.613  1.1727 -0.0644  0.2996
    4MPD2    C514154   2.455   4.522  11.719  0.1086  0.5094 -1.1151
    4MPD2     H14155   2.666   4.357  11.442 -0.2452 -0.1200 -0.2301
    4MPD2    H114156   2.473   4.697  11.605 -1.8993 -0.8155 -0.8208
    4MPD2    H214157   2.463   4.339  11.826  2.2022  0.6358  2.0658
    4MPD2    H314158   2.410   4.576  11.801  0.2245 -0.5676 -0.3404
    4MPD2     N14159   2.614   4.611  11.400 -0.1323  0.1702 -1.0525
    4MPD2    H514160   2.572   4.703  11.392 -0.9097 -0.1809 -0.9985
    4MPD2    N114161   2.605   4.189  11.624 -0.4217 -0.4483 -0.2330
    4MPD2    H714162   2.661   4.160  11.544  1.0128  1.6846  0.0254
    5TMC3    C114163   2.682   3.969  11.678 -0.7104 -0.2957  0.6358
    5TMC3    C214164   2.790   3.950  11.757 -0.2864 -0.4203 -0.0531
    5TMC3    C314165   2.914   3.916  11.702 -0.5404 -0.1375 -0.0192
    5TMC3    C414166   2.687   3.956  11.543  0.0656  0.5775  0.3569
    5TMC3    C514167   2.816   3.937  11.489 -0.2007 -0.0967 -0.2814
    5TMC3    C614168   2.924   3.906  11.564 -0.8103  0.5737 -0.4261
    5TMC3     C14169   2.604   4.093  11.720 -0.3103  0.7442  0.0305
    5TMC3     O14170   2.568   4.120  11.831 -0.0013  0.0748  0.5616
    5TMC3     H14171   2.772   3.964  11.863 -0.4103  0.8954 -0.2445
    5TMC3    H114172   2.599   3.975  11.482  1.3511  0.5386 -1.4833
    5TMC3    H214173   3.023   3.900  11.519 -0.8876  0.4550 -0.5838
    5TMC3    C714174   2.839   4.034  11.386  0.1649 -0.1026  0.5859
    5TMC3    C814175   3.025   3.880  11.781  0.4907  0.0832  0.0753
    5TMC3    O114176   2.744   4.117  11.387  0.2199 -0.0420 -0.5417
    5TMC3    O214177   3.130   3.840  11.728 -0.0601 -0.3154 -0.0433
    6TMC3    C114178   1.770   4.032  11.285 -0.1831 -0.0921  0.0617
    6TMC3    C214179   1.701   3.981  11.178 -0.3560  0.8925 -0.7970
    6TMC3    C314180   1.723   4.037  11.051  0.1593  0.3156  0.1650
    6TMC3    C414181   1.877   4.110  11.271  0.2328  0.0330  0.5258
    6TMC3    C514182   1.904   4.159  11.150 -0.3009  0.0629 -0.1892
    6TMC3    C614183   1.825   4.128  11.042  0.3565 -0.7520  0.0504
    6TMC3     C14184   1.726   3.984  11.417 -0.5157 -0.3133  0.5329
    6TMC3     O14185   1.636   3.899  11.416  0.0950 -0.3777  0.0440
    6TMC3     H14186   1.614   3.916  11.184 -0.9273  1.6626 -0.7471
    6TMC3    H114187   1.941   4.147  11.351  3.7320 -1.9303 -1.3605
    6TMC3    H214188   1.842   4.186  10.952  1.0347  0.4214  0.9368
    6TMC3    C714189   2.022   4.236  11.125  0.4570  0.4493 -0.0532
    6TMC3    C814190   1.664   3.965  10.945  0.1355  0.0192  0.1877
    6TMC3    O114191   2.025   4.320  11.036 -0.0766  0.4725  0.5410
    6TMC3    O214192   1.570   3.887  10.966 -0.5790 -0.3050  0.0926
    7MPD2     C14193   3.003   4.220  10.936  0.2956  0.2465  0.2060
    7MPD2    C114194   2.933   4.274  11.041  0.2083  0.2001 -0.2286
    7MPD2    C214195   2.912   4.207  11.159  0.3749  0.8897  0.3693
    7MPD2    C314196   2.960   4.077  11.177  0.7942  0.0831  1.1882
    7MPD2    C414197   3.019   4.023  11.062 -0.1175  0.2659  0.2827
    7MPD2    C514198   3.048   4.096  10.951  0.1849  0.4363 -0.3273
    7MPD2     H14199   2.853   4.252  11.238 -0.3529  0.4660  0.0593
    7MPD2    H114200   3.076   3.931  11.065  0.5267  0.6700  0.4959
    7MPD2    H214201   3.024   4.276  10.845 -0.0256 -0.3116 -0.2089
    7MPD2    H314202   3.115   4.049  10.880 -0.2740  0.0482 -0.5009
    7MPD2     N14203   2.931   3.995  11.290 -0.5170 -0.5104  0.1140
    7MPD2    H514204   2.969   3.902  11.301  1.3531  0.4669  1.8691
    7MPD2    N114205   2.889   4.403  11.046 -0.1318 -0.3354 -0.1989
    7MPD2    H714206   2.859   4.449  11.131 -1.8611 -2.0532  0.1267
    8TMC3    C114207   2.800   4.608  10.990  0.3388 -0.0105 -0.2503
    8TMC3    C214208   2.673   4.599  10.941 -0.2460 -1.0665  0.0267
    8TMC3    C314209   2.569   4.643  11.014 -0.1297  0.2038 -0.2614
    8TMC3    C414210   2.818   4.625  11.119 -0.5063  0.4465  0.0187
    8TMC3    C514211   2.714   4.660  11.200 -0.5637 -0.4343  0.2682
    8TMC3    C614212   2.591   4.686  11.143  0.3569 -0.2299 -0.4319
    8TMC3     C14213   2.884   4.498  10.947  0.0689  0.0356  0.0353
    8TMC3     O14214   2.909   4.485  10.826 -0.2409  0.0358 -0.0502
    8TMC3     H14215   2.659   4.555  10.843  0.8155 -0.7680 -0.2596
    8TMC3    H114216   2.922   4.614  11.147 -0.8512 -1.8701  0.3440
    8TMC3    H214217   2.503   4.698  11.205 -0.3896  0.1012 -1.5600
    8TMC3    C714218   2.720   4.582  11.318  0.6747  0.1916 -0.1381
    8TMC3    C814219   2.467   4.540  11.015 -0.6298 -0.3156 -0.0155
    8TMC3    O114220   2.803   4.491  11.317  0.0785  0.6549 -0.4140
    8TMC3    O214221   2.350   4.573  11.018  0.6114  0.1994  0.4727
    9MPD2     C14222   2.534   4.212  11.165 -0.9565 -0.6354  0.1214
    9MPD2    C114223   2.454   4.312  11.117  0.0550  0.2762  0.1780
    9MPD2    C214224   2.315   4.301  11.129 -0.7706 -0.3343  0.1644
    9MPD2    C314225   2.257   4.200  11.205  0.3942  0.1601 -0.4792
    9MPD2    C414226   2.348   4.108  11.265 -0.3232  0.0314  0.0756
    9MPD2    C514227   2.480   4.111  11.244  0.2226 -0.3069  0.9066
    9MPD2     H14228   2.249   4.375  11.085  0.1571  1.4002  1.6933
    9MPD2    H114229   2.308   4.024  11.319  0.6400 -0.4448  0.0433
    9MPD2    H214230   2.639   4.204  11.141 -0.6105 -1.3971  1.9010
    9MPD2    H314231   2.548   4.029  11.260  0.4009 -0.6118 -1.4674
    9MPD2     N14232   2.119   4.178  11.204  0.7081  0.1952  0.1816
    9MPD2    H514233   2.079   4.101  11.257  1.0502 -0.4839 -0.5297
    9MPD2    N114234   2.518   4.416  11.053 -0.4847 -0.2229  0.5191
    9MPD2    H714235   2.619   4.405  11.059 -0.1620  2.4684  0.3522
    1MPD1     C14236   1.960   3.469  17.106  0.2784  0.4892  0.6899
    1MPD1    C114237   1.968   3.536  16.986  0.0810  0.0281 -0.3406
    1MPD1    C214238   1.874   3.503  16.889  0.6883 -0.3002  0.0933
    1MPD1    C314239   1.774   3.402  16.907  0.4978  0.5116  0.3693
    1MPD1    C414240   1.788   3.322  17.017  0.2533  0.1443  0.2994
    1MPD1    C514241   1.871   3.365  17.123  0.1255  0.2535  0.9157
    1MPD1     H14242   1.869   3.551  16.792  0.4886  0.1716  0.3397
    1MPD1    H114243   1.714   3.243  17.029 -1.6426  1.5335 -2.1562
    1MPD1    H214244   2.018   3.497  17.193 -0.9348  2.7289  0.7623
    1MPD1    H314245   1.858   3.324  17.222  1.0971  1.8259  1.6958
    1MPD1     N14246   1.673   3.374  16.818 -0.0859 -0.1732  0.0342
    1MPD1    H514247   1.617   3.293  16.844 -0.4242  0.1634  0.3522
    1MPD1    N114248   2.038   3.657  16.981 -0.1484  0.0194 -0.4388
    1MPD1    H614249   2.120   3.651  17.041  0.0244  0.1209 -0.6665
    1MPD1    H714250   2.062   3.686  16.886  0.8018 -1.4670 -0.6572
    2MPD1     C14251   1.158   3.777  16.026 -0.8289 -0.5081 -0.6479
    2MPD1    C114252   1.291   3.752  16.027 -0.7219  0.6139 -0.7180
    2MPD1    C214253   1.338   3.669  16.132  0.4680  0.0718  0.2535
    2MPD1    C314254   1.251   3.643  16.236 -0.2098 -0.4681 -0.1450
    2MPD1    C414255   1.114   3.667  16.232 -0.0595  0.6740 -0.2030
    2MPD1    C514256   1.073   3.745  16.128  0.9066  1.0513  0.6400
    2MPD1     H14257   1.441   3.634  16.130  1.0813  1.7307  2.8119
    2MPD1    H114258   1.034   3.652  16.303  0.6117 -3.8669 -0.3956
    2MPD1    H214259   1.119   3.834  15.943  0.7274  0.2937 -0.8281
    2MPD1    H314260   0.970   3.777  16.130  1.0422  1.5735 -1.0116
    2MPD1     N14261   1.311   3.574  16.342 -0.0512  0.4689 -0.2750
    2MPD1    H514262   1.408   3.544  16.334 -0.4786 -0.2861 -2.6786
    2MPD1    N114263   1.378   3.782  15.921  0.5254 -0.5481  0.0381
    2MPD1    H614264   1.476   3.792  15.948 -0.1449  2.3720  1.3576
    2MPD1    H714265   1.351   3.864  15.867 -1.0252 -0.1858  1.3337
    3TCq2    C114266   1.238   3.520  16.445 -0.1436 -0.2416  0.2772
    3TCq2    O214267   1.117   3.514  16.464  0.6594  0.3812  0.2968
    3TCq2    C214268   1.311   3.449  16.546 -0.4599  0.4861 -0.2767
    3TCq2    C314269   1.245   3.348  16.603  0.2818 -0.0748  0.2329
    3TCq2    C414270   1.310   3.276  16.703  0.4794 -0.3181  0.1753
    3TCq2    C514271   1.437   3.306  16.741 -0.0574 -0.2913 -0.1014
    3TCq2    C614272   1.499   3.409  16.671  0.2066  0.0115 -0.1064
    3TCq2    C714273   1.440   3.479  16.572 -0.2832 -0.2275 -0.0963
    3TCq2    C814274   1.630   3.456  16.713  0.3091  0.5033 -0.0278
    3TCq2    O414275   1.670   3.569  16.689 -0.4694  0.0721  0.0681
    3TCq2    C914276   1.241   3.166  16.771 -1.1165  0.6083 -0.2197
    3TCq2    O514277   1.304   3.110  16.868 -0.0073 -0.1931 -0.1382
    3TCq2    O614278   1.118   3.145  16.742  0.3857 -0.2821 -0.0382
    3TCq2    H214279   1.141   3.322  16.583  0.6692 -1.3955 -0.0593
    3TCq2    H314280   1.488   3.231  16.801 -3.4389 -2.0221  0.5838
    3TCq2    H414281   1.485   3.563  16.520 -0.2852 -1.1781 -1.6169
    1TCq1    O114282   4.142   2.312  12.496 -0.2722  0.7447  0.1481
    1TCq1    C114283   4.039   2.351  12.580  0.6304  0.1815 -0.0473
    1TCq1    O214284   3.917   2.353  12.552 -0.1495  0.1087 -0.2984
    1TCq1    C214285   4.079   2.347  12.721  0.3394 -0.1304  0.7365
    1TCq1    C314286   3.991   2.306  12.816 -0.2528 -0.1527  0.2489
    1TCq1    C414287   4.035   2.315  12.946 -0.1289 -0.6605 -0.5050
    1TCq1    C514288   4.155   2.367  12.984 -0.0441 -0.0304  0.0989
    1TCq1    C614289   4.244   2.392  12.878 -0.9240  0.0878 -0.1796
    1TCq1    C714290   4.210   2.379  12.751  0.5970  0.4164  0.0916
    1TCq1    C814291   4.383   2.441  12.894  0.1728 -0.0670 -0.1467
    1TCq1    O414292   4.448   2.475  12.797  0.5028  0.1081 -0.0153
    1TCq1    C914293   3.946   2.274  13.052 -0.1491 -0.0591  0.7840
    1TCq1    O514294   3.825   2.278  13.028  0.2725 -0.6183  0.5755
    1TCq1    O614295   3.993   2.248  13.166 -0.0464  0.3807 -0.0259
    1TCq1    H114296   4.222   2.269  12.533 -1.4227  0.4907  2.3100
    1TCq1    H214297   3.887   2.292  12.792 -0.5214  1.5789  0.3756
    1TCq1    H314298   4.176   2.375  13.090  2.8017 -0.1608 -0.4379
    1TCq1    H414299   4.282   2.396  12.673  3.0067  1.2628  2.5031
    2MPD2     C14300   4.625   2.573  12.996  0.1144  1.1749 -0.0305
    2MPD2    C114301   4.549   2.487  13.075 -0.0940 -0.2680  0.0102
    2MPD2    C214302   4.598   2.469  13.207 -0.2112 -0.8136 -0.6119
    2MPD2    C314303   0.002   2.523  13.246 -0.8889  0.5377  0.1241
    2MPD2    C414304   0.086   2.571  13.160 -0.2294 -1.0325  0.6783
    2MPD2    C514305   0.035   2.593  13.036 -0.0588  0.4552 -0.2477
    2MPD2     H14306   4.526   2.430  13.278 -0.7875  1.3701 -0.0001
    2MPD2    H114307   0.183   2.616  13.178 -1.9895  1.8029  3.0842
    2MPD2    H214308   4.597   2.610  12.898 -0.5862  1.2499  0.1979
    2MPD2    H314309   0.093   2.657  12.972 -0.8303  0.8549 -0.5505
    2MPD2     N14310   0.040   2.509  13.378 -0.5684  0.1247  0.1468
    2MPD2    H514311   4.692   2.468  13.439 -1.6411  1.7188 -0.0169
    2MPD2    N114312   4.428   2.425  13.030 -0.1109  0.2625 -0.1803
    2MPD2    H714313   4.371   2.371  13.094  2.4283  0.0672  1.9307
    3TCq1    O114314   4.648   2.703  13.804  0.6576  0.1025 -0.3413
    3TCq1    C114315   0.011   2.618  13.863 -0.5387 -0.3051  0.1610
    3TCq1    O214316   0.035   2.622  13.983 -0.0731 -0.0337 -0.0380
    3TCq1    C214317   0.115   2.569  13.771  0.4611 -0.6090  0.1697
    3TCq1    C314318   0.227   2.512  13.827  0.2184  0.2119 -0.2565
    3TCq1    C414319   0.332   2.478  13.748 -0.0350 -0.2530 -0.2724
    3TCq1    C514320   0.313   2.476  13.618  0.1626 -0.3631 -0.0546
    3TCq1    C614321   0.191   2.517  13.564 -0.0223 -0.2702  0.6706
    3TCq1    C714322   0.091   2.573  13.639 -0.0959  0.6268 -0.9881
    3TCq1    C814323   0.175   2.515  13.419  0.5532 -0.3171 -0.2991
    3TCq1    O414324   0.279   2.498  13.355 -0.0205  0.1263 -0.0325
    3TCq1    C914325   0.460   2.439  13.799  0.5871  0.1188 -0.0999
    3TCq1    O514326   0.551   2.421  13.714  0.1069 -0.4373 -0.7228
    3TCq1    O614327   0.480   2.437  13.925  0.0564 -0.3136 -0.5584
    3TCq1    H114328   4.622   2.674  13.713  0.6210 -1.0485  0.0348
    3TCq1    H214329   0.233   2.497  13.934  0.0756 -0.3370 -0.3251
    3TCq1    H314330   0.388   2.441  13.547 -0.7300  1.1398 -1.7447
    3TCq1    H414331   0.004   2.620  13.595 -0.6787 -1.2406 -1.8385
    1MPD2     C14332   4.060   3.432  14.542  0.1424 -0.5217 -0.3264
    1MPD2    C114333   3.987   3.311  14.557 -0.2615 -0.2996  0.1720
    1MPD2    C214334   3.977   3.247  14.675 -0.6952  0.4568 -0.5797
    1MPD2    C314335   4.043   3.290  14.782  0.5771 -0.4104  0.2306
    1MPD2    C414336   4.099   3.410  14.773 -0.4411 -0.8568  1.2683
    1MPD2    C514337   4.116   3.479  14.659 -0.1612  0.1485  0.1224
    1MPD2     H14338   3.902   3.173  14.700 -1.0426  1.2685  0.7689
    1MPD2    H114339   4.151   3.449  14.859  0.6287  0.5836 -0.0260
    1MPD2    H214340   4.067   3.484  14.448  1.1059 -0.0995 -0.0198
    1MPD2    H314341   4.177   3.568  14.664  2.2695 -1.4932 -0.4294
    1MPD2     N14342   4.045   3.218  14.908 -0.0447  0.2959 -0.3025
    1MPD2    H514343   4.100   3.262  14.982 -0.4574  0.2688  0.0212
    1MPD2    N114344   3.917   3.259  14.448 -0.3711  0.0189  0.0546
    1MPD2    H714345   3.917   3.314  14.363  0.8029 -1.0890 -0.6665
    2TMC3    C114346   3.774   3.131  14.322 -0.5697  0.2725 -0.0293
    2TMC3    C214347   3.739   2.997  14.299  0.5433 -0.4197  0.4691
    2TMC3    C314348   3.611   2.967  14.273  0.0130  0.4495 -0.8999
    2TMC3    C414349   3.684   3.234  14.316 -0.0484 -0.0001 -0.2655
    2TMC3    C514350   3.554   3.205  14.298  0.0429  0.0810  0.2806
    2TMC3    C614351   3.520   3.075  14.269  0.6202 -0.4820  0.5687
    2TMC3     C14352   3.853   3.141  14.441 -0.8941  0.1067  0.0688
    2TMC3     O14353   3.867   3.039  14.505 -0.3896 -0.3210 -0.0259
    2TMC3     H14354   3.823   2.930  14.284 -0.1804 -1.4266  0.9120
    2TMC3    H114355   3.717   3.330  14.355 -0.2621 -0.1869  0.3749
    2TMC3    H214356   3.417   3.052  14.242  0.8814 -0.1552 -0.6834
    2TMC3    C714357   3.450   3.304  14.298  0.4489 -0.4585  0.4251
    2TMC3    C814358   3.562   2.878  14.371  0.2533 -0.3111 -0.1803
    2TMC3    O114359   3.350   3.290  14.229 -0.3649  0.2647  0.2098
    2TMC3    O214360   3.454   2.821  14.352  0.4624 -0.0315  0.0407
    3TCq1    O114361   3.254   3.927  15.315  0.4488 -0.0699  0.1400
    3TCq1    C114362   3.194   3.953  15.195  0.6493  0.0474 -0.2672
    3TCq1    O214363   3.079   3.932  15.167  0.6130  0.4596  0.1107
    3TCq1    C214364   3.295   3.971  15.091 -1.2964 -0.0233 -0.5838
    3TCq1    C314365   3.410   4.045  15.107  0.2601  0.8016  0.1153
    3TCq1    C414366   3.502   4.043  15.003  0.2727  0.8270 -0.4378
    3TCq1    C514367   3.475   3.979  14.885 -0.4908 -0.3001 -0.5883
    3TCq1    C614368   3.351   3.916  14.871 -0.7232  0.7788  0.4526
    3TCq1    C714369   3.263   3.912  14.972  0.1563  0.3055 -0.1543
    3TCq1    C814370   3.305   3.863  14.740 -0.1878 -0.0423  0.3235
    3TCq1    O414371   3.184   3.857  14.721 -0.7651 -0.2125 -0.0948
    3TCq1    C914372   3.623   4.123  15.022  0.4356 -0.3336 -0.6737
    3TCq1    O514373   3.642   4.180  15.132 -0.1003  0.1556 -0.2037
    3TCq1    O614374   3.714   4.110  14.936  0.2133  0.1834 -0.5030
    3TCq1    H114375   3.352   3.923  15.308  0.4608 -0.1369  0.3373
    3TCq1    H214376   3.421   4.109  15.193 -0.8807  0.7493  0.2890
    3TCq1    H314377   3.540   3.979  14.798 -0.6229  1.2801 -0.6839
    3TCq1    H414378   3.162   3.876  14.959  0.3347 -0.4048  0.4172
    4MPD2     C14379   3.289   3.755  14.461 -0.6690  0.3147  0.0635
    4MPD2    C114380   3.376   3.713  14.556 -0.5435 -0.5918  0.1158
    4MPD2    C214381   3.442   3.594  14.524  0.1419 -0.5896 -0.5443
    4MPD2    C314382   3.409   3.518  14.415 -0.3693  0.2465  0.2668
    4MPD2    C414383   3.315   3.559  14.329 -0.8207 -0.3116 -0.2030
    4MPD2    C514384   3.261   3.684  14.344  0.1164  0.5952 -0.0263
    4MPD2     H14385   3.510   3.548  14.596 -1.0816  1.4330  1.8804
    4MPD2    H114386   3.286   3.506  14.239  0.5571  0.0377 -0.8554
    4MPD2    H214387   3.231   3.846  14.474  0.4924  1.3529 -1.9869
    4MPD2    H314388   3.208   3.735  14.264 -1.3489  0.3329  0.7766
    4MPD2     N14389   3.480   3.403  14.397  0.7262 -0.9022 -0.5793
    4MPD2    H514390   3.561   3.379  14.453  1.0547 -1.8157 -1.4352
    4MPD2    N114391   3.398   3.784  14.677  0.4702 -0.1832  0.5418
    4MPD2    H714392   3.467   3.749  14.742 -0.4646 -0.1732  1.5418
    5TMC2    C114393   3.897   2.859  15.140  0.0966 -0.5885 -0.3437
    5TMC2    C214394   3.857   2.936  15.243 -0.5474  0.2067 -0.2190
    5TMC2    C314395   3.907   3.067  15.251 -0.0688  0.3643  0.9426
    5TMC2    C414396   3.996   2.900  15.053 -0.7148 -0.0716  0.0165
    5TMC2    C514397   4.025   3.033  15.054 -0.2868  0.1088  0.4588
    5TMC2    C614398   3.986   3.115  15.149 -0.9554 -0.4085 -0.5529
    5TMC2     C14399   3.780   2.808  15.067  0.2996 -0.2381 -0.3245
    5TMC2     O14400   3.680   2.777  15.135  0.0514 -0.0879  0.3043
    5TMC2     H14401   3.790   2.897  15.319  0.6870  0.4911  1.0216
    5TMC2    H114402   4.018   2.834  14.970  1.0099 -0.2156  0.5831
    5TMC2    H214403   4.008   3.221  15.139 -0.2261 -0.6014 -0.9558
    5TMC2    C714404   4.023   3.085  14.921  0.7681  0.6790 -0.0013
    5TMC2    C814405   3.867   3.155  15.353  0.1478  0.7760 -0.2114
    5TMC2    O114406   3.997   3.010  14.832 -0.2863 -0.2126  0.6880
    5TMC2    O214407   3.802   3.255  15.319  0.2132 -0.3676  0.3434
    5TMC2    O514408   3.868   3.083  15.466  0.3605  0.0486 -0.1836
    5TMC2    H514409   3.939   3.015  15.463 -0.4877 -0.7627 -1.8895
    6MPD2     C14410   3.497   2.750  14.641  0.1558  0.0963 -0.5518
    6MPD2    C114411   3.619   2.807  14.606  0.7534  0.1796  0.4860
    6MPD2    C214412   3.716   2.821  14.707  0.3160 -0.3660  0.3188
    6MPD2    C314413   3.690   2.781  14.840 -0.0986 -0.1365 -0.8534
    6MPD2    C414414   3.571   2.717  14.865 -0.5187  0.5538 -0.3574
    6MPD2    C514415   3.476   2.715  14.770 -0.3970  0.1411 -0.0590
    6MPD2     H14416   3.807   2.873  14.681 -0.5484  0.9881  0.0071
    6MPD2    H114417   3.547   2.681  14.965 -0.3664  0.2932 -0.4153
    6MPD2    H214418   3.407   2.754  14.581 -0.5674 -0.8412  0.4607
    6MPD2    H314419   3.376   2.677  14.791 -0.0972 -0.5066  0.1960
    6MPD2     N14420   3.787   2.829  14.931  0.2716  0.3549  0.1836
    6MPD2    H514421   3.869   2.873  14.891  0.7674 -2.0365 -1.4403
    6MPD2    N114422   3.647   2.872  14.488  0.4403  0.3374 -0.4918
    6MPD2    H714423   3.736   2.920  14.486  1.0305 -0.7091  0.3968
  945NH4     N114424   3.449   4.220  16.444  0.5492  0.3410 -0.3989
  945NH4     H214425   3.539   4.235  16.492  0.6758  3.2210 -1.5086
  945NH4     H314426   3.419   4.297  16.381 -3.4237 -1.7214 -1.0219
  945NH4     H414427   3.371   4.203  16.512  1.5338 -0.9348  0.3988
  945NH4     H514428   3.467   4.141  16.379  0.3786  1.2939 -1.6154
  946SOD     NA14429   1.056   0.183   2.834  0.1004 -0.1931  0.2151
  947SOD     NA14430   2.705   2.518  16.578 -0.3451  0.0054  0.0196
  948SOD     NA14431   1.994   3.956   4.738 -0.0435  0.3088 -0.1991
  949SOD     NA14432   0.913   3.406  16.401 -0.2406 -0.2339  0.6684
  950SOD     NA14433   0.140   2.044   1.548  0.3249 -0.0621  0.1840
  951SOD     NA14434   2.544   3.774   1.647  0.3475  0.2794  0.0532
  952SOD     NA14435   1.914   3.200  15.364  0.1568 -0.2347 -0.2217
  953SOD     NA14436   3.262   1.652  13.395  0.2734 -0.1197  0.0785
  954SOD     NA14437   2.223   1.510  15.073  0.4456 -0.0480  0.7971
  955SOD     NA14438   3.722   2.024   2.527 -0.1738 -0.0096 -0.3909
  956SOD     NA14439   3.477   1.921  14.113  0.0399  0.2373 -0.0443
  957SOD     NA14440   0.021   2.812  12.191 -0.0847 -0.2105  0.1406
  958SOD     NA14441   0.767   2.388  13.741  0.2250 -0.0418  0.0214
  959SOD     NA14442   2.281   2.402   3.070 -0.2655  0.1315  0.1125
  960SOD     NA14443   2.849   2.593  13.982  0.0784 -0.3083 -0.0294
  961SOD     NA14444   0.512   1.704   1.083 -0.3654 -0.1136  0.4105
  962SOD     NA14445   4.256   1.913  10.745  0.1031  0.0286 -0.1746
  963SOD     NA14446   2.932   0.014   4.623 -0.0473 -0.0067  0.0695
  964SOD     NA14447   1.185   1.700   7.425 -0.1631  0.5526 -0.4384
  965SOD     NA14448   0.204   0.777  17.568 -0.3063 -0.3092 -0.7116
  966SOD     NA14449   0.589   2.234   0.597  0.1177  0.2085 -0.3364
  967SOD     NA14450   4.319   1.040  11.052 -0.3484  0.5004  0.0354
  968SOD     NA14451   0.360   1.933  12.519 -0.4008 -0.5097 -0.2966
  969SOD     NA14452   0.564   1.926  12.754 -0.2862 -0.3871  0.0372
  970SOD     NA14453   3.870   2.104  10.796 -0.0766  0.0612 -0.6877
  971SOD     NA14454   0.498   1.696  10.762 -0.0270 -0.0170  0.2631
  972SOD     NA14455   1.429   1.183  12.934  0.1357  0.2209 -0.4729
  973SOD     NA14456   0.683   1.380  12.546 -0.0988 -0.4108  0.1425
  974SOD     NA14457   0.972   0.943  16.829 -0.2828  0.3669  0.5557
  975SOD     NA14458   4.656   2.724  12.491  0.1670 -0.1769 -0.4142
  976SOD     NA14459   0.023   0.547  14.049 -0.3785 -0.3825 -0.3479
  977SOD     NA14460   3.033   3.382  13.646 -0.4583  0.6830  0.4291
  978SOD     NA14461   1.557   0.914  13.776  0.0396  0.0274  0.3659
  979SOD     NA14462   0.254   2.237   2.424 -0.2857  0.0495  0.7153
  980SOD     NA14463   0.449   2.531  14.123  0.0702  0.8586 -0.0718
  981SOD     NA14464   4.381   4.654  10.456 -0.3609 -0.0398 -0.2462
  982SOD     NA14465   3.446   0.834   3.585 -0.0783  0.1725 -0.5359
  983SOD     NA14466   2.439   3.032   9.146  0.1886  0.2517 -0.7956
  984SOD     NA14467   0.088   2.526   9.565 -0.5534  0.4250 -0.7512
  985SOD     NA14468   3.775   2.532  10.740 -0.0684  0.1162 -0.1553
  986SOD     NA14469   3.912   4.193  15.019  0.2547 -0.1795 -0.2959
  987SOD     NA14470   1.187   3.845  13.566  0.4420  0.0614  0.6633
  988SOD     NA14471   0.472   1.902  11.599 -0.4321 -0.1240  0.3281
  989SOD     NA14472   4.582   1.175  10.873  0.1110  0.5745  0.3027
  990SOD     NA14473   1.898   0.884  14.869 -0.1813 -0.0526  0.2935
  991SOD     NA14474   4.490   0.067   2.302 -0.4579 -0.5655 -0.2129
  992SOD     NA14475   3.770   2.213  13.226 -0.1011 -0.1655 -0.4887
  993SOD     NA14476   1.331   3.155  15.353  0.3131 -0.0978 -0.1702
  994SOD     NA14477   4.292   4.209  14.242  0.0481 -0.0529  0.5357
  995SOD     NA14478   2.952   4.655   1.275  0.0159 -0.1658 -0.0646
  996SOD     NA14479   0.338   4.243  10.637  0.0639 -0.6262 -0.3406
  997SOD     NA14480   3.625   0.365  10.620  0.4476 -0.1650  0.1111
  998SOD     NA14481   4.461   4.687  12.244 -0.1466  0.0302  0.3421
  999SOD     NA14482   0.204   2.423  10.224  0.0412 -0.0880  0.2166
 1000SOD     NA14483   3.482   2.058  10.695 -0.3744 -0.3933 -0.4268
 1001SOD     NA14484   1.977   2.719  16.517  0.0515  0.0416  0.3179
 1002SOD     NA14485   1.233   1.734  10.414  0.0526  0.2550 -0.1196
 1003SOD     NA14486   2.124   3.160   0.286  0.2027  0.0953  0.0174
 1004SOD     NA14487   2.757   3.243  13.765  0.1153  0.5001 -0.0736
 1005SOD     NA14488   2.767   1.474   2.021  0.0459 -0.1472  0.3681
 1006SOD     NA14489   0.962   4.364  11.154  0.2029 -0.2093  0.2709
 1007SOD     NA14490   1.599   1.520   6.736  0.2758 -0.1025  0.0101
 1008SOD     NA14491   4.472   1.187   2.069 -0.1661  0.1004  0.1256
 1009SOD     NA14492   1.669   3.401  11.426 -0.5590  0.2043  0.3361
 1010SOD     NA14493   4.679   1.419  10.654  0.2620  0.1038 -0.3730
 1011SOL     OW14494   0.019   2.791   5.034  0.0334 -0.9782  0.4025
 1011SOL    HW114495   4.717   2.848   5.107  2.2936 -1.2394  1.3345
 1011SOL    HW214496   4.675   2.722   5.040 -0.6300 -0.5557 -1.9601
 1012SOL     OW14497   3.688   3.412  14.880 -0.1991 -0.4471 -0.2369
 1012SOL    HW114498   3.755   3.419  14.948 -0.3698  0.6910 -0.1845
 1012SOL    HW214499   3.651   3.325  14.894  2.3334 -1.6435 -1.1694
 1013SOL     OW14500   1.388   4.209   4.135  0.1377 -0.7565 -0.3251
 1013SOL    HW114501   1.432   4.141   4.185  0.2631 -1.2902 -1.1571
 1013SOL    HW214502   1.463   4.229   4.079  0.5408 -1.9594 -0.2208
 1014SOL     OW14503   3.023   2.724  13.884 -0.2361  0.1228 -0.2420
 1014SOL    HW114504   3.053   2.695  13.798  0.5742 -3.1641  1.1290
 1014SOL    HW214505   3.081   2.796  13.908 -0.4278 -0.0179  0.6497
 1015SOL     OW14506   3.371   3.544   6.335 -0.0173  0.5887 -0.4496
 1015SOL    HW114507   3.461   3.568   6.357  0.2902 -0.9062 -0.1040
 1015SOL    HW214508   3.379   3.531   6.241  0.8462  1.7363 -0.5363
 1016SOL     OW14509   1.900   0.860  11.242  0.3019 -0.0777  0.2127
 1016SOL    HW114510   1.967   0.803  11.204  0.3460  0.3959 -0.4052
 1016SOL    HW214511   1.844   0.881  11.168 -0.4423  1.0795  1.0990
 1017SOL     OW14512   0.983   2.551   7.238  0.5664  0.2826 -0.2211
 1017SOL    HW114513   0.903   2.535   7.187  0.9273  0.8104 -0.9525
 1017SOL    HW214514   0.952   2.572   7.326 -1.9179  1.3439 -1.3524
 1018SOL     OW14515   4.040   0.714   7.540 -0.3742  0.1014 -0.7548
 1018SOL    HW114516   4.013   0.760   7.461 -0.0164 -1.6564 -1.9053
 1018SOL    HW214517   4.128   0.687   7.516 -0.8592  0.1405 -2.5628
 1019SOL     OW14518   3.324   2.730   5.412  0.1451  0.3888  0.2135
 1019SOL    HW114519   3.285   2.772   5.489  0.9629 -2.1745  2.0625
 1019SOL    HW214520   3.317   2.802   5.350 -0.4798  0.4112  0.3032
 1020SOL     OW14521   0.259   4.431   3.417  0.1848 -0.1505 -0.1495
 1020SOL    HW114522   0.337   4.376   3.421  0.0248 -0.3121  0.6289
 1020SOL    HW214523   0.272   4.474   3.332  2.3953  0.9658  0.7752
 1021SOL     OW14524   3.667   1.691   8.612 -0.2857  0.3434 -0.2735
 1021SOL    HW114525   3.732   1.630   8.578  0.3160  1.4480 -1.1080
 1021SOL    HW214526   3.619   1.637   8.675 -0.9990 -2.4042 -3.1228
 1022SOL     OW14527   2.511   4.263   8.039 -0.4889  0.1108 -0.6749
 1022SOL    HW114528   2.425   4.222   8.046 -0.9186  0.8219 -1.7665
 1022SOL    HW214529   2.491   4.344   7.991  1.2177  1.9483  1.6863
 1023SOL     OW14530   3.961   0.163   9.148 -0.1671 -0.1940 -0.7942
 1023SOL    HW114531   3.908   0.232   9.188  1.0684  0.2778  0.0209
 1023SOL    HW214532   3.930   0.088   9.199  2.5274 -1.3709 -0.9025
 1024SOL     OW14533   0.486   1.753   8.117 -0.6833 -0.4545 -0.1426
 1024SOL    HW114534   0.449   1.731   8.032  1.5927 -2.4886 -0.6140
 1024SOL    HW214535   0.402   1.773   8.157 -1.6937  0.8702 -2.9201
 1025SOL     OW14536   3.002   1.267   6.230 -0.2691  0.3966 -0.1114
 1025SOL    HW114537   2.915   1.252   6.193 -0.9677 -0.5487  1.8495
 1025SOL    HW214538   2.970   1.332   6.293 -0.1044 -0.6798  1.0970
 1026SOL     OW14539   0.730   3.506  11.892 -0.0157 -0.5602  0.0006
 1026SOL    HW114540   0.770   3.420  11.876  0.7702 -0.1334 -0.3581
 1026SOL    HW214541   0.655   3.476  11.944  0.3627  0.7142  1.2892
 1027SOL     OW14542   0.136   1.126   7.518  0.1969  0.1040  0.0980
 1027SOL    HW114543   0.095   1.212   7.508 -2.4856 -1.1938 -0.1448
 1027SOL    HW214544   0.071   1.081   7.573 -0.4270 -0.9932 -1.5421
 1028SOL     OW14545   1.941   1.272   8.629 -0.4932  0.0713  1.0247
 1028SOL    HW114546   2.001   1.301   8.698  0.2472  0.3342  0.2689
 1028SOL    HW214547   1.994   1.305   8.557 -0.6935 -1.7675  0.0182
 1029SOL     OW14548   2.295   0.799   4.407  0.0151 -0.3771 -0.2685
 1029SOL    HW114549   2.390   0.798   4.410 -0.0155 -0.4497  0.6657
 1029SOL    HW214550   2.262   0.840   4.487 -0.3186  0.5717 -0.9010
 1030SOL     OW14551   3.634   1.112   9.050 -0.1486  0.4155  0.4429
 1030SOL    HW114552   3.587   1.040   9.007  0.3129 -1.1850  2.6265
 1030SOL    HW214553   3.600   1.102   9.139 -0.6724  2.8251  0.4965
 1031SOL     OW14554   2.734   0.610   7.896 -0.4001 -0.0528 -0.2382
 1031SOL    HW114555   2.817   0.654   7.916  0.6287 -1.9742 -0.2985
 1031SOL    HW214556   2.737   0.610   7.800 -0.3289 -0.6530 -0.2369
 1032SOL     OW14557   4.191   3.304   8.765  0.1793 -0.4716 -0.0137
 1032SOL    HW114558   4.145   3.224   8.789 -0.0169 -0.4476 -0.3155
 1032SOL    HW214559   4.223   3.287   8.676  1.9147  0.8839  0.3304
 1033SOL     OW14560   1.015   0.235  17.025  0.2763 -0.3331  0.3497
 1033SOL    HW114561   1.096   0.222  17.073 -0.5161 -1.9200  1.2395
 1033SOL    HW214562   1.017   0.179  16.947  0.9253  0.5679 -0.2866
 1034SOL     OW14563   2.521   1.044  14.287 -0.4043 -0.4071 -0.2453
 1034SOL    HW114564   2.582   1.006  14.224  0.9490 -0.3906  1.0566
 1034SOL    HW214565   2.558   0.999  14.362  0.1434 -0.0006 -0.2691
 1035SOL     OW14566   2.026   3.602  10.358 -0.2929  0.0354 -0.8693
 1035SOL    HW114567   2.005   3.695  10.357  0.3114  0.1704 -0.8866
 1035SOL    HW214568   1.971   3.570  10.287 -0.3967 -1.9398  0.0878
 1036SOL     OW14569   0.040   0.301   7.269  0.5123  0.3420 -0.1060
 1036SOL    HW114570   4.705   0.231   7.236  1.1052  0.3108 -1.0528
 1036SOL    HW214571   0.097   0.249   7.325 -0.9989  0.0520  1.1518
 1037SOL     OW14572   0.402   2.525   6.369 -0.5786 -0.7973  0.2256
 1037SOL    HW114573   0.453   2.463   6.421  0.0642 -0.7921 -0.3853
 1037SOL    HW214574   0.326   2.535   6.427  0.4029 -0.4774  1.4761
 1038SOL     OW14575   2.915   4.391   6.088 -0.5541  0.6019  0.1727
 1038SOL    HW114576   2.943   4.355   6.172 -1.8543 -0.8004 -0.0108
 1038SOL    HW214577   3.001   4.415   6.052 -1.5400  0.3907 -2.3249
 1039SOL     OW14578   1.732   0.006  10.705 -0.5126 -0.1077 -0.5656
 1039SOL    HW114579   1.817   4.700  10.741 -1.5498 -1.3552  0.9375
 1039SOL    HW214580   1.696   4.640  10.693 -0.0473 -0.4275  0.3404
 1040SOL     OW14581   2.961   2.470   0.841  0.1814 -0.3051 -0.2746
 1040SOL    HW114582   3.000   2.383   0.832 -1.0140 -0.9933  1.1191
 1040SOL    HW214583   2.868   2.453   0.853 -0.2982  2.8877  0.4683
 1041SOL     OW14584   4.503   3.906  12.207 -0.2013  0.0560 -0.1163
 1041SOL    HW114585   4.525   3.841  12.140  2.3118  0.2751  0.5067
 1041SOL    HW214586   4.588   3.900  12.251  0.5041  0.9233 -1.3446
 1042SOL     OW14587   2.665   4.330  10.160  0.1014 -0.0713 -0.7071
 1042SOL    HW114588   2.743   4.373  10.193 -0.7464  3.1758 -2.9407
 1042SOL    HW214589   2.637   4.379  10.083  1.6125  0.6954 -0.7524
 1043SOL     OW14590   3.403   3.252  15.694  0.1758  0.1534 -0.3761
 1043SOL    HW114591   3.421   3.281  15.784  0.5397  2.3763 -1.1469
 1043SOL    HW214592   3.491   3.247  15.657 -0.4735  2.1049 -2.2403
 1044SOL     OW14593   4.312   1.993   2.480  0.2917  0.2242  0.0958
 1044SOL    HW114594   4.401   1.964   2.460  0.7928  1.3042  0.7458
 1044SOL    HW214595   4.263   1.913   2.464  2.4891 -1.1790  0.5204
 1045SOL     OW14596   4.666   3.925   7.515  0.2268  0.1170  0.6018
 1045SOL    HW114597   4.583   3.920   7.561  0.1231  1.1560  0.5270
 1045SOL    HW214598   4.642   3.924   7.422 -1.6966  0.1730  1.1086
 1046SOL     OW14599   2.340   3.701   3.714 -0.1297 -0.3379  0.1333
 1046SOL    HW114600   2.301   3.623   3.676 -1.5814  0.8329 -0.7798
 1046SOL    HW214601   2.263   3.757   3.726  0.4532  0.6994 -0.9908
 1047SOL     OW14602   3.525   3.229  10.921 -0.2405 -0.2384 -0.3632
 1047SOL    HW114603   3.548   3.232  10.828 -1.1126  0.5779 -0.5561
 1047SOL    HW214604   3.512   3.323  10.936 -3.3967 -1.0294  1.8443
 1048SOL     OW14605   0.277   4.412   8.762  0.0767 -0.2817 -0.2064
 1048SOL    HW114606   0.326   4.368   8.832 -1.7678 -1.2580  0.4717
 1048SOL    HW214607   0.186   4.386   8.774  0.2882 -1.0974 -0.3861
 1049SOL     OW14608   1.072   2.546  15.230  0.1487  0.5136  0.3430
 1049SOL    HW114609   1.134   2.586  15.291  0.9255  0.7803 -0.6177
 1049SOL    HW214610   1.104   2.601  15.158 -0.8877  0.3191 -0.2668
 1050SOL     OW14611   4.712   3.968   0.472  0.0773  0.4078 -0.1760
 1050SOL    HW114612   0.082   3.989   0.453  0.6515 -0.9786  1.0675
 1050SOL    HW214613   4.681   3.955   0.383  0.5781  0.8404 -0.4097
 1051SOL     OW14614   2.442   1.579   1.314  0.1050 -0.1188 -0.5104
 1051SOL    HW114615   2.439   1.666   1.272  1.0189 -1.0548 -2.5201
 1051SOL    HW214616   2.353   1.547   1.303 -0.0439 -0.2181  0.9430
 1052SOL     OW14617   2.368   3.522  10.545  0.1956 -0.1311  0.4667
 1052SOL    HW114618   2.447   3.535  10.598 -0.4074  0.1147  1.3111
 1052SOL    HW214619   2.359   3.427  10.554  0.7630 -0.1087  1.2967
 1053SOL     OW14620   2.308   1.299   6.626  0.3144 -0.0042  0.5589
 1053SOL    HW114621   2.353   1.382   6.644 -0.4882 -0.0027  2.4621
 1053SOL    HW214622   2.310   1.301   6.530 -0.2574  1.3102  0.5748
 1054SOL     OW14623   1.246   3.905   9.106  0.7602  0.6038 -0.2265
 1054SOL    HW114624   1.152   3.893   9.115  0.5454  0.4036 -2.8871
 1054SOL    HW214625   1.283   3.817   9.092 -0.8022  0.1011 -1.1546
 1055SOL     OW14626   4.239   2.209   5.290 -0.4966  0.4705 -0.2214
 1055SOL    HW114627   4.303   2.260   5.342 -1.2556  0.3643  0.8126
 1055SOL    HW214628   4.288   2.128   5.279  0.4127  1.1180 -1.0429
 1056SOL     OW14629   0.022   1.955   4.083  0.0072 -0.1597  0.1128
 1056SOL    HW114630   4.659   1.991   4.056 -0.1714  1.1124  2.4224
 1056SOL    HW214631   0.050   2.025   4.141 -1.3440  0.2072  0.3359
 1057SOL     OW14632   4.398   0.961   5.222 -0.8699 -0.2582 -0.5524
 1057SOL    HW114633   4.465   0.906   5.182  0.7910 -1.1618  3.4811
 1057SOL    HW214634   4.362   1.010   5.148  0.2915  1.2242 -0.1289
 1058SOL     OW14635   4.679   1.688   4.154  0.1330  0.0411 -0.3247
 1058SOL    HW114636   4.681   1.727   4.241  2.9156  0.1888 -0.4581
 1058SOL    HW214637   0.006   1.754   4.106 -0.7567  1.4409  0.6950
 1059SOL     OW14638   3.480   4.609   9.327 -0.1224  0.2820  0.4144
 1059SOL    HW114639   3.388   4.612   9.300  0.2221 -0.5419 -0.8368
 1059SOL    HW214640   3.528   4.587   9.247  1.2673 -2.8864  2.1376
 1060SOL     OW14641   3.673   4.678   0.362  0.1478  0.2033 -0.2046
 1060SOL    HW114642   3.749   4.633   0.325 -1.2973 -3.0911  0.8080
 1060SOL    HW214643   3.709   0.038   0.396 -0.9426 -0.1570  1.8575
 1061SOL     OW14644   0.184   3.905  15.325  0.0956  0.3808 -0.3826
 1061SOL    HW114645   0.174   3.836  15.391 -2.2056 -0.8698 -2.0201
 1061SOL    HW214646   0.098   3.899  15.283 -0.0679  1.5240 -0.2121
 1062SOL     OW14647   1.382   0.348  16.956  0.2336 -0.1956 -0.0489
 1062SOL    HW114648   1.461   0.364  17.008 -0.0300 -0.5439  0.4544
 1062SOL    HW214649   1.330   0.425  16.978  0.5662  0.3338 -1.1143
 1063SOL     OW14650   4.406   2.504   8.935 -0.0721 -1.2385  0.2049
 1063SOL    HW114651   4.449   2.580   8.975 -1.0509 -0.8962  0.6031
 1063SOL    HW214652   4.336   2.490   8.999 -1.5842  2.8813 -0.5687
 1064SOL     OW14653   0.427   2.685   5.762 -0.1994  0.0815 -0.0875
 1064SOL    HW114654   0.431   2.753   5.695 -1.2527 -0.4695 -0.7002
 1064SOL    HW214655   0.394   2.616   5.705  1.0588 -0.1477 -0.5419
 1065SOL     OW14656   4.512   3.019  13.911 -0.6813  0.1384  0.1565
 1065SOL    HW114657   4.536   3.112  13.907 -0.7571  0.1776  0.6750
 1065SOL    HW214658   4.589   2.982  13.954 -3.0347 -3.3460  1.2518
 1066SOL     OW14659   4.184   4.475  14.600  0.0453 -0.0132  0.0346
 1066SOL    HW114660   4.089   4.477  14.592 -0.1111 -2.8390  1.5165
 1066SOL    HW214661   4.184   4.475  14.695  1.9438 -0.7757  0.0275
 1067SOL     OW14662   2.663   2.924   4.530 -0.0730  0.3431 -0.1474
 1067SOL    HW114663   2.736   2.944   4.471 -0.1005  2.7437  0.6372
 1067SOL    HW214664   2.690   2.943   4.620 -1.5370 -1.6448  0.7119
 1068SOL     OW14665   2.753   1.203   7.409 -0.1350 -0.7615  0.5530
 1068SOL    HW114666   2.667   1.237   7.384 -0.8283 -0.8811  2.8004
 1068SOL    HW214667   2.734   1.111   7.430  0.3505 -0.7083  1.2442
 1069SOL     OW14668   3.216   3.216   1.047 -0.1027 -0.0440  0.5241
 1069SOL    HW114669   3.169   3.133   1.038  2.2102 -1.4450  1.2848
 1069SOL    HW214670   3.141   3.275   1.054 -0.5562 -0.6527  0.8261
 1070SOL     OW14671   2.521   1.245   4.501 -0.3851  0.5569 -0.5296
 1070SOL    HW114672   2.582   1.187   4.454 -2.2240 -0.7416 -1.3274
 1070SOL    HW214673   2.562   1.329   4.480  0.0573  0.4993  0.0941
 1071SOL     OW14674   3.714   1.798   4.274 -0.7173 -0.1070  0.4514
 1071SOL    HW114675   3.682   1.726   4.328 -3.3685  1.1192  0.5414
 1071SOL    HW214676   3.809   1.789   4.278 -0.9126 -1.0658  3.2116
 1072SOL     OW14677   3.538   4.323   1.258 -0.2928  0.5351 -0.2496
 1072SOL    HW114678   3.455   4.293   1.221 -1.1069  3.0290 -0.4351
 1072SOL    HW214679   3.519   4.329   1.352  0.8473 -0.9741  0.0855
 1073SOL     OW14680   0.299   4.549   4.087  0.8377 -0.2036  0.1809
 1073SOL    HW114681   0.224   4.581   4.037  1.1592  0.0736 -0.1246
 1073SOL    HW214682   0.359   4.519   4.019  1.9835 -0.3990  1.2613
 1074SOL     OW14683   1.118   1.797   3.789  0.8102 -0.4013  0.1314
 1074SOL    HW114684   1.118   1.856   3.864 -0.5045  0.5522 -0.6119
 1074SOL    HW214685   1.109   1.863   3.720  0.4696  0.2384  0.7860
 1075SOL     OW14686   4.357   0.823   7.530  0.3770 -0.2308 -0.2674
 1075SOL    HW114687   4.396   0.741   7.562  2.0912  0.7921  0.2505
 1075SOL    HW214688   4.373   0.877   7.608  4.2667 -1.9596  0.1237
 1076SOL     OW14689   1.127   4.530  13.917  0.0322  0.7116  0.7516
 1076SOL    HW114690   1.049   4.476  13.929  0.7578 -0.9093 -2.0846
 1076SOL    HW214691   1.093   4.597  13.978 -2.3070 -0.7051  1.0119
 1077SOL     OW14692   0.308   1.119  14.857 -0.2697  0.2967  0.2728
 1077SOL    HW114693   0.345   1.082  14.937 -0.8396 -1.0989 -0.1124
 1077SOL    HW214694   0.249   1.183  14.897  0.1908  0.1039  1.2637
 1078SOL     OW14695   4.436   0.952  10.858  0.3588 -0.0391  0.0619
 1078SOL    HW114696   4.375   0.916  10.794 -1.6586 -1.0381  2.5149
 1078SOL    HW214697   4.496   0.878  10.862 -0.3648 -0.6799 -1.0919
 1079SOL     OW14698   0.098   4.553  17.124 -0.5932 -0.5091 -0.6958
 1079SOL    HW114699   0.114   4.618  17.055  0.7284 -0.4429 -0.3279
 1079SOL    HW214700   0.051   4.609  17.187  0.1822  1.5941 -2.0028
 1080SOL     OW14701   1.057   2.545   8.358  0.1855  0.0578 -0.0277
 1080SOL    HW114702   1.039   2.638   8.376  0.7834  0.1868 -0.1107
 1080SOL    HW214703   0.977   2.525   8.310 -1.4360 -0.8448  3.0726
 1081SOL     OW14704   1.799   4.561   8.113  0.6587  0.2037 -0.1954
 1081SOL    HW114705   1.723   4.619   8.108  1.2066  0.6697 -2.8419
 1081SOL    HW214706   1.872   4.603   8.067  1.2025 -1.3138 -0.7290
 1082SOL     OW14707   1.787   4.510   5.810  0.3401  0.8410  1.0743
 1082SOL    HW114708   1.792   4.605   5.811  0.5251  0.8409  0.5668
 1082SOL    HW214709   1.859   4.493   5.871 -1.6253 -0.8295  2.9200
 1083SOL     OW14710   0.342   3.334   6.622 -0.1730 -0.1455 -0.6413
 1083SOL    HW114711   0.313   3.328   6.531 -1.0242 -0.7428 -0.3360
 1083SOL    HW214712   0.385   3.248   6.619 -0.6086 -0.5123  3.3477
 1084SOL     OW14713   0.455   0.919   7.780 -0.3730  0.1646  0.2808
 1084SOL    HW114714   0.453   0.824   7.790  1.1307  0.4049  2.8732
 1084SOL    HW214715   0.399   0.942   7.853  0.6359  0.7014  0.8931
 1085SOL     OW14716   0.936   2.304  13.651 -0.0354  0.0158 -0.0675
 1085SOL    HW114717   0.908   2.238  13.588  0.6252 -1.4656  1.1705
 1085SOL    HW214718   1.030   2.288  13.664  0.2036 -0.7472 -2.6316
 1086SOL     OW14719   3.107   4.438   7.681  0.1996 -0.2857  0.0315
 1086SOL    HW114720   3.022   4.481   7.691  1.1538  2.0269 -2.0946
 1086SOL    HW214721   3.123   4.447   7.587 -2.7490 -0.7712 -0.5152
 1087SOL     OW14722   1.578   3.814   4.128 -0.4846 -0.0985 -0.5273
 1087SOL    HW114723   1.665   3.777   4.119 -0.7522 -0.2613 -2.3298
 1087SOL    HW214724   1.513   3.744   4.133 -0.0110 -0.4669  0.5895
 1088SOL     OW14725   0.678   4.073   7.707  0.1313 -0.2233 -0.5357
 1088SOL    HW114726   0.751   4.132   7.729 -1.0386  0.8994  0.4031
 1088SOL    HW214727   0.729   4.020   7.646  2.2027 -1.1320  1.9905
 1089SOL     OW14728   2.747   0.396  12.247 -0.1189  0.0862  0.3004
 1089SOL    HW114729   2.776   0.325  12.304 -0.2680  0.1415  0.4435
 1089SOL    HW214730   2.710   0.457  12.311  0.6115  1.9524 -1.0506
 1090SOL     OW14731   4.276   0.634  10.142 -0.0447 -0.4963  0.4403
 1090SOL    HW114732   4.190   0.618  10.103  0.0949 -1.6968  0.6275
 1090SOL    HW214733   4.313   0.690  10.074  0.7029 -0.9821  0.4549
 1091SOL     OW14734   4.433   4.407   1.091 -0.4235 -0.1919 -0.3467
 1091SOL    HW114735   4.403   4.369   1.174 -1.6766  0.7171 -0.3763
 1091SOL    HW214736   4.498   4.463   1.133 -1.9790  2.1721 -1.0569
 1092SOL     OW14737   4.584   1.410   3.983 -0.0975  0.8291  0.4668
 1092SOL    HW114738   4.547   1.489   4.022  1.9993  1.4936  1.0941
 1092SOL    HW214739   4.567   1.346   4.053  0.5172 -0.1138 -0.2483
 1093SOL     OW14740   1.459   1.397  15.508 -0.5256  0.4650  0.2141
 1093SOL    HW114741   1.387   1.436  15.459 -0.8067  0.1032  0.3379
 1093SOL    HW214742   1.455   1.466  15.575 -0.1091  1.3615 -0.6824
 1094SOL     OW14743   1.717   1.344   6.811  0.9014 -0.0278  0.1577
 1094SOL    HW114744   1.685   1.258   6.785 -3.5423  1.5825  0.1595
 1094SOL    HW214745   1.811   1.328   6.813  0.6400 -1.8480 -1.9918
 1095SOL     OW14746   4.119   0.309   9.433 -0.2147  0.1918 -0.1265
 1095SOL    HW114747   4.123   0.218   9.404 -0.2804  0.4792 -1.0180
 1095SOL    HW214748   4.166   0.349   9.360 -0.4948  2.3324  0.8761
 1096SOL     OW14749   3.579   2.277  12.360  0.3718  0.0385 -0.1437
 1096SOL    HW114750   3.489   2.266  12.392  0.3354  2.6277  0.6956
 1096SOL    HW214751   3.625   2.225  12.425  0.4537  0.4294  0.1140
 1097SOL     OW14752   2.039   0.895   6.226 -0.2278 -0.0446  0.6430
 1097SOL    HW114753   2.091   0.964   6.184  0.2687 -1.3883 -0.9167
 1097SOL    HW214754   1.950   0.929   6.217 -0.1030  0.0591 -0.1621
 1098SOL     OW14755   4.383   0.362  16.449 -0.1402 -0.7507 -0.4618
 1098SOL    HW114756   4.342   0.278  16.427 -1.5525 -0.4947  1.1493
 1098SOL    HW214757   4.452   0.323  16.503  0.0973 -0.5287 -0.6058
 1099SOL     OW14758   2.887   3.295   6.393  0.2836 -0.2378  0.2505
 1099SOL    HW114759   2.975   3.332   6.388 -0.5866  1.7817 -0.5278
 1099SOL    HW214760   2.840   3.366   6.348  1.2892 -0.9484 -1.9661
 1100SOL     OW14761   1.976   4.083  13.878  0.4309 -0.2727  0.3946
 1100SOL    HW114762   1.960   4.043  13.964 -0.1908 -0.6048  0.1255
 1100SOL    HW214763   2.072   4.081  13.874  0.4087  1.7971 -0.7990
 1101SOL     OW14764   2.117   2.061  15.801 -0.0712 -0.0492  0.1388
 1101SOL    HW114765   2.056   2.084  15.732 -0.0511 -0.1564  0.0854
 1101SOL    HW214766   2.197   2.062  15.748 -0.5984  0.3233 -0.6339
 1102SOL     OW14767   1.729   1.909   9.675  0.1221 -0.0607 -0.0649
 1102SOL    HW114768   1.822   1.907   9.650 -0.4755 -0.8353 -2.2415
 1102SOL    HW214769   1.709   1.819   9.698 -0.3059 -0.4547 -2.0148
 1103SOL     OW14770   4.449   0.079   7.516 -0.0782 -0.4508  0.2389
 1103SOL    HW114771   4.454   0.080   7.421 -0.5559 -2.3644  0.1924
 1103SOL    HW214772   4.357   0.102   7.527 -0.7201 -2.1725 -1.6167
 1104SOL     OW14773   2.962   2.662   6.796  0.6702 -0.1545 -0.4970
 1104SOL    HW114774   2.901   2.643   6.867 -0.0744 -1.1743 -1.4059
 1104SOL    HW214775   2.904   2.673   6.721  1.2795 -0.4414 -1.0102
 1105SOL     OW14776   0.534   4.041   5.221  0.8330 -0.1725 -0.3309
 1105SOL    HW114777   0.511   4.134   5.218 -0.7423 -0.5934 -1.3702
 1105SOL    HW214778   0.472   4.003   5.159  2.3229 -0.4875 -1.6439
 1106SOL     OW14779   4.624   3.912  11.608  0.1211  0.1301  0.0483
 1106SOL    HW114780   4.631   3.958  11.691 -0.8297  0.3330  0.0191
 1106SOL    HW214781   4.683   3.836  11.607  0.1070  0.1125  1.6663
 1107SOL     OW14782   2.545   3.164   9.329 -0.2393  0.5886 -0.5111
 1107SOL    HW114783   2.638   3.185   9.323 -0.0728 -0.0484 -0.1024
 1107SOL    HW214784   2.526   3.238   9.386  0.5959 -0.5356  1.2202
 1108SOL     OW14785   1.733   3.515   6.112  0.1878 -0.0538  0.1842
 1108SOL    HW114786   1.672   3.443   6.126  1.2975 -1.3164 -1.5490
 1108SOL    HW214787   1.722   3.560   6.196 -1.1362  0.7274 -0.3993
 1109SOL     OW14788   0.882   2.523   5.091 -0.3971 -0.0352 -0.1345
 1109SOL    HW114789   0.865   2.609   5.052  0.5369  1.8209  3.5852
 1109SOL    HW214790   0.796   2.484   5.101 -0.6635  0.4840 -0.4083
 1110SOL     OW14791   4.030   0.894   4.503 -0.9344 -0.3309  0.4292
 1110SOL    HW114792   4.068   0.935   4.580  1.5433 -1.3717 -0.2592
 1110SOL    HW214793   4.097   0.908   4.436 -1.4102 -2.8958 -0.5953
 1111SOL     OW14794   1.726   3.578   6.363 -0.1974 -0.1400  0.1381
 1111SOL    HW114795   1.702   3.510   6.426  1.5971 -0.1885  0.7626
 1111SOL    HW214796   1.805   3.606   6.409  0.7953 -1.1368 -0.9708
 1112SOL     OW14797   2.020   1.667   8.930 -0.0708  0.4721  0.2697
 1112SOL    HW114798   1.971   1.713   8.862  0.6225  2.2292  0.9487
 1112SOL    HW214799   2.034   1.737   8.994  0.5195  0.5146  0.1007
 1113SOL     OW14800   0.144   1.199   3.326  0.4517 -0.1585  0.6100
 1113SOL    HW114801   0.185   1.152   3.253  1.3377 -1.6374  2.0705
 1113SOL    HW214802   0.210   1.185   3.393  2.9456  1.5026 -1.4961
 1114SOL     OW14803   1.877   3.416   8.738 -0.0670  0.0941  0.8211
 1114SOL    HW114804   1.906   3.502   8.706  1.2626  0.3438  2.6745
 1114SOL    HW214805   1.926   3.354   8.683  1.2819  2.5057 -0.7316
 1115SOL     OW14806   2.082   3.227   6.212  0.1486  0.1837  0.0902
 1115SOL    HW114807   2.152   3.288   6.233  1.9715 -2.1235  0.7778
 1115SOL    HW214808   2.129   3.163   6.158 -1.6537 -2.2552  1.3964
 1116SOL     OW14809   0.395   0.722   8.314  0.0706 -0.4208  0.0129
 1116SOL    HW114810   0.454   0.720   8.390  2.5972  0.9807 -1.9097
 1116SOL    HW214811   0.353   0.636   8.325  0.4413 -0.3074  2.2459
 1117SOL     OW14812   0.423   3.308  16.134  0.3713 -0.2965 -0.4481
 1117SOL    HW114813   0.342   3.352  16.163  1.1535 -1.0247  2.8419
 1117SOL    HW214814   0.454   3.346  16.052 -2.4116 -0.9138 -1.7996
 1118SOL     OW14815   3.499   4.468   4.181 -0.2391 -0.1067  0.0221
 1118SOL    HW114816   3.552   4.440   4.107 -0.3819 -0.9372  0.2404
 1118SOL    HW214817   3.567   4.512   4.233 -0.7137 -0.4594  0.9329
 1119SOL     OW14818   2.629   1.684   4.563  0.3465  0.1698  0.4073
 1119SOL    HW114819   2.581   1.767   4.566 -1.9461 -1.1520  0.4974
 1119SOL    HW214820   2.637   1.673   4.658  0.5572  1.1135  0.5044
 1120SOL     OW14821   1.361   0.836   7.519  0.3341 -0.1492  0.1671
 1120SOL    HW114822   1.310   0.836   7.438  0.6792  0.3003 -0.0492
 1120SOL    HW214823   1.428   0.896   7.485 -0.0263  0.7190  0.9792
 1121SOL     OW14824   2.981   4.631   8.856 -0.8064  0.1890  0.0699
 1121SOL    HW114825   3.070   4.606   8.832 -0.0302  0.5816  2.4843
 1121SOL    HW214826   2.971   4.697   8.788 -1.2144  1.0107  0.9269
 1122SOL     OW14827   0.788   2.721   8.570  0.4180  0.3487 -0.2512
 1122SOL    HW114828   0.716   2.664   8.596  2.4775 -2.1216  0.0478
 1122SOL    HW214829   0.820   2.749   8.656  0.4871 -1.5139  0.3160
 1123SOL     OW14830   0.047   0.054  16.445 -0.1335 -0.2195 -0.3689
 1123SOL    HW114831   4.712   0.089  16.376  1.8877  1.0143 -1.3856
 1123SOL    HW214832   0.043   4.684  16.418  2.1621 -0.7370  1.0939
 1124SOL     OW14833   1.489   0.174   9.129 -0.4218 -0.3923  0.0808
 1124SOL    HW114834   1.405   0.210   9.102 -1.1207 -2.0160  0.0672
 1124SOL    HW214835   1.537   0.257   9.133  0.2138 -0.8296  1.8132
 1125SOL     OW14836   0.951   3.790  14.455 -0.5017 -0.4498 -0.2065
 1125SOL    HW114837   0.984   3.710  14.413 -1.0672 -1.4360  1.2062
 1125SOL    HW214838   0.945   3.850  14.381  1.1856 -0.7604 -0.5886
 1126SOL     OW14839   0.846   1.961   8.453  0.4557 -0.1034 -0.5376
 1126SOL    HW114840   0.908   2.015   8.501  0.5259  0.1339 -0.8941
 1126SOL    HW214841   0.822   1.901   8.524 -0.4577 -0.7327 -1.3771
 1127SOL     OW14842   3.792   4.108   2.909  0.4364  0.1057  0.3025
 1127SOL    HW114843   3.750   4.088   2.992 -1.2683 -1.2092 -0.8672
 1127SOL    HW214844   3.845   4.184   2.929 -0.2756  0.9390 -0.9595
 1128SOL     OW14845   2.099   0.569   2.363  0.1203  0.1433 -0.4632
 1128SOL    HW114846   2.143   0.626   2.301 -2.4943  0.9886 -1.5563
 1128SOL    HW214847   2.051   0.503   2.313 -1.9494  1.8144 -0.6910
 1129SOL     OW14848   1.703   4.054  12.745 -0.5358  0.5867  0.4484
 1129SOL    HW114849   1.791   4.017  12.754 -0.2463  0.5152 -2.4714
 1129SOL    HW214850   1.654   3.980  12.781  0.4278 -0.2740 -0.0122
 1130SOL     OW14851   4.551   3.163   5.364  0.1619  0.6202 -0.1472
 1130SOL    HW114852   4.552   3.258   5.371 -1.8132  0.5854  0.4784
 1130SOL    HW214853   4.468   3.146   5.409  0.0588 -2.6650 -1.5613
 1131SOL     OW14854   2.096   4.154   8.889 -0.3429  0.7212  0.1470
 1131SOL    HW114855   2.167   4.212   8.862 -0.7612  1.1016 -0.1390
 1131SOL    HW214856   2.142   4.111   8.961  1.7085  1.4093 -0.7608
 1132SOL     OW14857   0.701   3.730   7.073  0.0331  0.2822  0.0969
 1132SOL    HW114858   0.638   3.659   7.086  0.8615 -0.3630  0.5577
 1132SOL    HW214859   0.758   3.688   7.009 -2.0295 -0.7326 -1.0719
 1133SOL     OW14860   2.407   1.469   4.974  0.4098 -0.0024 -0.0319
 1133SOL    HW114861   2.423   1.473   4.879  0.6032 -2.4127 -0.1126
 1133SOL    HW214862   2.312   1.484   4.973  0.1354 -1.7679 -0.3916
 1134SOL     OW14863   4.243   3.323   3.443 -0.0703  0.7519  0.2814
 1134SOL    HW114864   4.217   3.237   3.475 -3.1371  0.9529 -1.6920
 1134SOL    HW214865   4.337   3.307   3.445 -0.4999 -1.7366  0.0735
 1135SOL     OW14866   4.429   2.397   5.461 -0.0362 -0.5759  0.5663
 1135SOL    HW114867   4.415   2.490   5.445  1.0715 -0.2141  1.7135
 1135SOL    HW214868   4.522   2.396   5.436 -0.0313  0.5958  0.5498
 1136SOL     OW14869   1.912   2.461   6.710  0.6784 -0.4281  0.1939
 1136SOL    HW114870   1.866   2.544   6.720  1.3345  0.2019 -2.0372
 1136SOL    HW214871   1.888   2.432   6.622  0.7273 -1.3236  0.4739
 1137SOL     OW14872   2.984   0.938  11.591  0.0631  0.0859 -0.2787
 1137SOL    HW114873   2.975   1.031  11.613 -2.8331 -0.2293 -0.1261
 1137SOL    HW214874   3.055   0.912  11.649  0.4433  0.8909 -0.3747
 1138SOL     OW14875   4.654   3.242   7.893  1.0187 -0.4466  0.3704
 1138SOL    HW114876   4.631   3.334   7.882  1.2090 -0.6072 -1.4150
 1138SOL    HW214877   4.574   3.202   7.858  1.0268 -0.6181  0.5485
 1139SOL     OW14878   3.034   0.154   4.065 -0.6528 -0.6616  0.1946
 1139SOL    HW114879   3.042   0.195   3.979  0.3166 -2.3993 -0.5439
 1139SOL    HW214880   2.959   0.098   4.046  0.0332 -1.1513 -1.0693
 1140SOL     OW14881   0.095   3.270   1.581 -0.4027  0.0989  0.2794
 1140SOL    HW114882   0.012   3.234   1.548 -0.0776 -1.0734  0.7325
 1140SOL    HW214883   0.120   3.188   1.623  0.6791  1.0256  1.4314
 1141SOL     OW14884   2.134   1.624   2.454  0.0785  0.6614 -0.5551
 1141SOL    HW114885   2.116   1.546   2.401 -1.8953  0.8043 -0.1030
 1141SOL    HW214886   2.132   1.590   2.543  1.3122  3.7729  0.6596
 1142SOL     OW14887   3.616   0.517   1.947  0.2078 -0.0472  0.3234
 1142SOL    HW114888   3.694   0.463   1.957  1.0828  0.7486 -2.2318
 1142SOL    HW214889   3.568   0.462   1.885 -0.2036 -1.2113  1.6720
 1143SOL     OW14890   3.770   2.862   3.771  0.0748  0.3703 -0.0860
 1143SOL    HW114891   3.840   2.925   3.787  1.4576 -1.3308  0.5812
 1143SOL    HW214892   3.807   2.787   3.818 -0.6141  0.1685  0.1239
 1144SOL     OW14893   1.268   1.215   7.246 -0.0614 -0.0393  0.3447
 1144SOL    HW114894   1.241   1.195   7.156 -1.6228 -0.8741  1.0097
 1144SOL    HW214895   1.360   1.243   7.238  0.1601 -1.2753 -1.4038
 1145SOL     OW14896   1.439   1.111  13.761  0.2922 -0.6344 -0.5974
 1145SOL    HW114897   1.391   1.098  13.680 -1.4737 -0.7994  0.4869
 1145SOL    HW214898   1.440   1.207  13.763  0.6241 -0.6582  0.7900
 1146SOL     OW14899   3.435   4.538   8.074  0.2911 -0.8922 -0.0012
 1146SOL    HW114900   3.518   4.546   8.028 -0.1597  0.1117 -0.6579
 1146SOL    HW214901   3.379   4.521   7.998 -0.3656  1.0547  0.0336
 1147SOL     OW14902   2.311   2.441  11.857 -0.1440 -0.4797  0.2515
 1147SOL    HW114903   2.375   2.460  11.925  0.8761  0.0535 -0.8541
 1147SOL    HW214904   2.269   2.362  11.890 -1.6490  0.9316  1.7645
 1148SOL     OW14905   2.841   3.634   2.777 -0.5770 -0.4434 -0.1856
 1148SOL    HW114906   2.930   3.618   2.809 -0.7952  1.9854  1.6274
 1148SOL    HW214907   2.842   3.569   2.707 -0.2788  0.2887 -0.8550
 1149SOL     OW14908   3.767   0.262   4.080 -0.1258 -0.5333 -0.0080
 1149SOL    HW114909   3.808   0.238   3.996  0.8272  0.2845  0.2189
 1149SOL    HW214910   3.839   0.252   4.142 -0.9300 -0.8181  0.8586
 1150SOL     OW14911   1.941   3.434  15.416 -0.1219 -0.0693 -0.1457
 1150SOL    HW114912   1.979   3.504  15.469 -1.6909 -0.4106  1.4232
 1150SOL    HW214913   1.924   3.491  15.341  1.7166  0.3327 -0.2375
 1151SOL     OW14914   3.314   2.612   4.214  0.0684 -0.0036 -0.7142
 1151SOL    HW114915   3.309   2.572   4.127  1.0495 -0.1685 -0.7000
 1151SOL    HW214916   3.242   2.565   4.255 -0.0762 -0.7438 -1.8020
 1152SOL     OW14917   3.362   3.616   2.212  0.4027 -0.1999 -0.4171
 1152SOL    HW114918   3.438   3.608   2.270  0.3327  0.2703 -0.2623
 1152SOL    HW214919   3.330   3.526   2.213  0.9211 -0.3826  0.3110
 1153SOL     OW14920   3.921   1.161  13.467 -0.1375 -0.0246  0.0514
 1153SOL    HW114921   4.012   1.180  13.446  0.3398  0.2824  2.3915
 1153SOL    HW214922   3.916   1.072  13.430 -1.2080 -0.4056  1.1192
 1154SOL     OW14923   2.573   0.184   4.199 -0.4782 -0.2616  0.3366
 1154SOL    HW114924   2.499   0.138   4.237 -2.0774 -0.0393 -2.4963
 1154SOL    HW214925   2.530   0.217   4.120  0.9195 -0.2494 -0.4202
 1155SOL     OW14926   1.274   2.796   6.624  0.3063 -0.3101 -0.9802
 1155SOL    HW114927   1.308   2.708   6.638 -0.4957 -0.4100  0.3717
 1155SOL    HW214928   1.224   2.787   6.543  0.7665 -2.5293 -0.9970
 1156SOL     OW14929   3.481   0.684   2.622  0.5391 -0.0461 -0.0503
 1156SOL    HW114930   3.456   0.610   2.567  1.0435 -2.3071  2.7592
 1156SOL    HW214931   3.543   0.638   2.679  0.2820  1.6969  1.6522
 1157SOL     OW14932   4.078   0.335   1.627 -0.3448 -0.0452 -0.6221
 1157SOL    HW114933   4.120   0.302   1.548  1.0999  0.3258 -0.0084
 1157SOL    HW214934   4.143   0.300   1.688 -1.7936  0.3198  1.1360
 1158SOL     OW14935   2.138   4.346   7.368  0.2834  0.4237  0.2051
 1158SOL    HW114936   2.117   4.276   7.306 -0.2718  2.2969 -1.7111
 1158SOL    HW214937   2.102   4.425   7.327 -1.8630 -0.2701  0.7192
 1159SOL     OW14938   4.037   3.582   6.430 -0.5753  0.2049  0.5389
 1159SOL    HW114939   4.055   3.490   6.451  0.0254 -0.2484 -1.9680
 1159SOL    HW214940   4.119   3.618   6.464  0.3140 -3.0393  1.8340
 1160SOL     OW14941   1.787   3.163   1.807  0.5505  0.0741 -0.4229
 1160SOL    HW114942   1.751   3.099   1.869  0.7990 -0.2009 -0.5633
 1160SOL    HW214943   1.846   3.205   1.869 -1.1733  1.0952  0.5062
 1161SOL     OW14944   0.658   4.415  17.332  0.6778  0.1888 -0.3427
 1161SOL    HW114945   0.701   4.500  17.336 -2.7413  1.8987  0.9584
 1161SOL    HW214946   0.708   4.358  17.389 -0.6999  1.2376  1.9091
 1162SOL     OW14947   1.177   1.659   6.338 -0.1476  0.1789  0.4061
 1162SOL    HW114948   1.090   1.653   6.378  0.4328 -0.5492  1.5820
 1162SOL    HW214949   1.228   1.598   6.392 -1.6980 -0.2596  1.3774
 1163SOL     OW14950   2.872   2.369   5.067  0.0365  0.1833  0.0880
 1163SOL    HW114951   2.799   2.315   5.098 -0.5703 -1.3395 -4.0577
 1163SOL    HW214952   2.838   2.457   5.080 -0.7285 -0.4243  2.2284
 1164SOL     OW14953   3.394   4.703   0.256 -0.0895  0.2254 -0.1070
 1164SOL    HW114954   3.471   4.659   0.292 -2.8479 -4.5022  0.0072
 1164SOL    HW214955   3.332   4.630   0.256  0.1051  0.0713 -2.1438
 1165SOL     OW14956   3.683   2.126   4.881  0.0849  0.7323 -0.2521
 1165SOL    HW114957   3.632   2.186   4.936 -0.5146 -1.6389  1.7682
 1165SOL    HW214958   3.630   2.047   4.878  2.1940 -0.7016  0.5458
 1166SOL     OW14959   0.723   2.123   0.948 -0.2925 -0.1516 -0.7086
 1166SOL    HW114960   0.812   2.118   0.914  0.7226  1.3719  1.7651
 1166SOL    HW214961   0.736   2.049   1.007 -0.7153 -0.2924 -0.7898
 1167SOL     OW14962   3.044   0.106  16.105 -0.6552  0.4378  0.3768
 1167SOL    HW114963   3.083   0.048  16.039 -3.1458  0.9027 -1.4916
 1167SOL    HW214964   3.051   0.063  16.190 -2.1184 -1.0116 -0.2206
 1168SOL     OW14965   1.137   1.056   0.642  0.4067  0.1745  1.0423
 1168SOL    HW114966   1.144   0.966   0.610  0.1987  0.2320  0.8305
 1168SOL    HW214967   1.176   1.042   0.728  2.4825 -0.9904 -0.0893
 1169SOL     OW14968   2.675   3.787  16.212  0.1062 -0.7753 -0.5377
 1169SOL    HW114969   2.593   3.807  16.167 -0.9767 -2.5932  0.5981
 1169SOL    HW214970   2.679   3.692  16.219  1.0555 -0.8025 -1.4788
 1170SOL     OW14971   2.590   0.148   3.700  0.4927  0.6126 -0.0687
 1170SOL    HW114972   2.536   0.106   3.633  1.1118 -2.4706  1.3643
 1170SOL    HW214973   2.632   0.210   3.640 -1.1314 -1.7563 -3.6595
 1171SOL     OW14974   3.299   0.587   5.727 -0.4146  0.1752  0.0214
 1171SOL    HW114975   3.369   0.572   5.664  0.4876  0.6087  0.9391
 1171SOL    HW214976   3.273   0.678   5.710  1.8368  0.9289  0.7098
 1172SOL     OW14977   4.128   3.433  11.631 -0.0389 -0.2304  0.5263
 1172SOL    HW114978   4.064   3.478  11.576  0.5951  1.4706  1.1550
 1172SOL    HW214979   4.203   3.486  11.602 -0.4669 -0.3178 -0.7252
 1173SOL     OW14980   2.956   2.094   8.192  0.2760 -0.3884 -0.0102
 1173SOL    HW114981   2.910   2.032   8.249  0.2057  0.7336  1.1574
 1173SOL    HW214982   2.997   2.145   8.262 -0.0605  0.1953 -0.2427
 1174SOL     OW14983   3.728   2.675   8.128  0.5234 -0.0838 -0.3021
 1174SOL    HW114984   3.740   2.585   8.159 -0.9284 -0.5193 -0.9855
 1174SOL    HW214985   3.729   2.650   8.035 -0.3346  0.7751 -0.5418
 1175SOL     OW14986   4.698   4.506   9.205 -0.2957  0.5542  0.5040
 1175SOL    HW114987   4.717   4.441   9.273  0.5120 -2.0449 -2.1848
 1175SOL    HW214988   4.605   4.500   9.185 -0.7417 -0.4427  2.8639
 1176SOL     OW14989   3.364   1.761   6.413  0.4827 -0.3380 -0.1781
 1176SOL    HW114990   3.384   1.732   6.324 -0.6353  0.7124 -0.7796
 1176SOL    HW214991   3.456   1.783   6.423  0.7894 -2.5572  1.8268
 1177SOL     OW14992   1.089   2.694   0.209 -0.1014 -0.1102  0.0031
 1177SOL    HW114993   1.125   2.607   0.226  0.2247 -0.0359 -0.2873
 1177SOL    HW214994   1.035   2.676   0.132 -0.2002  3.8592 -0.8814
 1178SOL     OW14995   1.372   0.520  13.592 -0.3584  0.1619 -0.4070
 1178SOL    HW114996   1.310   0.584  13.555 -0.1207  0.4367 -0.3280
 1178SOL    HW214997   1.335   0.495  13.676 -0.3838  1.6237  0.0185
 1179SOL     OW14998   1.362   2.416   2.443  0.0412 -0.1697  0.0286
 1179SOL    HW114999   1.280   2.368   2.435  1.2345 -2.1767 -0.1798
 1179SOL    HW215000   1.332   2.505   2.428  0.6358  0.0009 -0.1478
 1180SOL     OW15001   0.918   2.582   2.259  0.0402  0.2479  0.4339
 1180SOL    HW115002   0.866   2.661   2.243 -1.1304 -0.6267 -0.0775
 1180SOL    HW215003   0.906   2.532   2.178  0.2820  1.2650 -0.2243
 1181SOL     OW15004   0.232   2.147   1.340 -0.7235 -0.0824 -1.0616
 1181SOL    HW115005   0.170   2.219   1.332 -0.4842  0.1598 -0.7310
 1181SOL    HW215006   0.223   2.126   1.247  2.0573 -1.4024 -1.0292
 1182SOL     OW15007   3.470   0.336   1.768  0.4878  0.2340 -0.6979
 1182SOL    HW115008   3.381   0.324   1.802  0.4613  2.1953 -0.0455
 1182SOL    HW215009   3.445   0.381   1.687  0.6538  0.3323 -0.6936
 1183SOL     OW15010   4.549   2.662   5.204  0.1444 -0.6439  0.3892
 1183SOL    HW115011   4.525   2.659   5.296 -2.6025 -1.6241 -0.3556
 1183SOL    HW215012   4.532   2.572   5.175  1.5799 -1.3046  1.6354
 1184SOL     OW15013   1.720   0.386   5.038  0.2183 -0.4137 -0.3918
 1184SOL    HW115014   1.764   0.318   4.988 -0.2316  0.5935 -2.1847
 1184SOL    HW215015   1.723   0.356   5.128 -1.2957  2.2376  0.5551
 1185SOL     OW15016   0.131   2.032   4.876 -0.0628 -0.3665  0.0382
 1185SOL    HW115017   0.046   2.072   4.856  0.6398  1.1303  0.0015
 1185SOL    HW215018   0.111   1.941   4.854 -0.6757  0.2004 -1.8020
 1186SOL     OW15019   0.384   2.058  14.307  0.4488 -0.1178 -0.3889
 1186SOL    HW115020   0.322   2.130  14.319  2.9108  2.0297 -0.7211
 1186SOL    HW215021   0.370   2.024  14.219  0.5719 -1.8095  0.2422
 1187SOL     OW15022   3.070   3.006   1.297 -0.2006  0.1447  1.1752
 1187SOL    HW115023   3.025   2.924   1.318  0.0512  0.0704  1.4289
 1187SOL    HW215024   3.032   3.027   1.212  0.8758  1.1115  0.9450
 1188SOL     OW15025   0.934   3.953  10.325  0.4174 -0.1232 -0.0400
 1188SOL    HW115026   0.984   3.927  10.248 -1.1526 -0.6589 -0.8704
 1188SOL    HW215027   0.998   4.008  10.372 -2.6947  3.9600 -0.5777
 1189SOL     OW15028   3.088   1.007   0.263 -0.0328  0.0974  0.1579
 1189SOL    HW115029   3.085   0.924   0.216  1.4558  0.1515 -0.0183
 1189SOL    HW215030   3.181   1.028   0.267  0.2109 -1.0188  0.2227
 1190SOL     OW15031   0.303   0.654   3.250 -0.0692  0.1441  0.0793
 1190SOL    HW115032   0.292   0.673   3.344 -2.3122  0.2239 -0.2138
 1190SOL    HW215033   0.208   0.651   3.237 -0.0446 -0.1096 -0.0264
 1191SOL     OW15034   3.656   2.420  12.879  0.3976  0.3346  0.3968
 1191SOL    HW115035   3.719   2.393  12.947 -0.8284 -0.2433  1.2963
 1191SOL    HW215036   3.577   2.384  12.919  1.6672 -0.3632  2.3061
 1192SOL     OW15037   0.394   2.735   6.016 -0.3634 -0.9072  0.3001
 1192SOL    HW115038   0.302   2.761   6.020 -0.1464 -0.1905  0.5759
 1192SOL    HW215039   0.399   2.717   5.922  0.2609  1.1321 -0.0659
 1193SOL     OW15040   3.203   3.353   2.188  0.6345  0.0604  0.2416
 1193SOL    HW115041   3.237   3.269   2.157  3.7629  1.4073  0.0650
 1193SOL    HW215042   3.168   3.395   2.109  0.8686  0.3904  0.3126
 1194SOL     OW15043   4.213   0.097   6.328  0.0876 -0.0282 -0.6370
 1194SOL    HW115044   4.142   0.138   6.279 -0.7658 -0.2276  0.4134
 1194SOL    HW215045   4.258   0.059   6.253 -0.1382 -1.9075  0.1823
 1195SOL     OW15046   0.336   1.583  12.695  0.7441 -0.2244 -0.3849
 1195SOL    HW115047   0.263   1.528  12.722  1.5747 -1.1177  0.0658
 1195SOL    HW215048   0.316   1.656  12.752  0.2035 -0.4912 -0.2362
 1196SOL     OW15049   2.790   0.519  11.977 -0.3681  0.0046 -0.0382
 1196SOL    HW115050   2.788   0.424  11.970  0.6243 -0.1670  2.0613
 1196SOL    HW215051   2.789   0.543  12.069 -3.2232  1.7608 -0.5256
 1197SOL     OW15052   0.660   2.165   8.775 -0.6140  0.0951  0.9887
 1197SOL    HW115053   0.719   2.206   8.838  0.8071 -0.5417  0.0552
 1197SOL    HW215054   0.712   2.088   8.756  1.1819  1.1608  1.5901
 1198SOL     OW15055   4.719   1.867  11.696  0.7238 -0.4618 -0.2605
 1198SOL    HW115056   0.074   1.921  11.673  0.2164 -0.2141 -1.3540
 1198SOL    HW215057   4.661   1.887  11.623  0.5644 -0.0099 -0.0112
 1199SOL     OW15058   1.301   3.434   4.248  0.2546  0.0349  0.7000
 1199SOL    HW115059   1.223   3.389   4.281  0.2608 -0.7956 -0.4201
 1199SOL    HW215060   1.257   3.498   4.191  0.8144  0.5327  0.8350
 1200SOL     OW15061   3.969   4.542   5.756 -0.4704  0.0217 -0.0372
 1200SOL    HW115062   3.949   4.544   5.850 -0.0396  1.7428  0.0266
 1200SOL    HW215063   3.891   4.582   5.718 -1.2430 -0.8875  0.5804
 1201SOL     OW15064   3.298   1.029   6.075  0.1394  0.5152 -0.2295
 1201SOL    HW115065   3.314   0.972   6.150 -0.4076 -0.9787 -1.2358
 1201SOL    HW215066   3.326   1.112   6.113  0.1989  0.4408 -0.1132
 1202SOL     OW15067   1.813   2.103   6.399 -0.4101 -0.0605 -1.0688
 1202SOL    HW115068   1.855   2.178   6.441 -2.0076  0.9518 -1.2772
 1202SOL    HW215069   1.861   2.029   6.436 -1.5944 -0.0418  0.5018
 1203SOL     OW15070   3.219   1.625   8.894 -0.5767  0.5796 -0.1965
 1203SOL    HW115071   3.194   1.576   8.816  1.2988 -1.0102  0.1977
 1203SOL    HW215072   3.130   1.651   8.919  0.5619  2.4033  2.0020
 1204SOL     OW15073   2.223   1.093   6.110  0.0620  0.3429 -0.7181
 1204SOL    HW115074   2.305   1.135   6.136 -0.6803  0.8641  0.7507
 1204SOL    HW215075   2.152   1.150   6.138 -0.4780  0.5193 -2.4432
 1205SOL     OW15076   3.861   3.264   8.592 -0.3863 -0.6494 -0.4009
 1205SOL    HW115077   3.874   3.357   8.573  0.0866 -0.6279 -0.0083
 1205SOL    HW215078   3.891   3.224   8.511 -0.0850 -1.0141 -0.1091
 1206SOL     OW15079   4.557   2.304  17.378  0.3334 -0.7146 -0.4307
 1206SOL    HW115080   4.542   2.241  17.308  0.5311 -0.4477 -0.7146
 1206SOL    HW215081   4.553   2.385  17.326  2.6480 -1.2420 -1.4102
 1207SOL     OW15082   1.425   1.674   6.657 -0.0717 -0.4394  0.0610
 1207SOL    HW115083   1.436   1.742   6.590  0.0084 -1.1490 -0.6500
 1207SOL    HW215084   1.349   1.704   6.707  1.2513  1.2200  1.0670
 1208SOL     OW15085   3.639   1.359   7.545 -0.4628 -0.5296 -0.0061
 1208SOL    HW115086   3.686   1.284   7.510 -0.1511  0.6819 -2.1522
 1208SOL    HW215087   3.548   1.330   7.556 -0.1566 -1.5305 -0.1475
 1209SOL     OW15088   4.196   0.511   7.868  0.2151  0.0364 -0.2053
 1209SOL    HW115089   4.210   0.494   7.775 -0.6057 -0.9138 -0.1521
 1209SOL    HW215090   4.103   0.527   7.884  0.4647  0.1449  1.1495
 1210SOL     OW15091   3.635   2.168   6.284 -0.0023  0.0462  0.2532
 1210SOL    HW115092   3.677   2.253   6.298  0.3568 -0.1278  0.2241
 1210SOL    HW215093   3.697   2.097   6.299 -0.1041 -0.0847  0.0523
 1211SOL     OW15094   4.617   1.858  16.374  0.2370 -0.6722 -0.0432
 1211SOL    HW115095   4.568   1.871  16.455  0.5040 -0.8595  0.1505
 1211SOL    HW215096   4.552   1.814  16.319 -1.9966  0.3628  1.7463
 1212SOL     OW15097   3.888   4.376   8.089  0.2070  0.1716 -0.5229
 1212SOL    HW115098   3.856   4.387   8.179 -0.5013 -0.0951 -0.7426
 1212SOL    HW215099   3.974   4.416   8.102  0.3573  0.5935 -2.8918
 1213SOL     OW15100   0.090   2.387   3.479 -0.4988 -0.0786 -0.3678
 1213SOL    HW115101   0.023   2.326   3.447  0.4965 -0.1065 -2.4157
 1213SOL    HW215102   0.072   2.391   3.573  0.4385  0.1681 -0.1974
 1214SOL     OW15103   1.956   1.029  17.104 -0.0764 -0.7088  0.1369
 1214SOL    HW115104   1.994   1.117  17.101 -3.4390  0.7528 -0.3678
 1214SOL    HW215105   2.026   0.982  17.149 -1.0976 -3.4570 -1.1409
 1215SOL     OW15106   3.142   3.071   5.314  0.2733  0.3049 -0.2825
 1215SOL    HW115107   3.056   3.090   5.277 -0.7949 -0.7510  1.6838
 1215SOL    HW215108   3.116   3.078   5.405 -2.1999 -0.4557 -0.9209
 1216SOL     OW15109   0.906   4.030  13.964 -0.3406  0.1317  0.1712
 1216SOL    HW115110   0.922   4.017  13.871  0.9060  1.4790  0.2088
 1216SOL    HW215111   0.957   4.110  13.975 -0.1059  0.2881 -2.0429
 1217SOL     OW15112   0.422   4.354  12.490  0.2175  0.6517  0.0506
 1217SOL    HW115113   0.426   4.313  12.576  0.0175  1.0652  0.2553
 1217SOL    HW215114   0.513   4.334  12.465 -0.0905  0.3138 -0.8017
 1218SOL     OW15115   0.355   0.269  16.724  0.9413  0.0624  0.0701
 1218SOL    HW115116   0.397   0.195  16.769  3.0377  0.8819 -0.5274
 1218SOL    HW215117   0.333   0.328  16.796 -0.1163  0.4000 -0.5453
 1219SOL     OW15118   3.231   0.396   9.331  0.3418  0.0826  0.0475
 1219SOL    HW115119   3.149   0.421   9.373 -0.1421 -1.0946 -0.2078
 1219SOL    HW215120   3.247   0.308   9.366  1.1219  0.6680  1.1634
 1220SOL     OW15121   0.064   4.041  12.594  0.2094  0.2599 -0.0309
 1220SOL    HW115122   0.155   4.025  12.617  0.3512  1.1792  0.0385
 1220SOL    HW215123   0.084   4.102  12.523 -0.5664  0.1238 -0.3739
 1221SOL     OW15124   2.815   3.575   6.104  0.2769  0.6646 -0.2768
 1221SOL    HW115125   2.779   3.662   6.087  0.2181  0.6666 -0.1378
 1221SOL    HW215126   2.758   3.520   6.050  0.4274  0.8840 -0.6663
 1222SOL     OW15127   3.120   4.715   4.772 -0.3548 -0.5728 -0.3432
 1222SOL    HW115128   3.124   0.071   4.827 -0.7550 -0.2188 -0.8111
 1222SOL    HW215129   3.113   4.649   4.841  0.4083 -1.1056 -0.7730
 1223SOL     OW15130   4.129   3.516   7.081  0.3493  0.4256 -0.3871
 1223SOL    HW115131   4.109   3.555   7.166  0.0757 -1.0806  0.2309
 1223SOL    HW215132   4.046   3.527   7.035 -0.6831 -3.3362  0.5778
 1224SOL     OW15133   4.088   3.727   5.853 -0.6963 -0.1870 -0.2745
 1224SOL    HW115134   4.036   3.808   5.853  0.0871  0.3100 -1.3533
 1224SOL    HW215135   4.146   3.737   5.929 -0.5634  1.0767 -0.5412
 1225SOL     OW15136   4.363   1.282  10.401 -1.1946  0.1727  0.8917
 1225SOL    HW115137   4.383   1.366  10.360  1.0316 -1.5631 -1.5660
 1225SOL    HW215138   4.324   1.247  10.321 -1.1589 -2.7129  2.1437
 1226SOL     OW15139   3.098   0.271   8.056 -0.0017  0.0140 -0.7028
 1226SOL    HW115140   3.182   0.226   8.068 -1.0355 -1.4748  0.8231
 1226SOL    HW215141   3.088   0.275   7.961 -3.6543 -1.7797 -0.3610
 1227SOL     OW15142   1.005   3.481   9.697 -0.6212 -0.2434 -0.3792
 1227SOL    HW115143   0.945   3.507   9.768  0.6894 -0.0735  0.6671
 1227SOL    HW215144   0.947   3.424   9.647  0.4364 -2.5445  1.0128
 1228SOL     OW15145   2.484   4.602   2.604  0.5023 -0.2865  0.2572
 1228SOL    HW115146   2.538   4.678   2.585  0.7222 -0.1799  1.3176
 1228SOL    HW215147   2.464   4.605   2.698 -0.3941 -1.6676  0.1182
 1229SOL     OW15148   2.534   2.779   8.787 -0.4359 -0.3260 -0.2998
 1229SOL    HW115149   2.630   2.786   8.782 -0.5796  1.6264 -0.3937
 1229SOL    HW215150   2.495   2.780   8.700  1.3751 -0.6662 -1.1190
 1230SOL     OW15151   3.512   1.463   2.826  0.6222 -0.1390  0.1781
 1230SOL    HW115152   3.499   1.391   2.888  2.9198 -0.9739 -0.3216
 1230SOL    HW215153   3.432   1.513   2.840 -1.4688 -2.9962 -1.6338
 1231SOL     OW15154   3.930   2.741  10.543 -0.1139 -0.3932 -0.4014
 1231SOL    HW115155   3.931   2.726  10.638 -1.2621  2.0814  0.0030
 1231SOL    HW215156   4.001   2.801  10.520 -1.0811  1.7575  2.1951
 1232SOL     OW15157   2.286   2.487  11.590  0.1978  0.1390 -0.2614
 1232SOL    HW115158   2.306   2.465  11.681  0.3380 -2.1067 -0.8601
 1232SOL    HW215159   2.212   2.429  11.574 -1.3406  1.9169  0.4390
 1233SOL     OW15160   1.721   1.290   2.025 -0.2161 -0.4928 -0.2776
 1233SOL    HW115161   1.765   1.281   1.940 -0.5933 -0.7000 -0.4469
 1233SOL    HW215162   1.735   1.206   2.068  3.4114 -0.1082 -0.6432
 1234SOL     OW15163   1.446   1.777   4.030  0.2863  0.9545 -0.4178
 1234SOL    HW115164   1.372   1.717   4.015  0.7501  0.1831  0.4232
 1234SOL    HW215165   1.443   1.769   4.125  1.3771 -0.4009 -0.5049
 1235SOL     OW15166   2.245   1.990   3.347  0.7650 -0.0334  0.3458
 1235SOL    HW115167   2.340   1.976   3.347  0.6309 -0.9356  0.4780
 1235SOL    HW215168   2.225   2.000   3.440 -0.1530  1.5852 -0.0195
 1236SOL     OW15169   2.854   2.932  15.308  1.0674  0.1642  0.0054
 1236SOL    HW115170   2.816   2.991  15.373 -0.5979  0.1731 -0.9962
 1236SOL    HW215171   2.797   2.857  15.325 -0.2976  0.8305 -1.7400
 1237SOL     OW15172   4.217   1.247   1.583  0.0618 -0.4680 -0.0270
 1237SOL    HW115173   4.270   1.167   1.584 -1.5931 -1.5660  0.2077
 1237SOL    HW215174   4.131   1.206   1.574  0.3465 -0.9851 -0.4244
 1238SOL     OW15175   0.026   2.331   7.939 -0.6543  0.1144 -0.3325
 1238SOL    HW115176   0.043   2.365   8.027 -0.3788  2.2677 -1.2261
 1238SOL    HW215177   0.069   2.400   7.889 -3.4545  0.0865 -2.7758
 1239SOL     OW15178   4.567   3.207  15.454 -0.5191  0.3371  0.3943
 1239SOL    HW115179   4.605   3.173  15.535  1.2787 -1.2014 -1.0703
 1239SOL    HW215180   4.589   3.141  15.387  2.1503 -0.2810  1.8656
 1240SOL     OW15181   4.680   4.041   9.693 -0.8460  0.3489 -0.7796
 1240SOL    HW115182   4.623   4.117   9.698 -0.4012  0.5582  0.8496
 1240SOL    HW215183   0.040   4.077   9.658 -0.6664  1.4783  0.8535
 1241SOL     OW15184   0.624   3.318   3.579  0.5690 -0.2525  0.0214
 1241SOL    HW115185   0.578   3.400   3.596  0.1182 -0.0968 -1.9589
 1241SOL    HW215186   0.664   3.338   3.494 -1.3689  1.2753 -0.5353
 1242SOL     OW15187   2.683   0.677   4.336  0.1547 -0.0478 -0.4616
 1242SOL    HW115188   2.765   0.665   4.384  0.7884 -0.2794 -1.5853
 1242SOL    HW215189   2.689   0.589   4.297  0.5523  0.2424 -1.0664
 1243SOL     OW15190   0.312   1.433   8.230  0.2527 -0.1316 -0.0652
 1243SOL    HW115191   0.404   1.443   8.203  0.2399 -1.4346 -0.5795
 1243SOL    HW215192   0.313   1.489   8.308  0.2866  1.3079 -1.0980
 1244SOL     OW15193   4.538   1.204  16.685  0.6762 -0.1568  0.5538
 1244SOL    HW115194   4.510   1.295  16.693 -1.1871 -0.6170 -0.8707
 1244SOL    HW215195   4.549   1.181  16.778  0.6784 -1.6157  0.1818
 1245SOL     OW15196   3.612   0.735  16.365  0.3197  0.1001  0.0902
 1245SOL    HW115197   3.672   0.789  16.417  0.1937 -0.0827  0.4251
 1245SOL    HW215198   3.623   0.653  16.413 -1.8960  0.6518  1.5197
 1246SOL     OW15199   3.754   3.508  11.357  0.1475  0.2446 -0.4121
 1246SOL    HW115200   3.752   3.446  11.285 -0.9248 -0.9851  0.6810
 1246SOL    HW215201   3.772   3.596  11.323  1.0690  0.3170  0.2477
 1247SOL     OW15202   3.984   3.296   7.699  0.2956  0.4919  0.3673
 1247SOL    HW115203   3.920   3.365   7.714 -2.5125 -1.6556 -1.7045
 1247SOL    HW215204   3.969   3.260   7.612  1.3313 -2.3413  1.3293
 1248SOL     OW15205   2.677   0.229   5.749  0.2865 -0.2648 -0.1512
 1248SOL    HW115206   2.748   0.205   5.690  0.7877  0.9243 -0.0159
 1248SOL    HW215207   2.664   0.142   5.787 -0.6874 -0.5156 -1.0408
 1249SOL     OW15208   0.848   4.332   4.434 -0.2344  0.0092  0.2230
 1249SOL    HW115209   0.753   4.338   4.438 -0.1844  0.4045  0.9696
 1249SOL    HW215210   0.854   4.237   4.437  0.3507  0.1358  3.2053
 1250SOL     OW15211   0.739   0.492   5.236 -0.1491  0.1418 -0.8113
 1250SOL    HW115212   0.818   0.511   5.184  0.7189 -2.3120 -0.4159
 1250SOL    HW215213   0.726   0.569   5.290  0.5181  1.1403 -2.0624
 1251SOL     OW15214   4.045   2.264  15.678  0.5003 -0.0463  0.7647
 1251SOL    HW115215   4.139   2.284  15.671  0.6756 -0.9689  0.5042
 1251SOL    HW215216   4.049   2.169  15.672  1.5207  0.2021 -2.4473
 1252SOL     OW15217   0.995   1.786  15.009  0.1152 -0.1417  0.1660
 1252SOL    HW115218   0.968   1.872  15.042 -0.7780 -0.0223 -0.8918
 1252SOL    HW215219   0.937   1.763  14.937  1.6920 -1.2459 -0.7639
 1253SOL     OW15220   2.367   3.463   7.632 -0.4704  0.8443 -0.2730
 1253SOL    HW115221   2.369   3.508   7.717  0.5298 -0.9369  0.6438
 1253SOL    HW215222   2.311   3.391   7.659  0.8446  0.5393  1.6414
 1254SOL     OW15223   4.352   0.119  13.538  0.0098 -0.4751 -0.0827
 1254SOL    HW115224   4.258   0.099  13.537 -0.0524 -0.1991  0.2476
 1254SOL    HW215225   4.379   0.107  13.447 -0.4086 -1.1909 -0.1108
 1255SOL     OW15226   2.399   4.275   3.778  0.6486  0.0624  0.2601
 1255SOL    HW115227   2.348   4.291   3.857  0.8034  3.4270 -0.2923
 1255SOL    HW215228   2.336   4.296   3.709  1.1208 -2.1697 -0.8305
 1256SOL     OW15229   3.573   1.416   3.625 -0.1223 -0.0387 -0.7886
 1256SOL    HW115230   3.535   1.340   3.581  3.2058 -1.0838 -1.8049
 1256SOL    HW215231   3.531   1.490   3.580 -0.8990 -0.1324 -0.2311
 1257SOL     OW15232   0.118   4.623   3.879 -0.0024  0.0308 -0.4600
 1257SOL    HW115233   0.181   4.619   3.808  1.4039 -1.5018  0.8741
 1257SOL    HW215234   0.031   4.606   3.843 -1.2303  1.1184  1.9076
 1258SOL     OW15235   0.539   2.091   7.789 -0.0196 -0.0672 -0.5363
 1258SOL    HW115236   0.479   2.146   7.839  0.2481 -1.6465  1.5037
 1258SOL    HW215237   0.558   2.024   7.854 -0.5733  1.7806  1.5104
 1259SOL     OW15238   3.682   3.167   1.298 -0.0966  0.3583  0.4854
 1259SOL    HW115239   3.689   3.179   1.393  0.6682 -1.2433  0.6210
 1259SOL    HW215240   3.596   3.206   1.282 -0.6988 -1.8482 -1.7171
 1260SOL     OW15241   1.641   2.285   5.374 -0.3129 -0.0751  0.0170
 1260SOL    HW115242   1.622   2.192   5.357  2.4448 -0.7408  0.5646
 1260SOL    HW215243   1.560   2.301   5.422  0.5247  3.1060  0.3456
 1261SOL     OW15244   0.225   1.122  16.742  0.2545  0.0870  0.5544
 1261SOL    HW115245   0.270   1.072  16.674 -2.4684  0.8976 -1.8428
 1261SOL    HW215246   0.286   1.192  16.764  2.5030 -1.2311 -1.4437
 1262SOL     OW15247   3.970   1.877  16.500  0.2160  0.3743 -0.0978
 1262SOL    HW115248   4.028   1.802  16.482 -0.4811 -0.8288  2.7095
 1262SOL    HW215249   3.941   1.854  16.588 -0.8278 -1.5881 -0.9386
 1263SOL     OW15250   3.088   1.218   6.663 -0.1013  0.1689 -0.0477
 1263SOL    HW115251   3.088   1.198   6.570  1.5751  0.5090 -0.1177
 1263SOL    HW215252   3.021   1.154   6.686  0.6105 -0.1644  1.1228
 1264SOL     OW15253   3.712   4.394   4.854  0.1545  0.2502  0.6127
 1264SOL    HW115254   3.776   4.449   4.899  0.5972 -0.1203  0.4394
 1264SOL    HW215255   3.770   4.341   4.800 -0.3889  0.8077 -0.5239
 1265SOL     OW15256   2.559   0.106   5.311 -0.1152  0.0765 -0.0731
 1265SOL    HW115257   2.509   0.159   5.374 -0.9819 -0.5001 -0.2657
 1265SOL    HW215258   2.651   0.130   5.320  0.0905 -0.2485 -1.2720
 1266SOL     OW15259   1.312   1.980  17.205 -0.0511  0.0734  0.4855
 1266SOL    HW115260   1.231   2.028  17.216 -0.9524 -0.7671 -2.6334
 1266SOL    HW215261   1.357   2.039  17.144  1.0207 -0.1423  1.0518
 1267SOL     OW15262   1.022   1.353   2.811  0.0013  0.3417  0.4551
 1267SOL    HW115263   0.936   1.335   2.848  0.5056 -0.0356  1.4554
 1267SOL    HW215264   1.082   1.299   2.863  0.6067 -0.8432 -1.4350
 1268SOL     OW15265   2.983   0.710   7.618 -0.1937 -0.1441  0.2784
 1268SOL    HW115266   3.027   0.627   7.599 -1.1966 -0.5126 -0.3905
 1268SOL    HW215267   2.893   0.679   7.628 -1.2254  2.2753 -1.4841
 1269SOL     OW15268   4.367   1.922   7.383  0.1922 -0.1818  0.1770
 1269SOL    HW115269   4.281   1.879   7.377  0.9668 -1.3371 -2.5584
 1269SOL    HW215270   4.418   1.847   7.352 -0.9361 -1.4976  1.4682
 1270SOL     OW15271   1.825   2.586  16.409  0.2158  0.0765 -0.3368
 1270SOL    HW115272   1.811   2.540  16.326 -1.6243  0.6141 -0.3230
 1270SOL    HW215273   1.764   2.535  16.462 -0.8562  1.3334 -0.3667
 1271SOL     OW15274   2.620   0.606   4.751 -0.1020  0.5436  0.2560
 1271SOL    HW115275   2.672   0.596   4.830  1.3254  1.8274 -0.5109
 1271SOL    HW215276   2.608   0.517   4.720 -0.8278  0.2699  1.3369
 1272SOL     OW15277   2.764   3.246  16.077 -0.7275 -0.6847  0.2054
 1272SOL    HW115278   2.843   3.203  16.109  0.0410 -0.9869 -2.0718
 1272SOL    HW215279   2.719   3.170  16.041 -2.5754  1.0799 -1.2126
 1273SOL     OW15280   3.297   2.643   2.802 -0.6452  0.5375 -0.0415
 1273SOL    HW115281   3.353   2.693   2.861  0.8186 -0.1190 -0.8860
 1273SOL    HW215282   3.360   2.578   2.770 -0.9664 -0.5721  1.5882
 1274SOL     OW15283   3.588   4.443   0.565  0.0880 -1.2888  0.0398
 1274SOL    HW115284   3.564   4.418   0.476 -0.4743  2.3417 -0.7928
 1274SOL    HW215285   3.505   4.479   0.596  0.8802  0.0500  0.6087
 1275SOL     OW15286   1.278   0.851   2.870 -0.1014 -0.3757  0.1800
 1275SOL    HW115287   1.231   0.838   2.952 -0.9733 -1.8049 -0.5426
 1275SOL    HW215288   1.350   0.788   2.873  1.1554  0.9431 -2.0109
 1276SOL     OW15289   3.348   3.088  16.136 -0.3243 -0.5278 -0.1457
 1276SOL    HW115290   3.394   3.127  16.062  0.6372 -0.1476  0.6567
 1276SOL    HW215291   3.292   3.016  16.106 -0.4989 -0.6232  0.4085
 1277SOL     OW15292   2.986   0.634   1.858 -0.5601  0.0642 -0.0923
 1277SOL    HW115293   2.950   0.722   1.843  1.3060  0.4793 -2.1007
 1277SOL    HW215294   3.037   0.652   1.937 -1.7146  0.8708  0.4670
 1278SOL     OW15295   1.865   2.524  10.335 -0.3544 -0.3159  0.2826
 1278SOL    HW115296   1.836   2.538  10.245  0.0834  0.0232  0.1973
 1278SOL    HW215297   1.854   2.608  10.379 -2.1222 -0.9327  1.0383
 1279SOL     OW15298   3.070   4.244   3.237  0.0837 -0.5226  0.3266
 1279SOL    HW115299   3.067   4.165   3.183  1.9642 -1.5273  1.6853
 1279SOL    HW215300   3.162   4.253   3.263  0.3457 -1.3343 -0.3467
 1280SOL     OW15301   0.131   3.904   0.815 -0.0925 -0.2791 -0.9428
 1280SOL    HW115302   0.119   3.943   0.902  0.3624 -2.1631 -0.0240
 1280SOL    HW215303   0.041   3.899   0.783 -0.7855 -0.4339  0.9806
 1281SOL     OW15304   2.155   4.046   4.864 -1.1677 -0.1116  0.1404
 1281SOL    HW115305   2.181   3.979   4.927  0.8074 -0.0287 -0.5734
 1281SOL    HW215306   2.171   4.131   4.906 -0.5309  0.3880 -1.1094
 1282SOL     OW15307   4.233   0.395   7.586  0.5713 -0.0900 -0.6155
 1282SOL    HW115308   4.189   0.320   7.627  1.5186 -0.2452  0.1183
 1282SOL    HW215309   4.263   0.353   7.505 -3.0412  0.7010 -2.3429
 1283SOL     OW15310   3.109   2.231   5.025  0.1864  0.2600 -0.0916
 1283SOL    HW115311   3.156   2.271   4.951 -0.4291  1.0891 -0.0417
 1283SOL    HW215312   3.039   2.293   5.047  1.0449  1.3307 -0.3555
 1284SOL     OW15313   0.034   1.756   8.944  0.2259  0.1987  0.2987
 1284SOL    HW115314   0.111   1.731   8.894  1.6565  2.0099  1.6222
 1284SOL    HW215315   4.680   1.729   8.892 -0.3835  1.5323  0.5022
 1285SOL     OW15316   2.608   0.478   5.675 -0.0658 -0.1113  0.2794
 1285SOL    HW115317   2.671   0.526   5.729  1.9805 -3.0150  0.4658
 1285SOL    HW215318   2.612   0.389   5.710 -0.5852 -0.0568  0.4688
 1286SOL     OW15319   3.173   3.165   6.444  0.2439 -0.0495  0.9402
 1286SOL    HW115320   3.201   3.244   6.490 -0.9554  1.1664 -0.4185
 1286SOL    HW215321   3.165   3.196   6.354  1.5313 -0.9164  0.5378
 1287SOL     OW15322   0.060   0.939   1.735  0.6614  0.4420  0.3858
 1287SOL    HW115323   0.004   0.890   1.675  3.6305 -0.3679 -1.7665
 1287SOL    HW215324   0.144   0.896   1.714  0.6590  0.8670 -0.4996
 1288SOL     OW15325   2.834   1.741   7.902 -0.1317 -0.5860  0.4105
 1288SOL    HW115326   2.837   1.661   7.955 -0.3396 -3.4329 -3.8468
 1288SOL    HW215327   2.749   1.735   7.857 -0.9991  1.3226  1.7765
 1289SOL     OW15328   2.100   1.064   3.709 -0.3444  0.1978 -0.1451
 1289SOL    HW115329   2.050   1.085   3.630  0.0217 -0.7142 -0.6282
 1289SOL    HW215330   2.044   0.997   3.749  1.7310 -1.2759  0.3098
 1290SOL     OW15331   2.274   3.126   9.861  0.9362  0.0540 -0.1843
 1290SOL    HW115332   2.210   3.083   9.918  0.3970 -0.1983 -0.9763
 1290SOL    HW215333   2.291   3.206   9.911 -0.4629 -0.1610  0.6331
 1291SOL     OW15334   3.529   3.360  15.354 -0.7660 -0.1616  0.0551
 1291SOL    HW115335   3.596   3.292  15.351  0.0577  0.7031 -1.2361
 1291SOL    HW215336   3.570   3.441  15.386  1.5924 -0.8932 -1.0859
 1292SOL     OW15337   2.069   0.934   2.599 -0.7652  0.4031 -0.4349
 1292SOL    HW115338   2.014   0.856   2.592 -0.6347  0.3045 -0.3662
 1292SOL    HW215339   2.036   0.968   2.683 -0.1634 -0.3140  0.0921
 1293SOL     OW15340   4.428   2.960  10.135 -0.2854 -0.0090 -0.4752
 1293SOL    HW115341   4.340   2.943  10.168 -0.4072  1.1540 -0.1877
 1293SOL    HW215342   4.431   3.052  10.162  0.2124 -0.5558  1.2809
 1294SOL     OW15343   4.648   2.984  12.037 -0.1723  0.1063 -0.1260
 1294SOL    HW115344   4.705   2.989  11.961  1.4164  1.0512  1.1385
 1294SOL    HW215345   4.606   3.069  12.048  0.9022  0.4500  1.3822
 1295SOL     OW15346   3.838   2.875   7.411  0.1552 -0.1177  0.0496
 1295SOL    HW115347   3.847   2.850   7.503 -1.6719  2.2171  0.8234
 1295SOL    HW215348   3.769   2.818   7.377 -1.4134  1.8405  0.0308
 1296SOL     OW15349   0.541   3.563  10.212  0.4782  0.3459  0.9147
 1296SOL    HW115350   0.473   3.607  10.264 -0.1442 -0.4875  0.8102
 1296SOL    HW215351   0.497   3.537  10.131 -0.8486 -1.8532  2.3379
 1297SOL     OW15352   4.089   3.994   3.625 -0.3054 -0.2184  0.0173
 1297SOL    HW115353   4.116   4.041   3.546 -3.6809  0.5382 -0.6687
 1297SOL    HW215354   4.034   4.054   3.675 -0.4422 -0.0486 -0.3395
 1298SOL     OW15355   4.116   1.097   6.692 -0.0841 -0.5188  0.2600
 1298SOL    HW115356   4.202   1.059   6.675  0.5714  1.1596 -0.1703
 1298SOL    HW215357   4.101   1.038   6.766 -2.3602  0.8144  0.8560
 1299SOL     OW15358   0.840   0.143   6.051 -0.1333 -0.0600 -0.0804
 1299SOL    HW115359   0.830   0.051   6.026 -1.3119  0.0098  0.1255
 1299SOL    HW215360   0.778   0.179   5.987 -0.7863  0.0952  0.6436
 1300SOL     OW15361   2.664   1.074   1.440  0.2237 -0.6610 -0.3205
 1300SOL    HW115362   2.684   1.108   1.353 -2.5745  0.0529 -0.6852
 1300SOL    HW215363   2.605   1.003   1.415  0.5522 -2.0999  3.0613
 1301SOL     OW15364   3.719   4.357   7.835  0.2554 -0.6792 -0.3699
 1301SOL    HW115365   3.711   4.413   7.912 -1.5871 -0.0364 -1.0152
 1301SOL    HW215366   3.770   4.285   7.872  1.7664  0.1877 -0.7633
 1302SOL     OW15367   1.992   1.316  17.131  0.4411 -0.4128  0.6802
 1302SOL    HW115368   1.993   1.400  17.176  0.4176 -1.7138  3.1105
 1302SOL    HW215369   2.069   1.326  17.076 -1.6519 -0.8551 -2.3624
 1303SOL     OW15370   4.661   3.793   2.896  0.5539  0.8042  0.5017
 1303SOL    HW115371   0.001   3.804   2.967  0.8426  2.0900  0.0653
 1303SOL    HW215372   4.591   3.857   2.913  0.0230  0.2804  0.2752
 1304SOL     OW15373   3.678   0.638   1.618  0.4025  0.1720  0.0219
 1304SOL    HW115374   3.655   0.559   1.568 -1.9873  1.5519 -1.0496
 1304SOL    HW215375   3.735   0.598   1.683  0.7278  0.8952  0.1849
 1305SOL     OW15376   2.650   4.696   9.789 -0.4574  0.7824  0.2969
 1305SOL    HW115377   2.667   0.063   9.819 -0.8132  1.1908 -0.7466
 1305SOL    HW215378   2.592   4.715   9.716 -0.2118 -0.4970 -0.2311
 1306SOL     OW15379   3.027   4.191  17.158 -0.3838 -0.2786 -0.5238
 1306SOL    HW115380   2.976   4.129  17.107  0.8633 -1.5394 -0.2370
 1306SOL    HW215381   3.007   4.275  17.117  1.2340  0.5636  0.3733
 1307SOL     OW15382   2.044   3.490  13.637 -0.0040 -0.1334  0.2491
 1307SOL    HW115383   1.980   3.558  13.620  1.8005  1.4485 -0.2347
 1307SOL    HW215384   2.052   3.436  13.558 -1.0118  1.8865 -1.2262
 1308SOL     OW15385   0.208   1.147   8.693  0.9799 -0.1723 -0.4065
 1308SOL    HW115386   0.177   1.200   8.766  1.2688  1.3495 -1.3784
 1308SOL    HW215387   0.298   1.140   8.724 -0.2063 -2.8467  2.3596
 1309SOL     OW15388   0.477   1.457   3.003 -0.7491 -0.5431  0.2897
 1309SOL    HW115389   0.524   1.537   3.024 -2.8532  0.4307  1.2540
 1309SOL    HW215390   0.454   1.465   2.910 -0.3635 -0.1696  0.2288
 1310SOL     OW15391   3.697   1.211   4.741 -0.7231  0.1848  0.2276
 1310SOL    HW115392   3.735   1.159   4.671  0.4850  1.9614 -0.4183
 1310SOL    HW215393   3.762   1.277   4.766 -0.2368  0.8751 -2.8971
 1311SOL     OW15394   2.841   2.937  15.020  0.4139  0.4489  0.5719
 1311SOL    HW115395   2.760   2.988  15.007 -0.1744 -0.1034  2.0449
 1311SOL    HW215396   2.855   2.940  15.115  1.7043  1.6629  0.3446
 1312SOL     OW15397   4.414   4.069   3.713  0.7474 -0.1378 -0.5664
 1312SOL    HW115398   4.377   4.125   3.644  0.3452 -0.2098 -0.4037
 1312SOL    HW215399   4.398   3.977   3.693  2.2884 -0.3812 -0.6737
 1313SOL     OW15400   3.319   4.260   8.758 -0.3438  0.1337 -0.6108
 1313SOL    HW115401   3.238   4.259   8.706 -1.4821 -2.3609  1.1777
 1313SOL    HW215402   3.371   4.327   8.714 -0.1177  0.2003 -0.2339
 1314SOL     OW15403   0.265   3.300   6.343  0.5320 -0.0881 -0.4910
 1314SOL    HW115404   0.200   3.366   6.317  0.0093  1.0374  3.7609
 1314SOL    HW215405   0.215   3.227   6.381  0.6202  0.6436  1.0113
 1315SOL     OW15406   3.532   3.920   4.059 -0.7032 -0.3719  0.2497
 1315SOL    HW115407   3.508   4.010   4.082  0.9405 -0.3848  2.0531
 1315SOL    HW215408   3.624   3.936   4.038 -0.5300 -0.2755  1.0950
 1316SOL     OW15409   0.186   0.273  15.903  0.3197  0.0867  0.2083
 1316SOL    HW115410   0.248   0.248  15.972  1.8152  3.4371  0.0866
 1316SOL    HW215411   0.123   0.326  15.951 -2.2962 -1.6155 -1.3965
 1317SOL     OW15412   1.108   0.219   7.920 -0.3467  0.3615 -0.4013
 1317SOL    HW115413   1.110   0.314   7.928  1.4964  0.5280 -2.7771
 1317SOL    HW215414   1.015   0.200   7.909  0.1327 -2.2203  0.0171
 1318SOL     OW15415   0.255   4.410   0.741  0.0300 -0.0747 -0.8371
 1318SOL    HW115416   0.325   4.467   0.712 -0.4030  0.5462 -0.6718
 1318SOL    HW215417   0.217   4.371   0.662 -1.9774  0.1464  0.0052
 1319SOL     OW15418   4.306   3.983   4.986 -0.1385 -0.0933 -0.3982
 1319SOL    HW115419   4.244   3.918   5.019  2.2321 -2.2042 -0.1268
 1319SOL    HW215420   4.280   3.982   4.894 -0.8411 -1.6680 -0.1765
 1320SOL     OW15421   4.155   2.735  17.242 -0.0965 -0.2521 -0.4589
 1320SOL    HW115422   4.129   2.744  17.150  1.5772  1.6768 -0.7308
 1320SOL    HW215423   4.090   2.794  17.281 -0.4068 -0.2412 -0.9874
 1321SOL     OW15424   1.389   0.938   6.046 -0.1456  0.3660 -0.1829
 1321SOL    HW115425   1.318   0.990   6.084  0.8549  0.6589  1.2820
 1321SOL    HW215426   1.437   0.996   5.987  1.0310  0.6425  1.0436
 1322SOL     OW15427   0.356   0.540   3.001  0.1560  0.3747 -0.3518
 1322SOL    HW115428   0.362   0.558   3.095  0.3418 -0.5619 -0.1864
 1322SOL    HW215429   0.446   0.569   2.987  0.1757  0.4511 -0.0601
 1323SOL     OW15430   4.299   0.744   1.670 -0.2934 -0.0029 -0.5312
 1323SOL    HW115431   4.359   0.815   1.647 -2.1587  2.3575  1.8400
 1323SOL    HW215432   4.364   0.676   1.688 -0.9695 -0.7794 -1.0368
 1324SOL     OW15433   4.119   4.404   0.115 -0.0553 -0.1133  0.1624
 1324SOL    HW115434   4.124   4.309   0.121 -1.0471 -0.0035  2.6781
 1324SOL    HW215435   4.155   4.429   0.029 -1.1042  1.0010  0.0485
 1325SOL     OW15436   1.746   0.441   0.415 -0.4719 -0.0270 -0.0682
 1325SOL    HW115437   1.822   0.396   0.451  0.5587  0.4250 -1.6975
 1325SOL    HW215438   1.773   0.532   0.428  1.0151 -0.2292 -1.8471
 1326SOL     OW15439   2.779   0.576  13.953 -0.3602 -0.3621 -0.6733
 1326SOL    HW115440   2.733   0.660  13.964  0.9046 -0.0886  2.5507
 1326SOL    HW215441   2.865   0.596  13.992 -0.8484  0.3702  0.0533
 1327SOL     OW15442   1.350   2.522   4.901  0.3024  0.0847  0.0150
 1327SOL    HW115443   1.432   2.510   4.950  0.9626 -0.3259 -1.1985
 1327SOL    HW215444   1.374   2.536   4.810 -0.6095 -0.8083 -0.3566
 1328SOL     OW15445   2.001   0.227  16.970  0.3184  0.1703 -0.0063
 1328SOL    HW115446   1.926   0.206  17.026  0.2370 -0.1658 -0.2414
 1328SOL    HW215447   1.997   0.156  16.906 -1.6332 -0.2493  0.5643
 1329SOL     OW15448   3.098   3.611   5.049 -0.5158 -0.0129  0.2690
 1329SOL    HW115449   3.153   3.686   5.072 -0.0960 -0.2931  0.1705
 1329SOL    HW215450   3.164   3.552   5.015 -0.3613  0.5768 -0.4560
 1330SOL     OW15451   4.622   0.446   4.334  0.2408 -0.2061 -0.2027
 1330SOL    HW115452   4.591   0.529   4.296  0.7731  0.2178  0.3055
 1330SOL    HW215453   4.703   0.479   4.371  1.4927 -0.3533 -2.7968
 1331SOL     OW15454   2.097   1.770   9.914  0.4809 -0.4850 -0.6216
 1331SOL    HW115455   2.053   1.761   9.830 -1.5507 -1.5571  0.5548
 1331SOL    HW215456   2.045   1.703   9.959  1.0829  0.2542  1.1939
 1332SOL     OW15457   0.532   3.574   6.251 -0.1720  0.5321  0.5293
 1332SOL    HW115458   0.524   3.479   6.256  2.0000  0.2762 -1.0629
 1332SOL    HW215459   0.626   3.588   6.237 -0.0745 -1.4447 -0.7640
 1333SOL     OW15460   1.369   3.918  12.123  0.0042 -0.7905 -0.1359
 1333SOL    HW115461   1.308   3.890  12.055 -0.4339 -0.5965  0.1726
 1333SOL    HW215462   1.427   3.842  12.121 -2.0304 -2.3465  0.5684
 1334SOL     OW15463   4.343   0.895   7.829 -0.0932 -0.0882 -0.5875
 1334SOL    HW115464   4.288   0.831   7.875  1.3145  2.5265  4.6920
 1334SOL    HW215465   4.422   0.894   7.882  0.8172  0.4433 -1.9528
 1335SOL     OW15466   4.444   2.376  13.501  0.2138  0.3987  0.1625
 1335SOL    HW115467   4.434   2.281  13.491  1.2779  0.0418  2.5411
 1335SOL    HW215468   4.420   2.382  13.593 -0.0580 -1.2002  0.2049
 1336SOL     OW15469   3.210   0.853   3.613 -0.6692 -0.1102 -0.2308
 1336SOL    HW115470   3.138   0.791   3.613 -0.8934  0.1519 -0.8300
 1336SOL    HW215471   3.172   0.941   3.614 -1.6010 -0.5084 -1.1639
 1337SOL     OW15472   2.130   4.268   5.026  0.1314 -0.1786 -0.1570
 1337SOL    HW115473   2.137   4.277   5.121  1.4021 -0.9610 -0.1672
 1337SOL    HW215474   2.056   4.322   4.999 -0.9747 -0.9037  1.3999
 1338SOL     OW15475   1.862   1.576   7.056  0.2321  0.8603 -0.1678
 1338SOL    HW115476   1.783   1.625   7.034  0.4620  1.0941 -0.4744
 1338SOL    HW215477   1.919   1.604   6.984  0.1097  2.2263  0.2589
 1339SOL     OW15478   0.848   4.508  14.625  0.2719 -0.4798  0.7855
 1339SOL    HW115479   0.940   4.483  14.627  0.3680 -0.3185 -1.7269
 1339SOL    HW215480   0.852   4.595  14.664  2.1070  0.4698 -1.5556
 1340SOL     OW15481   2.266   2.336  16.131 -0.1146  0.3260 -0.6110
 1340SOL    HW115482   2.220   2.252  16.124  0.1532  0.0559  0.7957
 1340SOL    HW215483   2.272   2.367  16.041 -0.6583 -1.3070 -1.2011
 1341SOL     OW15484   0.386   2.795  11.945 -0.2663 -0.2400 -0.3549
 1341SOL    HW115485   0.471   2.798  11.990  0.4943 -1.3897 -1.6948
 1341SOL    HW215486   0.393   2.886  11.914 -0.9606 -0.8502 -2.3181
 1342SOL     OW15487   0.140   2.997  12.258  0.6481  0.2126  0.4142
 1342SOL    HW115488   0.205   2.959  12.316 -1.4990 -2.0806  1.3451
 1342SOL    HW215489   0.137   3.086  12.292  0.7242  1.2930 -2.4574
 1343SOL     OW15490   1.824   2.890  16.350 -0.1367  0.2376  0.5390
 1343SOL    HW115491   1.835   2.883  16.255 -1.5147 -0.1354  0.4144
 1343SOL    HW215492   1.731   2.910  16.359 -0.3038  0.4954 -1.7065
 1344SOL     OW15493   3.847   3.260  17.432 -0.2007 -0.1652 -0.2826
 1344SOL    HW115494   3.914   3.327  17.419 -1.8139  1.2877 -1.1093
 1344SOL    HW215495   3.791   3.271  17.355 -0.6556  1.3103  0.2764
 1345SOL     OW15496   0.246   4.672   0.040  0.2289 -0.0025  0.0124
 1345SOL    HW115497   0.216   4.642   0.126 -1.1330  2.1640  0.2857
 1345SOL    HW215498   0.179   4.639  17.668  0.5294  1.7711 -1.2593
 1346SOL     OW15499   1.524   0.477   6.259 -0.2539 -0.0367  0.2983
 1346SOL    HW115500   1.497   0.447   6.172 -0.1721  1.8037 -0.3652
 1346SOL    HW215501   1.611   0.509   6.238  0.2069 -1.4078  0.0770
 1347SOL     OW15502   4.317   2.958   6.600 -1.1182 -0.1787 -0.4715
 1347SOL    HW115503   4.285   2.871   6.576 -2.0083  0.2000 -0.6413
 1347SOL    HW215504   4.243   3.000   6.644 -0.1430 -0.2488  1.2210
 1348SOL     OW15505   3.821   4.570   9.605  0.2738 -0.4794 -0.4834
 1348SOL    HW115506   3.730   4.570   9.575 -0.8193 -1.8875  2.8543
 1348SOL    HW215507   3.810   4.622   9.684  0.9651  0.5865 -1.0926
 1349SOL     OW15508   4.447   4.218   5.027  0.3158  0.2213  0.0404
 1349SOL    HW115509   4.397   4.137   5.018  0.6118  0.0042  0.3494
 1349SOL    HW215510   4.516   4.219   4.961  1.3412  0.6732  1.1173
 1350SOL     OW15511   4.154   0.342   8.683 -0.0380  0.7258  0.3272
 1350SOL    HW115512   4.231   0.346   8.627 -0.1957 -0.1714  0.0504
 1350SOL    HW215513   4.149   0.429   8.723 -0.1723  0.5409  0.7181
 1351SOL     OW15514   0.015   4.601   2.736  0.3299 -0.7193 -0.2971
 1351SOL    HW115515   0.072   4.562   2.802 -1.4209 -1.8404  0.5382
 1351SOL    HW215516   4.665   4.539   2.728 -1.2688  1.1947 -0.6980
 1352SOL     OW15517   2.209   2.695   9.442 -0.6250  0.1087  0.3189
 1352SOL    HW115518   2.173   2.783   9.452  0.3683  0.4631  0.6923
 1352SOL    HW215519   2.214   2.660   9.531 -0.0338  1.0891  0.6749
 1353SOL     OW15520   2.927   0.163   5.594 -0.2807 -0.3799  0.1083
 1353SOL    HW115521   3.017   0.173   5.563 -0.3665 -2.2227 -0.7599
 1353SOL    HW215522   2.890   0.103   5.529  0.3842  0.2089 -0.8100
 1354SOL     OW15523   4.310   0.046   4.928  0.0259 -0.3990  0.0553
 1354SOL    HW115524   4.281   4.677   4.933 -0.6465 -0.1203  1.5235
 1354SOL    HW215525   4.293   0.076   5.018  0.1137 -0.3430  0.0529
 1355SOL     OW15526   0.429   1.211   7.201  1.1368 -0.4112  0.0684
 1355SOL    HW115527   0.508   1.255   7.231  0.9486  0.0111 -0.0463
 1355SOL    HW215528   0.426   1.151   7.276  0.4086 -0.3683  0.0805
 1356SOL     OW15529   0.434   2.614   6.862 -0.6277 -0.3596  0.3827
 1356SOL    HW115530   0.415   2.525   6.894 -0.9906 -0.7422 -0.8795
 1356SOL    HW215531   0.517   2.595   6.820 -1.2901 -0.6008 -0.8230
 1357SOL     OW15532   3.226   3.052   7.348 -0.0450  0.5778  0.3098
 1357SOL    HW115533   3.224   2.983   7.281  2.4086  1.2936 -0.4704
 1357SOL    HW215534   3.280   3.011   7.415 -0.3796  1.1934  0.9626
 1358SOL     OW15535   2.227   3.151   7.360  0.0678 -0.2480  0.4143
 1358SOL    HW115536   2.205   3.198   7.439  4.4083 -1.4147  2.3409
 1358SOL    HW215537   2.295   3.210   7.326  0.1332 -0.7702 -0.3682
 1359SOL     OW15538   1.955   4.178   1.978  0.2026 -0.6482  0.0897
 1359SOL    HW115539   1.866   4.167   2.012  0.4513  1.3455  1.3812
 1359SOL    HW215540   2.005   4.119   2.034 -0.2022 -1.7506 -0.7219
 1360SOL     OW15541   3.866   4.252   6.088 -0.5378  0.1072  0.2324
 1360SOL    HW115542   3.957   4.253   6.117 -0.7676 -1.7638  1.0275
 1360SOL    HW215543   3.820   4.267   6.171  0.8809 -1.8554  1.3665
 1361SOL     OW15544   0.012   3.917   6.859 -0.2176  0.4363  0.1753
 1361SOL    HW115545   4.654   3.947   6.902  0.7866  1.4406  1.3212
 1361SOL    HW215546   4.702   3.827   6.853  1.4381 -0.0901 -0.5706
 1362SOL     OW15547   1.567   0.105   8.540  0.1820 -0.1931  0.0656
 1362SOL    HW115548   1.506   0.111   8.466 -1.7399 -2.7428  1.4568
 1362SOL    HW215549   1.520   0.034   8.585 -0.6210 -0.0617 -0.5595
 1363SOL     OW15550   1.730   0.254   7.951 -0.0175  0.3750 -0.1504
 1363SOL    HW115551   1.739   0.208   7.868  3.1076  1.0539 -0.2204
 1363SOL    HW215552   1.817   0.254   7.991 -0.3131 -0.4044  0.4881
 1364SOL     OW15553   2.978   2.496   3.915  0.2759 -0.3389  0.8010
 1364SOL    HW115554   3.009   2.445   3.990  1.6718 -0.2204  0.2964
 1364SOL    HW215555   3.033   2.574   3.924 -1.3868  0.7752  1.3349
 1365SOL     OW15556   0.773   4.505  12.956 -0.4539  0.2239 -0.2671
 1365SOL    HW115557   0.695   4.480  12.907 -0.7162  0.0559  0.2392
 1365SOL    HW215558   0.779   4.598  12.933 -1.9730  0.7398  1.4618
 1366SOL     OW15559   1.024   0.700   6.757  0.5769  0.0661 -0.4819
 1366SOL    HW115560   1.088   0.629   6.748  1.7547  0.7911  1.8916
 1366SOL    HW215561   0.959   0.659   6.815 -0.1715  2.7741  0.6059
 1367SOL     OW15562   3.384   2.931  11.189  0.3162  0.2196  0.2314
 1367SOL    HW115563   3.343   2.844  11.192  2.1129 -0.6272  0.1918
 1367SOL    HW215564   3.369   2.949  11.096 -2.1627 -0.1589  0.5433
 1368SOL     OW15565   4.158   2.052   0.245 -0.3636  0.0984 -0.8780
 1368SOL    HW115566   4.103   1.991   0.196 -1.5748  1.4732 -1.2110
 1368SOL    HW215567   4.149   2.007   0.329  0.9458  3.0946  0.8692
 1369SOL     OW15568   2.550   0.366  11.248  0.1237 -0.2743  0.0159
 1369SOL    HW115569   2.546   0.298  11.316 -0.7314 -1.5689 -1.3253
 1369SOL    HW215570   2.571   0.440  11.305  1.6387 -0.1110 -0.7838
 1370SOL     OW15571   2.015   2.147   5.154  0.6214  0.1210 -0.1526
 1370SOL    HW115572   2.093   2.120   5.203  1.1307  1.2279 -0.3600
 1370SOL    HW215573   2.054   2.169   5.070 -0.9638  1.1408 -0.6152
 1371SOL     OW15574   3.077   0.466  13.396  0.2653 -0.0036  0.0376
 1371SOL    HW115575   3.162   0.423  13.399 -0.9674 -2.4554  0.0763
 1371SOL    HW215576   3.026   0.404  13.342 -0.4076  0.0124  0.6531
 1372SOL     OW15577   2.103   4.152   5.855 -0.4032  0.0858  0.0344
 1372SOL    HW115578   2.103   4.130   5.948 -0.9721 -0.9664 -0.2213
 1372SOL    HW215579   2.183   4.205   5.853  0.5895 -1.4595 -1.3829
 1373SOL     OW15580   3.130   2.404  11.169 -0.4257  0.0211 -0.0408
 1373SOL    HW115581   3.162   2.494  11.181  4.2647 -1.5559 -0.5387
 1373SOL    HW215582   3.121   2.371  11.259  0.6856  0.1769  0.1379
 1374SOL     OW15583   3.627   3.550  10.704 -0.0229  0.7314 -0.5900
 1374SOL    HW115584   3.654   3.601  10.628 -0.0924  0.7711 -0.5885
 1374SOL    HW215585   3.580   3.620  10.750  0.1008  0.9059 -0.7306
 1375SOL     OW15586   0.902   0.854   3.325 -0.0175 -0.0970 -0.0435
 1375SOL    HW115587   0.939   0.928   3.375  2.3168 -1.8071  0.7660
 1375SOL    HW215588   0.946   0.777   3.361 -1.5611 -1.8538 -1.9639
 1376SOL     OW15589   1.854   1.263  17.433  0.0182  0.3439  0.5817
 1376SOL    HW115590   1.770   1.250  17.477 -0.2790 -1.9718 -0.6503
 1376SOL    HW215591   1.868   1.179  17.391  0.3206 -0.9546  3.2603
 1377SOL     OW15592   3.718   0.628   9.300  0.4764  0.1847  0.3102
 1377SOL    HW115593   3.717   0.672   9.214 -1.1465 -1.0207 -0.2889
 1377SOL    HW215594   3.625   0.606   9.303  0.4455  0.1446 -0.7169
 1378SOL     OW15595   0.289   3.068   4.053 -0.2680 -0.3373  0.1544
 1378SOL    HW115596   0.311   3.063   3.959  1.1340 -0.3013  0.4735
 1378SOL    HW215597   0.257   3.157   4.048  0.9970  0.2683  2.8742
 1379SOL     OW15598   2.382   3.084  14.989 -0.3878  0.1951  0.1749
 1379SOL    HW115599   2.361   3.166  15.033  0.0802  0.4640 -0.1096
 1379SOL    HW215600   2.299   3.037  15.002  0.0510 -0.9197 -1.0576
 1380SOL     OW15601   4.302   2.384  14.226 -0.1722 -0.5231 -0.0879
 1380SOL    HW115602   4.281   2.456  14.285  2.3315  0.7845 -0.7703
 1380SOL    HW215603   4.245   2.312  14.252 -0.7251  0.5477  1.6907
 1381SOL     OW15604   0.571   0.699   4.054 -0.6159 -0.1874  0.1341
 1381SOL    HW115605   0.503   0.686   4.120  0.6166  2.0954  1.8953
 1381SOL    HW215606   0.642   0.645   4.089 -0.6267 -0.6480 -0.5767
 1382SOL     OW15607   1.778   3.875   4.684 -0.5256  0.0623 -0.1620
 1382SOL    HW115608   1.734   3.883   4.599 -0.2818  0.0771 -0.2863
 1382SOL    HW215609   1.708   3.844   4.742 -0.1614  3.2010  1.9363
 1383SOL     OW15610   2.271   3.448   6.197  0.4094  0.1957 -0.9736
 1383SOL    HW115611   2.307   3.386   6.134  0.4565  0.2633 -1.0134
 1383SOL    HW215612   2.337   3.494   6.248  0.5088 -1.2612  0.2248
 1384SOL     OW15613   3.319   1.529   7.918 -0.0664  0.4846 -0.0043
 1384SOL    HW115614   3.368   1.474   7.979 -0.5440 -0.0579 -0.1111
 1384SOL    HW215615   3.377   1.527   7.841 -1.5648 -2.2505 -1.0544
 1385SOL     OW15616   4.487   2.663  13.589  0.6499  0.0119  0.5760
 1385SOL    HW115617   4.453   2.577  13.610  0.2199  0.1504  0.4345
 1385SOL    HW215618   4.441   2.684  13.509  0.6854 -0.0278  0.5450
 1386SOL     OW15619   4.472   4.567   7.215  0.4034  0.3834 -0.7443
 1386SOL    HW115620   4.492   4.494   7.274  0.1191  1.2561  0.4473
 1386SOL    HW215621   4.378   4.558   7.199  0.5397 -0.3018 -1.1518
 1387SOL     OW15622   0.477   2.807   3.914 -0.3757  0.6918 -0.9774
 1387SOL    HW115623   0.519   2.789   3.830 -1.3306  1.3572 -1.5956
 1387SOL    HW215624   0.386   2.798   3.885 -0.6821 -2.6142  0.9814
 1388SOL     OW15625   0.402   3.125   2.638  0.1696  0.2302  0.2164
 1388SOL    HW115626   0.414   3.205   2.587  3.6908  1.0203  2.2413
 1388SOL    HW215627   0.441   3.064   2.575 -1.5199  0.4175 -0.9970
 1389SOL     OW15628   3.920   2.932   0.717  0.4096  0.4631 -0.1262
 1389SOL    HW115629   3.889   2.944   0.627 -0.7527 -0.0358  0.2107
 1389SOL    HW215630   4.012   2.953   0.701  0.1668 -0.4713 -2.8186
 1390SOL     OW15631   4.447   2.407   7.317  0.2026  0.0459 -0.5113
 1390SOL    HW115632   4.529   2.446   7.285  0.8293 -0.3808  0.5959
 1390SOL    HW215633   4.487   2.345   7.378  2.0896  2.1048  0.3651
 1391SOL     OW15634   1.313   1.490   7.425  0.0951 -0.0124 -0.2475
 1391SOL    HW115635   1.255   1.414   7.436 -0.0256  0.0650 -0.3448
 1391SOL    HW215636   1.347   1.491   7.514 -1.6729  0.6293  0.4220
 1392SOL     OW15637   1.744   1.911  10.324 -0.2389  0.0642 -0.4878
 1392SOL    HW115638   1.769   1.961  10.247  1.0639 -0.0687 -0.1607
 1392SOL    HW215639   1.831   1.895  10.361 -0.6941  1.4244  1.1375
 1393SOL     OW15640   0.043   2.842   4.438  0.2019  0.4267  0.1934
 1393SOL    HW115641   4.689   2.881   4.483  0.3792 -0.5050  1.2908
 1393SOL    HW215642   0.086   2.922   4.407  1.2283  0.1856  0.9828
 1394SOL     OW15643   2.143   4.284   3.648  0.0994 -0.0767 -0.5427
 1394SOL    HW115644   2.142   4.380   3.648 -1.0505 -0.0888 -0.5372
 1394SOL    HW215645   2.083   4.262   3.577  0.8175  1.5599 -1.6378
 1395SOL     OW15646   0.963   0.717   1.707 -0.2264 -0.0253  0.3259
 1395SOL    HW115647   0.929   0.805   1.695  2.0193  0.6710 -0.8492
 1395SOL    HW215648   0.881   0.681   1.740 -0.4162 -0.4379 -0.5956
 1396SOL     OW15649   3.152   1.515   8.617  0.2886  0.0201  0.1300
 1396SOL    HW115650   3.147   1.423   8.594  0.2541 -0.0280  0.3247
 1396SOL    HW215651   3.237   1.526   8.576  1.4113 -3.0313  1.6407
 1397SOL     OW15652   2.292   3.651   4.779  0.1797  0.1123  0.2000
 1397SOL    HW115653   2.301   3.656   4.874 -3.4587  2.1449  0.4391
 1397SOL    HW215654   2.308   3.562   4.748 -0.7032  0.0092  0.0261
 1398SOL     OW15655   3.265   2.316  16.787 -0.1801 -0.5570  0.1220
 1398SOL    HW115656   3.317   2.359  16.719 -2.3126  1.4675 -0.2314
 1398SOL    HW215657   3.332   2.281  16.846  2.2358  1.7389 -1.2549
 1399SOL     OW15658   1.864   3.774  16.499  0.4442  0.0431  0.5264
 1399SOL    HW115659   1.819   3.854  16.528  0.1061 -0.4458  1.3588
 1399SOL    HW215660   1.795   3.721  16.458 -1.3610  2.8506 -0.1016
 1400SOL     OW15661   1.350   4.259   4.629  0.6368 -0.3283 -0.3735
 1400SOL    HW115662   1.364   4.347   4.594 -4.0708  0.2226 -0.9426
 1400SOL    HW215663   1.426   4.221   4.586 -0.8833 -2.0163 -1.5752
 1401SOL     OW15664   0.614   3.926   4.318 -0.5274  0.1336 -0.5420
 1401SOL    HW115665   0.593   3.859   4.253  1.5880 -1.2835  0.2581
 1401SOL    HW215666   0.530   3.924   4.365 -0.0325  1.4021  0.4145
 1402SOL     OW15667   1.703   2.690  14.222 -0.2113 -0.8390  0.3065
 1402SOL    HW115668   1.694   2.741  14.302  0.5275 -1.1372  0.5711
 1402SOL    HW215669   1.797   2.684  14.209 -0.4540  0.4224 -2.1221
 1403SOL     OW15670   2.128   0.849   1.814  0.7164 -0.1196  0.3860
 1403SOL    HW115671   2.164   0.760   1.809 -0.9770 -0.8392  1.0916
 1403SOL    HW215672   2.064   0.836   1.884 -1.4893 -0.3881 -1.6507
 1404SOL     OW15673   1.892   2.878   4.402 -0.3796 -0.3535  0.6512
 1404SOL    HW115674   1.930   2.842   4.322 -1.3272 -0.2231  0.1430
 1404SOL    HW215675   1.803   2.905   4.382  0.4266  0.8948 -1.2334
 1405SOL     OW15676   4.092   3.844   5.045  0.4212 -0.3843  0.5191
 1405SOL    HW115677   4.062   3.884   5.127  0.4522  1.0983 -0.1826
 1405SOL    HW215678   4.118   3.757   5.076  1.4910  0.5457  2.2915
 1406SOL     OW15679   1.369   1.547   7.162  0.4114  0.0269 -0.4441
 1406SOL    HW115680   1.321   1.514   7.237  1.3549 -2.3257 -0.8871
 1406SOL    HW215681   1.427   1.609   7.206  1.4732 -0.9172 -0.5340
 1407SOL     OW15682   1.384   3.793   8.558 -0.3200  0.0991  0.2633
 1407SOL    HW115683   1.394   3.848   8.636  0.2626 -0.8587  0.8692
 1407SOL    HW215684   1.288   3.788   8.556 -0.2528  0.1792 -2.5781
 1408SOL     OW15685   1.530   4.530   4.092 -0.0042  0.3146  0.6466
 1408SOL    HW115686   1.511   4.463   4.026  2.3835  2.3304 -2.1196
 1408SOL    HW215687   1.590   4.486   4.152  2.5704  0.5929 -1.7290
 1409SOL     OW15688   1.133   1.853   4.125  0.0343  0.4764  0.1092
 1409SOL    HW115689   1.164   1.766   4.100  1.7486  1.1624 -0.1624
 1409SOL    HW215690   1.188   1.869   4.202  1.7089 -0.6633 -0.8674
 1410SOL     OW15691   2.433   1.824   7.508 -0.3991 -0.2145 -0.2463
 1410SOL    HW115692   2.494   1.756   7.538  0.5496  3.0431  5.2831
 1410SOL    HW215693   2.363   1.811   7.572  1.7428 -2.2191  1.6735
 1411SOL     OW15694   0.035   2.708  12.702 -0.1303 -0.0362 -0.2571
 1411SOL    HW115695   0.079   2.761  12.768 -0.6910  0.5582 -0.3537
 1411SOL    HW215696   0.039   2.616  12.728  1.2299  0.0290 -0.2561
 1412SOL     OW15697   0.334   3.702  15.122  0.1654 -0.8941 -0.3731
 1412SOL    HW115698   0.240   3.703  15.100  0.1634  2.7616 -0.2766
 1412SOL    HW215699   0.332   3.627  15.181  1.3983 -1.5475 -1.1687
 1413SOL     OW15700   2.704   2.485   1.694  0.0994 -0.1196 -0.2494
 1413SOL    HW115701   2.612   2.504   1.714 -0.7049 -2.0732 -1.9463
 1413SOL    HW215702   2.741   2.526   1.772  0.4104 -1.8663  0.5228
 1414SOL     OW15703   1.021   2.409   8.605 -0.6151  0.0104 -0.2392
 1414SOL    HW115704   1.005   2.462   8.527 -0.0315 -2.6071 -2.1435
 1414SOL    HW215705   1.094   2.458   8.644 -2.0207  1.8729  0.0437
 1415SOL     OW15706   3.554   4.654  17.563 -0.5808 -0.1506  0.0228
 1415SOL    HW115707   3.539   0.014  17.610 -1.0244 -0.3940  0.3105
 1415SOL    HW215708   3.638   4.622  17.595 -0.2719 -2.1884 -2.8086
 1416SOL     OW15709   3.425   1.847   9.153  0.1768 -0.3005  0.1740
 1416SOL    HW115710   3.437   1.899   9.232 -1.9164  1.1652 -0.4628
 1416SOL    HW215711   3.451   1.764   9.193  0.6264  0.0565  0.6192
 1417SOL     OW15712   1.790   1.071   1.454  0.2149  0.0160 -0.4966
 1417SOL    HW115713   1.848   1.053   1.380  1.3022 -0.5820  0.5095
 1417SOL    HW215714   1.723   1.002   1.448 -0.1620  0.4894 -1.7313
 1418SOL     OW15715   1.769   2.478   8.054 -0.0287  0.3593  0.0543
 1418SOL    HW115716   1.830   2.469   8.127 -1.1526 -0.5874  0.8728
 1418SOL    HW215717   1.755   2.572   8.055  1.7841  0.6367 -0.6161
 1419SOL     OW15718   3.817   0.024   1.670 -0.4523  0.0325 -0.6717
 1419SOL    HW115719   3.882   4.711   1.610  1.5261  0.1657  1.4111
 1419SOL    HW215720   3.854   4.711   1.751  1.8511  0.0468 -1.7414
 1420SOL     OW15721   0.316   4.412   9.160 -0.0522 -0.3459 -0.4313
 1420SOL    HW115722   0.306   4.320   9.137 -0.3171 -0.2735 -0.6061
 1420SOL    HW215723   0.337   4.404   9.253 -1.1055  1.7070 -0.0146
 1421SOL     OW15724   2.223   2.736   8.211  0.4380 -0.0191  0.2722
 1421SOL    HW115725   2.214   2.648   8.248 -1.5182 -0.4337 -1.1706
 1421SOL    HW215726   2.173   2.788   8.274 -0.0126  0.6892 -0.6687
 1422SOL     OW15727   4.010   3.327   8.113  0.0026  0.0071 -0.2481
 1422SOL    HW115728   3.938   3.380   8.147  2.3360  2.1789  1.2588
 1422SOL    HW215729   3.975   3.269   8.045 -0.2940 -0.9822  0.7664
 1423SOL     OW15730   1.452   0.138  14.604  0.3998  0.1259  0.1130
 1423SOL    HW115731   1.522   0.163  14.665  1.0118  1.0547 -0.9660
 1423SOL    HW215732   1.413   0.063  14.649  0.8607 -0.6585 -0.8017
 1424SOL     OW15733   0.374   0.373   7.556  0.2884  0.2303  0.3115
 1424SOL    HW115734   0.316   0.360   7.630 -0.8858 -0.9231 -0.8216
 1424SOL    HW215735   0.404   0.282   7.553  2.4700  0.9850 -0.7937
 1425SOL     OW15736   3.697   3.526   7.155  0.0458  0.1365 -0.8346
 1425SOL    HW115737   3.655   3.443   7.131  0.0245 -0.1771  0.2844
 1425SOL    HW215738   3.766   3.526   7.089  0.4760 -1.2398 -0.3738
 1426SOL     OW15739   1.989   4.402   7.597 -0.1519 -0.3471 -0.0958
 1426SOL    HW115740   2.050   4.374   7.529 -3.0362  0.1677 -2.8843
 1426SOL    HW215741   2.029   4.349   7.666  1.3696 -0.1701 -0.8497
 1427SOL     OW15742   0.755   4.695  16.298  0.0616 -0.2467  0.0919
 1427SOL    HW115743   0.696   0.002  16.368 -0.3662 -0.2329 -0.2734
 1427SOL    HW215744   0.699   4.638  16.247 -1.4102 -0.2698  1.7136
 1428SOL     OW15745   2.526   1.836   1.441  0.1154 -0.2278  0.1040
 1428SOL    HW115746   2.616   1.865   1.452 -0.2497  0.6968  0.6039
 1428SOL    HW215747   2.512   1.821   1.347  1.1131  0.7343 -0.1974
 1429SOL     OW15748   4.227   1.586   9.052  0.2448 -0.1819 -0.5942
 1429SOL    HW115749   4.171   1.524   9.100 -0.2895  1.0096  0.3142
 1429SOL    HW215750   4.283   1.534   8.995 -0.2410  0.5272 -1.7003
 1430SOL     OW15751   3.340   3.445   3.920  0.5055  0.2523 -0.8879
 1430SOL    HW115752   3.265   3.411   3.872  1.1777 -1.0550 -1.0067
 1430SOL    HW215753   3.318   3.429   4.011  0.2817 -2.3598 -1.4156
 1431SOL     OW15754   4.615   1.799   5.746 -0.2434  0.6843 -0.2357
 1431SOL    HW115755   4.523   1.776   5.759 -0.0398  0.9222  1.7009
 1431SOL    HW215756   4.631   1.853   5.824  1.5478  0.8805 -0.7329
 1432SOL     OW15757   3.747   4.248  11.778 -0.0799 -0.4129 -0.3781
 1432SOL    HW115758   3.764   4.342  11.772 -0.4292 -0.3414 -0.2217
 1432SOL    HW215759   3.836   4.224  11.804  0.8952  1.5561 -1.9089
 1433SOL     OW15760   2.256   0.211   4.669  0.3253 -0.1318  0.1397
 1433SOL    HW115761   2.327   0.193   4.730 -0.5838 -0.0498  1.2371
 1433SOL    HW215762   2.280   0.300   4.643  1.4830 -0.7315 -0.8115
 1434SOL     OW15763   3.173   4.448   3.432 -0.0893 -0.4135  0.5890
 1434SOL    HW115764   3.129   4.388   3.493 -0.9182 -0.6241 -0.2155
 1434SOL    HW215765   3.242   4.389   3.403 -0.0549 -0.9278  1.7334
 1435SOL     OW15766   1.940   1.040   2.816  0.4711  0.6278 -0.6863
 1435SOL    HW115767   1.960   1.106   2.883 -0.3863 -1.0078  1.1872
 1435SOL    HW215768   1.845   1.047   2.806  0.5377  0.5637 -1.3596
 1436SOL     OW15769   3.363   4.081  13.829  0.3768 -0.0590 -0.7044
 1436SOL    HW115770   3.339   4.110  13.917  3.1963 -1.3465  0.4910
 1436SOL    HW215771   3.394   4.167  13.801  0.9886  0.0700  0.3816
 1437SOL     OW15772   0.663   2.385   7.896 -0.4979 -0.1120 -1.0226
 1437SOL    HW115773   0.719   2.355   7.824 -0.4617 -0.9776 -0.6298
 1437SOL    HW215774   0.731   2.439   7.937 -1.6123 -1.0914  2.0874
 1438SOL     OW15775   2.390   1.767  13.831  0.5395 -0.1844  0.9633
 1438SOL    HW115776   2.334   1.748  13.907  1.1087  1.5228  1.8141
 1438SOL    HW215777   2.465   1.788  13.887 -0.1554  2.4950  0.8878
 1439SOL     OW15778   1.730   2.857   7.082 -0.3519  0.6686 -0.1454
 1439SOL    HW115779   1.757   2.829   6.994  0.8242  0.4645  0.2856
 1439SOL    HW215780   1.728   2.776   7.133 -1.4547  1.2892  0.7898
 1440SOL     OW15781   2.525   0.377   6.892  0.3932 -0.1300  0.2194
 1440SOL    HW115782   2.513   0.290   6.856  0.1420  0.0041 -0.0114
 1440SOL    HW215783   2.552   0.343   6.978  2.2689  0.5125 -0.1081
 1441SOL     OW15784   4.421   1.478  16.639 -0.6017  0.1201  0.2504
 1441SOL    HW115785   4.389   1.494  16.727 -3.8525  0.9904 -1.0846
 1441SOL    HW215786   4.351   1.427  16.596  1.7436 -1.6180 -1.4967
 1442SOL     OW15787   0.897   2.750   8.155 -0.3582 -0.7708 -0.5968
 1442SOL    HW115788   0.854   2.727   8.238  1.3063  1.1766  0.8175
 1442SOL    HW215789   0.960   2.810   8.195 -0.8177 -0.3227 -0.5443
 1443SOL     OW15790   1.735   2.623   1.906  0.2221 -0.8230 -1.0205
 1443SOL    HW115791   1.803   2.685   1.878 -0.3426  0.8184  1.2772
 1443SOL    HW215792   1.786   2.559   1.957 -0.2274 -1.1138 -0.9386
 1444SOL     OW15793   3.392   4.082   5.191  0.5080 -0.1909 -0.3785
 1444SOL    HW115794   3.404   4.145   5.262 -2.2833 -0.4634  0.3364
 1444SOL    HW215795   3.418   4.133   5.115  0.3961  2.1025  1.1097
 1445SOL     OW15796   2.581   2.066   7.808 -0.9825 -0.0835 -0.4690
 1445SOL    HW115797   2.654   2.017   7.846 -1.5978 -0.3948  0.3256
 1445SOL    HW215798   2.577   2.144   7.865 -0.5596 -0.5596  0.2156
 1446SOL     OW15799   3.474   1.530   1.505 -0.8088  0.2142  0.4337
 1446SOL    HW115800   3.458   1.452   1.453 -1.1032 -1.0725  2.4628
 1446SOL    HW215801   3.501   1.601   1.447  1.6490 -0.3553  0.8968
 1447SOL     OW15802   0.599   1.195   3.730  0.3693  0.6115 -0.1571
 1447SOL    HW115803   0.688   1.225   3.750 -0.1170 -0.8032  4.1876
 1447SOL    HW215804   0.620   1.149   3.649 -1.8228  1.8538 -1.4119
 1448SOL     OW15805   0.774   2.621   3.524  0.1838 -0.1243 -0.0072
 1448SOL    HW115806   0.794   2.683   3.454 -0.6872 -3.2168 -2.9987
 1448SOL    HW215807   0.817   2.538   3.503 -0.3213 -0.5774  0.7578
 1449SOL     OW15808   2.638   1.844  11.450  0.1799  0.0360  0.2239
 1449SOL    HW115809   2.554   1.843  11.496  0.0454  1.1397 -0.0091
 1449SOL    HW215810   2.655   1.750  11.458  1.7070  0.1293 -1.9485
 1450SOL     OW15811   1.666   2.579  12.364 -0.1093  0.0134  0.2487
 1450SOL    HW115812   1.614   2.532  12.299  2.3801  0.4947 -2.0729
 1450SOL    HW215813   1.609   2.576  12.441 -1.1123 -0.7730 -0.5203
 1451SOL     OW15814   0.648   3.235  11.125 -0.1469  0.5737 -0.3434
 1451SOL    HW115815   0.688   3.322  11.134  1.2057 -0.1332  0.3403
 1451SOL    HW215816   0.630   3.222  11.218 -2.8002 -0.3189 -0.9991
 1452SOL     OW15817   4.132   2.224   2.379  0.3977 -0.8036 -0.1008
 1452SOL    HW115818   4.163   2.238   2.289  2.3690 -0.9965  0.5517
 1452SOL    HW215819   4.191   2.156   2.413 -2.4173 -2.4705  1.4565
 1453SOL     OW15820   0.982   2.141   1.261 -0.6439  0.6913 -0.2640
 1453SOL    HW115821   0.919   2.122   1.191 -1.1093 -0.9612  0.6023
 1453SOL    HW215822   0.919   2.157   1.331  1.8296  1.3750  1.8226
 1454SOL     OW15823   1.947   4.677  17.484  0.0667  0.5594  0.7714
 1454SOL    HW115824   1.956   4.615  17.556 -2.6286  0.0085  0.5983
 1454SOL    HW215825   1.992   4.634  17.411  1.1562  1.8772  0.6498
 1455SOL     OW15826   3.566   0.552  13.320  0.0416 -0.3494  0.6646
 1455SOL    HW115827   3.641   0.609  13.305 -0.5783  0.1714 -0.4268
 1455SOL    HW215828   3.499   0.595  13.268  0.8342  0.7239  0.5227
 1456SOL     OW15829   1.066   2.641   4.782 -0.2296  0.5019  0.2560
 1456SOL    HW115830   1.041   2.551   4.807  0.4699  0.1804 -0.2170
 1456SOL    HW215831   1.036   2.623   4.693  0.5056 -1.3583  0.3783
 1457SOL     OW15832   1.946   2.115   7.967 -0.1822  0.5062 -0.4479
 1457SOL    HW115833   1.892   2.044   8.002  2.6214 -0.8578  1.0940
 1457SOL    HW215834   1.921   2.183   8.030 -1.5217  1.1080 -1.6112
 1458SOL     OW15835   0.166   4.212   5.432 -0.1998  0.1862 -0.2947
 1458SOL    HW115836   0.106   4.138   5.422  0.7115 -1.0023  3.0005
 1458SOL    HW215837   0.194   4.199   5.523  0.8432  1.3581 -0.4576
 1459SOL     OW15838   1.958   2.495  11.130 -0.0904 -0.5092 -0.3787
 1459SOL    HW115839   1.868   2.514  11.158 -0.2678  1.0074 -1.9146
 1459SOL    HW215840   1.957   2.512  11.035  0.5917 -2.3404 -0.6951
 1460SOL     OW15841   3.452   2.207   7.460 -0.1131  0.2443  0.4907
 1460SOL    HW115842   3.427   2.126   7.415 -0.6346 -0.4422  2.0211
 1460SOL    HW215843   3.432   2.183   7.550  1.3807 -0.9024  0.5280
 1461SOL     OW15844   2.750   2.903  16.722 -0.6562  0.0703 -0.2724
 1461SOL    HW115845   2.838   2.865  16.720  0.4220  2.7132 -2.6515
 1461SOL    HW215846   2.721   2.854  16.646 -2.5192 -0.3528  0.7007
 1462SOL     OW15847   1.739   3.184   5.595 -0.3486 -0.3714  0.4446
 1462SOL    HW115848   1.721   3.276   5.614  0.8449 -0.5399  2.3626
 1462SOL    HW215849   1.698   3.178   5.509  0.0056 -0.0649  0.2527
 1463SOL     OW15850   1.355   2.061  11.909  0.1860  1.2549  0.0279
 1463SOL    HW115851   1.396   1.997  11.967 -0.7939 -0.0031 -0.6516
 1463SOL    HW215852   1.388   2.035  11.823 -3.2020 -0.3551 -0.8233
 1464SOL     OW15853   3.189   0.803  10.845 -0.3758 -0.3717 -0.0492
 1464SOL    HW115854   3.119   0.755  10.800 -2.2900  3.4499 -1.2092
 1464SOL    HW215855   3.265   0.797  10.787 -0.4129 -0.3821 -0.0966
 1465SOL     OW15856   3.580   1.994   5.415 -0.3018  0.3329  0.3897
 1465SOL    HW115857   3.576   2.088   5.431  0.1585  0.3109  0.6155
 1465SOL    HW215858   3.671   1.975   5.438 -0.0031 -0.1756 -1.2502
 1466SOL     OW15859   0.658   4.657   0.144  0.0133  0.1769 -0.5310
 1466SOL    HW115860   0.613   4.649   0.060 -0.4579 -0.1616 -0.2481
 1466SOL    HW215861   0.626   0.023   0.166  0.5951  0.0006  1.0077
 1467SOL     OW15862   0.619   1.639   5.354  0.1441  0.1210  0.1242
 1467SOL    HW115863   0.558   1.591   5.298  0.2054  0.0852  0.0882
 1467SOL    HW215864   0.677   1.686   5.294  0.0752 -0.0843 -0.1031
 1468SOL     OW15865   4.064   2.882  15.472  0.4968 -0.4143  0.7354
 1468SOL    HW115866   4.046   2.798  15.514  1.5514 -1.5819 -1.1463
 1468SOL    HW215867   4.159   2.874  15.460  0.2890  2.2924 -2.6676
 1469SOL     OW15868   2.331   1.642  12.011 -0.4711  0.3429  0.1242
 1469SOL    HW115869   2.382   1.688  11.944 -1.6856 -0.2942 -1.2192
 1469SOL    HW215870   2.363   1.552  12.016  1.2548  0.9290 -0.4638
 1470SOL     OW15871   1.976   2.365  13.439 -0.2486 -0.7437 -0.6930
 1470SOL    HW115872   2.056   2.345  13.390 -0.5561  0.5101 -1.7177
 1470SOL    HW215873   1.944   2.278  13.462 -1.0074  0.2242  1.8754
 1471SOL     OW15874   3.022   4.436   9.328 -0.4029 -0.6042  0.2425
 1471SOL    HW115875   2.981   4.437   9.242  0.0752 -1.7053  0.0015
 1471SOL    HW215876   3.029   4.341   9.340 -1.8794 -0.8404 -0.8222
 1472SOL     OW15877   1.034   1.671   7.876 -0.1824  0.4183  0.3027
 1472SOL    HW115878   1.101   1.629   7.822 -1.7077  1.0505 -2.0718
 1472SOL    HW215879   0.960   1.664   7.815  0.3420 -2.4610 -0.0057
 1473SOL     OW15880   4.681   1.432  10.413  0.0322 -0.7641  0.0946
 1473SOL    HW115881   4.657   1.391  10.329 -2.0685 -0.6002  0.6126
 1473SOL    HW215882   0.010   1.506  10.377 -1.9455  0.3592 -0.3884
 1474SOL     OW15883   3.823   0.659   8.105 -0.3494  0.1998 -0.6475
 1474SOL    HW115884   3.737   0.658   8.145  1.3059  0.2256  2.8642
 1474SOL    HW215885   3.847   0.751   8.102  1.8574 -0.3510 -0.3690
 1475SOL     OW15886   2.388   0.429   1.956 -0.2299 -0.3001  0.2658
 1475SOL    HW115887   2.432   0.394   1.878 -0.6997 -2.1797  0.8412
 1475SOL    HW215888   2.461   0.480   1.991  0.3187 -1.6595  1.0866
 1476SOL     OW15889   1.560   3.443   4.699  0.5608  0.0099  0.0648
 1476SOL    HW115890   1.587   3.351   4.689 -0.5951 -0.3041 -0.1786
 1476SOL    HW215891   1.624   3.496   4.652  0.7219 -0.1704  0.0799
 1477SOL     OW15892   0.112   0.277  17.101  0.2020 -0.1181  0.1556
 1477SOL    HW115893   0.083   0.192  17.069 -2.2076  0.8956 -0.3039
 1477SOL    HW215894   0.085   0.271  17.192 -3.7574  1.0628 -0.9593
 1478SOL     OW15895   3.310   4.518   0.543  0.4080 -0.4558  0.5145
 1478SOL    HW115896   3.306   4.486   0.453  0.6566 -0.1341  0.3892
 1478SOL    HW215897   3.234   4.466   0.571  0.0778 -0.4193 -0.3045
 1479SOL     OW15898   3.757   2.515   7.912  0.2525  0.0288  0.1248
 1479SOL    HW115899   3.704   2.485   7.838  0.1714  1.9060 -0.5879
 1479SOL    HW215900   3.848   2.511   7.881  0.1326 -0.9792 -0.0857
 1480SOL     OW15901   3.427   0.405   5.223 -0.3905 -0.5360  0.4388
 1480SOL    HW115902   3.508   0.408   5.274  2.0795  0.4704 -3.5657
 1480SOL    HW215903   3.454   0.350   5.150 -1.5346  2.5097 -2.3222
 1481SOL     OW15904   4.646   1.947   5.991  0.6041  0.3144  0.0901
 1481SOL    HW115905   4.701   1.898   6.051 -0.7837 -0.2264  0.9355
 1481SOL    HW215906   4.665   2.038   6.013  0.6404  0.3593 -0.1230
 1482SOL     OW15907   4.168   2.660   3.290  0.2638  0.4551 -0.2632
 1482SOL    HW115908   4.104   2.594   3.263  0.3961  0.0571  0.3891
 1482SOL    HW215909   4.107   2.711   3.344  1.6762  3.0333 -1.1324
 1483SOL     OW15910   2.761   4.397   4.515 -0.0441 -0.5300 -0.0331
 1483SOL    HW115911   2.689   4.456   4.493  0.9175  0.7395  0.2190
 1483SOL    HW215912   2.838   4.454   4.516  0.2419 -0.8891 -1.3849
 1484SOL     OW15913   1.609   2.683   3.381 -0.1261 -0.3351 -0.2264
 1484SOL    HW115914   1.619   2.774   3.408  2.0716 -0.4282 -0.6792
 1484SOL    HW215915   1.543   2.656   3.444  0.8865 -0.9963  0.5551
 1485SOL     OW15916   0.512   3.297   6.273 -0.6578 -0.3948  0.2727
 1485SOL    HW115917   0.419   3.298   6.297 -0.6328  1.1293  0.2687
 1485SOL    HW215918   0.533   3.215   6.319  2.0530  0.4404  0.5060
 1486SOL     OW15919   1.389   0.795   2.594  0.0264 -0.3580  0.0985
 1486SOL    HW115920   1.420   0.886   2.590  0.1911 -0.4410 -0.5994
 1486SOL    HW215921   1.409   0.770   2.684 -1.2108 -0.2761  0.4072
 1487SOL     OW15922   0.413   4.152   8.882 -0.4047  0.7830  0.2494
 1487SOL    HW115923   0.351   4.094   8.838 -0.4475  2.0646 -1.4345
 1487SOL    HW215924   0.493   4.133   8.833  1.2169  0.5532  2.9827
 1488SOL     OW15925   2.188   2.431   6.727 -0.4079  0.1266 -0.0193
 1488SOL    HW115926   2.162   2.503   6.784 -1.3108 -0.9913  0.9597
 1488SOL    HW215927   2.114   2.426   6.666 -0.3221  1.7168 -0.2532
 1489SOL     OW15928   4.465   1.508   2.389  0.3037 -0.2072 -0.1659
 1489SOL    HW115929   4.470   1.419   2.353 -1.2669 -0.8618  1.2505
 1489SOL    HW215930   4.445   1.553   2.307 -0.2840 -2.0672 -1.0462
 1490SOL     OW15931   2.096   4.070   3.844  0.4186 -0.1517 -0.5683
 1490SOL    HW115932   2.022   4.085   3.901  0.7972 -0.0481 -0.1052
 1490SOL    HW215933   2.086   4.148   3.789  0.4363  1.4994  1.8025
 1491SOL     OW15934   0.998   1.834  16.977  0.7909  0.4140  0.0737
 1491SOL    HW115935   0.993   1.839  17.072 -0.6154  1.5432 -0.0539
 1491SOL    HW215936   0.994   1.739  16.962 -0.7633  0.1699  1.9884
 1492SOL     OW15937   3.631   1.919  13.069 -0.6823 -0.4246 -0.4722
 1492SOL    HW115938   3.592   1.977  13.134 -0.5624 -1.1558  0.2662
 1492SOL    HW215939   3.639   1.839  13.122  0.0224 -1.9093 -2.8298
 1493SOL     OW15940   2.942   0.607   6.466 -0.6840  0.5526  0.5193
 1493SOL    HW115941   3.002   0.552   6.517 -0.2444 -0.1389 -0.7492
 1493SOL    HW215942   2.875   0.544   6.437  0.0654  0.9409 -2.0723
 1494SOL     OW15943   1.542   3.327  13.131 -0.6478  0.0791 -0.7208
 1494SOL    HW115944   1.452   3.329  13.098 -1.9128  0.0569  2.7657
 1494SOL    HW215945   1.592   3.324  13.050  0.5014 -0.7074  0.0249
 1495SOL     OW15946   4.607   2.686   2.268  0.7548 -0.1103 -0.4625
 1495SOL    HW115947   4.580   2.777   2.272  1.7934  0.2254 -1.2687
 1495SOL    HW215948   4.525   2.638   2.254  0.4846  0.0534  0.5348
 1496SOL     OW15949   1.322   3.213  16.289 -0.1547 -0.1588  0.1168
 1496SOL    HW115950   1.300   3.132  16.336 -0.3279 -0.3189 -0.2391
 1496SOL    HW215951   1.401   3.174  16.250  0.0017  0.9579 -0.6904
 1497SOL     OW15952   3.157   1.362  14.322 -0.5629 -0.0290  0.4837
 1497SOL    HW115953   3.182   1.301  14.391  1.7173 -1.9503 -2.0632
 1497SOL    HW215954   3.139   1.441  14.374  2.5480  2.1242 -1.6746
 1498SOL     OW15955   3.839   1.887   2.065 -0.1331 -0.5890  0.0739
 1498SOL    HW115956   3.815   1.873   1.973 -1.4216  1.2420  0.1304
 1498SOL    HW215957   3.865   1.979   2.072 -0.8920 -0.1246 -2.9788
 1499SOL     OW15958   4.498   4.011   7.013 -0.1507 -0.1694  0.1017
 1499SOL    HW115959   4.494   4.036   6.921  2.1383 -0.4969 -0.0857
 1499SOL    HW215960   4.477   4.095   7.056  1.7886  0.5754 -0.4271
 1500SOL     OW15961   3.209   2.997  14.872 -0.0451  0.1712  0.7355
 1500SOL    HW115962   3.293   2.990  14.916  0.5125  0.7203 -0.2419
 1500SOL    HW215963   3.217   3.070  14.811 -0.4320 -0.8982 -0.6070
 1501SOL     OW15964   0.882   0.737  16.939 -0.3416  0.0163  0.0120
 1501SOL    HW115965   0.921   0.689  17.012 -1.0802  1.4722  1.3768
 1501SOL    HW215966   0.812   0.677  16.912  0.2310 -0.5008 -0.3197
 1502SOL     OW15967   4.571   2.754   2.872  0.3645 -0.0826 -0.9710
 1502SOL    HW115968   4.551   2.808   2.949 -0.7771  0.1432 -1.4281
 1502SOL    HW215969   4.526   2.672   2.891  1.9547 -0.4110  1.5005
 1503SOL     OW15970   4.524   2.002   7.923  0.3704 -0.5946 -0.3707
 1503SOL    HW115971   4.566   1.971   7.843  2.4064  1.9844 -0.3176
 1503SOL    HW215972   4.472   1.923   7.937  1.3988 -0.8503  2.1169
 1504SOL     OW15973   1.807   4.492  11.197 -0.0500  0.2782 -0.6617
 1504SOL    HW115974   1.857   4.516  11.275 -1.0125 -2.3323  0.7764
 1504SOL    HW215975   1.825   4.559  11.132 -0.5642 -1.1726 -2.3104
 1505SOL     OW15976   3.748   0.401   8.337 -0.2695  0.3284 -0.0602
 1505SOL    HW115977   3.837   0.383   8.368 -0.3360 -1.1359 -0.7443
 1505SOL    HW215978   3.766   0.481   8.288 -2.9800  1.5040  0.8476
 1506SOL     OW15979   1.257   3.754   3.529 -0.2344 -0.0901  0.4321
 1506SOL    HW115980   1.276   3.848   3.537 -0.4104  0.1330 -1.9327
 1506SOL    HW215981   1.333   3.713   3.570  0.8359 -1.7155 -3.2067
 1507SOL     OW15982   2.686   4.070   6.935 -0.4634  0.0276  0.5854
 1507SOL    HW115983   2.711   3.982   6.908 -0.9969  0.7347 -2.2443
 1507SOL    HW215984   2.728   4.078   7.020 -0.9513 -2.5957  1.0735
 1508SOL     OW15985   2.253   1.557  11.446  0.5660 -0.4695  0.0434
 1508SOL    HW115986   2.215   1.470  11.437  0.9941 -0.6379 -0.1623
 1508SOL    HW215987   2.312   1.554  11.370  1.1158 -0.2992  0.4598
 1509SOL     OW15988   3.245   2.831   4.983  0.0208  0.2863  0.1854
 1509SOL    HW115989   3.299   2.777   4.925  1.1002  1.5417  0.0263
 1509SOL    HW215990   3.191   2.758   5.013 -1.5472  1.3335 -0.0951
 1510SOL     OW15991   0.410   2.338   7.642 -0.1183  0.7202 -0.5135
 1510SOL    HW115992   0.381   2.287   7.717 -0.0204  1.2655 -0.1047
 1510SOL    HW215993   0.409   2.429   7.672 -0.0879  1.0007 -1.3538
 1511SOL     OW15994   2.649   1.161   2.514  0.1382  0.3842  0.6226
 1511SOL    HW115995   2.691   1.241   2.481  1.2179 -0.5418 -0.2289
 1511SOL    HW215996   2.583   1.141   2.447  1.2048 -3.4688  0.7192
 1512SOL     OW15997   3.467   0.639  11.902 -0.0882  0.2492  0.3648
 1512SOL    HW115998   3.460   0.712  11.841  1.1991 -0.5234 -0.7168
 1512SOL    HW215999   3.377   0.628  11.935 -0.1556  0.2931  0.1969
 1513SOL     OW16000   0.659   3.867  10.177  0.1862 -0.3831  0.4964
 1513SOL    HW116001   0.694   3.780  10.197 -1.4599 -1.0877  0.3428
 1513SOL    HW216002   0.740   3.918  10.168 -0.8746  0.8918 -1.8157
 1514SOL     OW16003   3.864   3.091   9.108  0.2314 -0.3869  0.6630
 1514SOL    HW116004   3.791   3.150   9.091 -1.5508 -2.9094 -0.4431
 1514SOL    HW216005   3.822   3.005   9.118  0.6074 -1.0135 -3.0589
 1515SOL     OW16006   1.452   1.196   6.744  0.5115 -0.3429 -0.0402
 1515SOL    HW116007   1.531   1.147   6.768  0.6794 -0.4893 -0.9019
 1515SOL    HW216008   1.445   1.261   6.814  0.9049 -1.3831  0.9681
 1516SOL     OW16009   1.616   3.109   5.330  0.0198 -0.0720 -0.2742
 1516SOL    HW116010   1.583   3.189   5.290 -0.4134 -0.6876 -1.1606
 1516SOL    HW216011   1.541   3.053   5.310  0.2454 -0.4181 -0.1655
 1517SOL     OW16012   1.260   3.543   1.564  0.0637  0.0409 -0.0795
 1517SOL    HW116013   1.307   3.481   1.619 -2.7603  0.7139  3.1065
 1517SOL    HW216014   1.334   3.598   1.539 -2.2740  3.5261  0.6476
 1518SOL     OW16015   0.357   0.543   7.346  1.0998 -0.1979  0.9386
 1518SOL    HW116016   0.266   0.570   7.333  1.6519  0.7783 -1.0391
 1518SOL    HW216017   0.345   0.481   7.417  2.1555 -0.8956  0.5085
 1519SOL     OW16018   1.351   4.453   8.930 -0.8882  0.1789 -0.4410
 1519SOL    HW116019   1.431   4.401   8.923 -1.2524 -0.6425  1.5163
 1519SOL    HW216020   1.347   4.480   9.022 -0.6381  0.2689 -0.4557
 1520SOL     OW16021   2.244   2.379   5.363 -0.1990 -0.1737  0.3539
 1520SOL    HW116022   2.151   2.359   5.354  0.1704 -2.1424  1.1060
 1520SOL    HW216023   2.268   2.310   5.425  0.5286  1.2860  1.7022
 1521SOL     OW16024   3.200   4.130   2.481 -0.5544  0.1793 -0.4605
 1521SOL    HW116025   3.189   4.082   2.563  0.5597 -0.4035 -0.6530
 1521SOL    HW216026   3.265   4.073   2.441  1.2099  0.5951  1.8472
 1522SOL     OW16027   2.927   1.373   1.922  0.3470 -0.0499  0.4657
 1522SOL    HW116028   3.018   1.394   1.900  0.1667  0.0395 -0.2037
 1522SOL    HW216029   2.944   1.288   1.962 -0.3992 -1.0940 -1.4207
 1523SOL     OW16030   0.226   2.166   6.226 -0.2756  0.2129  0.9834
 1523SOL    HW116031   0.267   2.250   6.207 -0.9157  0.2418 -0.2955
 1523SOL    HW216032   0.277   2.118   6.161 -0.4138 -0.8313  1.6409
 1524SOL     OW16033   1.018   4.457   2.297 -0.2500  0.0571 -0.4626
 1524SOL    HW116034   1.104   4.448   2.256  1.1005  2.5631  1.8053
 1524SOL    HW216035   1.039   4.410   2.377  1.1769 -0.0472 -0.8841
 1525SOL     OW16036   2.489   0.577  10.536 -0.4856 -0.2671 -0.4150
 1525SOL    HW116037   2.471   0.571  10.630  0.4029 -2.5010 -0.3818
 1525SOL    HW216038   2.461   0.667  10.520 -1.2573 -0.5324 -0.5191
 1526SOL     OW16039   2.559   3.684   8.275 -0.3810  0.6668  0.2755
 1526SOL    HW116040   2.626   3.701   8.209  0.8700 -1.6721  0.9476
 1526SOL    HW216041   2.495   3.637   8.222  0.1336  1.4149 -1.0068
 1527SOL     OW16042   3.655   2.270   2.091 -0.2877 -0.3897 -0.1641
 1527SOL    HW116043   3.611   2.193   2.127 -0.8210  0.1139  0.2803
 1527SOL    HW216044   3.578   2.325   2.074 -1.5295 -2.6912 -1.8577
 1528SOL     OW16045   0.956   3.782   6.350  0.3097  0.7959 -0.4559
 1528SOL    HW116046   1.047   3.761   6.331  0.3998 -0.9708  1.8482
 1528SOL    HW216047   0.972   3.817   6.438 -2.4240 -0.1288  0.4118
 1529SOL     OW16048   1.783   3.456  12.468  0.0152  0.2622 -0.0078
 1529SOL    HW116049   1.744   3.420  12.547  3.2045 -1.6928  0.6841
 1529SOL    HW216050   1.768   3.384  12.406 -2.5904  1.0813 -0.3071
 1530SOL     OW16051   0.140   4.371   1.225  0.4256  0.1946 -0.3377
 1530SOL    HW116052   0.235   4.380   1.219  0.2815  0.6902 -1.9115
 1530SOL    HW216053   0.146   4.306   1.294 -1.3289  0.1438 -0.2453
 1531SOL     OW16054   3.594   0.453   6.267 -0.1647 -0.3847  0.0030
 1531SOL    HW116055   3.664   0.436   6.204  0.1148  1.3651 -0.1585
 1531SOL    HW216056   3.518   0.451   6.210 -0.7614 -0.7341  0.8156
 1532SOL     OW16057   0.651   3.105   7.305 -0.3395 -0.2780 -0.2368
 1532SOL    HW116058   0.677   3.138   7.391 -0.6510 -2.1190  0.5662
 1532SOL    HW216059   0.674   3.182   7.254 -1.3275  0.7675  0.9052
 1533SOL     OW16060   1.525   1.752  17.390  0.6212 -0.5600  0.4925
 1533SOL    HW116061   1.518   1.754  17.485  1.1574  0.4503  0.5110
 1533SOL    HW216062   1.499   1.839  17.357  0.0830 -0.4772  1.1384
 1534SOL     OW16063   4.611   0.374  14.093  0.0133 -0.8002 -0.0971
 1534SOL    HW116064   4.542   0.361  14.027 -0.3368  0.3448  0.0454
 1534SOL    HW216065   4.571   0.347  14.176 -1.3986  0.5394 -0.3423
 1535SOL     OW16066   1.726   4.328  10.660  0.4351  0.2176  0.2396
 1535SOL    HW116067   1.633   4.327  10.638  0.3919 -1.6492  0.5232
 1535SOL    HW216068   1.722   4.339  10.755  4.7665 -0.0969  0.4614
 1536SOL     OW16069   0.902   1.212   4.464  0.5890 -0.2424 -0.6422
 1536SOL    HW116070   0.831   1.272   4.485  1.0439 -0.0890  0.4918
 1536SOL    HW216071   0.858   1.147   4.409  2.2152 -1.2877 -0.7261
 1537SOL     OW16072   1.428   4.435  13.959  0.3802  0.2484  0.3090
 1537SOL    HW116073   1.389   4.432  13.872 -0.0637 -0.5002  0.5308
 1537SOL    HW216074   1.396   4.517  13.997 -2.7629 -0.6804 -0.3191
 1538SOL     OW16075   4.620   4.583   0.037  0.1862 -0.2636  0.1568
 1538SOL    HW116076   4.547   4.523   0.054  0.6497 -0.4114  1.6128
 1538SOL    HW216077   4.685   4.556   0.102  0.5212  1.2801  0.4475
 1539SOL     OW16078   0.376   2.817   7.190  0.0285 -0.5261 -0.3870
 1539SOL    HW116079   0.316   2.846   7.121 -1.7665 -1.9183  0.5848
 1539SOL    HW216080   0.326   2.741   7.221  0.7179 -0.6770  0.3478
 1540SOL     OW16081   3.736   0.537  12.015 -0.1181 -0.3275 -0.9946
 1540SOL    HW116082   3.805   0.603  12.003 -0.0053 -0.6586 -2.2312
 1540SOL    HW216083   3.667   0.571  11.957 -0.8201 -0.4491 -0.2192
 1541SOL     OW16084   0.239   2.968   2.845 -0.1059  0.0982 -0.0139
 1541SOL    HW116085   0.255   3.027   2.771  1.4585 -0.7395 -0.3281
 1541SOL    HW216086   0.200   2.890   2.806  0.1193  0.9692 -1.9569
 1542SOL     OW16087   3.502   1.221   8.838 -0.2095  0.5635 -0.1884
 1542SOL    HW116088   3.407   1.211   8.852 -0.3221 -0.2623 -1.5966
 1542SOL    HW216089   3.532   1.218   8.929  2.8265  1.8122 -1.1379
 1543SOL     OW16090   1.117   1.069   4.290 -0.3073 -0.1704  0.3820
 1543SOL    HW116091   1.067   1.117   4.356 -1.3977  0.7250 -1.0786
 1543SOL    HW216092   1.189   1.029   4.337 -0.6784 -2.6219 -1.1036
 1544SOL     OW16093   4.267   0.466   0.192 -0.4114  0.2144 -0.2040
 1544SOL    HW116094   4.172   0.459   0.203 -0.9412  1.2305 -4.1174
 1544SOL    HW216095   4.294   0.433   0.106 -0.0199 -1.3827  0.5271
 1545SOL     OW16096   0.199   0.591   2.623  0.3249  0.3127 -0.1733
 1545SOL    HW116097   0.108   0.590   2.592  0.1549  3.5920  0.2000
 1545SOL    HW216098   0.209   0.683   2.646  0.3679  0.5476 -1.1300
 1546SOL     OW16099   0.466   0.657   6.003 -0.0198  0.4609  0.1934
 1546SOL    HW116100   0.445   0.601   5.928 -1.2222 -0.8261  1.5064
 1546SOL    HW216101   0.469   0.737   5.950 -0.2042  0.7104  0.5566
 1547SOL     OW16102   3.457   2.711   1.971 -0.3863 -0.3489  0.2796
 1547SOL    HW116103   3.519   2.674   1.908  0.2886  0.5706  0.3984
 1547SOL    HW216104   3.521   2.770   2.011 -0.8575 -0.7534  1.6035
 1548SOL     OW16105   0.319   2.210  14.596 -0.0014 -0.2440  0.3193
 1548SOL    HW116106   0.387   2.265  14.558 -1.0171  1.1574  0.5387
 1548SOL    HW216107   0.254   2.219  14.527 -0.0184  2.4413  0.7058
 1549SOL     OW16108   2.823   3.216   7.624  0.0987  0.0058  0.2300
 1549SOL    HW116109   2.862   3.164   7.694  1.1166  2.3718  1.4098
 1549SOL    HW216110   2.865   3.299   7.643 -0.1340 -0.0330  0.9125
 1550SOL     OW16111   1.354   2.881   1.028  0.7891 -0.3360 -0.4970
 1550SOL    HW116112   1.342   2.955   1.088 -1.4149  0.3749 -1.8249
 1550SOL    HW216113   1.312   2.914   0.949 -1.2044 -1.4483  0.1009
 1551SOL     OW16114   2.087   1.578   3.863  0.3530 -0.3580 -0.3773
 1551SOL    HW116115   2.014   1.520   3.838 -1.3169  0.9238  1.5742
 1551SOL    HW216116   2.051   1.655   3.818 -0.1468 -0.6760 -0.5268
 1552SOL     OW16117   0.630   4.573   5.566  0.2901 -0.0223  0.3405
 1552SOL    HW116118   0.546   4.527   5.563  0.6422 -0.5391 -1.5088
 1552SOL    HW216119   0.599   4.654   5.525  1.3794 -0.3067 -1.0584
 1553SOL     OW16120   2.038   0.563  11.710  0.0506 -0.7666  0.2814
 1553SOL    HW116121   2.075   0.525  11.790 -0.0053 -1.4885 -0.0438
 1553SOL    HW216122   1.951   0.585  11.744 -0.7797 -2.4608 -0.7350
 1554SOL     OW16123   1.392   3.363   1.722 -0.4262 -0.4232 -0.3864
 1554SOL    HW116124   1.430   3.281   1.689 -2.0236 -1.3616  0.1085
 1554SOL    HW216125   1.342   3.328   1.796 -1.0604 -1.1466 -1.1689
 1555SOL     OW16126   2.168   2.276   3.816  0.9413 -0.2311 -0.6224
 1555SOL    HW116127   2.237   2.209   3.817  0.9384 -0.2450 -2.0018
 1555SOL    HW216128   2.149   2.276   3.910  0.5100  2.5755 -0.7204
 1556SOL     OW16129   0.693   1.125   3.286  0.0263  0.3577  0.1965
 1556SOL    HW116130   0.712   1.209   3.328 -1.2844  0.0465  1.4365
 1556SOL    HW216131   0.645   1.143   3.205 -0.0471 -2.0580 -0.3087
 1557SOL     OW16132   1.617   3.827   6.403  0.8947  0.2078  0.0282
 1557SOL    HW116133   1.662   3.743   6.410 -1.5857 -1.1966 -0.8327
 1557SOL    HW216134   1.554   3.821   6.475 -1.2509 -1.5201 -2.0019
 1558SOL     OW16135   2.130   0.175  11.167  0.2223 -0.0398  0.2361
 1558SOL    HW116136   2.113   0.210  11.255  2.0996  1.0926  0.1371
 1558SOL    HW216137   2.198   0.234  11.135  0.8726 -1.4015 -0.8837
 1559SOL     OW16138   3.679   4.074   5.104 -0.2742  0.7108  0.0162
 1559SOL    HW116139   3.639   3.997   5.144 -2.4619  0.7781 -2.0148
 1559SOL    HW216140   3.654   4.067   5.012 -0.2819 -3.0280  0.3171
 1560SOL     OW16141   0.398   4.065   8.489 -0.1741 -0.2885 -0.3440
 1560SOL    HW116142   0.374   4.151   8.454 -0.8474 -0.8749 -1.3411
 1560SOL    HW216143   0.474   4.077   8.545 -1.0637  0.8696  0.5934
 1561SOL     OW16144   1.698   1.104   9.530  0.9498 -0.1002  0.3996
 1561SOL    HW116145   1.686   1.097   9.625  0.5013  1.3675  0.4502
 1561SOL    HW216146   1.627   1.164   9.509  1.7811  0.0844 -1.8236
 1562SOL     OW16147   0.577   3.225   3.832  0.5512  0.1227  0.3715
 1562SOL    HW116148   0.483   3.219   3.816  0.6030 -0.2426  0.2044
 1562SOL    HW216149   0.608   3.231   3.741 -1.8186  3.3913 -0.1783
 1563SOL     OW16150   3.585   1.962   7.539 -0.3789  0.4491 -0.2533
 1563SOL    HW116151   3.643   2.035   7.519 -1.2095  1.2187  0.1855
 1563SOL    HW216152   3.632   1.927   7.615 -1.0553 -2.2987 -1.1071
 1564SOL     OW16153   0.313   2.589   2.027  0.5631 -0.4431  0.1738
 1564SOL    HW116154   0.344   2.579   1.937 -1.0406 -0.2749 -0.4165
 1564SOL    HW216155   0.218   2.600   2.016  0.7131  0.7596  0.1373
 1565SOL     OW16156   2.066   1.413   8.804 -0.6621  0.0279  0.6249
 1565SOL    HW116157   2.062   1.369   8.889  2.2422  1.8376  1.7085
 1565SOL    HW216158   2.047   1.504   8.827  1.8467  0.6959  0.0671
 1566SOL     OW16159   2.156   1.927   7.986  0.5832  0.2165  0.4472
 1566SOL    HW116160   2.111   2.011   7.997 -0.0720  0.1266 -1.4455
 1566SOL    HW216161   2.242   1.954   7.954 -0.8282  1.5574 -2.2174
 1567SOL     OW16162   2.894   4.054   5.009 -0.2943  0.1061  0.3127
 1567SOL    HW116163   2.844   4.035   4.930 -2.0372 -2.1390  1.9530
 1567SOL    HW216164   2.870   3.984   5.070  0.7990  1.0390  1.8070
 1568SOL     OW16165   4.702   0.971   8.836 -0.3927 -0.0476 -0.1095
 1568SOL    HW116166   4.669   0.881   8.833  1.4949 -0.8179  1.5515
 1568SOL    HW216167   0.052   0.984   8.774 -0.9886 -0.9025 -0.9747
 1569SOL     OW16168   4.675   2.098   8.638 -0.2260  0.7199  0.5706
 1569SOL    HW116169   4.632   2.063   8.716  0.4212  0.2889  0.7302
 1569SOL    HW216170   4.595   2.138   8.602 -1.5748 -2.1165  0.4306
 1570SOL     OW16171   0.639   3.001  14.189  0.0560 -0.3313 -0.6632
 1570SOL    HW116172   0.722   3.046  14.204  1.8342 -3.0006 -2.4886
 1570SOL    HW216173   0.637   2.928  14.251  2.0208  0.2168  0.0751
 1571SOL     OW16174   1.934   4.092  14.656  0.2781 -0.2233  0.0659
 1571SOL    HW116175   1.891   4.147  14.722 -1.0586  1.0688 -1.8746
 1571SOL    HW216176   1.896   4.124  14.574 -0.8909  2.3913  1.6451
 1572SOL     OW16177   3.565   0.613   8.842 -0.1567 -0.1541 -0.1659
 1572SOL    HW116178   3.490   0.577   8.890  0.0996 -3.8214 -2.5371
 1572SOL    HW216179   3.615   0.644   8.917 -0.7247 -2.9686  1.3739
 1573SOL     OW16180   1.516   4.172  17.385  0.2039  0.5335 -0.1669
 1573SOL    HW116181   1.457   4.104  17.419 -0.3037  1.5254  0.9503
 1573SOL    HW216182   1.597   4.121  17.387  0.1842  0.6592  4.8369
 1574SOL     OW16183   0.820   1.636  10.130 -0.1989 -0.4208  0.2568
 1574SOL    HW116184   0.761   1.609  10.059 -1.3852  2.4506  0.1446
 1574SOL    HW216185   0.809   1.567  10.195 -2.5086 -1.1274 -0.8768
 1575SOL     OW16186   1.497   1.276   8.261  0.1229  0.2292  0.0788
 1575SOL    HW116187   1.482   1.185   8.238 -2.7802  0.9004 -0.6831
 1575SOL    HW216188   1.438   1.319   8.199 -0.7545 -0.7018  0.2771
 1576SOL     OW16189   0.801   1.842   7.052 -0.1140 -0.1432 -0.3390
 1576SOL    HW116190   0.770   1.896   7.125 -1.1042 -1.9976  0.6062
 1576SOL    HW216191   0.895   1.846   7.063 -0.1085 -0.1410 -0.3840
 1577SOL     OW16192   3.426   0.151   6.032  0.7815  0.3726 -0.3797
 1577SOL    HW116193   3.443   0.244   6.043  0.0468  0.0566  3.4757
 1577SOL    HW216194   3.413   0.155   5.937 -1.1995  3.5292  0.0326
 1578SOL     OW16195   2.777   4.699   4.774  0.0866 -0.1373 -0.2415
 1578SOL    HW116196   2.753   0.025   4.854  1.8890  0.1916  0.1068
 1578SOL    HW216197   2.704   4.644   4.747  0.2370  0.1405 -1.2234
 1579SOL     OW16198   0.614   4.380   7.346  0.2013 -0.6599 -0.5678
 1579SOL    HW116199   0.645   4.342   7.264  0.1149  2.5871 -2.0712
 1579SOL    HW216200   0.551   4.319   7.385  0.3877 -0.8270 -0.5233
 1580SOL     OW16201   2.898   3.023  14.015 -0.1221 -0.2942  0.2034
 1580SOL    HW116202   2.903   2.997  13.923  2.0131  1.4540 -0.1727
 1580SOL    HW216203   2.899   2.939  14.060 -0.8859 -0.1906  0.4166
 1581SOL     OW16204   0.763   0.461   4.817  0.1300 -0.4059  0.0046
 1581SOL    HW116205   0.715   0.522   4.762  0.2415 -0.2564  0.0755
 1581SOL    HW216206   0.688   0.406   4.843  0.9544 -0.7067  1.7540
 1582SOL     OW16207   0.900   4.655   0.433  0.1164 -0.4743  0.3665
 1582SOL    HW116208   0.885   4.696   0.518 -1.5604  2.1135 -1.1674
 1582SOL    HW216209   0.983   4.694   0.406  0.2875 -0.5037  0.8524
 1583SOL     OW16210   0.844   2.668   7.736  0.3946 -0.1427 -0.7260
 1583SOL    HW116211   0.874   2.618   7.812  1.9110 -0.3861 -1.4893
 1583SOL    HW216212   0.765   2.713   7.767  1.4101  1.1629 -0.0240
 1584SOL     OW16213   4.473   0.826   6.005 -0.0387 -0.0780 -0.5453
 1584SOL    HW116214   4.547   0.865   6.051  0.9349  0.8076 -2.8806
 1584SOL    HW216215   4.486   0.855   5.915 -1.5572  0.2260 -0.6686
 1585SOL     OW16216   2.848   3.848   7.036  0.0334  0.2733  0.2725
 1585SOL    HW116217   2.868   3.887   7.121  2.1209 -2.8468  1.2165
 1585SOL    HW216218   2.937   3.831   7.005 -0.4500 -0.5947 -0.6590
 1586SOL     OW16219   3.236   4.002   7.153 -0.1261 -0.3843 -0.2735
 1586SOL    HW116220   3.331   3.994   7.142 -0.0882 -0.9023  0.4344
 1586SOL    HW216221   3.214   3.955   7.234 -0.3187 -1.0469 -0.7120
 1587SOL     OW16222   0.518   0.352   4.676 -0.1127 -0.4161 -0.1202
 1587SOL    HW116223   0.497   0.387   4.763 -1.2296 -0.1366 -0.5080
 1587SOL    HW216224   0.515   0.262   4.709  0.0004 -0.4649 -0.2464
 1588SOL     OW16225   1.816   0.819   7.731 -0.4523 -0.3038 -0.4697
 1588SOL    HW116226   1.906   0.787   7.743 -0.9792 -1.1975  1.0678
 1588SOL    HW216227   1.772   0.750   7.680 -1.3687 -1.4839  1.9524
 1589SOL     OW16228   0.420   2.225   4.619 -0.6343  0.1594 -0.1762
 1589SOL    HW116229   0.506   2.188   4.598 -0.5981  0.1682 -0.0441
 1589SOL    HW216230   0.452   2.311   4.647  0.4560 -0.0964 -0.6587
 1590SOL     OW16231   3.923   1.638  15.516  0.0909 -0.6491 -0.4117
 1590SOL    HW116232   3.829   1.657  15.523 -0.3821 -3.4609  0.8102
 1590SOL    HW216233   3.932   1.586  15.436 -0.6716 -0.5625 -0.5568
 1591SOL     OW16234   0.607   1.912   3.964  0.1852  0.4249 -0.3927
 1591SOL    HW116235   0.532   1.853   3.973  0.3244  0.4780  1.1778
 1591SOL    HW216236   0.648   1.893   4.049 -0.8215  2.4307  0.5325
 1592SOL     OW16237   4.443   2.234   6.828 -0.7644 -0.3668  0.4390
 1592SOL    HW116238   4.400   2.182   6.761 -0.7272 -0.4234  0.4584
 1592SOL    HW216239   4.446   2.324   6.796 -1.9862 -1.2054 -1.9411
 1593SOL     OW16240   3.002   3.150  14.364  0.2919  0.4520  0.2889
 1593SOL    HW116241   2.915   3.154  14.403 -0.0574  0.9442 -0.5390
 1593SOL    HW216242   2.982   3.124  14.274 -1.7212  2.8181  0.0488
 1594SOL     OW16243   0.610   2.228  16.754 -0.7395 -0.3505 -0.2139
 1594SOL    HW116244   0.522   2.248  16.785  0.2865  0.7489  2.0057
 1594SOL    HW216245   0.609   2.132  16.761  1.0459 -0.2274  1.5453
 1595SOL     OW16246   3.300   2.302   2.893 -0.4916  0.3340  0.1399
 1595SOL    HW116247   3.249   2.298   2.812 -1.6801 -2.7980  1.0178
 1595SOL    HW216248   3.386   2.324   2.857  0.3898 -1.6114  1.0277
 1596SOL     OW16249   1.878   1.259   6.539 -0.7323  0.9191  0.4942
 1596SOL    HW116250   1.866   1.337   6.593 -0.4095 -1.7409  4.3929
 1596SOL    HW216251   1.870   1.298   6.452 -0.7678  1.9363  0.9442
 1597SOL     OW16252   1.869   4.510   6.566 -0.2467  0.2496 -0.1989
 1597SOL    HW116253   1.919   4.574   6.616  0.4043  1.2598 -2.1555
 1597SOL    HW216254   1.910   4.507   6.479 -0.8259 -2.2596 -0.3994
 1598SOL     OW16255   1.833   2.275   5.586 -0.1919  0.3614  0.0689
 1598SOL    HW116256   1.894   2.323   5.530  0.0749  0.3165  0.3190
 1598SOL    HW216257   1.748   2.295   5.548  0.0705 -0.0690 -0.7389
 1599SOL     OW16258   0.534   2.126  12.893 -0.3881  0.4287  0.0542
 1599SOL    HW116259   0.594   2.197  12.914  0.1709  0.0089 -0.1220
 1599SOL    HW216260   0.470   2.145  12.961 -0.8375 -1.5991  0.1886
 1600SOL     OW16261   0.372   4.339   5.303 -0.0595 -0.2852  0.1651
 1600SOL    HW116262   0.387   4.357   5.396  1.7471 -1.1326  0.0340
 1600SOL    HW216263   0.290   4.291   5.308 -1.3397  1.8691  0.0362
 1601SOL     OW16264   0.911   4.277  16.963  0.0586 -0.9279 -0.0636
 1601SOL    HW116265   0.988   4.237  17.003  0.6100 -1.7851 -1.9793
 1601SOL    HW216266   0.840   4.245  17.018 -0.5899  0.7932  0.1032
 1602SOL     OW16267   0.200   3.691   4.992  0.2866 -0.3545 -0.3961
 1602SOL    HW116268   0.147   3.707   4.914  0.9061  0.9142 -0.5588
 1602SOL    HW216269   0.238   3.605   4.978  3.1361  1.0112 -0.9457
 1603SOL     OW16270   2.294   1.975   9.400  0.4019 -0.6039 -0.2288
 1603SOL    HW116271   2.370   1.960   9.343  0.0622  0.7661 -1.0443
 1603SOL    HW216272   2.317   1.927   9.480 -0.2095 -0.6971 -0.1078
 1604SOL     OW16273   1.714   2.708   5.190  0.3922 -0.3170 -0.3776
 1604SOL    HW116274   1.646   2.755   5.237 -1.5168 -4.0414  0.5791
 1604SOL    HW216275   1.670   2.655   5.124 -0.5446 -1.2694  1.0055
 1605SOL     OW16276   0.935   1.500  12.205  0.1302  0.2323  0.6509
 1605SOL    HW116277   0.904   1.545  12.127 -0.7213  0.2842  1.0131
 1605SOL    HW216278   0.970   1.420  12.167  1.7365  0.7983  0.9597
 1606SOL     OW16279   4.573   2.925  16.484 -0.2646 -0.4642 -0.2441
 1606SOL    HW116280   4.506   2.865  16.452  1.2431 -3.4567  2.1833
 1606SOL    HW216281   4.606   2.965  16.404 -1.3178  1.1882  0.1513
 1607SOL     OW16282   4.367   3.929   3.304  0.6491  0.2220  0.1066
 1607SOL    HW116283   4.413   3.973   3.232  0.9582 -1.4704 -0.7318
 1607SOL    HW216284   4.421   3.961   3.376 -0.1113 -0.3803  0.9471
 1608SOL     OW16285   1.256   0.699   1.770 -0.3194  0.0864  0.0899
 1608SOL    HW116286   1.169   0.702   1.730  0.1365  2.4374 -0.7274
 1608SOL    HW216287   1.237   0.727   1.860  1.1922  2.5216 -0.3783
 1609SOL     OW16288   2.199   2.912   3.612 -0.0435 -0.2149 -0.2408
 1609SOL    HW116289   2.294   2.926   3.616 -0.3156  1.7284 -0.8818
 1609SOL    HW216290   2.175   2.940   3.524 -2.0533 -0.1702  0.3344
 1610SOL     OW16291   3.299   2.325  11.654  0.6231  0.1030  0.2797
 1610SOL    HW116292   3.320   2.232  11.667 -2.4411 -0.6537 -0.2904
 1610SOL    HW216293   3.252   2.331  11.571 -2.1076 -0.0887  1.8043
 1611SOL     OW16294   2.460   3.473   0.673 -0.5259 -0.3973 -0.2374
 1611SOL    HW116295   2.490   3.460   0.583  0.9335 -0.1593  0.2131
 1611SOL    HW216296   2.479   3.565   0.688  0.2833 -0.5286 -0.4244
 1612SOL     OW16297   2.957   3.438   7.699 -0.1590  0.2831  0.0356
 1612SOL    HW116298   2.902   3.515   7.715  0.4449  0.3410  1.8692
 1612SOL    HW216299   3.041   3.473   7.670 -0.3410  1.2898  0.7176
 1613SOL     OW16300   3.274   1.553   5.020 -0.5199 -0.3051  0.0962
 1613SOL    HW116301   3.228   1.626   4.978 -0.4984 -3.0431 -4.7059
 1613SOL    HW216302   3.202   1.511   5.066 -0.3762  0.9991  1.5130
 1614SOL     OW16303   1.785   0.050  11.597 -0.0521 -0.0029  0.0337
 1614SOL    HW116304   1.775   4.687  11.640  4.6681 -0.7915 -0.3664
 1614SOL    HW216305   1.719   0.105  11.639 -0.6124  0.0712 -0.9491
 1615SOL     OW16306   0.420   3.446   9.191 -0.0275 -0.0742 -0.4795
 1615SOL    HW116307   0.428   3.460   9.286 -1.2800 -0.8973 -0.2500
 1615SOL    HW216308   0.330   3.414   9.184  0.2249 -0.4064 -2.0256
 1616SOL     OW16309   2.997   0.714  11.233  0.1538  0.4526  0.0453
 1616SOL    HW116310   3.022   0.805  11.249 -0.7376  0.4754  1.2950
 1616SOL    HW216311   3.011   0.666  11.314  1.4997 -0.4474 -0.7245
 1617SOL     OW16312   1.912   1.311   7.420 -0.3458  0.3192 -0.0725
 1617SOL    HW116313   2.002   1.307   7.387  0.7664 -2.6156  3.4298
 1617SOL    HW216314   1.855   1.309   7.343 -0.2677 -0.2326 -0.1108
 1618SOL     OW16315   0.387   2.494   2.827 -0.5007  0.3628  0.1378
 1618SOL    HW116316   0.333   2.494   2.906 -1.2148  0.1872 -0.3441
 1618SOL    HW216317   0.471   2.518   2.865 -0.5206  0.5452  0.0683
 1619SOL     OW16318   3.099   2.001   0.545 -0.0390  0.1944  0.3615
 1619SOL    HW116319   3.078   1.951   0.466 -2.5346  2.9946 -0.7702
 1619SOL    HW216320   3.017   1.992   0.594  0.2843 -0.2134  0.8276
 1620SOL     OW16321   3.284   3.465   4.209  0.0848 -0.4055  0.3586
 1620SOL    HW116322   3.283   3.444   4.302  3.3222  1.4284  0.8055
 1620SOL    HW216323   3.326   3.551   4.211  1.5289 -1.1023 -0.1827
 1621SOL     OW16324   0.740   1.315  12.753 -0.6967 -0.4784 -0.0624
 1621SOL    HW116325   0.687   1.242  12.785  1.9279 -2.3529  0.0437
 1621SOL    HW216326   0.794   1.345  12.826 -0.9396  0.8740 -0.4487
 1622SOL     OW16327   2.657   0.036   7.863 -0.0137  0.0244  0.1719
 1622SOL    HW116328   2.618   0.043   7.950 -1.5477 -4.7343 -0.1383
 1622SOL    HW216329   2.579   0.048   7.808  0.9374 -0.1357 -1.1902
 1623SOL     OW16330   1.162   0.648  14.617 -0.1687 -0.4641 -0.5615
 1623SOL    HW116331   1.190   0.609  14.535  1.8860  1.2364 -0.6640
 1623SOL    HW216332   1.241   0.664  14.668  0.1142 -0.1317 -1.1118
 1624SOL     OW16333   1.359   1.560  12.120 -0.1722  0.9259 -0.1707
 1624SOL    HW116334   1.280   1.591  12.077  0.4408  1.5214 -0.8695
 1624SOL    HW216335   1.396   1.494  12.062  0.7015 -1.2487  2.8716
 1625SOL     OW16336   1.575   0.409   2.745  0.6111 -0.2522 -0.1677
 1625SOL    HW116337   1.640   0.367   2.688 -0.5739 -0.7776 -1.1269
 1625SOL    HW216338   1.499   0.413   2.688  1.9729 -0.7686 -2.0382
 1626SOL     OW16339   2.047   0.839   5.174  0.2260 -0.3817 -0.2724
 1626SOL    HW116340   2.103   0.803   5.105  2.4185  2.4510  0.0455
 1626SOL    HW216341   1.985   0.899   5.132 -1.9740 -1.6155  1.2015
 1627SOL     OW16342   2.653   4.489   6.101 -0.7036  0.4743 -0.5027
 1627SOL    HW116343   2.589   4.421   6.122 -1.5474  1.5792  0.5186
 1627SOL    HW216344   2.737   4.448   6.120 -0.4351  1.6955  0.9526
 1628SOL     OW16345   2.541   2.743   4.715  0.3288  0.3656  0.0621
 1628SOL    HW116346   2.499   2.813   4.764  0.2585 -0.9186  1.8463
 1628SOL    HW216347   2.494   2.738   4.632 -2.1693  0.4525  1.5065
 1629SOL     OW16348   3.237   1.211   9.894 -0.5502  0.3098 -0.4009
 1629SOL    HW116349   3.297   1.282   9.872  1.4636 -0.4702  2.4686
 1629SOL    HW216350   3.218   1.170   9.810 -1.6856  1.3179 -0.6298
 1630SOL     OW16351   1.629   0.067   5.421 -0.1351 -0.1090 -0.4086
 1630SOL    HW116352   1.539   0.035   5.416  0.0480 -0.6961  0.1053
 1630SOL    HW216353   1.665   0.037   5.337  0.1798 -1.5414  0.2413
 1631SOL     OW16354   2.087   3.949   3.066 -1.3682 -0.2691  0.2399
 1631SOL    HW116355   2.120   3.861   3.046 -1.8984 -0.8627  1.9054
 1631SOL    HW216356   2.169   3.980   3.103 -0.5944  0.8366 -2.4412
 1632SOL     OW16357   2.389   1.211   7.967  0.6040 -0.4312  0.0102
 1632SOL    HW116358   2.455   1.161   7.919  0.3258 -1.3619  0.5967
 1632SOL    HW216359   2.454   1.243   8.030 -0.3758  1.6680 -0.0354
 1633SOL     OW16360   1.300   0.441   4.864 -0.2303  0.8046 -0.4928
 1633SOL    HW116361   1.253   0.436   4.781 -0.8317  2.9688 -0.2803
 1633SOL    HW216362   1.392   0.434   4.838 -0.1952  0.5315 -0.3037
 1634SOL     OW16363   4.434   0.022   0.974 -0.0348 -0.1826 -0.0525
 1634SOL    HW116364   4.480   4.697   0.904  2.2209 -0.4820  1.6139
 1634SOL    HW216365   4.360   0.045   0.918 -0.7361 -2.2740  0.0169
 1635SOL     OW16366   2.725   0.234   2.318 -0.5430 -0.0581  0.8393
 1635SOL    HW116367   2.780   0.206   2.245 -1.3817  0.5442 -0.0284
 1635SOL    HW216368   2.662   0.283   2.266 -1.2172 -0.2115  1.5076
 1636SOL     OW16369   1.674   0.443  10.691 -0.1489  0.3882  0.1715
 1636SOL    HW116370   1.662   0.433  10.786 -2.5237  0.2046 -0.1427
 1636SOL    HW216371   1.584   0.427  10.663  0.4207 -2.9193  0.2150
 1637SOL     OW16372   1.289   1.614   4.469  0.0237 -0.1620 -0.3048
 1637SOL    HW116373   1.222   1.658   4.522 -0.5594  1.4225 -2.3360
 1637SOL    HW216374   1.236   1.544   4.430  0.6224 -0.7839  0.0077
 1638SOL     OW16375   4.402   4.477  13.862  0.3034 -0.0645 -0.0826
 1638SOL    HW116376   4.371   4.564  13.886 -3.0340 -1.5159  0.9197
 1638SOL    HW216377   4.483   4.497  13.815 -0.4327  0.3600 -1.1873
 1639SOL     OW16378   1.302   1.667   9.841  0.4299 -0.1484  0.1406
 1639SOL    HW116379   1.392   1.647   9.817  0.4688 -0.5452  0.6233
 1639SOL    HW216380   1.314   1.709   9.927  1.7027 -0.0491 -0.0943
 1640SOL     OW16381   1.036   2.206   7.354  0.4326  0.1659  0.0601
 1640SOL    HW116382   1.057   2.272   7.420 -1.4217  0.1680  0.6427
 1640SOL    HW216383   0.941   2.208   7.343  0.4590 -2.4820 -0.5781
 1641SOL     OW16384   4.324   0.322   6.966  0.2290 -0.0123  0.4990
 1641SOL    HW116385   4.291   0.232   6.959 -1.5341  0.6554  0.1987
 1641SOL    HW216386   4.259   0.354   7.028 -0.8310  1.1087 -1.2107
 1642SOL     OW16387   4.263   0.454  17.154  0.2051 -0.1727  0.2404
 1642SOL    HW116388   4.359   0.450  17.151  0.2230  1.2237 -0.8104
 1642SOL    HW216389   4.240   0.494  17.071 -1.5780 -1.0073  0.3291
 1643SOL     OW16390   3.680   4.494   1.129  0.1098  0.1673  0.1229
 1643SOL    HW116391   3.610   4.443   1.169 -0.6979  0.2145 -1.2587
 1643SOL    HW216392   3.736   4.500   1.207  0.2419 -1.0171  0.1194
 1644SOL     OW16393   1.991   1.704   6.853 -0.0688  0.5885 -0.2954
 1644SOL    HW116394   2.062   1.743   6.802 -0.1168  0.6378 -0.3246
 1644SOL    HW216395   1.945   1.662   6.781  0.9840  2.5798 -2.1375
 1645SOL     OW16396   0.119   3.232   6.794  0.1006  0.3950 -0.4621
 1645SOL    HW116397   0.175   3.232   6.717  2.5315  3.0993  1.3106
 1645SOL    HW216398   0.063   3.305   6.765  0.2455  0.3357 -0.8921
 1646SOL     OW16399   4.465   0.419   9.504 -0.7586  0.6421  0.2021
 1646SOL    HW116400   4.538   0.372   9.544 -0.1349  0.2213 -1.4199
 1646SOL    HW216401   4.452   0.494   9.563 -0.4763  0.3801  0.6009
 1647SOL     OW16402   3.102   0.903   4.359 -0.1088 -0.1676 -0.0839
 1647SOL    HW116403   3.172   0.879   4.298  0.1239  1.0464 -0.2984
 1647SOL    HW216404   3.055   0.976   4.318  1.1852  0.2905 -0.7742
 1648SOL     OW16405   2.403   3.595   0.358  0.0288 -0.6650 -0.2631
 1648SOL    HW116406   2.448   3.680   0.353 -0.6191 -0.2680  0.8343
 1648SOL    HW216407   2.311   3.616   0.342  0.9085  1.3260 -2.7672
 1649SOL     OW16408   1.713   4.522   4.520  0.2905 -0.6786  0.0160
 1649SOL    HW116409   1.710   4.467   4.442 -0.8842  0.6088 -0.8443
 1649SOL    HW216410   1.802   4.554   4.510  0.4478  0.2139  4.3880
 1650SOL     OW16411   2.436   3.750  12.299  0.7725  0.1474 -0.5204
 1650SOL    HW116412   2.525   3.742  12.263  0.8021 -0.5827 -0.2874
 1650SOL    HW216413   2.382   3.768  12.222  3.2454  0.5102 -2.1720
 1651SOL     OW16414   2.315   3.369  10.003 -0.1476 -0.0256  0.2894
 1651SOL    HW116415   2.393   3.415   9.974 -1.1118  1.0710 -0.5446
 1651SOL    HW216416   2.319   3.392  10.096 -0.7798 -1.2409  0.6227
 1652SOL     OW16417   0.186   1.145   7.102 -0.0531  0.4235  0.1519
 1652SOL    HW116418   0.270   1.172   7.141 -0.0482  0.0200  0.4197
 1652SOL    HW216419   0.221   1.137   7.013 -0.0826  1.9068  0.0032
 1653SOL     OW16420   0.172   0.869   9.302  0.4452 -0.2992  0.2892
 1653SOL    HW116421   0.175   0.774   9.313 -1.4010 -0.5233 -1.2248
 1653SOL    HW216422   0.128   0.904   9.380  2.7761 -0.4957  1.6933
 1654SOL     OW16423   4.627   4.192   8.332 -0.2831 -0.3807  0.6482
 1654SOL    HW116424   4.653   4.186   8.424  0.5919  0.6448  0.4727
 1654SOL    HW216425   4.545   4.240   8.329  0.6066  1.1887  1.1261
 1655SOL     OW16426   3.690   1.903   7.196 -0.0026  0.0010  0.2242
 1655SOL    HW116427   3.612   1.955   7.173  0.2084  0.2410  0.0556
 1655SOL    HW216428   3.730   1.874   7.114 -0.4804 -0.5379  0.1768
 1656SOL     OW16429   4.182   4.574  11.970 -0.2763 -0.3625 -0.2648
 1656SOL    HW116430   4.138   4.566  12.054  0.4619  3.9201  0.5073
 1656SOL    HW216431   4.274   4.560  11.994 -0.6403  1.1475  1.9271
 1657SOL     OW16432   4.482   1.726  10.055  0.4648 -0.1759  0.3617
 1657SOL    HW116433   4.459   1.811  10.093 -0.5481 -0.1942 -0.1985
 1657SOL    HW216434   4.574   1.750  10.044  0.9855 -1.7281  1.4723
 1658SOL     OW16435   0.763   3.290   9.668 -0.0359 -0.3205  0.0525
 1658SOL    HW116436   0.840   3.234   9.661  0.8855  0.7647  1.6150
 1658SOL    HW216437   0.728   3.266   9.754  0.5978 -0.2645  0.3252
 1659SOL     OW16438   0.553   3.412   4.029  0.0973 -0.0515  0.2793
 1659SOL    HW116439   0.575   3.358   3.953 -1.0932  0.4475 -0.4234
 1659SOL    HW216440   0.580   3.501   4.006 -1.5057  0.8079  1.7063
 1660SOL     OW16441   1.316   1.733   3.596 -0.1849  0.4562  0.1441
 1660SOL    HW116442   1.403   1.742   3.635 -0.4365  0.8733  0.6084
 1660SOL    HW216443   1.267   1.779   3.664  1.3333 -1.3606  2.4630
 1661SOL     OW16444   0.098   0.875   6.847 -0.0274  0.1592  0.1570
 1661SOL    HW116445   0.069   0.918   6.927 -1.2228 -0.1755 -0.0907
 1661SOL    HW216446   0.182   0.910   6.818  0.3110 -0.7541  0.0352
 1662SOL     OW16447   3.556   3.796  16.659  0.1190 -0.3219 -0.9012
 1662SOL    HW116448   3.571   3.808  16.752  2.7619 -2.2971 -1.0625
 1662SOL    HW216449   3.604   3.714  16.649  1.3664  0.0739  2.1273
 1663SOL     OW16450   4.675   3.627   4.462 -0.4408  0.3793  0.5990
 1663SOL    HW116451   4.617   3.556   4.489 -0.4256 -0.4971 -1.6227
 1663SOL    HW216452   4.622   3.679   4.401  1.0399  2.4328  1.0617
 1664SOL     OW16453   3.167   0.862  12.204 -0.5627  0.2201 -0.1983
 1664SOL    HW116454   3.188   0.936  12.260 -1.2289  0.9621 -0.9135
 1664SOL    HW216455   3.119   0.907  12.134 -1.5127  0.5272  0.6389
 1665SOL     OW16456   0.827   1.563  16.223 -0.3257 -0.0780  0.0005
 1665SOL    HW116457   0.755   1.544  16.162  0.5793 -0.1971 -1.0237
 1665SOL    HW216458   0.777   1.567  16.305 -0.6326  2.2761 -0.2986
 1666SOL     OW16459   0.612   3.703  17.617 -0.4612  0.2473 -0.1543
 1666SOL    HW116460   0.681   3.764  17.591  0.9767 -1.3862 -0.1291
 1666SOL    HW216461   0.652   3.657   0.001 -3.0489 -0.2957  0.9285
 1667SOL     OW16462   0.095   1.134   4.282 -0.1171 -0.5216 -0.2552
 1667SOL    HW116463   0.142   1.165   4.206  0.0825 -0.0099  0.0774
 1667SOL    HW216464   0.143   1.162   4.361 -0.4295  0.3047 -0.3610
 1668SOL     OW16465   4.033   2.484   4.734  0.2868 -0.7372  0.5101
 1668SOL    HW116466   3.995   2.562   4.774 -0.1185  0.0503 -1.4183
 1668SOL    HW216467   3.951   2.440   4.712 -1.5751  1.7852  2.3831
 1669SOL     OW16468   2.346   3.957  14.848 -0.1398 -0.1121  0.3898
 1669SOL    HW116469   2.428   3.991  14.884  0.7905  0.1567 -1.9710
 1669SOL    HW216470   2.375   3.886  14.792  0.1468  0.5361 -0.2833
 1670SOL     OW16471   4.458   0.433   8.210  0.6839 -0.5771  0.7808
 1670SOL    HW116472   4.553   0.431   8.197  0.7164  0.8649  0.8751
 1670SOL    HW216473   4.443   0.527   8.222  1.2969 -0.3393 -0.2736
 1671SOL     OW16474   2.778   2.895   7.970 -0.4293  0.1558  0.5841
 1671SOL    HW116475   2.772   2.984   8.004  1.9964  0.3705  0.4631
 1671SOL    HW216476   2.745   2.844   8.044  1.5734 -0.0987  1.3065
 1672SOL     OW16477   3.076   3.502   6.069 -0.7451  0.2204 -0.4365
 1672SOL    HW116478   2.995   3.496   6.119 -0.8570  0.9621 -0.5278
 1672SOL    HW216479   3.078   3.597   6.067  3.3885  0.1404  0.2345
 1673SOL     OW16480   3.802   0.533   1.196  0.3598  0.5982 -0.0582
 1673SOL    HW116481   3.896   0.524   1.179  0.0891 -1.6658 -0.2655
 1673SOL    HW216482   3.800   0.620   1.156  0.2046  0.2886 -0.7339
 1674SOL     OW16483   0.489   0.995   5.240  0.1542 -0.3972  0.3074
 1674SOL    HW116484   0.539   1.053   5.299 -0.6830  1.3588 -0.7006
 1674SOL    HW216485   0.468   1.045   5.161  0.3522 -0.2653  0.3378
 1675SOL     OW16486   4.044   1.198  11.476 -0.3586  0.0806  0.0407
 1675SOL    HW116487   3.982   1.270  11.466 -0.3952 -0.0867 -0.8993
 1675SOL    HW216488   4.127   1.245  11.468  1.3569 -2.9607 -0.1379
 1676SOL     OW16489   2.917   0.714   4.465 -0.6114 -0.5752  0.4832
 1676SOL    HW116490   2.900   0.709   4.559 -0.0961 -1.3976  0.5357
 1676SOL    HW216491   2.939   0.806   4.456 -0.1871 -0.7981 -0.8425
 1677SOL     OW16492   2.272   2.520   7.887  0.4469 -0.0747  0.0307
 1677SOL    HW116493   2.361   2.538   7.917  0.3875 -1.8842  1.2925
 1677SOL    HW216494   2.268   2.425   7.879  0.8214 -0.1774  0.9921
 1678SOL     OW16495   3.056   0.979  11.314 -0.0087  0.2326 -0.0139
 1678SOL    HW116496   3.070   0.959  11.407 -0.7510  0.5960  0.1718
 1678SOL    HW216497   3.146   0.982  11.281 -0.7419  1.7176 -1.8856
 1679SOL     OW16498   3.088   1.361  10.871 -0.0913  0.1199 -0.1337
 1679SOL    HW116499   3.060   1.277  10.908 -0.4874  0.7706  1.0625
 1679SOL    HW216500   3.158   1.388  10.931 -0.0055  1.8416 -1.0367
 1680SOL     OW16501   2.202   2.420  10.866  0.2513  0.3993 -0.2056
 1680SOL    HW116502   2.186   2.368  10.945 -1.5776 -0.0176 -0.8546
 1680SOL    HW216503   2.278   2.377  10.827  0.2034  0.4037 -0.3037
 1681SOL     OW16504   0.889   1.808   9.122 -0.8439  0.1079 -0.2464
 1681SOL    HW116505   0.821   1.850   9.175  0.4661  1.4829  0.3499
 1681SOL    HW216506   0.951   1.768   9.183  0.3364  1.3840 -0.6205
 1682SOL     OW16507   1.816   2.065  14.045  0.0206 -0.0416 -0.3255
 1682SOL    HW116508   1.808   1.993  13.982  1.3274  2.0694 -2.8485
 1682SOL    HW216509   1.785   2.136  13.989 -2.4390  0.7261  2.0213
 1683SOL     OW16510   4.023   4.646  12.187  0.3873  0.2636 -0.1800
 1683SOL    HW116511   3.991   4.705  12.118 -1.3509  0.1166  0.4863
 1683SOL    HW216512   3.963   4.669  12.257  0.7803  2.6305 -0.6211
 1684SOL     OW16513   0.780   2.047   3.524  0.6997  0.0089 -0.5504
 1684SOL    HW116514   0.783   2.124   3.580  0.3829 -0.4169  0.0563
 1684SOL    HW216515   0.871   2.036   3.496  0.8471  1.8783 -0.8139
 1685SOL     OW16516   2.956   3.523   7.185 -0.6456 -0.2737 -0.3023
 1685SOL    HW116517   2.888   3.553   7.124 -0.7303 -0.9375 -0.5268
 1685SOL    HW216518   2.910   3.480   7.257  0.1622 -0.4390  0.1194
 1686SOL     OW16519   1.663   4.101   2.043  0.4187  0.1771  0.8650
 1686SOL    HW116520   1.594   4.047   2.080  1.2134 -1.5258 -0.1478
 1686SOL    HW216521   1.692   4.046   1.971 -1.0627  2.1176 -1.2431
 1687SOL     OW16522   1.380   3.524   5.702 -0.2177  0.2682 -0.3438
 1687SOL    HW116523   1.395   3.613   5.735 -0.3140  0.1257  0.0768
 1687SOL    HW216524   1.374   3.538   5.608  3.0982 -3.1157 -1.0589
 1688SOL     OW16525   0.485   1.116   8.766  0.2586 -0.1587  0.0578
 1688SOL    HW116526   0.536   1.050   8.719  0.0899  0.5251 -1.0707
 1688SOL    HW216527   0.540   1.194   8.754  0.9966 -0.4190  1.6148
 1689SOL     OW16528   2.979   3.467   5.319  0.2387  0.1404  0.0752
 1689SOL    HW116529   3.070   3.443   5.303 -0.1844 -0.4214 -1.4166
 1689SOL    HW216530   2.987   3.550   5.367 -2.3926  1.6997 -2.2146
 1690SOL     OW16531   2.972   1.998   1.886  0.4135 -0.0873  0.2063
 1690SOL    HW116532   3.031   1.965   1.819 -0.0722  0.7010 -0.6023
 1690SOL    HW216533   3.022   1.980   1.966 -2.0420 -0.7296  1.6317
 1691SOL     OW16534   0.728   3.777   3.401 -0.9971 -0.0543 -0.0905
 1691SOL    HW116535   0.819   3.807   3.411 -1.7146  1.7726  1.0763
 1691SOL    HW216536   0.740   3.714   3.330 -2.3799  0.2018 -0.5519
 1692SOL     OW16537   3.243   3.383   2.662  1.1522 -0.2884 -0.0779
 1692SOL    HW116538   3.196   3.417   2.738 -0.2366  1.0980 -1.5565
 1692SOL    HW216539   3.171   3.358   2.603  0.1514 -4.8273  3.0273
 1693SOL     OW16540   1.267   3.366   3.606  0.0255 -0.1776  0.0096
 1693SOL    HW116541   1.348   3.417   3.604  0.4425 -0.7891  1.1646
 1693SOL    HW216542   1.210   3.419   3.550  0.0447 -1.2599 -1.0433
 1694SOL     OW16543   3.440   1.476   7.205  0.4451  0.1360  0.1548
 1694SOL    HW116544   3.389   1.484   7.285 -1.8710 -1.7694 -1.1210
 1694SOL    HW216545   3.510   1.538   7.225 -0.6637  1.6056 -0.4525
 1695SOL     OW16546   2.547   2.839   9.186 -0.0408  0.0465  0.5567
 1695SOL    HW116547   2.485   2.780   9.227 -1.4723 -0.0184 -1.6790
 1695SOL    HW216548   2.623   2.784   9.166  0.9089  0.7010  2.4095
 1696SOL     OW16549   3.854   1.983  16.263  0.0064  0.3169 -0.3136
 1696SOL    HW116550   3.890   1.936  16.339  0.2085 -1.0826 -1.2790
 1696SOL    HW216551   3.874   2.076  16.275 -0.6858  0.4656 -0.2711
 1697SOL     OW16552   0.295   4.075   6.296  0.2669 -0.0608  0.4624
 1697SOL    HW116553   0.268   4.093   6.387  1.0482 -0.5374  0.7904
 1697SOL    HW216554   0.219   4.042   6.248 -1.4537  2.7484  1.2608
 1698SOL     OW16555   4.521   3.714   5.727  0.0684 -0.6548 -0.3906
 1698SOL    HW116556   4.443   3.670   5.695  0.8383 -1.5580 -1.0178
 1698SOL    HW216557   4.547   3.753   5.644  1.1458 -1.3281 -0.3796
 1699SOL     OW16558   1.661   3.802   3.494  0.1369  0.2332 -0.0438
 1699SOL    HW116559   1.729   3.869   3.495 -0.2740  0.6391  0.5737
 1699SOL    HW216560   1.615   3.834   3.416 -1.4286  0.9562  1.1942
 1700SOL     OW16561   1.758   1.879  10.718  0.5843  0.1070 -0.0061
 1700SOL    HW116562   1.666   1.854  10.708 -0.5979  3.5986  2.0374
 1700SOL    HW216563   1.795   1.822  10.786  0.0917 -0.2048  0.0018
 1701SOL     OW16564   4.012   1.034   2.602 -0.2179 -0.3627 -0.1968
 1701SOL    HW116565   3.931   1.034   2.550  0.1388  0.4799 -0.7606
 1701SOL    HW216566   3.978   1.022   2.691 -1.1273  1.8518 -0.2392
 1702SOL     OW16567   4.296   0.083   3.825  0.0258 -0.0667 -0.2643
 1702SOL    HW116568   4.390   0.080   3.843 -0.0698  0.8396  0.3706
 1702SOL    HW216569   4.291   4.721   3.778  0.9194 -0.4529  0.3405
 1703SOL     OW16570   4.360   4.124   2.487 -0.3976  0.2511  0.2864
 1703SOL    HW116571   4.299   4.197   2.484  1.6839  2.1329  3.9100
 1703SOL    HW216572   4.362   4.101   2.394  2.5208 -0.6993  0.5759
 1704SOL     OW16573   0.072   2.725   2.714 -0.2413  0.7709 -0.0190
 1704SOL    HW116574   0.085   2.630   2.710 -0.0091  0.8131 -0.3004
 1704SOL    HW216575   4.712   2.726   2.764 -0.0592 -0.2572  0.2888
 1705SOL     OW16576   0.653   1.161   6.720 -0.3197 -0.0031  0.1919
 1705SOL    HW116577   0.722   1.095   6.719 -0.8067 -0.5195  1.1816
 1705SOL    HW216578   0.615   1.147   6.806 -0.4533 -0.3385  0.0782
 1706SOL     OW16579   2.272   2.982   0.370  0.0124 -0.1343 -0.2533
 1706SOL    HW116580   2.227   2.906   0.334  1.9865 -1.0107 -0.8642
 1706SOL    HW216581   2.315   2.940   0.444 -0.5798  0.9072  0.6911
 1707SOL     OW16582   4.347   3.347   7.176 -0.0686 -0.6786  0.5877
 1707SOL    HW116583   4.311   3.370   7.090  0.6604 -0.0588  0.4503
 1707SOL    HW216584   4.320   3.423   7.227 -0.5879 -0.5967  0.1959
 1708SOL     OW16585   4.018   4.002   5.277 -0.1911  0.0824 -0.0000
 1708SOL    HW116586   4.086   4.008   5.344 -0.2746  2.0565 -0.0998
 1708SOL    HW216587   4.040   4.075   5.219 -1.2071  1.0460  0.8367
 1709SOL     OW16588   0.582   4.209   9.092  0.4029 -0.0784 -0.4817
 1709SOL    HW116589   0.502   4.208   9.040  0.1396 -0.8428 -0.0580
 1709SOL    HW216590   0.560   4.158   9.170  3.9527  0.5983  0.9838
 1710SOL     OW16591   4.592   2.969   2.316 -0.3276 -0.4406 -0.5049
 1710SOL    HW116592   4.519   2.998   2.371 -0.1949 -1.1733  0.0547
 1710SOL    HW216593   4.547   2.935   2.239 -0.1661  1.3374 -1.3961
 1711SOL     OW16594   2.190   0.778   4.939  0.0887  0.1780 -0.2110
 1711SOL    HW116595   2.277   0.769   4.977 -1.1942 -0.5509  2.5491
 1711SOL    HW216596   2.211   0.856   4.888 -2.9115  0.7749 -0.5159
 1712SOL     OW16597   2.495   2.166   4.680  0.4869 -0.1987 -0.2647
 1712SOL    HW116598   2.502   2.241   4.620  0.6171 -0.3108 -0.3901
 1712SOL    HW216599   2.451   2.217   4.748 -1.3862 -0.6874 -1.1341
 1713SOL     OW16600   2.822   0.980  17.656  0.6964 -0.0646  0.2877
 1713SOL    HW116601   2.774   0.899  17.638  1.3613 -0.4432  0.2097
 1713SOL    HW216602   2.854   0.990  17.567  0.6344 -0.6491  0.1937
 1714SOL     OW16603   0.517   1.183   7.728 -0.5239 -0.0382 -0.3401
 1714SOL    HW116604   0.493   1.092   7.710  0.2321 -0.0068 -1.5468
 1714SOL    HW216605   0.572   1.172   7.805 -1.2003  2.9143  0.5605
 1715SOL     OW16606   4.523   2.954   3.654 -0.6462  0.4980 -0.3484
 1715SOL    HW116607   4.536   3.009   3.731 -0.2061 -0.2488  0.1066
 1715SOL    HW216608   4.604   2.906   3.638  0.9670  2.3706  2.3149
 1716SOL     OW16609   2.686   4.019  13.370 -0.2274 -0.7901 -0.6251
 1716SOL    HW116610   2.726   4.024  13.457 -0.6365 -2.3814 -0.3493
 1716SOL    HW216611   2.593   4.038  13.379  0.2575  1.2517  0.2272
 1717SOL     OW16612   1.786   1.071  12.583 -0.0341  0.2724  0.2297
 1717SOL    HW116613   1.783   1.120  12.665  0.5205  0.9004 -0.1237
 1717SOL    HW216614   1.873   1.104  12.559 -0.0195  0.9576  1.1771
 1718SOL     OW16615   4.662   1.638  11.802  0.0974  0.3957 -0.3070
 1718SOL    HW116616   0.025   1.596  11.816 -0.2793 -0.0949  0.4779
 1718SOL    HW216617   4.690   1.718  11.758 -0.0669  0.3390 -0.5143
 1719SOL     OW16618   4.619   4.276   5.262 -0.0413 -0.2753  0.7044
 1719SOL    HW116619   4.692   4.227   5.299 -0.5725 -1.1595  0.5818
 1719SOL    HW216620   4.559   4.213   5.222  3.6741 -2.8105 -0.8984
 1720SOL     OW16621   4.304   1.319   1.979  0.3569 -0.6547 -0.0084
 1720SOL    HW116622   4.252   1.371   1.917 -0.0480  0.1506  1.0064
 1720SOL    HW216623   4.262   1.233   1.971 -2.7865  0.9577 -0.9684
 1721SOL     OW16624   1.917   2.659   8.277  0.5105 -0.0757 -0.0115
 1721SOL    HW116625   1.955   2.572   8.267  0.6886  0.2916 -2.4475
 1721SOL    HW216626   1.825   2.638   8.260  1.0344 -0.7041 -2.0166
 1722SOL     OW16627   2.028   2.861   3.146 -0.0698  0.0905  0.4531
 1722SOL    HW116628   2.088   2.858   3.072  0.3759 -1.2324  0.8704
 1722SOL    HW216629   1.949   2.878   3.095 -0.7455  1.2742  1.9074
 1723SOL     OW16630   0.949   0.702   8.240 -0.5401 -0.2438 -0.3365
 1723SOL    HW116631   0.978   0.784   8.280 -1.7180  0.2585 -0.5213
 1723SOL    HW216632   0.984   0.704   8.151  1.9425 -0.5747  0.6352
 1724SOL     OW16633   0.108   2.725  16.867  0.0648 -0.3333  0.2189
 1724SOL    HW116634   0.030   2.766  16.903  0.5411  0.6227  0.1486
 1724SOL    HW216635   0.109   2.748  16.775 -0.9935  0.4634  0.4169
 1725SOL     OW16636   4.175   0.574   8.801  0.1390  0.4601 -0.1270
 1725SOL    HW116637   4.197   0.633   8.729 -1.6455  2.1265  0.7056
 1725SOL    HW216638   4.138   0.636   8.863 -0.6207  0.6066 -0.7188
 1726SOL     OW16639   3.732   0.383   7.510 -0.2101  0.0935  0.5693
 1726SOL    HW116640   3.691   0.298   7.527  0.1392  0.0974  1.4587
 1726SOL    HW216641   3.819   0.349   7.533  0.3421  1.6036  0.7043
 1727SOL     OW16642   2.551   0.726  13.706 -0.5848 -0.1276 -0.1576
 1727SOL    HW116643   2.574   0.807  13.661 -0.9530  0.0901  0.0488
 1727SOL    HW216644   2.573   0.754  13.795  0.9497 -0.7937 -0.3161
 1728SOL     OW16645   1.905   2.041   3.827  0.0973  0.2463 -0.0939
 1728SOL    HW116646   1.845   2.071   3.759 -0.0227 -0.9354 -0.4959
 1728SOL    HW216647   1.993   2.054   3.791 -0.7398  1.5214 -1.6945
 1729SOL     OW16648   3.691   1.367   2.561  0.2331 -0.1148 -0.2132
 1729SOL    HW116649   3.785   1.359   2.544  0.1948 -0.2337 -0.3763
 1729SOL    HW216650   3.687   1.423   2.638 -2.4313 -3.4065  1.9996
 1730SOL     OW16651   4.658   3.671   8.466  0.0951 -0.3137 -0.1128
 1730SOL    HW116652   4.571   3.632   8.459 -0.4541  1.5397 -3.5750
 1730SOL    HW216653   4.663   3.681   8.561  2.0150  0.3188 -0.2913
 1731SOL     OW16654   2.604   2.824   6.324  0.1789 -0.1833 -0.3541
 1731SOL    HW116655   2.573   2.743   6.363  2.0768 -0.8951 -0.3259
 1731SOL    HW216656   2.673   2.782   6.272 -0.7962  0.3359 -2.0848
 1732SOL     OW16657   0.222   4.077   0.578 -0.2123  0.3545  0.0191
 1732SOL    HW116658   0.304   4.027   0.569  0.9651  2.4480 -0.7842
 1732SOL    HW216659   0.184   4.041   0.658  1.3225  1.3354  1.1949
 1733SOL     OW16660   2.073   0.235  15.216 -0.4483  0.3566  0.6604
 1733SOL    HW116661   2.059   0.277  15.132 -2.5951 -0.4648  0.6172
 1733SOL    HW216662   2.167   0.218  15.216 -0.4909  0.0280  4.1245
 1734SOL     OW16663   2.509   1.853   1.984 -0.1331  0.1074 -0.2700
 1734SOL    HW116664   2.451   1.780   2.003 -0.5397  0.5506  0.1962
 1734SOL    HW216665   2.589   1.803   2.002  1.5451  3.8090  2.7260
 1735SOL     OW16666   0.779   3.867   4.088 -0.5483 -0.3010 -0.2899
 1735SOL    HW116667   0.807   3.824   4.169  0.9236  1.2445  0.0193
 1735SOL    HW216668   0.781   3.960   4.109  1.2672 -0.2162 -0.8489
 1736SOL     OW16669   3.338   2.127  10.105 -0.0231 -0.0341 -0.1897
 1736SOL    HW116670   3.248   2.149  10.127  0.5635  1.6405  0.6091
 1736SOL    HW216671   3.364   2.064  10.172  1.0333  0.1622 -0.4123
 1737SOL     OW16672   2.798   3.944   8.335 -0.2501  0.2533 -0.0552
 1737SOL    HW116673   2.810   3.857   8.296  1.8391  0.8216 -0.6633
 1737SOL    HW216674   2.778   3.995   8.256  0.3406  2.0828  0.9944
 1738SOL     OW16675   2.717   0.000   1.287  0.4917 -0.5870  0.1325
 1738SOL    HW116676   2.660   4.706   1.362 -0.7710 -0.2859 -0.7735
 1738SOL    HW216677   2.649   4.703   1.223  1.3915 -1.3986 -0.5950
 1739SOL     OW16678   1.287   2.480  17.591  0.1155 -0.2948  0.6423
 1739SOL    HW116679   1.293   2.553  17.652  1.9399  0.6443 -0.6607
 1739SOL    HW216680   1.196   2.470  17.563  0.2081  1.8371 -0.4057
 1740SOL     OW16681   4.508   2.351   8.337 -0.6417  0.5057 -0.1478
 1740SOL    HW116682   4.484   2.295   8.411 -0.1013  0.6616  0.1493
 1740SOL    HW216683   4.602   2.365   8.353 -0.9619  1.1094  1.2003
 1741SOL     OW16684   3.655   1.046   7.685 -0.2562 -0.3388 -0.5031
 1741SOL    HW116685   3.714   0.971   7.676 -0.3579 -0.5056  0.2194
 1741SOL    HW216686   3.623   1.054   7.595  0.6172 -0.3710 -0.8173
 1742SOL     OW16687   1.015   4.112   8.335  1.1692  0.1640 -0.0805
 1742SOL    HW116688   0.931   4.078   8.302  1.8403 -0.6672 -0.9280
 1742SOL    HW216689   1.048   4.152   8.255  0.3285 -1.2061 -1.1246
 1743SOL     OW16690   1.546   1.007  10.034 -0.4565 -0.0195 -0.5618
 1743SOL    HW116691   1.486   0.939  10.003 -0.1012 -1.5722  2.0868
 1743SOL    HW216692   1.514   1.011  10.124 -0.0438 -1.5915 -0.3420
 1744SOL     OW16693   4.325   3.152   5.536 -0.2780 -0.6804 -0.0915
 1744SOL    HW116694   4.302   3.233   5.491 -0.7955 -0.2937  0.8573
 1744SOL    HW216695   4.288   3.168   5.623  0.7168 -2.3790  0.6397
 1745SOL     OW16696   2.204   0.776  17.267  0.3813 -0.2349 -0.3363
 1745SOL    HW116697   2.214   0.871  17.253  0.8846 -0.1548  0.5601
 1745SOL    HW216698   2.235   0.765  17.357  4.4073  1.9821 -1.4211
 1746SOL     OW16699   2.727   2.674   1.364  0.5175 -0.4033  0.4120
 1746SOL    HW116700   2.675   2.595   1.378 -2.2039  1.0716 -1.4224
 1746SOL    HW216701   2.729   2.681   1.269 -3.0306 -0.8551  0.3230
 1747SOL     OW16702   0.776   1.997   1.174  0.2364  0.1557  0.2812
 1747SOL    HW116703   0.746   1.909   1.152  1.8408 -0.5182  0.7609
 1747SOL    HW216704   0.775   1.991   1.270 -0.2813  1.2563  0.3458
 1748SOL     OW16705   2.496   0.329   6.063 -0.1345 -0.6789 -0.2427
 1748SOL    HW116706   2.495   0.276   6.142  1.8359  1.7369  1.3900
 1748SOL    HW216707   2.447   0.407   6.091 -0.2025 -0.8390  0.0823
 1749SOL     OW16708   2.940   0.752   3.048 -0.3895  0.5498  0.1037
 1749SOL    HW116709   2.894   0.804   2.981 -1.6718 -0.2909  0.3176
 1749SOL    HW216710   2.915   0.664   3.021 -1.1247  1.0144 -0.7525
 1750SOL     OW16711   0.360   1.608   5.992  0.7441  0.3809 -0.3704
 1750SOL    HW116712   0.315   1.546   5.935  0.0398 -1.4560  2.2039
 1750SOL    HW216713   0.296   1.606   6.063  1.1314  0.1750 -0.0282
 1751SOL     OW16714   1.927   0.853   8.069 -0.2971  0.2503 -0.0432
 1751SOL    HW116715   1.942   0.828   8.160 -0.8362 -1.0204 -0.2974
 1751SOL    HW216716   1.847   0.802   8.057  1.1144 -1.9262 -0.1377
 1752SOL     OW16717   0.223   4.339  15.748 -0.3626 -0.1503  0.4911
 1752SOL    HW116718   0.230   4.408  15.813 -0.8199 -1.1092  1.5477
 1752SOL    HW216719   0.201   4.389  15.669 -0.6174 -2.6594 -1.0380
 1753SOL     OW16720   2.100   1.483   8.080  0.0191  0.7908 -0.1065
 1753SOL    HW116721   2.154   1.407   8.057  1.3230  1.5738  0.3462
 1753SOL    HW216722   2.012   1.461   8.052  0.7262  0.1073 -1.7455
 1754SOL     OW16723   2.764   3.662   7.786 -0.2732  0.2389  0.5893
 1754SOL    HW116724   2.783   3.740   7.838  2.0959 -0.7254  1.1660
 1754SOL    HW216725   2.757   3.703   7.700  1.4579 -1.7096 -0.4900
 1755SOL     OW16726   3.163   1.211   7.222  0.2958 -0.8963 -0.2975
 1755SOL    HW116727   3.151   1.301   7.194 -1.2211 -0.8443  0.5219
 1755SOL    HW216728   3.114   1.160   7.157 -0.7852 -0.0392 -0.1568
 1756SOL     OW16729   4.466   0.069   3.373  0.0248  0.1741 -0.4477
 1756SOL    HW116730   4.402   0.006   3.338 -2.3112  1.5274  1.3858
 1756SOL    HW216731   4.546   0.018   3.379 -0.4768 -0.7004 -1.1121
 1757SOL     OW16732   3.966   3.065   3.815  1.0145 -0.5793 -0.2421
 1757SOL    HW116733   3.927   3.142   3.773  0.9683 -0.0085  0.8495
 1757SOL    HW216734   4.050   3.103   3.842 -0.0359  1.3685  0.3172
 1758SOL     OW16735   1.037   4.500   8.392 -0.3335 -0.6068 -0.2430
 1758SOL    HW116736   1.029   4.476   8.484 -0.4190  0.4999  0.0360
 1758SOL    HW216737   0.948   4.483   8.360 -0.5545  0.8120 -0.3628
 1759SOL     OW16738   2.685   3.439   4.621  0.1486 -0.1080  0.4922
 1759SOL    HW116739   2.637   3.407   4.697  1.6355 -0.7486  1.1601
 1759SOL    HW216740   2.626   3.501   4.579  1.4622  1.7571  1.4342
 1760SOL     OW16741   4.295   2.069   9.646  0.0742  0.6405  0.3196
 1760SOL    HW116742   4.253   2.011   9.582 -3.3045  0.4861  2.6688
 1760SOL    HW216743   4.384   2.084   9.615 -0.1934  0.6895 -0.4240
 1761SOL     OW16744   2.869   1.653   6.871 -0.2297 -0.6294 -0.0473
 1761SOL    HW116745   2.852   1.589   6.802 -1.8607 -0.9100  0.6108
 1761SOL    HW216746   2.947   1.617   6.913 -0.7728  0.1278  1.5839
 1762SOL     OW16747   2.268   0.565   9.227 -0.3786  0.2720  0.1146
 1762SOL    HW116748   2.314   0.619   9.292  0.8193  2.5336 -2.6329
 1762SOL    HW216749   2.220   0.508   9.288  0.9629 -0.7391  0.2126
 1763SOL     OW16750   2.245   0.416   3.904 -0.2377 -0.7798 -0.2069
 1763SOL    HW116751   2.257   0.359   3.980  0.5478 -1.2967 -0.7190
 1763SOL    HW216752   2.151   0.430   3.904 -0.2232 -0.6983  0.0914
 1764SOL     OW16753   2.425   3.602   1.572  0.1296 -0.2196  0.1630
 1764SOL    HW116754   2.341   3.590   1.528 -0.2854  1.1828  0.5677
 1764SOL    HW216755   2.396   3.583   1.662 -1.0465  0.3814 -0.0832
 1765SOL     OW16756   3.251   2.557  15.661  0.9766 -0.1696  0.2618
 1765SOL    HW116757   3.213   2.484  15.710  0.6627  0.2471  0.6408
 1765SOL    HW216758   3.294   2.508  15.591 -0.7235  0.1010 -0.9687
 1766SOL     OW16759   2.663   2.662  13.890  0.2010 -0.1775  0.2068
 1766SOL    HW116760   2.637   2.745  13.851 -1.4558 -0.9644 -0.3373
 1766SOL    HW216761   2.572   2.638  13.906  0.6998 -1.8939  0.5378
 1767SOL     OW16762   1.059   4.003   4.585  0.1714  0.2569  0.7270
 1767SOL    HW116763   1.015   4.067   4.641 -2.7107 -2.0475  1.1299
 1767SOL    HW216764   0.995   3.996   4.514  1.8546 -2.6930 -0.5062
 1768SOL     OW16765   0.625   3.754   4.669  0.0883 -0.3776  0.1270
 1768SOL    HW116766   0.679   3.739   4.592  0.4431 -0.9267  0.4788
 1768SOL    HW216767   0.628   3.850   4.669 -0.0443 -0.3740  0.1518
 1769SOL     OW16768   2.250   4.062   1.251 -0.1515 -0.1431 -0.3963
 1769SOL    HW116769   2.275   4.136   1.307  2.2734 -1.0518 -0.2858
 1769SOL    HW216770   2.318   4.073   1.185  2.4304 -2.1054  1.9619
 1770SOL     OW16771   4.435   2.878   0.836  0.0544 -0.3426 -0.1157
 1770SOL    HW116772   4.422   2.814   0.766  0.0935 -0.9860  0.4551
 1770SOL    HW216773   4.443   2.813   0.906 -4.0843  1.5818  2.1525
 1771SOL     OW16774   2.714   2.434  10.773 -0.3018  0.0244 -0.0044
 1771SOL    HW116775   2.790   2.460  10.720 -0.3236 -1.0716 -0.5812
 1771SOL    HW216776   2.758   2.376  10.835  1.0368  2.3521  1.1859
 1772SOL     OW16777   0.814   2.160   2.969  0.3097 -0.2640 -0.1551
 1772SOL    HW116778   0.791   2.203   2.886 -2.8853  1.3637  1.5687
 1772SOL    HW216779   0.797   2.070   2.942  1.8837  0.2496 -2.8482
 1773SOL     OW16780   1.515   0.642  11.934  0.1294  0.5681  0.5058
 1773SOL    HW116781   1.507   0.735  11.913 -0.6929  0.1192 -1.0838
 1773SOL    HW216782   1.426   0.627  11.964  0.3693 -0.4166  0.7409
 1774SOL     OW16783   1.893   4.094   3.208 -0.9163  0.6180 -0.2607
 1774SOL    HW116784   1.851   4.020   3.163  1.5468  0.1826 -1.8049
 1774SOL    HW216785   1.982   4.087   3.174 -1.4996 -0.7281 -1.5151
 1775SOL     OW16786   4.105   1.924   3.826  0.4057 -0.4290  0.2158
 1775SOL    HW116787   4.192   1.896   3.798  1.2028  0.3534  1.9092
 1775SOL    HW216788   4.050   1.852   3.795  0.1985  0.0693 -0.5814
 1776SOL     OW16789   3.877   4.375  14.869  0.4518  0.1952 -0.2573
 1776SOL    HW116790   3.851   4.369  14.777 -1.4539 -0.7277  0.3364
 1776SOL    HW216791   3.892   4.470  14.871  0.6711  0.1972 -1.9787
 1777SOL     OW16792   2.369   2.906   6.223 -0.0449  0.0967  0.4595
 1777SOL    HW116793   2.301   2.880   6.285 -1.5804 -1.5948 -1.9224
 1777SOL    HW216794   2.452   2.870   6.254  0.0645  0.2814  0.3825
 1778SOL     OW16795   4.176   3.277   2.873 -0.0906 -0.0486 -0.6934
 1778SOL    HW116796   4.270   3.279   2.893  0.0748 -3.5645 -1.1152
 1778SOL    HW216797   4.149   3.368   2.880  1.1284  0.3764 -1.4360
 1779SOL     OW16798   2.917   0.834   8.237  0.5017 -0.5226  0.4786
 1779SOL    HW116799   2.922   0.825   8.142 -1.3879 -0.3322  0.3612
 1779SOL    HW216800   2.870   0.753   8.260  1.5354 -1.2185  0.1514
 1780SOL     OW16801   3.469   0.526   9.334  0.8571 -0.4030  0.5124
 1780SOL    HW116802   3.502   0.473   9.406  0.9026 -1.4627 -0.2850
 1780SOL    HW216803   3.386   0.482   9.316 -0.8699  2.4768  1.3592
 1781SOL     OW16804   3.874   1.065   5.636 -0.1649 -0.6427  0.8450
 1781SOL    HW116805   3.939   1.021   5.691  2.1762  2.0122  0.2027
 1781SOL    HW216806   3.926   1.123   5.581 -0.0545 -0.3446  1.2691
 1782SOL     OW16807   2.979   1.299   4.768 -1.1509 -0.5416  0.1390
 1782SOL    HW116808   3.058   1.354   4.764 -0.7969 -1.0182  0.5376
 1782SOL    HW216809   3.008   1.246   4.842 -0.4160 -1.7291 -1.0019
 1783SOL     OW16810   0.061   4.677   8.707 -0.1106 -0.0884  0.0242
 1783SOL    HW116811   0.128   0.011   8.746  1.3227 -0.7465 -1.5200
 1783SOL    HW216812   0.123   4.618   8.664 -0.4715 -0.8001  0.4657
 1784SOL     OW16813   2.493   1.738  11.794  0.1279 -0.3211  0.0643
 1784SOL    HW116814   2.472   1.812  11.738  0.7944  1.7010  2.4551
 1784SOL    HW216815   2.544   1.686  11.732 -0.2428 -0.4767 -0.1055
 1785SOL     OW16816   0.654   1.668   3.027 -0.5273  0.5132  0.2780
 1785SOL    HW116817   0.721   1.677   3.095 -0.9472 -1.6024  0.9542
 1785SOL    HW216818   0.607   1.749   3.046 -1.5304  0.0526 -0.2553
 1786SOL     OW16819   2.578   0.935   4.211 -0.4480  0.3409  0.1991
 1786SOL    HW116820   2.582   0.862   4.273  2.8237 -1.2209 -1.8644
 1786SOL    HW216821   2.612   1.003   4.270 -1.9802  1.6047 -0.3968
 1787SOL     OW16822   2.480   0.770   6.931  0.0065  0.0057 -0.6469
 1787SOL    HW116823   2.486   0.731   6.844  2.2783  3.0753 -1.8539
 1787SOL    HW216824   2.456   0.861   6.916 -0.0520 -0.2363 -1.9740
 1788SOL     OW16825   4.508   3.540  14.571  0.6935 -0.0129 -0.5071
 1788SOL    HW116826   4.452   3.608  14.534 -0.6901  0.3556  2.2095
 1788SOL    HW216827   4.565   3.529  14.495  1.5807 -0.1376  0.1716
 1789SOL     OW16828   3.676   3.932   8.952 -0.2806  0.5324 -0.3912
 1789SOL    HW116829   3.594   3.949   8.905 -0.6924 -1.0945 -0.2872
 1789SOL    HW216830   3.728   3.898   8.878  0.3970  1.3071 -0.2677
 1790SOL     OW16831   0.327   0.512   6.986  0.2310  0.0372 -0.3405
 1790SOL    HW116832   0.233   0.522   7.001  0.7177  0.4527  2.3152
 1790SOL    HW216833   0.341   0.555   6.901 -0.7460 -0.0344 -0.5330
 1791SOL     OW16834   0.594   1.935   5.841 -0.2356  0.8128 -0.0653
 1791SOL    HW116835   0.608   1.877   5.766 -1.2464  0.5242 -0.0333
 1791SOL    HW216836   0.673   1.989   5.844 -0.2903  1.0312 -2.0781
 1792SOL     OW16837   4.161   0.033   9.381  0.0826 -0.0978  0.0705
 1792SOL    HW116838   4.208   4.685   9.335 -0.3430 -0.6399  0.4606
 1792SOL    HW216839   4.228   0.079   9.432 -1.2415  0.7674  1.0313
 1793SOL     OW16840   1.464   2.995  15.433 -0.2791  0.2102  0.0192
 1793SOL    HW116841   1.500   2.995  15.344 -0.9550 -0.5691 -0.2505
 1793SOL    HW216842   1.535   2.992  15.497 -1.4658  0.4966  1.3352
 1794SOL     OW16843   4.039   2.266   8.078  0.0975 -0.0823  0.4655
 1794SOL    HW116844   4.015   2.205   8.147 -0.6324  0.3804  0.6202
 1794SOL    HW216845   4.132   2.244   8.077 -0.3986 -1.9906 -1.1013
 1795SOL     OW16846   3.956   2.736   4.806  0.2631  0.1752  0.0393
 1795SOL    HW116847   3.974   2.826   4.832 -2.0032  0.1792  1.5846
 1795SOL    HW216848   3.942   2.741   4.712  3.3746  3.0676 -0.2840
 1796SOL     OW16849   1.423   2.904   4.002  0.1549  0.0743 -0.3481
 1796SOL    HW116850   1.509   2.940   4.023  0.4782 -0.3792 -0.9019
 1796SOL    HW216851   1.358   2.957   4.048 -0.7563 -0.4383 -1.0523
 1797SOL     OW16852   2.806   0.441   6.741  0.0888  0.0788  0.1518
 1797SOL    HW116853   2.853   0.392   6.674 -1.5048 -0.1796 -0.7821
 1797SOL    HW216854   2.781   0.370   6.799 -0.4210  0.8162  0.8218
 1798SOL     OW16855   1.292   3.008   8.759  0.1672  0.0153 -0.4279
 1798SOL    HW116856   1.292   2.930   8.815  0.1324 -0.8770 -1.6792
 1798SOL    HW216857   1.383   3.022   8.733 -1.3881  2.1071 -4.7601
 1799SOL     OW16858   2.364   2.640   5.388  0.7713 -0.5926 -0.5172
 1799SOL    HW116859   2.347   2.553   5.424 -0.3170 -0.6220 -1.1036
 1799SOL    HW216860   2.277   2.677   5.374  0.4708 -0.6011  1.3865
 1800SOL     OW16861   0.756   0.105   7.696 -0.1244  0.4717  0.2258
 1800SOL    HW116862   0.767   0.103   7.601 -0.1804 -2.1245  0.2877
 1800SOL    HW216863   0.802   0.187   7.716 -0.5637  0.1261  2.7125
 1801SOL     OW16864   2.981   4.700   9.140 -0.0928  1.3051  0.6083
 1801SOL    HW116865   2.983   4.649   9.058 -1.8199  0.2913  1.2005
 1801SOL    HW216866   2.886   4.712   9.148 -0.4268 -1.4481  0.7305
 1802SOL     OW16867   1.712   0.630   1.420 -0.1744  0.3753 -0.1980
 1802SOL    HW116868   1.771   0.631   1.495 -0.3405 -2.4565 -0.0263
 1802SOL    HW216869   1.654   0.562   1.455  2.1319 -1.7539 -0.5008
 1803SOL     OW16870   4.135   1.703   6.442 -0.3432  0.1874  0.2021
 1803SOL    HW116871   4.226   1.693   6.470 -0.4491  1.6774  1.0689
 1803SOL    HW216872   4.095   1.621   6.474 -2.4963  1.8584  1.8242
 1804SOL     OW16873   3.099   1.487   6.737  0.2332 -0.3127 -0.4305
 1804SOL    HW116874   3.115   1.393   6.730  1.9882 -0.1246  1.0457
 1804SOL    HW216875   3.094   1.499   6.642  0.8888 -3.3513 -0.8337
 1805SOL     OW16876   4.545   0.555  13.850  0.4039  0.2829  0.4628
 1805SOL    HW116877   4.450   0.548  13.849  0.3209  1.8637 -2.0546
 1805SOL    HW216878   4.559   0.473  13.802 -1.0534 -0.5798  1.5234
 1806SOL     OW16879   2.337   0.958   2.245 -0.1107 -0.4509 -0.0286
 1806SOL    HW116880   2.360   0.872   2.209  0.9320  0.1188 -0.7222
 1806SOL    HW216881   2.261   0.983   2.192 -0.1614 -0.4662  0.0378
 1807SOL     OW16882   3.278   1.567   7.422  0.7501 -0.4242 -0.5160
 1807SOL    HW116883   3.244   1.656   7.415 -1.6397 -1.3641 -1.0354
 1807SOL    HW216884   3.226   1.555   7.501 -0.1587 -2.6613 -1.4432
 1808SOL     OW16885   1.133   0.056   2.462 -0.3983 -0.2674  0.1243
 1808SOL    HW116886   1.139   0.141   2.418 -1.6072 -0.4842 -0.4649
 1808SOL    HW216887   1.088   0.010   2.391  2.8946 -0.4294 -1.8721
 1809SOL     OW16888   0.213   3.249  12.361 -0.2666  0.1135  0.2223
 1809SOL    HW116889   0.251   3.331  12.392  0.3698  0.1249 -0.6046
 1809SOL    HW216890   0.170   3.207  12.436 -0.8893  0.8843  0.3009
 1810SOL     OW16891   0.428   0.535   5.755 -0.3418  0.0846  0.7220
 1810SOL    HW116892   0.493   0.566   5.692 -0.2800 -1.5118  0.0141
 1810SOL    HW216893   0.459   0.445   5.765  1.3982  0.6543  0.3864
 1811SOL     OW16894   2.317   3.088   8.528 -0.0942 -0.3204  0.2794
 1811SOL    HW116895   2.355   3.125   8.608 -0.4904 -1.7526  1.1293
 1811SOL    HW216896   2.361   3.005   8.508 -0.4867  0.0385 -2.1352
 1812SOL     OW16897   0.906   2.065   6.365  0.3489 -0.1769  0.0193
 1812SOL    HW116898   0.920   2.156   6.337  0.7746 -0.0684  0.5792
 1812SOL    HW216899   0.877   2.012   6.290 -1.7822 -1.3201  1.6754
 1813SOL     OW16900   0.538   2.880   6.216 -0.8444  0.2564  0.9128
 1813SOL    HW116901   0.579   2.794   6.228 -1.9645 -0.4865 -0.7094
 1813SOL    HW216902   0.477   2.869   6.144  1.2996 -0.9167 -0.7248
 1814SOL     OW16903   2.800   4.007   1.390 -0.5553 -0.7011 -0.7939
 1814SOL    HW116904   2.711   4.039   1.406  1.2183  3.5087  0.6421
 1814SOL    HW216905   2.797   3.927   1.442  0.5229 -0.7391 -0.7951
 1815SOL     OW16906   3.993   4.117   4.890  0.0230 -0.3156 -0.0263
 1815SOL    HW116907   4.002   4.160   4.976 -0.1632 -1.7537  0.7076
 1815SOL    HW216908   3.999   4.029   4.927  1.6067  0.8585  2.5365
 1816SOL     OW16909   3.905   2.085   6.901 -0.1707  0.4995 -0.2667
 1816SOL    HW116910   3.816   2.078   6.936  0.5543 -1.9095  1.0553
 1816SOL    HW216911   3.932   2.176   6.910 -0.5961  0.5392  0.5656
 1817SOL     OW16912   0.503   3.131  16.320 -0.0903 -0.6927  0.4142
 1817SOL    HW116913   0.521   3.055  16.265 -0.7267  0.9592 -2.0536
 1817SOL    HW216914   0.473   3.190  16.251 -0.5401 -1.4235 -0.0155
 1818SOL     OW16915   3.514   3.905  15.376  0.2719 -0.2096 -0.9145
 1818SOL    HW116916   3.560   3.826  15.405 -0.1766  0.9917  3.1054
 1818SOL    HW216917   3.595   3.951  15.354 -0.7802  1.6940 -0.8326
 1819SOL     OW16918   1.825   3.203   3.352 -0.2102 -0.3184 -0.3157
 1819SOL    HW116919   1.859   3.253   3.277  0.7270 -1.0975 -0.4053
 1819SOL    HW216920   1.747   3.247   3.386  0.4986  1.2227 -0.6849
 1820SOL     OW16921   3.192   0.532   2.997  0.5685 -0.2029  0.0345
 1820SOL    HW116922   3.275   0.522   2.951 -1.5307  1.4931 -4.0978
 1820SOL    HW216923   3.188   0.447   3.041  0.2111  0.8834  2.1457
 1821SOL     OW16924   1.087   1.720   9.290  0.2554 -0.0626  0.6076
 1821SOL    HW116925   1.030   1.719   9.367  0.7960  1.1178  1.0243
 1821SOL    HW216926   1.172   1.695   9.325 -0.1326  1.5277  2.7151
 1822SOL     OW16927   3.998   1.404   2.089 -0.6064 -0.3097  0.3345
 1822SOL    HW116928   4.018   1.494   2.062  0.8260 -0.3632  1.2575
 1822SOL    HW216929   4.035   1.407   2.177  2.7014  0.0585 -1.0663
 1823SOL     OW16930   4.324   2.045   3.143 -0.8430 -0.5375 -0.0402
 1823SOL    HW116931   4.287   2.025   3.229  0.1081 -0.5246  0.3770
 1823SOL    HW216932   4.376   2.125   3.153 -1.3367 -0.2141 -0.0860
 1824SOL     OW16933   2.590   1.961   3.729 -0.4225  0.1981 -0.3473
 1824SOL    HW116934   2.598   2.038   3.674  0.9135  0.9252  0.8750
 1824SOL    HW216935   2.682   1.942   3.746 -0.7890 -0.4140  0.9944
 1825SOL     OW16936   2.037   0.186  11.448  0.6774  0.6422 -0.5431
 1825SOL    HW116937   1.954   0.159  11.487  1.6003  0.0573  1.0092
 1825SOL    HW216938   2.086   0.127  11.506 -0.5590  0.5651  0.4051
 1826SOL     OW16939   3.751   2.719   5.608 -0.0459 -0.0748 -0.1930
 1826SOL    HW116940   3.743   2.801   5.559 -0.4971  0.2811  0.4783
 1826SOL    HW216941   3.737   2.644   5.550  0.2117 -0.5247  0.3362
 1827SOL     OW16942   2.295   4.079   7.006 -0.0462 -0.2609  0.2213
 1827SOL    HW116943   2.209   4.112   6.979 -0.0334 -1.6743 -1.5006
 1827SOL    HW216944   2.282   3.985   7.017  0.3058 -0.5884 -2.2931
 1828SOL     OW16945   2.724   2.471  14.146 -0.2356 -0.3869  0.1748
 1828SOL    HW116946   2.771   2.453  14.227 -1.0637  2.2655  1.2354
 1828SOL    HW216947   2.644   2.420  14.160  0.2078 -1.4407 -1.0410
 1829SOL     OW16948   2.312   0.341  11.095 -0.4679 -0.2485  0.0576
 1829SOL    HW116949   2.387   0.334  11.155 -0.4645 -0.6384  0.0087
 1829SOL    HW216950   2.296   0.434  11.113 -0.9614 -0.7509  2.2759
 1830SOL     OW16951   3.979   0.540   5.949 -0.1340 -0.2569 -0.0099
 1830SOL    HW116952   3.918   0.595   5.901 -1.0276 -2.7798 -1.7726
 1830SOL    HW216953   4.070   0.558   5.924 -0.8655  1.5748 -1.2974
 1831SOL     OW16954   2.547   2.869  16.208 -0.1252  0.1720  0.1334
 1831SOL    HW116955   2.504   2.784  16.215 -0.9195  0.3414 -2.6753
 1831SOL    HW216956   2.629   2.856  16.256 -0.7868  1.8858  1.7011
 1832SOL     OW16957   3.342   4.565   4.374  0.0290  0.3675 -0.1280
 1832SOL    HW116958   3.374   4.508   4.304 -1.3191 -0.7471  0.1506
 1832SOL    HW216959   3.318   4.646   4.329 -2.3746 -1.0962 -1.4744
 1833SOL     OW16960   2.843   0.073   6.043  0.0367  0.0625 -0.5293
 1833SOL    HW116961   2.811   0.159   6.072 -1.5854 -1.6173  2.7510
 1833SOL    HW216962   2.911   0.062   6.110 -0.6198 -0.2907  0.0854
 1834SOL     OW16963   0.924   1.029   8.716  0.7732  0.9515  0.4941
 1834SOL    HW116964   0.965   1.113   8.694 -1.9069  2.5044  1.3638
 1834SOL    HW216965   0.922   0.981   8.633  3.4298  1.0045  0.3917
 1835SOL     OW16966   2.987   0.598   2.724  0.0074  0.6625 -0.4616
 1835SOL    HW116967   3.008   0.595   2.817 -0.8266  0.7425 -0.2741
 1835SOL    HW216968   3.014   0.507   2.710 -0.1020  0.6790 -0.7706
 1836SOL     OW16969   0.529   1.693  12.266 -0.4793 -0.3959  0.5529
 1836SOL    HW116970   0.440   1.685  12.232 -0.7242  1.4965  0.7247
 1836SOL    HW216971   0.534   1.787  12.286  0.3277  0.1718 -2.3099
 1837SOL     OW16972   3.901   0.190   8.674 -0.3780 -1.0764  0.3062
 1837SOL    HW116973   3.983   0.239   8.683 -1.1984  0.2386  0.6580
 1837SOL    HW216974   3.858   0.232   8.749  0.5122 -1.3277  0.9586
 1838SOL     OW16975   1.852   4.056   3.975 -0.2741 -0.2114  0.0817
 1838SOL    HW116976   1.816   3.973   3.945 -0.1748 -0.3285  0.2837
 1838SOL    HW216977   1.869   4.033   4.067  1.8914 -1.6359 -0.6893
 1839SOL     OW16978   2.329   3.253   9.102  0.2603 -0.2413  0.3577
 1839SOL    HW116979   2.367   3.266   9.189  0.8449  1.1412 -0.0957
 1839SOL    HW216980   2.239   3.241   9.130 -0.3105  0.6279 -1.1087
 1840SOL     OW16981   3.981   4.398   3.394  0.1646 -0.3650 -0.4005
 1840SOL    HW116982   4.030   4.342   3.334 -1.5625 -3.7070  1.3155
 1840SOL    HW216983   3.928   4.455   3.339  3.2020  1.3432 -1.5717
 1841SOL     OW16984   0.280   1.550   8.689  0.0340 -0.4042 -0.6947
 1841SOL    HW116985   0.296   1.636   8.728 -0.6259  0.9464 -3.3893
 1841SOL    HW216986   0.335   1.557   8.610  2.4516  1.0058  1.1003
 1842SOL     OW16987   2.561   1.729   3.605  0.1234  0.6062  0.6009
 1842SOL    HW116988   2.499   1.677   3.657 -0.2743 -0.4099 -0.8877
 1842SOL    HW216989   2.578   1.807   3.658 -3.1574  2.0499 -0.4465
 1843SOL     OW16990   3.348   1.178  16.371 -0.5501 -0.1252 -0.2542
 1843SOL    HW116991   3.260   1.154  16.342 -0.7170  1.3617 -0.9822
 1843SOL    HW216992   3.388   1.159  16.286  0.7711 -1.8047  0.7584
 1844SOL     OW16993   3.902   3.471  10.650  0.5920  0.1885 -0.0729
 1844SOL    HW116994   3.955   3.527  10.707  0.6832 -0.1666  0.1919
 1844SOL    HW216995   3.815   3.507  10.667 -0.7306 -0.2113 -6.1022
 1845SOL     OW16996   0.184   0.922   2.555 -0.5221  0.6772 -0.0403
 1845SOL    HW116997   0.232   0.956   2.479  2.1436 -1.7306  0.5307
 1845SOL    HW216998   0.248   0.939   2.624 -1.4555 -2.3596  1.5554
 1846SOL     OW16999   3.879   3.715   4.835 -0.0438 -0.3817  0.7906
 1846SOL    HW117000   3.971   3.713   4.862  0.0790  1.1973  0.4872
 1846SOL    HW217001   3.833   3.746   4.913  0.3892  1.6678  0.2215
 1847SOL     OW17002   3.906   1.982   7.321 -0.4020 -0.3885 -0.6815
 1847SOL    HW117003   3.826   1.934   7.300 -0.3281 -0.9536  0.3255
 1847SOL    HW217004   3.885   2.044   7.391 -0.1769 -1.0015 -0.0675
 1848SOL     OW17005   1.894   3.108  11.047 -0.7313  0.9108  0.0744
 1848SOL    HW117006   1.870   3.173  11.114  1.0863  1.5404  0.1106
 1848SOL    HW217007   1.966   3.059  11.086 -1.5476  0.5092  1.0780
 1849SOL     OW17008   1.030   1.359   5.204  0.0109 -0.0697  0.1803
 1849SOL    HW117009   0.981   1.378   5.124  0.6318  1.6958  0.2114
 1849SOL    HW217010   1.031   1.265   5.185 -1.2364  0.3213 -1.8108
 1850SOL     OW17011   0.648   0.155  16.800  0.2570 -0.0622 -0.1646
 1850SOL    HW117012   0.657   0.215  16.726  1.1085  1.7836  1.4201
 1850SOL    HW217013   0.735   0.145  16.838 -0.4589 -1.8664  1.0221
 1851SOL     OW17014   3.384   2.039   7.052  0.0851 -0.6567  0.0273
 1851SOL    HW117015   3.353   2.120   7.092  2.5361 -1.0383  2.7197
 1851SOL    HW217016   3.353   1.977   7.117  1.2868  0.7189  1.9142
 1852SOL     OW17017   3.234   0.715  14.091 -0.5740  0.3934 -0.1695
 1852SOL    HW117018   3.211   0.624  14.108  1.8739  0.0737  1.4417
 1852SOL    HW217019   3.178   0.774  14.141  0.6833  2.1155 -0.7667
 1853SOL     OW17020   0.998   4.631   6.930  0.1067  0.1083 -0.1172
 1853SOL    HW117021   0.969   4.716   6.963 -0.9325 -0.1833 -0.2735
 1853SOL    HW217022   1.077   4.657   6.883 -1.0486 -0.4247 -2.3241
 1854SOL     OW17023   2.080   2.810   8.862  0.0047 -0.1627  0.1360
 1854SOL    HW117024   2.020   2.738   8.880 -0.3491  0.1827  0.3407
 1854SOL    HW217025   2.157   2.755   8.849 -1.1269 -1.6499 -0.1780
 1855SOL     OW17026   1.549   1.829   0.714  0.5422  0.0132  0.4016
 1855SOL    HW117027   1.522   1.903   0.660  1.0240 -0.1709 -0.0853
 1855SOL    HW217028   1.529   1.863   0.801 -2.0303  2.1564 -1.0430
 1856SOL     OW17029   3.787   4.010   3.954 -0.6898 -0.0655  0.1941
 1856SOL    HW117030   3.825   4.094   3.981  2.3517 -0.8946 -1.6139
 1856SOL    HW217031   3.863   3.954   3.971 -0.4203 -0.1144 -1.1475
 1857SOL     OW17032   0.215   2.230   2.798 -0.6057  0.0341 -0.3454
 1857SOL    HW117033   0.232   2.165   2.866  0.7503  1.1195  0.3696
 1857SOL    HW217034   0.188   2.168   2.731  0.4754 -0.9507  0.1293
 1858SOL     OW17035   3.368   1.750  13.209 -0.3687  0.1610 -0.3529
 1858SOL    HW117036   3.443   1.706  13.168 -0.2140  0.4135 -0.3389
 1858SOL    HW217037   3.406   1.835  13.228 -3.5622  1.8932 -1.7029
 1859SOL     OW17038   4.115   3.889   8.606  0.1234 -0.2588 -0.4466
 1859SOL    HW117039   4.193   3.937   8.577 -0.3769  0.3241 -0.8303
 1859SOL    HW217040   4.136   3.797   8.590 -1.5600 -0.5906 -0.7454
 1860SOL     OW17041   0.780   2.697  15.968  0.5082  0.5330  0.0999
 1860SOL    HW117042   0.845   2.636  16.004  1.7006  1.0063 -1.2649
 1860SOL    HW217043   0.777   2.670  15.877 -0.7323  1.8187 -0.2430
 1861SOL     OW17044   1.723   2.444   8.930  0.1889  0.5162 -0.1476
 1861SOL    HW117045   1.633   2.478   8.923 -0.3050 -0.7283  0.3259
 1861SOL    HW217046   1.718   2.366   8.874 -1.0953  2.1564 -2.3475
 1862SOL     OW17047   1.229   1.817   2.878 -0.0448 -0.1523  0.7482
 1862SOL    HW117048   1.293   1.762   2.833  0.6599  0.9249  0.4344
 1862SOL    HW217049   1.282   1.849   2.951  1.4449 -0.5651 -0.1410
 1863SOL     OW17050   3.760   4.538   5.370 -0.6872 -0.3902 -0.0711
 1863SOL    HW117051   3.763   4.448   5.337 -0.2840 -0.4744  0.2026
 1863SOL    HW217052   3.837   4.572   5.326  0.5823  0.6413  2.9551
 1864SOL     OW17053   2.163   3.223   8.055 -0.0232  0.2141  0.0840
 1864SOL    HW117054   2.162   3.235   8.150 -1.5621  0.2293  0.0678
 1864SOL    HW217055   2.207   3.139   8.042 -0.4399 -0.1767  1.2213
 1865SOL     OW17056   0.580   1.030   3.511 -0.3224  0.0294  0.3028
 1865SOL    HW117057   0.494   1.067   3.491 -0.4744 -0.4456  0.0735
 1865SOL    HW217058   0.620   1.046   3.425  0.3715  1.9145  0.9624
 1866SOL     OW17059   1.590   3.659   5.028 -0.3069  0.8197 -0.1504
 1866SOL    HW117060   1.569   3.710   5.107  2.1156  0.0050  1.0412
 1866SOL    HW217061   1.588   3.735   4.970  0.6064  0.1250 -1.0783
 1867SOL     OW17062   2.969   2.279   1.918 -0.0439  0.4142  0.3348
 1867SOL    HW117063   3.007   2.322   1.841  1.4780 -1.6261 -0.0496
 1867SOL    HW217064   2.967   2.190   1.882 -0.0617 -0.0717  1.5644
 1868SOL     OW17065   0.676   3.273   6.871  0.1526  0.1076  0.2026
 1868SOL    HW117066   0.622   3.233   6.803  0.1244  1.1114 -0.3761
 1868SOL    HW217067   0.607   3.287   6.936 -0.5905  0.1669 -0.5898
 1869SOL     OW17068   3.090   3.925  17.399 -0.2945  0.7127 -0.7276
 1869SOL    HW117069   3.031   3.975  17.456 -1.4138 -2.5876  1.0293
 1869SOL    HW217070   3.134   3.999  17.357 -0.9037  0.6589 -1.4578
 1870SOL     OW17071   2.643   4.425   2.464 -0.6557 -0.0717  0.3881
 1870SOL    HW117072   2.606   4.453   2.380 -1.3150 -3.1161 -0.3397
 1870SOL    HW217073   2.608   4.495   2.519  1.4772  0.6257  0.8621
 1871SOL     OW17074   3.080   1.316   0.900  0.1307  0.1395  0.0115
 1871SOL    HW117075   3.052   1.405   0.922 -0.8501  0.0255 -0.7843
 1871SOL    HW217076   3.174   1.331   0.906  0.5716 -2.0981 -1.4107
 1872SOL     OW17077   3.799   2.967   8.652  0.2801  0.3216 -0.3158
 1872SOL    HW117078   3.844   2.973   8.567 -1.2867 -2.7246 -1.3638
 1872SOL    HW217079   3.785   3.060   8.669 -2.3495 -0.2350  0.4672
 1873SOL     OW17080   2.580   4.344   7.451  0.5237  0.5599  0.1676
 1873SOL    HW117081   2.595   4.382   7.364  2.4397 -1.7268 -0.4724
 1873SOL    HW217082   2.490   4.311   7.451  0.7548 -0.0929 -1.8644
 1874SOL     OW17083   3.498   1.631   9.311  0.2932  0.6014 -0.3556
 1874SOL    HW117084   3.473   1.574   9.383 -2.2572  0.3870 -1.3883
 1874SOL    HW217085   3.561   1.580   9.260  0.5828  0.0964  0.5108
 1875SOL     OW17086   1.370   0.152   1.538 -0.4432 -0.7704  0.3230
 1875SOL    HW117087   1.285   0.113   1.516  0.5005 -2.3337 -0.5282
 1875SOL    HW217088   1.345   0.230   1.587  0.1750  0.0106 -0.6167
 1876SOL     OW17089   0.083   4.315  17.460 -0.0257  0.6948 -0.6233
 1876SOL    HW117090   0.137   4.305  17.382  0.2521 -1.7494 -0.1334
 1876SOL    HW217091   0.149   4.295  17.527  0.1840 -1.0915 -1.3497
 1877SOL     OW17092   0.592   3.976   5.479  0.1093 -0.5938 -0.1112
 1877SOL    HW117093   0.559   3.967   5.389  1.4212 -0.7112 -0.5801
 1877SOL    HW217094   0.553   4.052   5.522  0.2669 -1.6902  1.9593
 1878SOL     OW17095   3.182   1.777   2.871  0.2636 -0.1038 -0.1065
 1878SOL    HW117096   3.088   1.757   2.871  0.0942  0.6949  1.4699
 1878SOL    HW217097   3.174   1.864   2.911  0.3066 -0.1183 -0.0672
 1879SOL     OW17098   3.358   3.300   0.800 -0.0936 -0.3449  0.1144
 1879SOL    HW117099   3.272   3.313   0.760  0.2599  0.6202 -0.3444
 1879SOL    HW217100   3.331   3.275   0.888 -3.4010 -0.4354 -0.9296
 1880SOL     OW17101   2.609   1.634  15.804  0.1870  0.3038  0.0352
 1880SOL    HW117102   2.683   1.635  15.744 -0.4619 -0.9852 -0.8013
 1880SOL    HW217103   2.554   1.562  15.773  0.8992 -0.5690  0.7938
 1881SOL     OW17104   1.369   1.436   9.376  0.2188  0.9746 -0.4146
 1881SOL    HW117105   1.340   1.519   9.414 -2.8575 -0.3863  0.2426
 1881SOL    HW217106   1.459   1.442   9.407 -0.9021  2.8419  2.4758
 1882SOL     OW17107   4.024   1.263   5.452 -0.1009  0.0375 -0.8432
 1882SOL    HW117108   3.939   1.251   5.409  0.0659  0.9922 -1.4641
 1882SOL    HW217109   4.084   1.218   5.393  0.2237  0.1800 -0.6185
 1883SOL     OW17110   3.839   0.079   8.436  0.9783 -0.2997  1.0837
 1883SOL    HW117111   3.880   0.137   8.373  1.3914 -0.1965  1.4490
 1883SOL    HW217112   3.826   0.137   8.511  2.4043  0.1922  0.9524
 1884SOL     OW17113   2.745   1.106  15.207 -0.0138  0.4612  0.1179
 1884SOL    HW117114   2.734   1.031  15.264  0.4012 -0.3813 -0.9129
 1884SOL    HW217115   2.728   1.183  15.262 -3.3290 -0.7656  0.8164
 1885SOL     OW17116   0.569   2.258   3.700 -0.4362  0.0793 -0.2017
 1885SOL    HW117117   0.501   2.273   3.633 -1.0350  1.0552  0.6302
 1885SOL    HW217118   0.516   2.252   3.780  1.3658 -0.2783  0.9628
 1886SOL     OW17119   4.343   3.819  11.671 -0.1050 -0.5084 -0.1603
 1886SOL    HW117120   4.421   3.867  11.646  1.1993 -2.7532 -0.3970
 1886SOL    HW217121   4.296   3.875  11.733  0.1068  0.1601 -0.6121
 1887SOL     OW17122   1.291   1.753   7.624 -0.6291  0.0853 -0.1877
 1887SOL    HW117123   1.298   1.682   7.689 -1.8973 -1.2588 -1.5045
 1887SOL    HW217124   1.316   1.829   7.675  2.7039 -2.6812  2.3060
 1888SOL     OW17125   2.166   4.659   4.662  0.1134  0.1325  0.0201
 1888SOL    HW117126   2.204   0.019   4.632 -0.1093 -0.4048 -1.6852
 1888SOL    HW217127   2.075   4.668   4.634  0.7299  1.5313 -1.5311
 1889SOL     OW17128   2.405   1.611   5.638 -0.4764 -0.3762 -0.2131
 1889SOL    HW117129   2.472   1.659   5.589 -1.1551 -0.2344 -0.9889
 1889SOL    HW217130   2.457   1.532   5.656 -0.6179 -0.7443 -1.4638
 1890SOL     OW17131   4.096   0.736   5.607  0.1013  0.5115 -0.1033
 1890SOL    HW117132   4.147   0.793   5.665 -2.4034  1.5206  1.1220
 1890SOL    HW217133   4.124   0.772   5.523  0.7178 -0.0453 -0.1391
 1891SOL     OW17134   1.309   4.295  15.676 -0.5300  0.0595 -0.1644
 1891SOL    HW117135   1.360   4.375  15.667 -1.4311  0.7884  1.3581
 1891SOL    HW217136   1.235   4.312  15.619 -1.1687  2.4755  1.3997
 1892SOL     OW17137   2.036   3.946   2.151 -0.5194 -0.0061 -0.1100
 1892SOL    HW117138   2.103   3.883   2.124 -1.2744 -1.3622  1.1940
 1892SOL    HW217139   2.073   3.962   2.237  2.8465 -0.1504 -1.5027
 1893SOL     OW17140   3.219   1.565  13.601 -0.2514  0.2973 -0.0612
 1893SOL    HW117141   3.175   1.597  13.680  0.8062 -1.9771  1.4622
 1893SOL    HW217142   3.277   1.493  13.627  0.1913  0.5553 -0.3274
 1894SOL     OW17143   3.216   2.930   6.614 -0.3528  0.4301 -0.4492
 1894SOL    HW117144   3.212   3.005   6.554  1.5316 -0.3037 -1.5114
 1894SOL    HW217145   3.264   2.860   6.570 -2.4780 -2.0265  1.1675
 1895SOL     OW17146   2.027   2.676   7.140 -0.0488 -0.3592 -0.2509
 1895SOL    HW117147   2.050   2.769   7.130  0.2280 -0.4678 -0.5944
 1895SOL    HW217148   1.957   2.685   7.205 -1.1460 -2.0028 -1.2194
 1896SOL     OW17149   1.426   0.340  13.059 -0.9796  0.0174  0.7867
 1896SOL    HW117150   1.384   0.260  13.027  2.1791 -1.3944  0.1507
 1896SOL    HW217151   1.505   0.303  13.100 -0.1225  0.9119 -0.0580
 1897SOL     OW17152   0.513   4.462   5.912  0.0014  0.2266 -0.3635
 1897SOL    HW117153   0.546   4.539   5.865 -2.1877  2.3249  1.5420
 1897SOL    HW217154   0.594   4.415   5.929 -1.6829 -1.8865  1.8681
 1898SOL     OW17155   1.305   0.097   4.481 -0.3399  0.2289  0.1325
 1898SOL    HW117156   1.336   0.188   4.477  4.5412 -1.3079  3.0869
 1898SOL    HW217157   1.352   0.053   4.410  0.4909  1.7560 -0.2689
 1899SOL     OW17158   3.742   1.605   2.785 -0.2440 -0.4438 -0.5924
 1899SOL    HW117159   3.664   1.549   2.792  0.1401 -1.0273 -1.0138
 1899SOL    HW217160   3.715   1.668   2.851  0.7516 -0.0480 -0.5656
 1900SOL     OW17161   0.811   2.655   3.912 -0.2810 -0.0676 -0.0687
 1900SOL    HW117162   0.809   2.660   4.007 -0.4242 -1.5245 -0.0008
 1900SOL    HW217163   0.718   2.672   3.904 -0.3397  0.0522  0.8932
 1901SOL     OW17164   0.286   2.321  10.419  0.1946 -0.0389 -0.2109
 1901SOL    HW117165   0.228   2.325  10.494  2.7715 -2.0686  1.9114
 1901SOL    HW217166   0.304   2.227  10.407  0.6384  0.4120 -3.2059
 1902SOL     OW17167   2.204   0.198   2.498  0.0249  0.0675  0.2954
 1902SOL    HW117168   2.218   0.201   2.403 -1.2551  1.2612  0.1437
 1902SOL    HW217169   2.190   0.103   2.508 -0.0259 -0.2012 -2.3590
 1903SOL     OW17170   0.559   4.571   8.203 -0.0482  0.7623  0.0038
 1903SOL    HW117171   0.547   4.663   8.180 -0.0767  0.8177  0.2418
 1903SOL    HW217172   0.488   4.542   8.145 -0.2379 -1.7234  1.5015
 1904SOL     OW17173   3.814   0.773   7.686  0.6165 -0.0213 -0.2072
 1904SOL    HW117174   3.889   0.718   7.664 -0.7016 -2.3930  1.2555
 1904SOL    HW217175   3.756   0.702   7.713 -2.6021  1.4977 -3.1881
 1905SOL     OW17176   3.473   0.830   8.629  0.6133 -0.5573  0.2915
 1905SOL    HW117177   3.506   0.757   8.682  0.3184  1.5697  3.4243
 1905SOL    HW217178   3.548   0.853   8.575 -0.5517 -0.8598 -1.4343
 1906SOL     OW17179   4.127   3.063   7.457  0.3279 -0.2784 -0.7371
 1906SOL    HW117180   4.031   3.066   7.447  0.2466  0.4986  0.2413
 1906SOL    HW217181   4.155   2.982   7.414  3.4829  0.3869  0.0767
 1907SOL     OW17182   3.902   1.743  13.394 -0.1794  0.2685 -0.6122
 1907SOL    HW117183   3.933   1.664  13.350 -3.0045 -1.1673  0.0052
 1907SOL    HW217184   3.808   1.753  13.380 -0.4423 -3.2084 -1.0940
 1908SOL     OW17185   1.546   2.848   7.964 -0.1640  0.1184 -0.3501
 1908SOL    HW117186   1.630   2.810   7.988 -1.7513 -2.2064  1.5781
 1908SOL    HW217187   1.492   2.771   7.983 -0.3642  0.8278  2.0361
 1909SOL     OW17188   2.122   3.085   8.824  0.2979 -0.1345  0.3633
 1909SOL    HW117189   2.195   3.088   8.885  1.7971 -0.2969 -1.4117
 1909SOL    HW217190   2.102   2.992   8.824 -0.9604  0.1395  0.2649
 1910SOL     OW17191   1.622   3.643   8.720  0.1256  0.0172 -0.5056
 1910SOL    HW117192   1.536   3.664   8.684 -0.0853  0.2491  0.1428
 1910SOL    HW217193   1.598   3.554   8.745 -0.5598  0.5759  0.8064
 1911SOL     OW17194   4.553   2.453   6.680 -0.2282 -0.1493  0.1385
 1911SOL    HW117195   4.607   2.513   6.730  0.4794 -1.3921  0.8675
 1911SOL    HW217196   4.554   2.500   6.597  0.6225 -0.7088 -0.1696
 1912SOL     OW17197   2.251   4.401   9.440 -0.2948  0.7832  0.1105
 1912SOL    HW117198   2.326   4.368   9.392  0.7138  2.9818  0.1829
 1912SOL    HW217199   2.284   4.469   9.499 -0.6027  0.3225  0.8106
 1913SOL     OW17200   3.346   0.148  14.019 -0.2290 -0.4487  0.4775
 1913SOL    HW117201   3.290   0.209  13.970 -2.6707 -2.5227  0.6811
 1913SOL    HW217202   3.324   0.180  14.106 -0.6992 -1.4066  0.7071
 1914SOL     OW17203   0.140   1.951  12.016 -0.1187 -0.3985  0.0355
 1914SOL    HW117204   0.216   1.895  12.030 -0.9447 -1.0636  1.9604
 1914SOL    HW217205   0.072   1.890  12.046  0.0645 -0.5571  0.1307
 1915SOL     OW17206   3.571   1.830   3.136 -0.4822  0.3050  0.1970
 1915SOL    HW117207   3.599   1.754   3.188  1.7760 -0.1373 -1.7178
 1915SOL    HW217208   3.477   1.813   3.124 -0.7658  2.3873 -0.4991
 1916SOL     OW17209   3.222   3.140  14.040  0.5984 -0.3076  0.0475
 1916SOL    HW117210   3.290   3.205  14.059  0.5252 -0.5133  1.0119
 1916SOL    HW217211   3.146   3.185  14.076  1.6853  1.5054  0.1184
 1917SOL     OW17212   0.424   2.626   2.274 -0.4247 -0.5195  0.2862
 1917SOL    HW117213   0.337   2.605   2.306 -0.1038  0.7275  1.9833
 1917SOL    HW217214   0.407   2.623   2.180  0.1419 -1.3003  0.1989
 1918SOL     OW17215   4.586   4.166  12.747 -0.0313  0.0999 -0.3212
 1918SOL    HW117216   4.573   4.088  12.801  1.1951  1.6681  2.2193
 1918SOL    HW217217   4.653   4.133  12.687  0.0821  0.3142 -0.3129
 1919SOL     OW17218   2.040   1.400  13.122  0.0960 -0.1214 -0.1056
 1919SOL    HW117219   2.046   1.495  13.122  1.4617 -0.2102  0.3611
 1919SOL    HW217220   2.099   1.389  13.048  1.5794  0.6158  0.9638
 1920SOL     OW17221   0.432   2.904   9.619  0.3577  0.0789  0.2322
 1920SOL    HW117222   0.474   2.892   9.534  2.7466 -0.8208  1.5343
 1920SOL    HW217223   0.374   2.973   9.587  0.7460  0.0736 -0.4914
 1921SOL     OW17224   3.524   2.018  14.831 -0.2852  0.5331  0.6247
 1921SOL    HW117225   3.528   2.021  14.926 -0.2761 -0.9850  0.6594
 1921SOL    HW217226   3.454   1.957  14.809  0.4308  0.1922 -0.7120
 1922SOL     OW17227   1.387   0.757   5.483 -0.1835 -0.2848 -0.2957
 1922SOL    HW117228   1.314   0.715   5.438  2.1654 -3.3131 -1.2747
 1922SOL    HW217229   1.456   0.692   5.488  0.1648  0.1832  0.8701
 1923SOL     OW17230   1.608   3.561   0.140 -0.1810  0.7028 -0.4562
 1923SOL    HW117231   1.661   3.624   0.189  1.0662 -0.1034 -0.7684
 1923SOL    HW217232   1.646   3.559   0.052 -1.4437  0.0454 -0.9758
 1924SOL     OW17233   0.113   3.542   5.814  0.6874  0.3987  0.4129
 1924SOL    HW117234   0.156   3.537   5.729  0.3673  0.9955  0.2142
 1924SOL    HW217235   0.189   3.565   5.867  1.8219  1.2254 -1.5788
 1925SOL     OW17236   1.720   1.176   8.899 -0.0275  0.5286  0.0162
 1925SOL    HW117237   1.697   1.214   8.814 -1.4202  0.2605  0.2676
 1925SOL    HW217238   1.637   1.170   8.946  0.4635 -0.3455  0.7638
 1926SOL     OW17239   2.711   3.156  12.443  0.2991  0.0853  0.1736
 1926SOL    HW117240   2.711   3.213  12.520 -1.9145 -1.4718  1.3210
 1926SOL    HW217241   2.799   3.120  12.452 -1.6035 -4.1978  1.5156
 1927SOL     OW17242   1.230   1.754  11.569  0.6177 -0.2975  0.1581
 1927SOL    HW117243   1.161   1.688  11.555 -0.0367  0.4351 -0.0520
 1927SOL    HW217244   1.198   1.813  11.501  0.7962 -1.2451 -0.7550
 1928SOL     OW17245   2.744   2.733   2.281  0.2607 -0.1779 -0.0051
 1928SOL    HW117246   2.734   2.819   2.323  3.0035  0.8972 -1.5077
 1928SOL    HW217247   2.778   2.766   2.198  0.1644 -2.1092 -0.8137
 1929SOL     OW17248   0.777   2.213   2.444 -0.7299 -0.3334  0.3673
 1929SOL    HW117249   0.804   2.196   2.354  0.2395  1.0818  0.3936
 1929SOL    HW217250   0.713   2.282   2.427  0.4773  0.9703  1.1426
 1930SOL     OW17251   4.364   3.072   4.751  0.0419 -0.1390 -0.5429
 1930SOL    HW117252   4.324   3.126   4.820 -0.9243 -2.8107  0.9866
 1930SOL    HW217253   4.336   2.985   4.779  0.6352  0.1637  0.9736
 1931SOL     OW17254   2.790   0.804   2.621  0.1841 -0.0839  0.0186
 1931SOL    HW117255   2.853   0.740   2.656  1.0348 -0.0502 -1.4223
 1931SOL    HW217256   2.844   0.859   2.564 -0.9670  0.2841 -0.7125
 1932SOL     OW17257   2.229   1.917  16.656 -0.3035  0.1207  0.5299
 1932SOL    HW117258   2.282   1.969  16.715  0.7531 -1.2370  0.7913
 1932SOL    HW217259   2.293   1.881  16.594 -1.9587  0.2570 -1.2902
 1933SOL     OW17260   1.275   3.306   2.685  0.0915  0.0534 -0.6187
 1933SOL    HW117261   1.231   3.262   2.758 -1.8631  1.4074 -0.9876
 1933SOL    HW217262   1.359   3.260   2.694  0.7682  1.4906  0.3076
 1934SOL     OW17263   2.287   3.201   5.000  0.1528  0.3089 -0.5636
 1934SOL    HW117264   2.219   3.169   5.059 -0.8868  1.9442 -0.8944
 1934SOL    HW217265   2.353   3.226   5.065 -3.2959  1.6740  2.3904
 1935SOL     OW17266   1.008   4.193   7.338 -0.2064  0.1718  0.7344
 1935SOL    HW117267   1.087   4.248   7.337  0.5948 -1.0039 -1.6322
 1935SOL    HW217268   1.043   4.115   7.381  0.3792  0.2425  0.3967
 1936SOL     OW17269   3.906   0.443   1.895  0.4082 -0.2977  0.3301
 1936SOL    HW117270   3.944   0.487   1.819  0.6185  1.7144  1.5910
 1936SOL    HW217271   3.942   0.493   1.969 -1.0519 -1.2276  1.6540
 1937SOL     OW17272   0.351   1.707   0.927 -0.0880  0.9176 -0.1739
 1937SOL    HW117273   0.282   1.644   0.903  0.4308 -0.2826  1.4777
 1937SOL    HW217274   0.354   1.749   0.842 -0.9120  2.1588  0.4018
 1938SOL     OW17275   0.134   2.618   4.214 -0.6077  0.3536 -0.0517
 1938SOL    HW117276   0.049   2.660   4.228 -1.9071 -2.0608 -0.5750
 1938SOL    HW217277   0.162   2.600   4.304  0.2674 -0.7794 -0.5517
 1939SOL     OW17278   3.074   4.378   0.594 -0.0238 -0.3956 -0.3590
 1939SOL    HW117279   3.036   4.369   0.507  0.5883  0.7331 -0.7454
 1939SOL    HW217280   3.008   4.438   0.631 -1.7587 -1.8054 -1.1600
 1940SOL     OW17281   3.669   3.974  10.869 -0.6089  0.5145  0.1100
 1940SOL    HW117282   3.652   4.000  10.778  0.0374  2.9037  0.6834
 1940SOL    HW217283   3.735   4.038  10.893  1.2648 -0.9068 -1.2980
 1941SOL     OW17284   0.833   2.800   2.082  0.5833 -0.0126 -0.0069
 1941SOL    HW117285   0.842   2.868   2.016 -0.3023 -0.5949 -0.7219
 1941SOL    HW217286   0.800   2.733   2.023 -0.5728  0.5675 -0.0152
 1942SOL     OW17287   1.170   1.005  17.308  0.5094 -0.1898 -0.1850
 1942SOL    HW117288   1.152   0.976  17.398  1.2297  0.0745  0.0449
 1942SOL    HW217289   1.169   1.100  17.315 -1.0547 -0.3498  1.8944
 1943SOL     OW17290   3.750   0.226   5.859  0.1837  0.0891  0.0617
 1943SOL    HW117291   3.743   0.137   5.894 -2.8403  1.1241  2.1870
 1943SOL    HW217292   3.685   0.230   5.789 -0.6022 -0.9656  0.7218
 1944SOL     OW17293   0.982   1.555   2.635  0.0036 -0.4923 -0.4280
 1944SOL    HW117294   1.022   1.492   2.695 -0.5917 -0.7514 -0.3023
 1944SOL    HW217295   1.016   1.639   2.666 -1.1398  0.7129 -2.4149
 1945SOL     OW17296   3.361   4.263   3.317  0.1518  0.0819  0.0141
 1945SOL    HW117297   3.433   4.245   3.377 -0.1793 -0.5541  0.2166
 1945SOL    HW217298   3.403   4.283   3.233 -0.6680  0.1893 -0.3696
 1946SOL     OW17299   1.955   2.642   5.297 -0.1200 -0.3789  0.2776
 1946SOL    HW117300   1.938   2.549   5.310 -0.1362 -0.1041  2.1429
 1946SOL    HW217301   1.879   2.661   5.242 -0.0917  0.6189  0.5832
 1947SOL     OW17302   3.220   3.985   6.027 -0.2806 -0.1211 -0.8540
 1947SOL    HW117303   3.288   3.971   6.092  0.7091  1.2063 -1.5986
 1947SOL    HW217304   3.144   3.989   6.085 -0.1440  2.5407 -0.8590
 1948SOL     OW17305   2.812   3.962   9.050 -0.4816  0.2123 -0.0018
 1948SOL    HW117306   2.786   4.005   8.969 -2.9682 -0.1349  0.5905
 1948SOL    HW217307   2.728   3.921   9.075 -1.2335  0.8415 -1.4910
 1949SOL     OW17308   0.170   3.204   8.373  0.3435  0.1737 -0.3902
 1949SOL    HW117309   0.188   3.286   8.418 -0.9582  0.5727 -0.5910
 1949SOL    HW217310   0.239   3.210   8.306  0.7926 -0.5539  0.0083
 1950SOL     OW17311   1.072   3.480   3.475  0.0245  0.3171  0.3159
 1950SOL    HW117312   0.977   3.474   3.489 -0.0313 -0.2918 -0.3670
 1950SOL    HW217313   1.087   3.574   3.465  2.4808 -0.1096 -0.0137
 1951SOL     OW17314   3.577   1.561   6.574 -0.2652 -0.0650 -0.1751
 1951SOL    HW117315   3.584   1.636   6.516  0.2605  0.1538  0.1730
 1951SOL    HW217316   3.508   1.510   6.532  1.1006 -0.5362 -1.8611
 1952SOL     OW17317   2.489   2.039   4.133 -0.8014  0.1642  0.7802
 1952SOL    HW117318   2.500   1.946   4.115 -1.5804  0.1518  0.3462
 1952SOL    HW217319   2.474   2.031   4.227 -0.1714 -1.1938  0.7633
 1953SOL     OW17320   4.220   0.693   6.830  0.5776 -0.2711 -0.3973
 1953SOL    HW117321   4.191   0.665   6.917  0.6864 -1.1544 -0.6435
 1953SOL    HW217322   4.279   0.619   6.814 -0.1561 -1.1055  0.7025
 1954SOL     OW17323   2.387   3.887   7.299  0.0911  0.3645 -0.1780
 1954SOL    HW117324   2.418   3.972   7.269  2.1737 -0.3140  0.0946
 1954SOL    HW217325   2.431   3.877   7.383  1.5395 -1.3106 -1.1514
 1955SOL     OW17326   4.067   1.863   5.056 -0.3236 -0.2117 -0.2343
 1955SOL    HW117327   4.080   1.882   5.149  1.5952 -1.7428 -0.1785
 1955SOL    HW217328   4.035   1.944   5.018 -2.2366 -0.4533  0.8635
 1956SOL     OW17329   2.900   0.501   5.200 -0.4639 -0.5599  0.7875
 1956SOL    HW117330   2.932   0.589   5.181  0.6628 -0.6599  2.1975
 1956SOL    HW217331   2.918   0.465   5.113  0.3627  2.0710 -0.1275
 1957SOL     OW17332   2.336   0.014   4.190  0.4039  0.8564 -0.0819
 1957SOL    HW117333   2.396   4.676   4.145 -0.1759 -0.2441  0.6217
 1957SOL    HW217334   2.254   4.686   4.183  0.0562  1.4122  0.0419
 1958SOL     OW17335   3.711   0.169   6.342 -0.0904  0.6263 -0.5133
 1958SOL    HW117336   3.796   0.204   6.369  0.7040 -0.2971 -1.8030
 1958SOL    HW217337   3.685   0.223   6.267 -1.0166 -0.9598 -1.3408
 1959SOL     OW17338   4.024   0.995   8.408  0.3037  0.2642  0.0347
 1959SOL    HW117339   4.003   0.910   8.446 -1.5136 -0.6602 -3.0245
 1959SOL    HW217340   4.030   0.967   8.316 -2.1992 -0.7490  0.1780
 1960SOL     OW17341   2.796   4.471   9.810 -0.0536 -0.6713  0.0528
 1960SOL    HW117342   2.840   4.497   9.891  1.6753  2.0427 -1.7376
 1960SOL    HW217343   2.738   4.545   9.788 -0.6336 -0.8297  1.0652
 1961SOL     OW17344   1.078   2.236   2.601 -0.5879 -0.5160  0.8430
 1961SOL    HW117345   1.101   2.328   2.614 -2.1264  0.1709 -1.1917
 1961SOL    HW217346   1.081   2.223   2.506  0.3570  0.5422  0.7325
 1962SOL     OW17347   2.969   4.379   0.355  0.1615 -0.7134 -0.4908
 1962SOL    HW117348   2.877   4.357   0.372 -0.2363  0.0115 -1.7072
 1962SOL    HW217349   2.975   4.347   0.265 -1.9389 -0.1109 -0.8533
 1963SOL     OW17350   0.678   1.639  15.008  0.2038  0.1265  0.5584
 1963SOL    HW117351   0.731   1.645  14.928 -2.2447  3.7835 -0.8189
 1963SOL    HW217352   0.733   1.690  15.068 -0.2363  0.5857  0.5735
 1964SOL     OW17353   2.351   2.350   6.282 -0.3839  0.3808  0.0242
 1964SOL    HW117354   2.313   2.294   6.214 -3.0543  0.8158  1.1590
 1964SOL    HW217355   2.366   2.291   6.355  0.8551  1.9965  1.0707
 1965SOL     OW17356   2.237   0.035  10.821  0.6811  0.0471  0.1913
 1965SOL    HW117357   2.295   4.691  10.859  2.8453  2.0964  0.4681
 1965SOL    HW217358   2.297   0.108  10.807 -0.4326  1.0087  0.4738
 1966SOL     OW17359   0.210   4.380   1.552  0.2559 -0.3760  0.1202
 1966SOL    HW117360   0.126   4.400   1.594  2.0184  3.0409  2.0348
 1966SOL    HW217361   0.272   4.388   1.625  0.1212  1.7413  0.0064
 1967SOL     OW17362   0.911   1.701   8.885 -0.1002  0.3680 -0.0643
 1967SOL    HW117363   0.967   1.630   8.917 -0.0307  0.5628  0.2490
 1967SOL    HW217364   0.889   1.741   8.969  1.5246 -0.6022  0.8326
 1968SOL     OW17365   1.705   1.511   4.234 -0.3042  0.2615  0.0806
 1968SOL    HW117366   1.783   1.492   4.181 -1.1294  1.3945 -1.5184
 1968SOL    HW217367   1.682   1.598   4.202  1.2833  0.5638 -0.2822
 1969SOL     OW17368   3.622   1.757  16.409  0.7005  0.1350 -0.2739
 1969SOL    HW117369   3.615   1.851  16.390  2.1417  0.5590  1.2240
 1969SOL    HW217370   3.556   1.718  16.353 -1.8220  2.5469  1.0456
 1970SOL     OW17371   0.381   4.379   2.711  0.1091  0.1968 -0.1291
 1970SOL    HW117372   0.396   4.456   2.656 -0.8838 -0.0641 -0.7703
 1970SOL    HW217373   0.301   4.412   2.752  0.2252  0.6310 -0.2538
 1971SOL     OW17374   3.937   3.666   8.880 -0.9222  0.0960  0.1732
 1971SOL    HW117375   3.968   3.746   8.924  1.6529 -1.0304  0.3933
 1971SOL    HW217376   3.851   3.692   8.848 -0.8878  0.1789  0.1485
 1972SOL     OW17377   0.043   1.985   3.724  0.0196  0.1414 -0.0777
 1972SOL    HW117378   4.714   1.904   3.723 -0.5075  0.4687  0.4787
 1972SOL    HW217379   0.096   1.966   3.802 -0.2351 -0.0608  0.0448
 1973SOL     OW17380   2.173   2.264  12.229  0.2288 -0.9787  0.4950
 1973SOL    HW117381   2.105   2.256  12.296 -0.4849  2.1205  0.1445
 1973SOL    HW217382   2.203   2.352  12.250  0.0310 -0.7756 -0.0949
 1974SOL     OW17383   4.385   1.399   8.024  0.5020  0.8149 -0.5240
 1974SOL    HW117384   4.316   1.453   7.986 -3.2141 -2.7292  1.1131
 1974SOL    HW217385   4.420   1.449   8.098 -1.9853  1.3328  0.2999
 1975SOL     OW17386   3.426   0.751  13.114  0.0991  0.2017  0.4076
 1975SOL    HW117387   3.412   0.778  13.024  0.4151 -0.8084  0.0448
 1975SOL    HW217388   3.482   0.821  13.147  0.3532  0.4648 -0.5984
 1976SOL     OW17389   4.099   2.660  15.645 -0.9618 -0.3586  0.7260
 1976SOL    HW117390   4.025   2.619  15.691 -4.3290  1.6380 -2.9147
 1976SOL    HW217391   4.144   2.684  15.726  0.3239 -2.2351  0.5733
 1977SOL     OW17392   3.258   2.966   2.206 -0.4111  0.5860 -0.4487
 1977SOL    HW117393   3.240   2.873   2.215 -0.7025  0.7248  0.3999
 1977SOL    HW217394   3.257   2.980   2.111 -0.1858 -3.0384 -0.9732
 1978SOL     OW17395   0.098   0.485   2.917 -0.4496  0.1892 -0.2949
 1978SOL    HW117396   0.087   0.508   2.824 -1.0260 -0.2695 -0.3429
 1978SOL    HW217397   0.192   0.504   2.919 -1.0606  2.9667  2.1938
 1979SOL     OW17398   0.820   2.782   9.985  0.0742 -0.3646  0.5748
 1979SOL    HW117399   0.912   2.765   9.963 -0.8555 -2.9341 -1.3122
 1979SOL    HW217400   0.773   2.723   9.926 -0.5769  1.1077 -0.3685
 1980SOL     OW17401   2.258   3.821  10.523  0.4100  0.5486 -0.1358
 1980SOL    HW117402   2.308   3.743  10.501 -1.8449  0.1188 -3.8482
 1980SOL    HW217403   2.274   3.822  10.617 -1.0147  1.3296  0.1125
 1981SOL     OW17404   4.595   3.956  11.000 -0.1982  0.0389  0.3543
 1981SOL    HW117405   4.629   3.936  10.912 -1.2126  2.5223 -0.6053
 1981SOL    HW217406   4.618   3.884  11.058 -0.0235 -1.1143 -1.1345
 1982SOL     OW17407   2.393   3.486  16.104 -0.1625  0.5153  0.7617
 1982SOL    HW117408   2.483   3.500  16.133  0.3256 -0.1872 -0.4722
 1982SOL    HW217409   2.387   3.537  16.023  0.3215 -0.0675  0.3686
 1983SOL     OW17410   2.497   4.229   9.682 -0.1409  0.3501 -0.3289
 1983SOL    HW117411   2.524   4.308   9.635 -0.7652 -1.3547 -3.5751
 1983SOL    HW217412   2.414   4.259   9.718  0.0980 -2.3047  2.4836
 1984SOL     OW17413   4.209   1.652  12.152 -0.0790  0.2972  0.1257
 1984SOL    HW117414   4.213   1.564  12.188  0.9437 -0.0812 -0.9099
 1984SOL    HW217415   4.221   1.644  12.057  0.9760  2.0627  0.0988
 1985SOL     OW17416   3.383   4.194   6.815 -0.0066 -0.3436 -0.6707
 1985SOL    HW117417   3.410   4.147   6.736 -1.8595 -0.8089 -1.0118
 1985SOL    HW217418   3.445   4.165   6.883 -0.0219  1.2751  0.0313
 1986SOL     OW17419   0.204   4.088   4.241 -0.6317 -0.0168 -0.9416
 1986SOL    HW117420   0.190   4.156   4.307  0.9996  0.5924 -1.2244
 1986SOL    HW217421   0.275   4.038   4.282 -0.5479 -0.0879 -1.1733
 1987SOL     OW17422   0.848   3.245  11.859  0.4139 -0.8441  0.4519
 1987SOL    HW117423   0.934   3.252  11.817  0.4888 -0.1159  0.7301
 1987SOL    HW217424   0.823   3.153  11.869  0.6706 -0.9922 -0.2872
 1988SOL     OW17425   0.352   2.274  10.114 -0.1840 -0.2548 -0.1283
 1988SOL    HW117426   0.361   2.250  10.022  0.3858 -0.0607 -0.1252
 1988SOL    HW217427   0.421   2.218  10.148  0.6132  0.8226  0.0281
 1989SOL     OW17428   0.065   1.696   8.528  0.2786 -0.1993 -0.2420
 1989SOL    HW117429   0.005   1.738   8.589 -0.4158  0.3382 -1.3058
 1989SOL    HW217430   0.147   1.698   8.578 -1.3590  1.1060  2.3838
 1990SOL     OW17431   3.371   3.235   3.677 -0.2208  0.3978 -0.0604
 1990SOL    HW117432   3.302   3.301   3.673 -2.9549 -2.4700 -0.1746
 1990SOL    HW217433   3.324   3.157   3.646 -1.2525  1.7774 -2.0139
 1991SOL     OW17434   2.288   1.050  16.952 -0.0551 -0.2742 -0.8745
 1991SOL    HW117435   2.302   1.049  16.857  1.7258 -0.6533 -0.6227
 1991SOL    HW217436   2.246   1.135  16.961  0.2385 -0.2843  0.5893
 1992SOL     OW17437   1.622   1.539   8.505 -0.1270  0.2237  0.2040
 1992SOL    HW117438   1.632   1.523   8.411  1.1982 -1.8429  0.7029
 1992SOL    HW217439   1.661   1.459   8.540 -0.4085  0.9566  2.2162
 1993SOL     OW17440   3.486   0.009   0.589 -0.5763  0.5105 -0.7811
 1993SOL    HW117441   3.404   4.682   0.592 -0.2071 -0.1021 -0.7229
 1993SOL    HW217442   3.533   4.701   0.511 -1.1684  0.8355 -1.2546
 1994SOL     OW17443   3.197   2.591  13.331  0.8030 -0.0905  0.2995
 1994SOL    HW117444   3.291   2.605  13.324  1.2086 -2.8051  0.2949
 1994SOL    HW217445   3.176   2.624  13.419  0.1581  1.3721 -0.4038
 1995SOL     OW17446   4.540   3.550   3.186  0.2615  0.1014  0.1606
 1995SOL    HW117447   4.538   3.534   3.280 -0.7272  0.8032  0.2553
 1995SOL    HW217448   4.631   3.575   3.171 -0.1139  0.6651 -1.1482
 1996SOL     OW17449   1.447   2.758   7.408 -0.0383  0.1642  0.2563
 1996SOL    HW117450   1.378   2.697   7.385 -0.6519  1.2728 -0.8683
 1996SOL    HW217451   1.523   2.705   7.432  0.2295  0.9670  1.2028
 1997SOL     OW17452   1.179   3.064   7.506  0.2107  0.2372 -0.0099
 1997SOL    HW117453   1.224   2.989   7.544  0.0392  0.6495  1.0160
 1997SOL    HW217454   1.202   3.053   7.413  0.9719 -0.0164  0.2049
 1998SOL     OW17455   1.001   3.810   5.509  0.6699 -0.2939 -0.2604
 1998SOL    HW117456   1.080   3.851   5.546  0.8636  1.4849 -2.6367
 1998SOL    HW217457   0.972   3.777   5.594  1.8241 -0.7782 -0.0580
 1999SOL     OW17458   2.598   0.630   1.505  0.0347 -0.1166 -0.0866
 1999SOL    HW117459   2.543   0.706   1.529  0.0828 -0.8319  2.2860
 1999SOL    HW217460   2.534   0.560   1.514  1.2534 -1.2633 -0.4839
 2000SOL     OW17461   1.645   0.859   4.525 -0.0378 -0.2512 -0.2096
 2000SOL    HW117462   1.737   0.864   4.551  0.3870  0.3739 -1.8040
 2000SOL    HW217463   1.615   0.771   4.548 -0.7805  0.7970  2.7771
 2001SOL     OW17464   3.022   2.437   3.294 -0.2221  0.3456 -0.2295
 2001SOL    HW117465   3.041   2.370   3.229  1.4350 -0.6801  1.3034
 2001SOL    HW217466   3.109   2.455   3.329 -0.1487  0.7775 -0.6396
 2002SOL     OW17467   1.605   1.867   7.535  0.0674  0.2315 -0.1285
 2002SOL    HW117468   1.515   1.900   7.540  0.1738  0.7157 -1.7751
 2002SOL    HW217469   1.607   1.827   7.623  2.3934  0.6615  0.0162
 2003SOL     OW17470   2.250   4.137   4.202 -0.0880  0.1492  0.2405
 2003SOL    HW117471   2.174   4.090   4.168  0.0188  1.6639 -2.1161
 2003SOL    HW217472   2.279   4.077   4.271  2.4910  0.8631 -0.2093
 2004SOL     OW17473   3.278   1.296   1.228  0.3334 -0.2025  0.8085
 2004SOL    HW117474   3.241   1.382   1.246 -0.4445 -0.2778 -0.3913
 2004SOL    HW217475   3.352   1.295   1.288  1.6167 -0.2687 -0.7741
 2005SOL     OW17476   1.242   3.153  10.547 -0.3640 -0.0277 -0.2946
 2005SOL    HW117477   1.251   3.147  10.452 -0.9302  0.7712 -0.3965
 2005SOL    HW217478   1.173   3.217  10.566 -1.2348 -0.9144 -0.4373
 2006SOL     OW17479   1.860   2.874   2.454 -0.1818  0.0159  0.6203
 2006SOL    HW117480   1.833   2.816   2.525 -2.6056  2.3742  1.6503
 2006SOL    HW217481   1.792   2.941   2.461 -0.0196  0.5087 -2.6543
 2007SOL     OW17482   2.297   3.162   3.764  0.3342  0.0660  0.2821
 2007SOL    HW117483   2.372   3.193   3.815  1.0346 -0.3354 -0.5021
 2007SOL    HW217484   2.334   3.167   3.676 -0.6661  2.2789 -0.0216
 2008SOL     OW17485   0.322   4.015  12.711  0.0308 -0.2210 -0.2648
 2008SOL    HW117486   0.306   3.930  12.751 -1.3423 -0.9052 -2.2865
 2008SOL    HW217487   0.403   3.998  12.662 -0.3965 -0.4485 -0.8889
 2009SOL     OW17488   4.443   4.077  14.491 -0.2892 -0.6337 -0.3158
 2009SOL    HW117489   4.461   4.120  14.575 -3.1624 -1.9347  0.9566
 2009SOL    HW217490   4.349   4.086  14.504 -0.3103 -1.5856  0.1694
 2010SOL     OW17491   0.288   2.669   9.629  0.3806  0.0767  0.0619
 2010SOL    HW117492   0.363   2.609   9.630  1.9400  2.0436  1.2860
 2010SOL    HW217493   0.326   2.757   9.628  1.4456 -0.3815 -0.8734
 2011SOL     OW17494   3.641   3.751  11.562 -0.4492  0.4395 -0.1453
 2011SOL    HW117495   3.665   3.660  11.579  1.0935  1.0238  0.8421
 2011SOL    HW217496   3.610   3.769  11.650 -0.5269 -5.2878  0.9869
 2012SOL     OW17497   4.411   3.937  16.296  0.4920 -0.0683  0.5253
 2012SOL    HW117498   4.348   3.891  16.352  1.1129 -1.5927 -0.0152
 2012SOL    HW217499   4.463   3.868  16.255  1.4253  0.6218  0.5505
 2013SOL     OW17500   0.881   0.291   6.271  0.5671 -0.1009 -0.2302
 2013SOL    HW117501   0.874   0.233   6.195 -1.3049 -0.3683  0.1618
 2013SOL    HW217502   0.975   0.300   6.256  0.1584 -0.7117 -3.1363
 2014SOL     OW17503   1.289   1.096   4.911 -0.0353 -0.2965 -0.0096
 2014SOL    HW117504   1.370   1.046   4.900  1.8073  2.5411  0.6976
 2014SOL    HW217505   1.331   1.181   4.919  0.4116 -0.3755 -1.5126
 2015SOL     OW17506   1.939   4.185   4.694 -0.3620  0.3756 -0.4811
 2015SOL    HW117507   2.012   4.240   4.723 -0.1844  0.3571 -0.8816
 2015SOL    HW217508   1.884   4.197   4.771  0.9628 -1.4995  0.7232
 2016SOL     OW17509   3.290   0.472   8.621  0.4352  0.2058 -0.4974
 2016SOL    HW117510   3.317   0.447   8.709 -1.1329 -0.3359 -0.1690
 2016SOL    HW217511   3.371   0.459   8.571  1.5152 -0.5055  1.4692
 2017SOL     OW17512   2.092   3.465   2.418  0.4513  0.1153  0.0997
 2017SOL    HW117513   2.039   3.386   2.432  0.6935 -0.1631 -0.5345
 2017SOL    HW217514   2.028   3.522   2.375 -0.8513 -1.7934 -0.4804
 2018SOL     OW17515   3.382   1.590   2.413 -0.3384 -0.6749  0.0138
 2018SOL    HW117516   3.377   1.498   2.440  0.2014 -0.9244 -0.7534
 2018SOL    HW217517   3.337   1.636   2.484  0.3396 -1.0940  0.7168
 2019SOL     OW17518   1.714   0.813   6.605 -0.0593 -0.8470  0.1662
 2019SOL    HW117519   1.655   0.738   6.597 -1.5069  0.4053 -0.8878
 2019SOL    HW217520   1.786   0.774   6.655  0.7409 -0.1841 -0.4878
 2020SOL     OW17521   3.017   3.665   8.544 -1.0661 -0.1445  0.7866
 2020SOL    HW117522   2.934   3.622   8.523 -1.0085 -0.3038  0.8832
 2020SOL    HW217523   2.984   3.729   8.607 -1.8500  0.3816 -0.1608
 2021SOL     OW17524   3.759   0.421  16.750 -0.5704 -0.0863  0.2486
 2021SOL    HW117525   3.808   0.462  16.821  2.2065 -0.1598 -1.6221
 2021SOL    HW217526   3.818   0.346  16.738  0.6011  0.7701  0.6808
 2022SOL     OW17527   1.779   3.581   3.153  0.5290 -0.6099  0.2279
 2022SOL    HW117528   1.801   3.630   3.074  0.7455 -0.0691  0.6295
 2022SOL    HW217529   1.688   3.563   3.130  0.1492  3.3740 -1.4132
 2023SOL     OW17530   4.123   3.582   7.351 -0.1174  0.0540  0.5747
 2023SOL    HW117531   4.101   3.618   7.437 -2.0873 -0.5309  0.3046
 2023SOL    HW217532   4.121   3.488   7.372 -1.5920 -0.0284  0.0619
 2024SOL     OW17533   0.121   4.592  17.493  0.2989 -0.2160 -0.5676
 2024SOL    HW117534   0.080   4.507  17.476 -0.2876  0.0713 -0.5757
 2024SOL    HW217535   0.047   4.649  17.472 -0.6467 -0.5665  1.7699
 2025SOL     OW17536   1.535   1.481   6.248 -0.4202  0.1670  0.1852
 2025SOL    HW117537   1.531   1.505   6.155 -1.2418 -1.2259 -0.1272
 2025SOL    HW217538   1.521   1.569   6.283 -0.2312  0.6023 -0.8274
 2026SOL     OW17539   4.208   4.209  12.016  0.2409  0.2632  0.0089
 2026SOL    HW117540   4.296   4.241  12.034 -0.7574  2.9081  0.2054
 2026SOL    HW217541   4.191   4.155  12.093  2.1074 -0.2707  0.0518
 2027SOL     OW17542   1.941   4.678   5.596  0.4135  0.0631  0.2404
 2027SOL    HW117543   1.926   4.615   5.525  1.8095  0.5592 -0.5054
 2027SOL    HW217544   1.953   0.040   5.551 -0.2375 -0.4197 -0.8278
 2028SOL     OW17545   1.742   1.696  17.669 -0.2090  0.4895 -0.2788
 2028SOL    HW117546   1.647   1.706  17.673 -0.3997 -1.0790 -0.5942
 2028SOL    HW217547   1.754   1.783  17.632 -0.2304 -0.0709 -1.6231
 2029SOL     OW17548   2.887   0.170   7.827  0.0610  0.0530 -0.5718
 2029SOL    HW117549   2.803   0.123   7.823  0.7618 -1.2515 -0.0067
 2029SOL    HW217550   2.871   0.237   7.760  0.2386  0.8907  0.2196
 2030SOL     OW17551   1.837   3.734   7.976 -1.1871 -0.5304  0.2165
 2030SOL    HW117552   1.779   3.796   7.932 -0.2244 -0.0601 -0.4033
 2030SOL    HW217553   1.842   3.782   8.059  0.7641 -2.3608  1.1658
 2031SOL     OW17554   0.457   4.510   6.521 -0.0373 -0.1179 -0.2517
 2031SOL    HW117555   0.376   4.498   6.473 -0.9546 -0.9027  1.4825
 2031SOL    HW217556   0.491   4.582   6.468 -0.1943  0.7303  0.7999
 2032SOL     OW17557   1.804   1.362   6.262 -0.2405 -0.3145  0.4159
 2032SOL    HW117558   1.824   1.452   6.235  0.5627 -0.3229  1.0124
 2032SOL    HW217559   1.714   1.364   6.229 -0.8043 -2.0339  1.8797
 2033SOL     OW17560   0.061   2.641   3.716  1.1519  0.2617  0.1986
 2033SOL    HW117561   4.696   2.653   3.676  1.9763 -0.2424 -1.7586
 2033SOL    HW217562   0.069   2.546   3.703 -1.3338  0.3129 -1.8111
 2034SOL     OW17563   0.364   1.231  12.290  0.3800 -0.1904 -0.0174
 2034SOL    HW117564   0.440   1.178  12.269 -0.1287 -0.7115 -0.5588
 2034SOL    HW217565   0.301   1.179  12.241  2.1993 -1.6521 -0.7787
 2035SOL     OW17566   2.330   0.177   8.286 -0.1588 -0.6604 -0.3130
 2035SOL    HW117567   2.307   0.182   8.379  0.5102 -0.6838 -0.1479
 2035SOL    HW217568   2.340   0.084   8.270 -1.1077 -1.0350  1.2776
 2036SOL     OW17569   2.534   0.596   6.727 -0.4123 -0.3089  0.1935
 2036SOL    HW117570   2.520   0.521   6.785 -1.4118  0.6136  1.1463
 2036SOL    HW217571   2.629   0.593   6.712 -0.5721 -0.6059 -0.7645
 2037SOL     OW17572   1.812   2.351  15.617  0.0249  0.2794  0.0623
 2037SOL    HW117573   1.807   2.440  15.653  0.7394  0.4353 -0.2090
 2037SOL    HW217574   1.728   2.353  15.571 -1.0916 -0.6134  2.0809
 2038SOL     OW17575   0.889   1.594   8.415  0.1865  0.3545  0.3835
 2038SOL    HW117576   0.820   1.600   8.348 -0.1943 -2.0455  0.5877
 2038SOL    HW217577   0.866   1.665   8.474 -0.3726  0.5341 -0.0446
 2039SOL     OW17578   0.690   2.979   0.837  0.0875 -0.0551  0.6766
 2039SOL    HW117579   0.708   2.986   0.743 -2.0838 -1.3250  0.1716
 2039SOL    HW217580   0.618   3.041   0.844 -0.8724 -0.9938 -1.0869
 2040SOL     OW17581   2.171   0.812   2.974  0.0016  0.5181 -0.1723
 2040SOL    HW117582   2.123   0.888   2.940 -1.6647 -0.3009  0.3474
 2040SOL    HW217583   2.190   0.781   2.886  2.9175  0.1717  0.5785
 2041SOL     OW17584   4.027   3.096   8.876 -0.6014  0.0786  0.0363
 2041SOL    HW117585   3.982   3.079   8.959 -0.7482  1.0544  0.1513
 2041SOL    HW217586   3.945   3.100   8.826 -1.3763 -3.1518  1.0082
 2042SOL     OW17587   3.957   2.422   5.895  0.4286  0.2287  0.3113
 2042SOL    HW117588   4.036   2.425   5.840  1.3860  0.4322  1.7178
 2042SOL    HW217589   3.995   2.384   5.974 -0.2505  0.2513  0.6486
 2043SOL     OW17590   3.815   0.741   8.751  0.3978 -0.1866 -0.6140
 2043SOL    HW117591   3.729   0.706   8.774  1.1358  0.0933  2.6082
 2043SOL    HW217592   3.817   0.830   8.786  4.3829 -0.8645  0.8759
 2044SOL     OW17593   4.216   0.732   8.026 -0.0443 -0.0052  0.5242
 2044SOL    HW117594   4.213   0.642   7.992 -0.8620 -0.0483  0.7200
 2044SOL    HW217595   4.291   0.720   8.084  0.6203  0.4220 -0.2393
 2045SOL     OW17596   2.798   2.501   2.934 -0.2908 -0.2135 -0.3729
 2045SOL    HW117597   2.872   2.550   2.897 -1.1722  0.3859 -1.3279
 2045SOL    HW217598   2.775   2.442   2.863 -1.4327 -1.6372  1.1803
 2046SOL     OW17599   0.968   3.868   7.357 -0.3929  0.2212 -0.2416
 2046SOL    HW117600   1.028   3.879   7.284  0.5892  0.0023  0.5359
 2046SOL    HW217601   1.025   3.907   7.423 -0.9502 -1.2926  1.1300
 2047SOL     OW17602   4.469   2.327   5.746  0.4976  0.0213  0.5739
 2047SOL    HW117603   4.473   2.371   5.661  0.6589  0.3485  0.7495
 2047SOL    HW217604   4.413   2.381   5.802 -0.3671  0.9034 -1.1261
 2048SOL     OW17605   3.842   4.691   9.857 -0.1501 -0.3630 -0.8500
 2048SOL    HW117606   3.908   0.037   9.871 -2.0709  0.9182  2.0833
 2048SOL    HW217607   3.766   0.024   9.879 -0.2792 -0.0093 -2.1564
 2049SOL     OW17608   0.546   4.624  17.587 -0.4622 -0.0989 -1.1218
 2049SOL    HW117609   0.493   4.679  17.530 -0.9275  1.4805  0.8589
 2049SOL    HW217610   0.506   4.539  17.567  1.4317 -1.0072 -1.0919
 2050SOL     OW17611   1.057   3.300  16.262 -0.2503  0.6060  0.5169
 2050SOL    HW117612   1.050   3.345  16.177 -1.6451 -2.4728 -0.9940
 2050SOL    HW217613   1.151   3.295  16.280  0.1770  0.1169 -1.8439
 2051SOL     OW17614   4.161   3.987   5.661 -0.4586  0.4034  0.0979
 2051SOL    HW117615   4.199   3.954   5.579  0.8197  0.1209  0.8007
 2051SOL    HW217616   4.203   4.071   5.678  1.9648 -0.1253 -3.0744
 2052SOL     OW17617   2.763   2.107   4.738 -0.0818  0.1270 -0.5711
 2052SOL    HW117618   2.788   2.199   4.740 -1.3038  0.4727 -0.9706
 2052SOL    HW217619   2.671   2.112   4.711 -0.1862  0.4901 -0.1441
 2053SOL     OW17620   3.747   2.534   3.659 -0.4538  0.4395  0.3323
 2053SOL    HW117621   3.698   2.551   3.739  1.4908  1.8321  1.2065
 2053SOL    HW217622   3.674   2.531   3.596 -0.1569  2.1190 -0.0915
 2054SOL     OW17623   1.816   0.335   6.755  0.0018  0.1107 -0.1567
 2054SOL    HW117624   1.734   0.291   6.776  0.9419 -0.4715  2.1975
 2054SOL    HW217625   1.790   0.371   6.670  0.8805 -2.0265 -1.3260
 2055SOL     OW17626   2.561   0.403   1.758 -0.4864  0.2062  0.0986
 2055SOL    HW117627   2.535   0.443   1.675  0.2166 -1.8299 -1.0774
 2055SOL    HW217628   2.626   0.336   1.737  1.4438  1.7261  1.2729
 2056SOL     OW17629   3.333   3.515   6.039 -0.7070  0.3707 -0.1998
 2056SOL    HW117630   3.341   3.421   6.022  0.2587  0.6277 -1.1596
 2056SOL    HW217631   3.241   3.506   6.065 -0.4942 -2.8695 -0.5603
 2057SOL     OW17632   3.758   4.182  14.701  0.3003  0.4817 -0.2368
 2057SOL    HW117633   3.682   4.140  14.663 -0.1565  0.0239  1.1689
 2057SOL    HW217634   3.725   4.171  14.791 -2.1838  0.8381 -1.1021
 2058SOL     OW17635   1.108   1.974  15.266  0.0263  0.1741 -0.5932
 2058SOL    HW117636   1.158   1.943  15.191 -1.4861 -0.6353 -1.2834
 2058SOL    HW217637   1.080   2.062  15.241 -0.9823 -0.0642 -0.2991
 2059SOL     OW17638   3.826   3.135   5.553  0.1317  0.7449 -0.3012
 2059SOL    HW117639   3.785   3.214   5.588  0.6408  0.5583  0.7335
 2059SOL    HW217640   3.755   3.078   5.526  2.8289 -2.0400 -1.5609
 2060SOL     OW17641   4.560   2.888  10.541 -0.0766 -0.4862 -0.1955
 2060SOL    HW117642   4.535   2.920  10.627  1.8240  0.3451  0.0398
 2060SOL    HW217643   4.513   2.951  10.486 -1.7751  0.0344  1.8664
 2061SOL     OW17644   1.539   1.966   2.768  0.0488  0.0838 -0.5461
 2061SOL    HW117645   1.456   2.013   2.772 -0.9528 -1.7387 -0.1497
 2061SOL    HW217646   1.516   1.874   2.773 -1.5975  0.4712 -1.2029
 2062SOL     OW17647   0.099   0.646  17.170  0.0248  0.3844  0.0303
 2062SOL    HW117648   0.051   0.569  17.199 -0.0181  0.4760  0.2065
 2062SOL    HW217649   0.191   0.634  17.194  0.2902  3.4140  0.4920
 2063SOL     OW17650   2.555   1.484   7.086  0.0831 -0.3901  0.0720
 2063SOL    HW117651   2.589   1.396   7.099  0.1114 -0.2377  1.0322
 2063SOL    HW217652   2.593   1.500   6.999  0.7004 -1.8859  0.0715
 2064SOL     OW17653   0.378   3.902  17.543  0.4795  0.0290  0.1837
 2064SOL    HW117654   0.460   3.884  17.496  2.1288 -0.5952  3.3125
 2064SOL    HW217655   0.323   3.905  17.465  0.7683  2.2590  0.0803
 2065SOL     OW17656   4.709   3.233  10.123  0.0267 -1.0719 -0.2088
 2065SOL    HW117657   0.006   3.143  10.150  1.8152 -0.5101  0.4531
 2065SOL    HW217658   4.614   3.223  10.128 -0.3368  2.9775  0.9566
 2066SOL     OW17659   4.624   4.319   7.751 -0.2072  0.2812  0.2800
 2066SOL    HW117660   4.574   4.401   7.750  0.7648  0.8793  0.5726
 2066SOL    HW217661   4.672   4.346   7.672  0.9303 -1.0246  0.5312
 2067SOL     OW17662   1.517   2.769  14.030  0.6279  0.1711 -0.5276
 2067SOL    HW117663   1.579   2.767  14.102 -1.2148  1.8727  1.0957
 2067SOL    HW217664   1.443   2.813  14.072  0.9126 -0.9998  1.1942
 2068SOL     OW17665   1.560   1.884  15.754 -0.2923 -0.4939  0.3694
 2068SOL    HW117666   1.532   1.903  15.844  1.2766  0.0747  0.7283
 2068SOL    HW217667   1.475   1.846  15.731  0.7549 -1.3801 -1.9899
 2069SOL     OW17668   2.448   2.535   1.786 -0.4597  0.5708 -0.0131
 2069SOL    HW117669   2.422   2.459   1.735 -0.7705 -0.5838  1.8737
 2069SOL    HW217670   2.389   2.600   1.747 -1.5276 -0.1210  0.4814
 2070SOL     OW17671   0.683   4.450   1.720  0.1314 -0.4236 -0.1551
 2070SOL    HW117672   0.614   4.515   1.727  0.4371 -0.1659  0.4399
 2070SOL    HW217673   0.747   4.496   1.665 -0.4143  0.6637  0.1125
 2071SOL     OW17674   0.058   0.555   1.486 -0.5395  0.3468 -0.0241
 2071SOL    HW117675   0.091   0.572   1.575 -1.0147 -0.7978  0.3711
 2071SOL    HW217676   0.107   0.475   1.465  0.6456  1.2983 -0.8645
 2072SOL     OW17677   2.949   1.632   5.334 -0.2030 -0.0225 -0.0436
 2072SOL    HW117678   3.030   1.678   5.356  1.0708 -1.3516 -2.0014
 2072SOL    HW217679   2.907   1.623   5.420  2.0435 -1.9790  0.8507
 2073SOL     OW17680   2.575   3.766   4.047  0.1809  0.3248 -0.0593
 2073SOL    HW117681   2.489   3.791   4.014  0.6066  0.2276 -1.2437
 2073SOL    HW217682   2.581   3.674   4.023  0.4458  0.2904  0.1396
 2074SOL     OW17683   3.783   1.679   5.568 -0.6013 -0.3593 -0.3752
 2074SOL    HW117684   3.712   1.686   5.632  1.4270  2.2026  1.5427
 2074SOL    HW217685   3.745   1.686   5.480 -1.2918  0.4720 -0.0068
 2075SOL     OW17686   0.136   1.769  16.956 -0.3972  0.1851 -0.4098
 2075SOL    HW117687   0.177   1.847  16.919 -0.1154  0.8741  1.3676
 2075SOL    HW217688   0.107   1.791  17.045 -1.7218 -0.7547 -0.6076
 2076SOL     OW17689   0.421   1.778  16.906  0.1282  0.1201 -0.2695
 2076SOL    HW117690   0.339   1.750  16.946 -0.4940 -1.1372 -2.4583
 2076SOL    HW217691   0.469   1.697  16.922  0.6321  0.8832  2.0628
 2077SOL     OW17692   3.295   1.051   8.558  0.0828  0.4339 -0.1213
 2077SOL    HW117693   3.374   1.017   8.600  1.5476 -0.2785 -3.4561
 2077SOL    HW217694   3.232   0.992   8.599 -0.5028  0.7693 -0.5459
 2078SOL     OW17695   3.712   3.364   2.593 -0.3993 -0.0259 -0.0021
 2078SOL    HW117696   3.708   3.300   2.523  2.0563  1.8065 -1.8215
 2078SOL    HW217697   3.686   3.318   2.673 -0.1760  2.1929  1.3706
 2079SOL     OW17698   0.232   1.298   5.204  0.4437 -0.0519 -0.9622
 2079SOL    HW117699   0.192   1.305   5.291  0.0702  2.9212 -1.3641
 2079SOL    HW217700   0.317   1.341   5.214  0.2238  0.2884 -0.5137
 2080SOL     OW17701   2.013   2.216   1.223 -0.4742 -0.4086  0.6181
 2080SOL    HW117702   1.981   2.162   1.151  0.3978 -0.7399  0.4855
 2080SOL    HW217703   2.010   2.305   1.187 -0.3851  0.0404  1.7235
 2081SOL     OW17704   3.201   0.947   3.934 -0.7421 -0.0131  0.2557
 2081SOL    HW117705   3.279   0.949   3.878 -0.8044  0.3358  0.1773
 2081SOL    HW217706   3.162   0.861   3.919 -0.2404  0.1911 -2.3058
 2082SOL     OW17707   2.703   1.125   4.349  0.4662 -0.3034 -0.1039
 2082SOL    HW117708   2.779   1.141   4.405  0.8165 -3.1469  0.1945
 2082SOL    HW217709   2.736   1.188   4.285 -0.1511  1.2799  1.1172
 2083SOL     OW17710   1.723   2.811   5.520 -0.0736 -0.3125 -0.1425
 2083SOL    HW117711   1.639   2.767   5.531 -0.6262  0.5680 -0.9219
 2083SOL    HW217712   1.736   2.847   5.608 -1.6746 -1.4962  0.5881
 2084SOL     OW17713   1.381   4.293   7.077 -0.1825 -0.2926 -0.6577
 2084SOL    HW117714   1.371   4.387   7.091 -1.5902 -0.1509 -2.5239
 2084SOL    HW217715   1.348   4.270   7.164  2.5693 -0.1456  0.3897
 2085SOL     OW17716   2.962   3.093   7.812 -0.5516  0.4631 -0.0534
 2085SOL    HW117717   3.041   3.097   7.758  0.0765  0.4132  0.8599
 2085SOL    HW217718   2.968   3.007   7.854 -0.1980  1.0536  1.1191
 2086SOL     OW17719   0.593   1.146   8.226  0.2622 -0.1143  0.4062
 2086SOL    HW117720   0.517   1.143   8.284 -0.4152 -1.0245 -0.5252
 2086SOL    HW217721   0.614   1.054   8.242  0.5980 -0.2672 -0.9341
 2087SOL     OW17722   3.548   0.164   9.205 -0.6361  0.2098  0.6493
 2087SOL    HW117723   3.587   0.251   9.216  2.7391 -1.3398  0.9008
 2087SOL    HW217724   3.610   0.115   9.260 -0.3299 -0.0855  0.0357
 2088SOL     OW17725   1.887   1.952   6.964 -0.3755 -0.0843  0.5464
 2088SOL    HW117726   1.911   1.862   6.942 -1.2935 -0.9940  3.2472
 2088SOL    HW217727   1.846   1.935   7.049 -0.8844 -0.5972  0.1997
 2089SOL     OW17728   4.562   4.012   1.260 -0.2446 -0.1877 -0.1862
 2089SOL    HW117729   4.627   4.078   1.283 -0.3273  0.2094 -1.1158
 2089SOL    HW217730   4.553   4.045   1.171 -0.1487  0.5748  0.0904
 2090SOL     OW17731   4.554   3.953  12.898  0.0100  0.4282 -0.2456
 2090SOL    HW117732   4.570   3.879  12.839 -0.1753  0.4278 -0.2947
 2090SOL    HW217733   4.498   3.903  12.958  0.2773  1.7258  1.0822
 2091SOL     OW17734   1.630   3.929   7.877 -0.0118 -0.6693  0.1243
 2091SOL    HW117735   1.594   3.848   7.841 -1.4478 -0.5261  1.2503
 2091SOL    HW217736   1.560   3.995   7.877 -1.2360 -1.9685  2.3074
 2092SOL     OW17737   4.165   3.832   1.400  0.5740 -0.2326  0.1365
 2092SOL    HW117738   4.206   3.775   1.335 -0.6504 -2.1712  1.0698
 2092SOL    HW217739   4.167   3.782   1.482  4.5077  0.6162  0.5412
 2093SOL     OW17740   4.647   4.222  11.277 -0.0455  0.5354 -0.1038
 2093SOL    HW117741   4.639   4.270  11.360 -1.6578 -0.7949  0.5011
 2093SOL    HW217742   4.628   4.130  11.296  2.6019 -0.1275 -0.5654
 2094SOL     OW17743   4.534   2.148   5.104  0.0573  0.4504  0.3042
 2094SOL    HW117744   4.607   2.097   5.069 -0.2448 -0.2690  0.7300
 2094SOL    HW217745   4.508   2.093   5.177 -2.1876 -1.0296 -1.6133
 2095SOL     OW17746   4.095   3.931   7.750 -0.0759  0.0917 -0.0356
 2095SOL    HW117747   4.049   3.877   7.814 -0.6293 -0.4387 -0.8937
 2095SOL    HW217748   4.186   3.905   7.766 -0.6054 -2.8340 -1.8481
 2096SOL     OW17749   0.930   3.116   6.218 -0.4550 -1.0069 -0.0002
 2096SOL    HW117750   0.900   3.037   6.263  0.4795 -0.2076  2.0345
 2096SOL    HW217751   0.934   3.170   6.296 -1.2870 -0.6158 -0.2369
 2097SOL     OW17752   0.976   3.774  12.872 -0.5179  0.7152 -0.6528
 2097SOL    HW117753   0.885   3.802  12.882 -1.2937 -2.2166  0.5553
 2097SOL    HW217754   1.013   3.862  12.870 -1.8145  1.2445 -1.0712
 2098SOL     OW17755   2.555   2.430   4.597  0.2330  0.1657  0.1619
 2098SOL    HW117756   2.553   2.505   4.538  0.1529  1.1155  1.3639
 2098SOL    HW217757   2.498   2.453   4.670 -1.6400 -0.2801 -1.1675
 2099SOL     OW17758   1.010   0.575   2.511  0.6258 -0.1528 -0.1515
 2099SOL    HW117759   1.022   0.606   2.600  1.9839 -1.2165  0.0365
 2099SOL    HW217760   1.002   0.658   2.464 -0.7250  0.1693  0.6516
 2100SOL     OW17761   3.621   1.827   6.788  0.7733 -0.2283  0.4441
 2100SOL    HW117762   3.576   1.778   6.857 -1.3818  1.5352  0.2809
 2100SOL    HW217763   3.549   1.844   6.727 -0.8680 -0.3936  2.3442
 2101SOL     OW17764   3.454   2.730   6.152  0.9119 -0.3076 -0.0586
 2101SOL    HW117765   3.453   2.761   6.061  1.5902  0.5972  0.2390
 2101SOL    HW217766   3.410   2.645   6.146  1.6012 -0.7118  0.5816
 2102SOL     OW17767   1.817   1.012   6.174  0.4175 -0.2690  0.7964
 2102SOL    HW117768   1.771   1.088   6.139 -1.5255 -0.6450  2.5271
 2102SOL    HW217769   1.792   1.012   6.267  0.6671  2.2709  0.8614
 2103SOL     OW17770   1.717   0.727   7.336 -0.1620  0.0639 -0.5560
 2103SOL    HW117771   1.718   0.812   7.381  0.2345 -1.4196  2.2197
 2103SOL    HW217772   1.721   0.754   7.244  0.4903 -0.3145 -0.6390
 2104SOL     OW17773   0.551   1.869  13.071  0.2300  0.0413 -0.3408
 2104SOL    HW117774   0.570   1.813  12.996  1.7934  0.7570 -0.4766
 2104SOL    HW217775   0.462   1.841  13.091  0.4597 -0.5090 -0.0799
 2105SOL     OW17776   2.303   1.675  13.000  0.5256 -0.3370  0.1287
 2105SOL    HW117777   2.316   1.651  12.908 -0.1119 -0.5116  0.0852
 2105SOL    HW217778   2.314   1.586  13.034  0.3771 -0.2009  0.5191
 2106SOL     OW17779   4.675   4.048   5.439 -0.6220  0.0821  0.1333
 2106SOL    HW117780   4.600   4.038   5.381  1.2276  2.9808 -2.7508
 2106SOL    HW217781   4.679   3.956   5.465 -0.4066 -0.3578 -1.4343
 2107SOL     OW17782   0.613   2.720   8.066 -0.2735 -0.4306  0.2465
 2107SOL    HW117783   0.707   2.713   8.052 -0.3702 -0.6597 -0.2738
 2107SOL    HW217784   0.605   2.816   8.070  1.5301 -0.0962 -3.5376
 2108SOL     OW17785   4.168   4.185   7.919  0.2831  0.2396 -0.0720
 2108SOL    HW117786   4.262   4.196   7.905  0.5242 -1.7764 -0.0230
 2108SOL    HW217787   4.162   4.248   7.990 -2.3037 -0.3926  0.2691
 2109SOL     OW17788   1.858   2.999   5.359 -0.1001 -0.1708 -0.2966
 2109SOL    HW117789   1.846   2.920   5.411 -2.5133  0.3427 -0.0472
 2109SOL    HW217790   1.766   3.024   5.349 -0.4396 -0.8800  1.0753
 2110SOL     OW17791   4.471   0.421  13.527 -0.0530  0.2973  0.5448
 2110SOL    HW117792   4.430   0.337  13.510 -0.3165  0.6452 -0.5611
 2110SOL    HW217793   4.480   0.461  13.440  0.2579 -0.3920  0.2620
 2111SOL     OW17794   3.485   0.871   7.484  0.4192 -0.4231  0.5867
 2111SOL    HW117795   3.435   0.932   7.431  0.6523 -3.0918 -2.7124
 2111SOL    HW217796   3.412   0.836   7.536 -2.4615 -0.0921 -3.2455
 2112SOL     OW17797   3.637   3.024   7.704  0.1792 -0.2511  0.4261
 2112SOL    HW117798   3.602   3.083   7.638  1.1145 -0.4413 -0.2325
 2112SOL    HW217799   3.659   2.952   7.645 -0.8794  0.6012 -1.0142
 2113SOL     OW17800   2.587   3.441   0.243 -0.1322 -0.0913  0.1505
 2113SOL    HW117801   2.535   3.501   0.295 -1.3485 -2.4447  1.6472
 2113SOL    HW217802   2.626   3.402   0.321 -0.1832  0.5411  0.4873
 2114SOL     OW17803   3.864   2.094   5.862  0.2419  0.2388  0.3408
 2114SOL    HW117804   3.832   2.119   5.948 -0.6115 -2.5557  0.8326
 2114SOL    HW217805   3.785   2.064   5.817  0.8460 -0.6147 -0.1539
 2115SOL     OW17806   1.440   3.892   3.892  0.0059 -0.1468 -0.2241
 2115SOL    HW117807   1.498   3.906   3.967  0.6146 -2.0144 -0.3367
 2115SOL    HW217808   1.364   3.933   3.934 -0.2101 -1.0581  0.2758
 2116SOL     OW17809   3.379   0.962   8.988 -0.3318  0.1231  0.1861
 2116SOL    HW117810   3.310   1.023   9.014 -0.1313 -0.1622  1.3498
 2116SOL    HW217811   3.339   0.920   8.912 -0.0704  0.8080 -0.3301
 2117SOL     OW17812   0.757   4.410   8.308 -0.3627  0.4009  0.0962
 2117SOL    HW117813   0.731   4.388   8.398  0.6691 -2.1697 -0.2099
 2117SOL    HW217814   0.690   4.468   8.274  0.7799  0.2554 -2.4241
 2118SOL     OW17815   1.556   1.121   1.709 -0.2375 -0.3247 -0.2406
 2118SOL    HW117816   1.560   1.176   1.630  1.6051 -3.0900 -2.0796
 2118SOL    HW217817   1.624   1.167   1.757 -1.0799 -1.9439  2.4751
 2119SOL     OW17818   1.390   1.793   4.295  0.1885  0.2458  0.0776
 2119SOL    HW117819   1.362   1.719   4.350  2.0077 -0.1735  0.4637
 2119SOL    HW217820   1.342   1.867   4.332  0.1014 -1.0349  2.5900
 2120SOL     OW17821   2.732   3.777   0.403  0.2778  0.0607 -0.3957
 2120SOL    HW117822   2.641   3.806   0.415  1.0693  2.8241 -0.9799
 2120SOL    HW217823   2.780   3.849   0.445  0.3288 -0.1956 -0.0117
 2121SOL     OW17824   3.285   0.747   9.922  0.0820  0.2372  0.6506
 2121SOL    HW117825   3.302   0.837   9.951 -0.4405  0.5166  0.1210
 2121SOL    HW217826   3.306   0.700  10.002  0.2844 -0.9404 -0.0937
 2122SOL     OW17827   0.260   4.382   5.941  0.3443  0.7618 -0.4205
 2122SOL    HW117828   0.230   4.463   5.898  0.5992  1.0081 -0.1291
 2122SOL    HW217829   0.354   4.392   5.927  0.4922 -0.0379 -0.0044
 2123SOL     OW17830   0.723   3.898   1.156 -0.0798 -0.0408  0.1713
 2123SOL    HW117831   0.739   3.807   1.130  1.3525  0.3290 -0.2155
 2123SOL    HW217832   0.708   3.894   1.251 -1.8251  3.5018  0.0297
 2124SOL     OW17833   1.559   3.148   1.623  0.1392  0.7609 -0.3774
 2124SOL    HW117834   1.642   3.171   1.663 -0.6845  1.6324  0.8066
 2124SOL    HW217835   1.576   3.096   1.544 -1.4966 -1.8871  1.0138
 2125SOL     OW17836   1.022   0.344  10.264 -0.0014  0.0952 -0.1896
 2125SOL    HW117837   0.983   0.275  10.211 -0.9838  0.6492 -0.1830
 2125SOL    HW217838   0.948   0.403  10.262 -0.1008  0.0261  1.2999
 2126SOL     OW17839   2.831   1.909   6.315  0.3706  0.2978  0.1598
 2126SOL    HW117840   2.851   1.999   6.343 -1.9994  0.2353  2.0280
 2126SOL    HW217841   2.912   1.858   6.308  0.0388 -0.2397  0.2863
 2127SOL     OW17842   4.287   0.647  16.928  0.3527 -0.0923 -0.0271
 2127SOL    HW117843   4.208   0.651  16.875  0.3215  0.2685  0.0431
 2127SOL    HW217844   4.344   0.592  16.875  1.1364  1.5765 -0.9039
 2128SOL     OW17845   2.652   3.126   9.065  0.1387  0.3534 -0.2422
 2128SOL    HW117846   2.690   3.098   8.982  0.7883  0.6739 -0.0576
 2128SOL    HW217847   2.677   3.219   9.071 -1.4992  0.8356 -0.9866
 2129SOL     OW17848   3.745   3.435   5.617  0.5743  0.2895  0.3393
 2129SOL    HW117849   3.705   3.521   5.628 -1.5633 -0.5487 -0.8442
 2129SOL    HW217850   3.667   3.387   5.590  1.4611 -0.1163 -1.4982
 2130SOL     OW17851   1.300   1.815  10.074  0.0301  0.2686  0.1703
 2130SOL    HW117852   1.360   1.890  10.075 -0.1510  0.4178 -0.0698
 2130SOL    HW217853   1.220   1.865  10.093  0.5256  0.5073  1.6514
 2131SOL     OW17854   1.325   3.486   9.280 -0.1467 -0.3400  0.2159
 2131SOL    HW117855   1.237   3.455   9.303 -0.9218  1.2078 -0.6275
 2131SOL    HW217856   1.367   3.401   9.272  2.5515  0.8640  1.8662
 2132SOL     OW17857   0.318   1.004   7.990  0.0481  0.2435 -0.3219
 2132SOL    HW117858   0.261   0.969   8.058  1.0441  2.1616  1.4841
 2132SOL    HW217859   0.399   0.985   8.038 -0.5073  0.5253  0.7216
 2133SOL     OW17860   3.777   2.772   7.660  0.1136  0.5782 -0.2851
 2133SOL    HW117861   3.748   2.725   7.738 -0.8745  0.3258 -0.8127
 2133SOL    HW217862   3.853   2.811   7.703  0.6770 -0.9029  0.0592
 2134SOL     OW17863   3.768   2.346   8.925 -0.2095  0.5398 -0.2352
 2134SOL    HW117864   3.825   2.417   8.955  0.1882  0.1418 -0.0477
 2134SOL    HW217865   3.711   2.402   8.873 -0.5008  1.6795  1.2735
 2135SOL     OW17866   1.992   4.543   4.399  0.9737  0.5008  0.4502
 2135SOL    HW117867   2.024   4.453   4.408 -0.3968 -0.2032 -1.7843
 2135SOL    HW217868   2.020   4.564   4.310  0.2298  2.7698  0.7427
 2136SOL     OW17869   4.030   2.735  14.370  0.1526 -0.2204  0.3838
 2136SOL    HW117870   4.118   2.698  14.368  0.3193  0.2187 -0.2967
 2136SOL    HW217871   4.021   2.762  14.462 -1.2393 -2.3905  0.8959
 2137SOL     OW17872   2.640   4.176   0.740  0.2056  0.1809 -0.2456
 2137SOL    HW117873   2.631   4.263   0.701  1.3145  0.0335 -0.8152
 2137SOL    HW217874   2.566   4.160   0.799  0.6145  1.9705  0.7639
 2138SOL     OW17875   3.574   4.631  10.330  0.2051  0.1977  0.3028
 2138SOL    HW117876   3.650   4.648  10.386 -1.0022  0.1768  1.9451
 2138SOL    HW217877   3.507   4.684  10.374 -0.0384  0.5565 -0.5042
 2139SOL     OW17878   2.071   1.292   6.198 -0.2210  0.6150  0.0289
 2139SOL    HW117879   2.096   1.366   6.143 -1.3185 -0.4216 -1.8423
 2139SOL    HW217880   1.984   1.311   6.234 -0.4804 -1.3669  0.4554
 2140SOL     OW17881   2.392   0.184   7.354  0.0204 -0.2872  0.1116
 2140SOL    HW117882   2.346   0.177   7.438  0.1051 -2.2961 -0.0031
 2140SOL    HW217883   2.429   0.096   7.351  0.7897 -0.0349  1.8799
 2141SOL     OW17884   0.549   0.216   0.202 -0.5774 -0.8476  0.1196
 2141SOL    HW117885   0.504   0.236   0.120  1.2053  2.3120 -0.0483
 2141SOL    HW217886   0.522   0.290   0.256 -0.9616 -0.9424  0.0582
 2142SOL     OW17887   2.925   3.928  16.064  0.0082 -0.3661 -0.3348
 2142SOL    HW117888   2.842   3.879  16.067  0.5602 -1.4597 -2.7147
 2142SOL    HW217889   2.915   3.978  15.983 -0.9402 -0.4673 -0.2839
 2143SOL     OW17890   0.887   0.995   6.731  0.1220  0.3424  0.2206
 2143SOL    HW117891   0.948   0.952   6.671 -1.3142  0.1287 -1.0826
 2143SOL    HW217892   0.866   0.916   6.780 -1.2289  0.6486  0.1337
 2144SOL     OW17893   4.371   4.040   6.130 -0.2865  0.2572 -0.1087
 2144SOL    HW117894   4.324   4.002   6.205  2.0071  1.1154  1.7618
 2144SOL    HW217895   4.439   4.094   6.169 -0.1448 -0.7421  1.0374
 2145SOL     OW17896   2.999   2.442  16.903 -0.2269  0.3829 -0.2951
 2145SOL    HW117897   3.070   2.505  16.910 -0.3910  0.4341  1.0252
 2145SOL    HW217898   3.033   2.353  16.909 -3.7906 -1.0943 -2.0928
 2146SOL     OW17899   0.563   2.270  17.551  0.6101 -0.9271  0.3135
 2146SOL    HW117900   0.573   2.337  17.483  3.2131  0.3347  1.9480
 2146SOL    HW217901   0.471   2.281  17.576  0.2598  1.0383 -1.8590
 2147SOL     OW17902   0.923   0.632   3.847 -0.3799 -0.6225 -0.3140
 2147SOL    HW117903   0.947   0.554   3.797  0.5789 -0.3496 -0.2934
 2147SOL    HW217904   0.979   0.700   3.810 -0.0467  0.7606  2.7122
 2148SOL     OW17905   1.951   2.566   8.851  0.1178 -0.2719  0.2008
 2148SOL    HW117906   2.008   2.491   8.867  0.0028 -0.2089  0.8745
 2148SOL    HW217907   1.877   2.544   8.907  0.3548 -2.2393 -0.2640
 2149SOL     OW17908   4.323   4.717   5.217 -0.1093  0.4719  0.1034
 2149SOL    HW117909   4.350   4.630   5.246 -1.9409  0.6338  2.2634
 2149SOL    HW217910   4.320   0.041   5.300 -0.0272  0.1045  0.3112
 2150SOL     OW17911   1.250   0.461   0.263 -0.7013 -0.1862 -0.5178
 2150SOL    HW117912   1.236   0.447   0.169 -1.5623  0.6230 -0.5062
 2150SOL    HW217913   1.342   0.488   0.266 -1.1765  1.4845 -1.2226
 2151SOL     OW17914   3.835   0.611   9.826 -0.2721  0.4039 -0.5143
 2151SOL    HW117915   3.824   0.653   9.740 -0.9909  1.4550  0.0886
 2151SOL    HW217916   3.742   0.610   9.847 -0.2691 -0.2279 -0.5319
 2152SOL     OW17917   2.282   2.447  14.413 -0.0900  0.6931 -0.1976
 2152SOL    HW117918   2.349   2.514  14.415  0.2648  0.3030  0.7390
 2152SOL    HW217919   2.229   2.470  14.490 -1.2930  1.2442 -1.1780
 2153SOL     OW17920   1.168   0.811  16.905  0.2895 -0.1682 -0.4416
 2153SOL    HW117921   1.117   0.731  16.919 -0.0766  0.2660  0.6525
 2153SOL    HW217922   1.240   0.777  16.852 -1.1706  0.0203 -2.5851
 2154SOL     OW17923   4.039   0.594   1.692 -0.0655 -0.4249  1.1604
 2154SOL    HW117924   4.108   0.644   1.648 -1.5230  0.5882  0.0168
 2154SOL    HW217925   4.057   0.509   1.652 -0.8441 -0.2127  0.3794
 2155SOL     OW17926   0.902   0.270   2.680 -0.1137  0.3490 -0.7156
 2155SOL    HW117927   0.820   0.315   2.700 -0.3719 -0.4583  0.0544
 2155SOL    HW217928   0.915   0.276   2.586  0.3144  0.7595 -0.6313
 2156SOL     OW17929   2.214   0.503  12.139  0.3542 -0.4955  0.2912
 2156SOL    HW117930   2.265   0.468  12.212  0.4635  0.9820  0.9251
 2156SOL    HW217931   2.284   0.527  12.078 -1.3049  0.6237 -1.1693
 2157SOL     OW17932   4.512   1.454   9.208  0.5214  0.1478  0.4853
 2157SOL    HW117933   4.541   1.447   9.299 -1.6506  0.6641  1.2164
 2157SOL    HW217934   4.558   1.531   9.175 -0.1313  0.8304  1.1649
 2158SOL     OW17935   1.755   1.226   2.561  0.1897 -0.1887 -0.1635
 2158SOL    HW117936   1.840   1.225   2.605  0.2307 -0.3558 -0.2475
 2158SOL    HW217937   1.744   1.143   2.516 -0.1070 -0.0247 -0.3951
 2159SOL     OW17938   1.529   1.906   7.070 -0.3280  0.1359 -0.2936
 2159SOL    HW117939   1.604   1.943   7.117  0.8930 -1.4599 -0.9734
 2159SOL    HW217940   1.482   1.982   7.037  0.6902  0.6389 -0.5875
 2160SOL     OW17941   4.456   2.473   2.883  0.0050 -0.3277 -0.7141
 2160SOL    HW117942   4.510   2.397   2.859 -0.3055 -1.3540  1.7696
 2160SOL    HW217943   4.377   2.447   2.930  0.0756  1.8100  0.5937
 2161SOL     OW17944   4.257   4.060  17.436 -0.1873  0.0336  0.1156
 2161SOL    HW117945   4.323   3.993  17.456  1.2748  0.7637 -2.1889
 2161SOL    HW217946   4.194   4.007  17.388 -2.6865  0.2275  3.2255
 2162SOL     OW17947   0.014   1.895   3.424 -0.1555  0.3142  0.2345
 2162SOL    HW117948   0.079   1.844   3.374 -0.9499  0.6668 -1.1626
 2162SOL    HW217949   0.064   1.895   3.506  0.5033  1.0068 -0.1638
 2163SOL     OW17950   2.933   0.730   0.919 -0.6739 -0.4968 -0.1922
 2163SOL    HW117951   2.925   0.802   0.857 -0.2628 -1.7055 -1.6263
 2163SOL    HW217952   2.908   0.778   0.998  1.2242  0.4917 -0.2057
 2164SOL     OW17953   4.312   1.893   2.739  0.5317 -0.6946 -0.1714
 2164SOL    HW117954   4.269   1.865   2.658  0.8495  0.7338 -0.8343
 2164SOL    HW217955   4.270   1.978   2.753  0.6738 -0.7894  0.8263
 2165SOL     OW17956   0.313   2.513   4.059 -0.1220 -0.1887  0.0485
 2165SOL    HW117957   0.282   2.575   3.994  1.2804  2.7234  2.1749
 2165SOL    HW217958   0.247   2.532   4.125  0.8292 -1.7104  1.4431
 2166SOL     OW17959   3.753   0.772   1.991 -0.0656  0.3722  0.7773
 2166SOL    HW117960   3.665   0.754   1.959  0.1959 -2.4282  1.7132
 2166SOL    HW217961   3.756   0.715   2.067  1.3636  2.1712  2.0710
 2167SOL     OW17962   0.454   4.100  14.372  0.4188 -0.1585  0.0805
 2167SOL    HW117963   0.363   4.080  14.349 -0.3696  3.0219  0.3437
 2167SOL    HW217964   0.472   4.031  14.436  2.0838  1.7427  1.6586
 2168SOL     OW17965   2.781   2.135   5.589 -0.3743  0.2245  0.2509
 2168SOL    HW117966   2.831   2.057   5.614 -1.6268 -0.2100  1.3731
 2168SOL    HW217967   2.838   2.206   5.619  1.9307 -2.1577  1.5427
 2169SOL     OW17968   4.569   3.645   6.205  0.2084  0.5176 -0.1365
 2169SOL    HW117969   4.638   3.598   6.251 -0.5711 -0.2595  0.2421
 2169SOL    HW217970   4.608   3.666   6.120 -0.4033 -0.2271 -0.6067
 2170SOL     OW17971   2.902   1.576   8.653  0.3114  0.1142  0.4212
 2170SOL    HW117972   2.990   1.543   8.638  0.4265  1.1575 -1.1672
 2170SOL    HW217973   2.926   1.668   8.652  0.7850 -0.0260 -1.1992
 2171SOL     OW17974   4.694   2.963  12.552 -0.5721 -0.0475  0.6634
 2171SOL    HW117975   0.040   2.935  12.614  1.4719 -0.0681 -1.5572
 2171SOL    HW217976   4.616   2.951  12.605 -3.3704 -0.6699 -3.5920
 2172SOL     OW17977   0.503   3.993  12.502 -0.1886  0.0871 -0.6392
 2172SOL    HW117978   0.543   3.937  12.436 -1.1637 -2.3785  0.8789
 2172SOL    HW217979   0.556   4.073  12.499  2.0767 -1.4781 -2.1458
 2173SOL     OW17980   3.933   4.071   4.476 -0.5121 -0.2245  0.2140
 2173SOL    HW117981   4.006   4.066   4.415 -2.0471  0.0880 -1.6600
 2173SOL    HW217982   3.906   3.980   4.488 -0.9152 -0.5504 -3.2583
 2174SOL     OW17983   2.497   0.888   6.481  0.4751  0.2213  0.0842
 2174SOL    HW117984   2.484   0.814   6.421  0.1652  0.3423  0.0064
 2174SOL    HW217985   2.581   0.877   6.527 -0.4417 -0.5970  1.5581
 2175SOL     OW17986   1.699   2.569  15.720 -0.5606 -0.3864 -0.1794
 2175SOL    HW117987   1.664   2.527  15.799  0.7598  0.5784  0.9258
 2175SOL    HW217988   1.625   2.625  15.697 -0.4327  0.6339  1.9162
 2176SOL     OW17989   3.751   4.003  15.280  0.1513 -0.0367 -0.2528
 2176SOL    HW117990   3.803   3.967  15.208  2.8169 -0.5937  1.9110
 2176SOL    HW217991   3.702   4.078  15.245 -0.7733 -0.0445  1.0267
 2177SOL     OW17992   0.721   4.302  14.813  0.0768 -0.5007  0.6624
 2177SOL    HW117993   0.659   4.366  14.848  0.2760 -0.4624  0.9480
 2177SOL    HW217994   0.774   4.353  14.753  1.0170 -0.9791  1.0942
 2178SOL     OW17995   2.517   1.909   3.380 -0.2637  0.2056  0.1358
 2178SOL    HW117996   2.552   1.857   3.308 -1.8185  0.9614 -1.1561
 2178SOL    HW217997   2.528   1.843   3.449 -0.3605  1.3360  1.2338
 2179SOL     OW17998   1.721   3.408   0.495 -0.1049 -0.2200  0.0158
 2179SOL    HW117999   1.807   3.413   0.537  0.3626 -2.1680 -0.7367
 2179SOL    HW218000   1.688   3.494   0.522  0.7053  0.8217 -2.3335
 2180SOL     OW18001   2.448   3.498   3.956 -0.6243  0.1114  0.0246
 2180SOL    HW118002   2.433   3.410   3.920 -1.4267  0.1268  0.3292
 2180SOL    HW218003   2.411   3.561   3.894 -0.0421  0.6999  0.2839
 2181SOL     OW18004   0.089   3.570   1.142 -0.3074 -0.0034 -0.2600
 2181SOL    HW118005   0.120   3.531   1.224  0.5255 -0.7205 -0.9213
 2181SOL    HW218006   0.033   3.642   1.173  0.9654  0.3466  1.2426
 2182SOL     OW18007   1.104   0.504   7.943  0.1301 -0.1624  0.2294
 2182SOL    HW118008   1.035   0.548   7.892  1.9446 -0.1187 -2.2272
 2182SOL    HW218009   1.182   0.557   7.931  2.1838 -3.5369 -1.2459
 2183SOL     OW18010   1.850   4.433   3.045  0.5186  0.3584  0.0790
 2183SOL    HW118011   1.933   4.387   3.037 -0.0020 -0.6309  0.3491
 2183SOL    HW218012   1.795   4.374   2.993  0.7166  0.9006 -0.7464
 2184SOL     OW18013   1.140   1.817   2.054 -0.1816 -0.4847  0.1862
 2184SOL    HW118014   1.167   1.751   2.119  0.9781 -0.0295  0.1681
 2184SOL    HW218015   1.068   1.762   2.024 -0.1146 -0.7635  0.5220
 2185SOL     OW18016   3.959   2.239   6.344 -0.2217  0.3878 -0.0312
 2185SOL    HW118017   3.920   2.162   6.384  0.8663  0.2779  0.8116
 2185SOL    HW218018   3.881   2.293   6.335 -0.5743 -0.4279 -1.9644
 2186SOL     OW18019   4.638   1.333  10.140  0.5754  0.2342  0.5739
 2186SOL    HW118020   4.659   1.246  10.107  2.0178  0.5413  0.6716
 2186SOL    HW218021   4.666   1.388  10.067  0.1705  0.7638  0.8173
 2187SOL     OW18022   2.720   1.245   2.994  0.2444 -0.3961 -0.1875
 2187SOL    HW118023   2.782   1.225   2.924  2.4170  0.6053  1.4422
 2187SOL    HW218024   2.778   1.249   3.070 -1.1679 -0.7483  0.9244
 2188SOL     OW18025   1.448   1.733   2.321 -0.0652 -0.3205 -0.7616
 2188SOL    HW118026   1.357   1.706   2.310  0.5487 -2.3674 -0.9226
 2188SOL    HW218027   1.439   1.795   2.393  0.5135 -2.3254  1.0472
 2189SOL     OW18028   1.942   1.510  17.312  0.1453 -0.0151  0.1892
 2189SOL    HW118029   1.887   1.584  17.338  1.5868  1.0920  0.0535
 2189SOL    HW218030   1.901   1.431  17.347 -0.8967  0.6821  0.5651
 2190SOL     OW18031   1.021   0.765  12.224  0.6460 -0.1651 -0.5885
 2190SOL    HW118032   1.107   0.797  12.196 -0.4763  2.1815 -1.3340
 2190SOL    HW218033   0.959   0.804  12.163  1.1865  0.1225 -0.9586
 2191SOL     OW18034   0.837   2.435  11.773 -0.9579  0.1116 -0.2302
 2191SOL    HW118035   0.788   2.363  11.814  2.0903 -2.1516 -0.5687
 2191SOL    HW218036   0.770   2.470  11.714 -0.8442  1.2528  0.3082
 2192SOL     OW18037   0.961   1.629   4.503  0.0234 -0.0993  0.1028
 2192SOL    HW118038   1.009   1.690   4.559 -0.6463 -0.0256  0.6006
 2192SOL    HW218039   0.873   1.664   4.515 -1.0343 -3.4286  2.2284
 2193SOL     OW18040   1.671   0.174  12.844 -0.3433 -0.0848  0.2372
 2193SOL    HW118041   1.632   0.163  12.757 -0.8406 -1.6320  0.6467
 2193SOL    HW218042   1.750   0.214  12.809 -0.3083 -0.3963 -0.0427
 2194SOL     OW18043   4.299   4.696  14.496  1.3985  0.0951 -0.0042
 2194SOL    HW118044   4.258   4.614  14.522 -0.3589  1.1605  0.5975
 2194SOL    HW218045   4.368   4.697  14.562 -0.0166  0.6672  1.4745
 2195SOL     OW18046   1.648   2.094  11.448  0.3943  0.3489  0.3286
 2195SOL    HW118047   1.719   2.057  11.394  2.2408  2.5235  1.2522
 2195SOL    HW218048   1.698   2.149  11.508 -0.0513  0.4360  0.6177
 2196SOL     OW18049   3.581   0.249   9.506 -0.3555 -0.2107 -0.1984
 2196SOL    HW118050   3.675   0.259   9.517 -0.1661 -0.1766 -1.7784
 2196SOL    HW218051   3.574   0.155   9.521  0.6678 -0.3421 -0.6013
 2197SOL     OW18052   2.101   0.452   1.651 -0.0057 -0.0709  0.7946
 2197SOL    HW118053   2.035   0.384   1.663 -0.1746 -0.0276  0.0960
 2197SOL    HW218054   2.040   0.525   1.640  2.0461  1.3670 -1.1503
 2198SOL     OW18055   1.247   2.001   4.387  0.1473 -0.0732  0.1872
 2198SOL    HW118056   1.186   2.063   4.427 -0.5814  0.6591 -2.0333
 2198SOL    HW218057   1.313   2.062   4.356 -0.1635 -0.3444 -1.0364
 2199SOL     OW18058   0.361   1.465  11.972  0.4765 -0.4510 -0.4798
 2199SOL    HW118059   0.411   1.420  11.905  2.5314  2.0327 -0.5980
 2199SOL    HW218060   0.348   1.394  12.034  3.3751  0.0305  0.6673
 2200SOL     OW18061   3.629   1.549   3.301 -0.2239  0.5513  0.1839
 2200SOL    HW118062   3.697   1.490   3.333  0.2478  0.1819 -1.4869
 2200SOL    HW218063   3.571   1.552   3.377  1.0234  3.2171  1.0193
 2201SOL     OW18064   4.438   1.427   4.472 -0.1326 -0.5040  0.4709
 2201SOL    HW118065   4.441   1.364   4.544 -1.0596  0.3225  1.2326
 2201SOL    HW218066   4.520   1.408   4.426 -1.7635 -2.9841 -1.4107
 2202SOL     OW18067   4.058   4.587   8.429 -0.0508 -0.9533 -0.1509
 2202SOL    HW118068   3.966   4.573   8.454  0.2304 -1.3536  0.6802
 2202SOL    HW218069   4.068   4.682   8.433 -1.6883 -0.7691 -0.1116
 2203SOL     OW18070   0.127   4.459   5.666 -0.6609 -0.3541  0.4140
 2203SOL    HW118071   0.125   4.369   5.700 -0.5412  0.5154  2.7026
 2203SOL    HW218072   0.077   4.446   5.586  1.9512  0.2714 -1.3223
 2204SOL     OW18073   2.736   0.982   8.706 -0.3629  0.0234  0.2907
 2204SOL    HW118074   2.731   0.899   8.658  1.3638 -0.6239  1.2225
 2204SOL    HW218075   2.645   1.011   8.706 -0.2863  0.2635 -0.0453
 2205SOL     OW18076   1.539   1.456   5.250  1.0987 -0.1513  0.1971
 2205SOL    HW118077   1.544   1.528   5.313  0.1899  0.5228 -0.5068
 2205SOL    HW218078   1.552   1.378   5.304  1.2136  0.0736  0.4999
 2206SOL     OW18079   1.147   1.259   2.294 -0.4876  0.2452 -0.4904
 2206SOL    HW118080   1.152   1.311   2.214 -3.5335  2.6762  0.9089
 2206SOL    HW218081   1.097   1.181   2.270 -0.3223  0.0862 -0.3253
 2207SOL     OW18082   0.442   3.721   3.098  0.2710  0.2083  0.1039
 2207SOL    HW118083   0.394   3.639   3.092  0.7715 -0.1506  0.9424
 2207SOL    HW218084   0.439   3.744   3.005 -0.9662  0.5626  0.2308
 2208SOL     OW18085   3.789   3.834   9.715 -0.0183 -0.0954 -0.5730
 2208SOL    HW118086   3.775   3.814   9.808 -2.6248  0.0340 -0.9357
 2208SOL    HW218087   3.741   3.761   9.675  0.3927 -1.3312  1.1823
 2209SOL     OW18088   2.448   2.915   4.883  0.0635 -0.5341  0.3953
 2209SOL    HW118089   2.385   2.893   4.951 -0.5195  0.0711  0.0568
 2209SOL    HW218090   2.427   3.009   4.875 -1.7165 -1.1015 -1.6790
 2210SOL     OW18091   1.689   3.539   8.067  0.4947 -0.0507 -0.4650
 2210SOL    HW118092   1.745   3.607   8.031  0.9795  1.3022  2.7994
 2210SOL    HW218093   1.605   3.583   8.055  1.1202  0.8699 -1.4081
 2211SOL     OW18094   4.649   4.103  14.287  1.1009  0.2416  0.4467
 2211SOL    HW118095   4.578   4.095  14.351 -0.1875  2.8599 -0.6554
 2211SOL    HW218096   4.664   4.013  14.256 -0.0238  0.2751 -0.2012
 2212SOL     OW18097   1.390   2.875  16.912  0.1789 -0.1670 -0.4697
 2212SOL    HW118098   1.396   2.971  16.906  0.5560 -0.1569  0.0064
 2212SOL    HW218099   1.298   2.869  16.937  0.1109 -0.9690 -0.9113
 2213SOL     OW18100   2.501   3.653   3.510  1.2161  0.2459  0.3473
 2213SOL    HW118101   2.537   3.566   3.523  1.7110  0.2370 -1.1441
 2213SOL    HW218102   2.453   3.674   3.590  1.1599 -3.5439  1.3083
 2214SOL     OW18103   3.835   4.126   1.346  0.3510 -0.4316  0.5600
 2214SOL    HW118104   3.769   4.067   1.382  1.1519 -1.9249 -0.3809
 2214SOL    HW218105   3.806   4.215   1.367 -1.3123 -0.9358  0.4014
 2215SOL     OW18106   2.295   2.041   7.769 -0.1535  0.3336  0.2808
 2215SOL    HW118107   2.389   2.049   7.784 -0.5220  0.3416  2.6211
 2215SOL    HW218108   2.280   1.952   7.737 -0.2279 -0.1392  1.6335
 2216SOL     OW18109   2.306   2.505   7.271 -0.1223  0.7600 -0.2091
 2216SOL    HW118110   2.239   2.559   7.312 -0.1097  2.6969 -2.7229
 2216SOL    HW218111   2.325   2.439   7.338  0.6590 -0.1978 -1.3781
 2217SOL     OW18112   4.615   4.719  10.477  0.5551  0.1715 -0.2626
 2217SOL    HW118113   4.630   0.092  10.483 -1.3225  0.4549  0.0774
 2217SOL    HW218114   4.618   4.702  10.383  0.6349 -1.8032  0.0894
 2218SOL     OW18115   0.268   1.529  16.958 -0.0445  0.5717 -0.2370
 2218SOL    HW118116   0.224   1.498  17.037  1.5756  2.0772  1.2507
 2218SOL    HW218117   0.221   1.610  16.940  1.9452  2.2167  1.8827
 2219SOL     OW18118   0.383   2.205   9.007 -0.1997  0.1270 -0.2948
 2219SOL    HW118119   0.457   2.172   9.058 -0.2049 -1.7811 -1.5081
 2219SOL    HW218120   0.390   2.300   9.013  0.4294  0.0673 -0.0800
 2220SOL     OW18121   2.138   2.441  10.291 -0.0420 -0.3301  0.2865
 2220SOL    HW118122   2.161   2.389  10.368 -0.3537  1.8966  1.8841
 2220SOL    HW218123   2.049   2.472  10.310  0.0779  0.7098 -0.8739
 2221SOL     OW18124   1.887   0.264   4.514 -0.1991 -0.4921  0.5828
 2221SOL    HW118125   1.799   0.227   4.528 -0.1209 -1.2154 -0.9448
 2221SOL    HW218126   1.885   0.316   4.595 -0.4743 -1.2238  1.0511
 2222SOL     OW18127   2.059   1.320   2.698  0.5978 -1.4036  0.5725
 2222SOL    HW118128   2.014   1.401   2.721  2.1828 -0.3316 -0.0791
 2222SOL    HW218129   2.140   1.332   2.748 -0.3827 -0.7845  2.0193
 2223SOL     OW18130   1.313   3.943  17.390 -0.4305 -0.0837 -0.3583
 2223SOL    HW118131   1.348   3.862  17.426 -2.7658 -0.0046  2.0477
 2223SOL    HW218132   1.332   3.944  17.296  0.2258  1.0529 -0.2148
 2224SOL     OW18133   0.686   0.728   1.457 -0.2757 -0.1076  0.0105
 2224SOL    HW118134   0.652   0.813   1.431  1.3408  0.2161 -1.0245
 2224SOL    HW218135   0.642   0.661   1.404  0.9613  0.1993 -1.3858
 2225SOL     OW18136   1.247   0.529   5.368 -0.5227 -0.4088 -0.0019
 2225SOL    HW118137   1.265   0.469   5.440  0.0452 -2.1331 -1.5907
 2225SOL    HW218138   1.184   0.484   5.312 -1.7900  0.5503  0.6463
 2226SOL     OW18139   4.711   1.107  10.020  0.6003 -0.1835 -0.2598
 2226SOL    HW118140   0.036   1.132   9.940 -0.3050 -0.0956 -0.7675
 2226SOL    HW218141   4.651   1.039   9.989  0.7624 -0.4107 -0.0686
 2227SOL     OW18142   4.059   1.197  13.732  0.1519 -0.6274 -0.1538
 2227SOL    HW118143   4.004   1.196  13.654  1.9774  2.7919 -1.4486
 2227SOL    HW218144   4.142   1.173  13.692  1.2380  0.1497  1.6272
 2228SOL     OW18145   3.532   4.716   0.852  0.1088  0.3171 -0.0539
 2228SOL    HW118146   3.502   4.625   0.852 -0.4082  0.4848  0.1754
 2228SOL    HW218147   3.517   0.001   0.758 -0.0675  2.2227  0.1176
 2229SOL     OW18148   1.693   3.350   7.171  0.2879  0.2192 -0.4542
 2229SOL    HW118149   1.655   3.423   7.219 -1.3916 -1.9950  1.5920
 2229SOL    HW218150   1.659   3.277   7.224  0.7165  0.8569  0.6991
 2230SOL     OW18151   2.786   2.478   4.357 -0.1705  0.4921  0.0688
 2230SOL    HW118152   2.726   2.531   4.409 -1.3377 -0.9586  0.1966
 2230SOL    HW218153   2.728   2.461   4.282 -0.6481 -1.0889  0.8068
 2231SOL     OW18154   3.958   2.165   9.701 -0.2389 -0.2298 -0.5349
 2231SOL    HW118155   3.959   2.252   9.741 -0.1319 -1.1269  1.4521
 2231SOL    HW218156   3.921   2.121   9.777  0.7776  2.3063  1.4540
 2232SOL     OW18157   2.522   1.259   5.093  0.2459 -0.2310 -0.1552
 2232SOL    HW118158   2.526   1.262   4.997  1.2307 -1.5212 -0.1616
 2232SOL    HW218159   2.479   1.343   5.109  1.2036  0.4632 -1.2260
 2233SOL     OW18160   1.916   2.493   9.525  0.1644  0.3129  0.0681
 2233SOL    HW118161   1.873   2.410   9.508 -0.1479  0.0906  1.9617
 2233SOL    HW218162   1.985   2.479   9.460 -0.5953 -0.5530 -0.5562
 2234SOL     OW18163   2.032   1.971   9.332  0.2467  0.2363  0.7105
 2234SOL    HW118164   2.030   2.064   9.306 -2.9730  1.0131  3.7601
 2234SOL    HW218165   2.124   1.972   9.358  0.2707 -0.1032  0.6323
 2235SOL     OW18166   0.001   3.031   7.324 -0.5529  0.4216  0.1770
 2235SOL    HW118167   0.067   3.023   7.393 -0.0284 -0.8005 -0.4700
 2235SOL    HW218168   4.668   2.953   7.328 -1.7640  1.3915  2.2105
 2236SOL     OW18169   0.775   3.713   0.729  0.2074  0.1579  0.1345
 2236SOL    HW118170   0.799   3.620   0.741  0.2689  0.1530 -0.0246
 2236SOL    HW218171   0.855   3.748   0.690  0.9840 -2.6682 -0.8500
 2237SOL     OW18172   2.422   4.415   3.008 -0.0949 -0.2760 -0.1478
 2237SOL    HW118173   2.411   4.490   2.949  0.6351 -0.0116  0.0388
 2237SOL    HW218174   2.428   4.463   3.091  3.7426  0.8233 -1.0311
 2238SOL     OW18175   1.615   4.458   9.771 -0.3288 -0.0522  0.6233
 2238SOL    HW118176   1.615   4.405   9.851  1.7340 -1.3206 -0.2138
 2238SOL    HW218177   1.535   4.422   9.732 -0.5762  1.8455 -0.5911
 2239SOL     OW18178   2.455   4.208   6.558  0.1722  0.0312  0.0130
 2239SOL    HW118179   2.491   4.276   6.502 -1.4253 -0.4999 -1.6530
 2239SOL    HW218180   2.498   4.237   6.639  0.3459 -1.4229  0.4386
 2240SOL     OW18181   1.115   0.999  11.899 -0.3528 -0.1209  0.0597
 2240SOL    HW118182   1.025   0.990  11.868  0.2990 -1.3262 -1.4582
 2240SOL    HW218183   1.157   0.980  11.816  0.6954 -0.7460  0.7276
 2241SOL     OW18184   0.604   3.429   9.000 -0.0250 -0.1728 -0.6387
 2241SOL    HW118185   0.636   3.517   9.023 -1.7301  0.5898 -1.1661
 2241SOL    HW218186   0.543   3.431   9.073  0.7398 -1.4763  0.0290
 2242SOL     OW18187   2.695   0.552   1.242  0.4672  0.1263 -0.0629
 2242SOL    HW118188   2.671   0.594   1.324 -0.7604 -2.1005  0.7081
 2242SOL    HW218189   2.746   0.490   1.293 -1.0866 -0.1432  1.1662
 2243SOL     OW18190   3.955   1.107   3.792 -0.8360 -0.2913  0.1853
 2243SOL    HW118191   3.983   1.157   3.869 -0.2395  0.4033 -0.4760
 2243SOL    HW218192   3.865   1.139   3.790 -0.3573  1.0335 -0.4870
 2244SOL     OW18193   3.907   3.304   3.689  0.3257  0.0059 -0.0509
 2244SOL    HW118194   3.825   3.336   3.653  0.8233  0.0254 -1.1536
 2244SOL    HW218195   3.946   3.391   3.698 -1.0664  0.7534 -1.3145
 2245SOL     OW18196   0.533   3.966  17.097 -0.3315  0.3858  0.0560
 2245SOL    HW118197   0.532   3.954  17.193  1.2606 -0.0816  0.0094
 2245SOL    HW218198   0.582   4.048  17.099 -0.8799  0.7532 -2.3841
 2246SOL     OW18199   3.373   4.203   7.924  0.5278  0.3536  0.6032
 2246SOL    HW118200   3.434   4.152   7.870  0.0469  2.7480 -2.2418
 2246SOL    HW218201   3.396   4.182   8.014 -0.2212 -0.2802  0.6447
 2247SOL     OW18202   0.053   2.543  10.368 -0.2900 -0.2808 -0.5598
 2247SOL    HW118203   0.073   2.636  10.360  0.4048 -0.2760  1.2739
 2247SOL    HW218204   0.050   2.525  10.461  1.4322  3.9931  0.3385
 2248SOL     OW18205   0.674   3.478  11.040 -0.7275 -0.1501 -0.2314
 2248SOL    HW118206   0.665   3.560  10.991 -0.7907  0.6533  1.0922
 2248SOL    HW218207   0.733   3.441  10.975  0.3597  0.9074  0.1447
 2249SOL     OW18208   0.947   2.365   4.763 -0.5694 -0.3125  0.0902
 2249SOL    HW118209   0.948   2.309   4.685  0.8011 -0.5337  0.2730
 2249SOL    HW218210   0.913   2.308   4.831 -0.2700 -1.1750 -0.4813
 2250SOL     OW18211   0.698   1.840   3.329 -0.0321  0.4047  0.3259
 2250SOL    HW118212   0.704   1.887   3.412 -0.9395 -0.1382  0.6994
 2250SOL    HW218213   0.652   1.911   3.286  1.6592  1.2567 -0.0584
 2251SOL     OW18214   0.599   4.061   4.594  0.0732  0.4353 -0.0790
 2251SOL    HW118215   0.563   4.075   4.682 -2.8324 -2.4967 -0.7647
 2251SOL    HW218216   0.530   4.002   4.562  1.1242 -0.8906  0.0962
 2252SOL     OW18217   4.030   0.944   0.034  0.1111 -0.9127 -0.1334
 2252SOL    HW118218   3.999   0.954  17.633  0.5926 -0.8140 -0.2865
 2252SOL    HW218219   4.071   0.858   0.021 -0.0796 -1.0549  0.2141
 2253SOL     OW18220   0.975   3.701   5.787 -0.0999  0.0793  0.1294
 2253SOL    HW118221   0.885   3.680   5.813 -0.2852  0.1134 -0.4888
 2253SOL    HW218222   1.012   3.639   5.850  1.1720  1.2243  0.5060
 2254SOL     OW18223   0.715   3.539  15.124 -0.1511 -0.1147  0.0083
 2254SOL    HW118224   0.629   3.518  15.159  0.1566 -1.1338  0.1413
 2254SOL    HW218225   0.778   3.542  15.197 -1.8005  1.6910  1.3527
 2255SOL     OW18226   3.331   1.322  13.608 -0.1859  0.3825 -0.0433
 2255SOL    HW118227   3.328   1.241  13.557  0.6767  1.4997 -1.8594
 2255SOL    HW218228   3.353   1.291  13.696 -2.0335  2.2507  1.0903
 2256SOL     OW18229   1.106   2.108   4.967 -0.2543 -0.2699 -0.3054
 2256SOL    HW118230   1.106   2.168   5.041  0.0385  0.2479 -0.7328
 2256SOL    HW218231   1.159   2.161   4.908  0.3113  0.6886  1.0653
 2257SOL     OW18232   1.815   1.843   9.386  0.3522  0.0290  0.1462
 2257SOL    HW118233   1.808   1.821   9.479  0.8366  1.9608  0.6566
 2257SOL    HW218234   1.897   1.890   9.374 -0.5213  2.0043  1.8195
 2258SOL     OW18235   2.880   2.480   2.330  0.2783  0.1754  0.5368
 2258SOL    HW118236   2.847   2.420   2.263  0.6088 -0.5770  1.0502
 2258SOL    HW218237   2.851   2.562   2.290  1.2344  1.6198  2.8572
 2259SOL     OW18238   4.406   4.364  14.116  0.0825  0.1839 -0.2897
 2259SOL    HW118239   4.498   4.371  14.143 -0.0345  1.3789 -0.1992
 2259SOL    HW218240   4.411   4.409  14.031  1.2757  0.3464 -0.1321
 2260SOL     OW18241   2.837   1.799   1.700 -0.0702 -0.2188 -0.2555
 2260SOL    HW118242   2.891   1.857   1.753  0.0793  0.8133 -1.5331
 2260SOL    HW218243   2.800   1.736   1.762  0.2789  0.1860  0.3652
 2261SOL     OW18244   3.161   4.157   4.680  0.0624 -0.0895 -0.0522
 2261SOL    HW118245   3.100   4.127   4.613 -1.5515 -0.4131  1.5615
 2261SOL    HW218246   3.170   4.245   4.646  1.3781  0.0146  0.5416
 2262SOL     OW18247   3.524   4.439   9.738  0.2842  0.1932 -0.1148
 2262SOL    HW118248   3.509   4.530   9.713 -3.8369 -0.6995 -0.9227
 2262SOL    HW218249   3.565   4.452   9.823 -2.2376  0.4613  1.0818
 2263SOL     OW18250   4.146   0.166  16.027 -0.1015  0.0815 -0.3558
 2263SOL    HW118251   4.203   0.240  16.049  0.3087 -0.2640 -0.2482
 2263SOL    HW218252   4.203   0.090  16.033  1.4295  1.4461  2.3798
 2264SOL     OW18253   1.422   1.432   6.904 -0.0728 -0.0991  0.6957
 2264SOL    HW118254   1.412   1.475   6.989  0.4464 -0.0681  0.7445
 2264SOL    HW218255   1.332   1.430   6.872 -0.2239  1.7702  0.9521
 2265SOL     OW18256   1.429   1.927   2.085  0.3713 -0.7201 -0.5343
 2265SOL    HW118257   1.437   1.944   2.179 -0.1086 -0.0399 -0.6151
 2265SOL    HW218258   1.441   1.833   2.072  1.0900 -0.7082  0.0122
 2266SOL     OW18259   2.246   0.382   7.892  0.1857  0.4881 -0.2840
 2266SOL    HW118260   2.157   0.347   7.885  0.6603 -0.6971 -0.5447
 2266SOL    HW218261   2.261   0.370   7.986 -3.1943 -1.0159  0.0878
 2267SOL     OW18262   3.171   3.032   3.183 -0.5426  0.1045 -0.0631
 2267SOL    HW118263   3.136   2.996   3.265  0.8041 -1.2306 -0.0826
 2267SOL    HW218264   3.260   3.055   3.209  0.3268 -1.4248 -1.7598
 2268SOL     OW18265   0.021   1.435   9.902  0.2676 -0.5765 -0.1261
 2268SOL    HW118266   0.083   1.426   9.830 -0.2279 -2.2694 -0.3448
 2268SOL    HW218267   4.673   1.487   9.862  0.8540  0.9088  0.8245
 2269SOL     OW18268   1.938   2.075   2.957  0.4212  0.0172  0.1752
 2269SOL    HW118269   1.973   2.030   3.034 -1.2582  1.7677  1.9547
 2269SOL    HW218270   1.848   2.091   2.986 -0.0900 -2.3640 -0.0913
 2270SOL     OW18271   2.075   2.773  10.173  0.2508  0.0304  0.7243
 2270SOL    HW118272   2.134   2.710  10.214  0.9006  0.6456  0.7290
 2270SOL    HW218273   2.007   2.791  10.238  0.0313  1.1780  0.1858
 2271SOL     OW18274   4.496   3.127  10.438 -0.2179  0.6294  0.3218
 2271SOL    HW118275   4.543   3.207  10.461  0.4737 -0.2377  1.9093
 2271SOL    HW218276   4.432   3.154  10.372 -3.1352 -1.5263  2.2366
 2272SOL     OW18277   3.754   3.071  10.763  0.0926 -0.2407  0.0824
 2272SOL    HW118278   3.693   3.034  10.827 -2.4062  2.3207 -0.8133
 2272SOL    HW218279   3.724   3.034  10.681  0.1472  1.1783 -0.5872
 2273SOL     OW18280   3.682   0.677   3.204  0.5216  0.2945 -0.0513
 2273SOL    HW118281   3.674   0.648   3.295  0.2241 -1.6371 -0.6721
 2273SOL    HW218282   3.593   0.661   3.172  0.6067 -1.4031  0.5535
 2274SOL     OW18283   1.833   4.295   8.739  0.1984 -0.1635  0.9155
 2274SOL    HW118284   1.801   4.245   8.663 -1.9565 -0.1163  1.8089
 2274SOL    HW218285   1.921   4.258   8.747  0.8230  0.8719 -1.1549
 2275SOL     OW18286   1.784   1.744   3.546 -0.7527 -1.0647 -0.3823
 2275SOL    HW118287   1.804   1.666   3.495 -0.3332  0.2077 -2.1206
 2275SOL    HW218288   1.699   1.768   3.509 -0.8197  0.5694  0.8264
 2276SOL     OW18289   4.196   1.562   7.561  0.1191 -0.0274 -0.4332
 2276SOL    HW118290   4.155   1.639   7.600  0.3169 -0.6457  0.9897
 2276SOL    HW218291   4.147   1.494   7.606 -1.7005  1.6487  0.0867
 2277SOL     OW18292   3.936   1.394   6.920 -0.6988 -0.5095  0.0209
 2277SOL    HW118293   3.925   1.402   7.015 -2.6864  1.2144 -0.3478
 2277SOL    HW218294   3.850   1.368   6.888  0.1032 -2.0577 -0.8633
 2278SOL     OW18295   3.816   2.008  17.505 -0.0784  0.3330  0.0224
 2278SOL    HW118296   3.901   2.051  17.501  0.6391 -1.0218  0.6024
 2278SOL    HW218297   3.784   2.071  17.570 -1.2755  0.5883 -0.8159
 2279SOL     OW18298   2.356   4.550   1.301  0.2342 -0.3524 -0.3353
 2279SOL    HW118299   2.327   4.637   1.327 -0.5320 -0.9909  0.9615
 2279SOL    HW218300   2.405   4.559   1.219 -0.3901  1.2350 -0.5421
 2280SOL     OW18301   3.766   2.736   0.821  0.0815 -0.3645 -0.4534
 2280SOL    HW118302   3.820   2.806   0.783 -0.4208 -0.8695 -2.1375
 2280SOL    HW218303   3.726   2.783   0.893  1.1044  1.6787 -1.2125
 2281SOL     OW18304   1.801   0.731  13.464  0.2704  0.3734  0.4911
 2281SOL    HW118305   1.832   0.821  13.477 -0.7442  0.6806  0.7444
 2281SOL    HW218306   1.865   0.695  13.525  0.4605  0.6261  0.4400
 2282SOL     OW18307   2.462   0.217   9.059  0.3108  0.2211  0.5861
 2282SOL    HW118308   2.452   0.274   8.983  2.0704 -0.9219 -0.4957
 2282SOL    HW218309   2.383   0.244   9.106 -0.8130 -0.6579 -0.7679
 2283SOL     OW18310   2.849   2.574   6.457  0.3353  0.1072  0.7157
 2283SOL    HW118311   2.815   2.642   6.515 -1.2767 -0.9736  1.0487
 2283SOL    HW218312   2.845   2.495   6.512  0.3902 -1.7300 -1.9131
 2284SOL     OW18313   4.386   3.746   7.069  0.1022 -0.3038 -0.4074
 2284SOL    HW118314   4.405   3.838   7.051  0.1996 -0.7523 -2.5205
 2284SOL    HW218315   4.372   3.720   6.978 -0.1154 -0.5756 -0.2960
 2285SOL     OW18316   2.656   2.360   4.905 -0.2958 -0.3172 -0.3561
 2285SOL    HW118317   2.665   2.289   4.968 -4.4625  2.8055  3.7812
 2285SOL    HW218318   2.563   2.383   4.903  0.0364  1.2563  1.9723
 2286SOL     OW18319   2.122   0.753   7.439  0.2896 -0.9675  0.2182
 2286SOL    HW118320   2.141   0.845   7.419 -2.9999 -0.6113 -1.2685
 2286SOL    HW218321   2.195   0.733   7.497 -0.3226 -1.0306  0.9736
 2287SOL     OW18322   3.453   3.739  10.732 -0.1111  0.6322 -0.2669
 2287SOL    HW118323   3.406   3.820  10.713  1.7263  2.2757  2.0313
 2287SOL    HW218324   3.436   3.730  10.826 -1.6299  1.1914 -0.4925
 2288SOL     OW18325   1.988   0.133   1.858 -0.3007 -0.1467  0.6060
 2288SOL    HW118326   1.999   0.099   1.947 -0.6082  0.4819  0.8925
 2288SOL    HW218327   2.069   0.101   1.818 -1.5833 -0.0507 -2.0397
 2289SOL     OW18328   3.886   1.814   3.717  0.0300 -0.0597 -0.3157
 2289SOL    HW118329   3.913   1.746   3.655 -1.0128 -1.4141  0.7162
 2289SOL    HW218330   3.845   1.763   3.787 -1.1378 -0.8173 -1.5658
 2290SOL     OW18331   1.614   4.266  10.225  0.2905  0.8704  0.3037
 2290SOL    HW118332   1.677   4.281  10.154  1.2083 -0.2374  0.8815
 2290SOL    HW218333   1.675   4.261  10.299 -0.6464  1.7273  1.1203
 2291SOL     OW18334   2.242   4.660   7.742 -0.3523  0.1012  0.1622
 2291SOL    HW118335   2.271   4.596   7.676 -0.4397  0.0855  0.1389
 2291SOL    HW218336   2.252   4.609   7.822 -1.4324 -0.6292 -0.1613
 2292SOL     OW18337   1.123   1.628   3.319  0.5701  0.7059 -0.0439
 2292SOL    HW118338   1.106   1.709   3.272 -1.0780  1.0752  1.1773
 2292SOL    HW218339   1.042   1.581   3.294  1.9256 -1.6454 -0.0220
 2293SOL     OW18340   3.632   0.967   3.201 -0.3825 -0.2807  0.3187
 2293SOL    HW118341   3.568   0.946   3.133 -0.1806 -0.9851  0.3384
 2293SOL    HW218342   3.662   0.879   3.225  1.8036  0.1209 -0.9160
 2294SOL     OW18343   1.172   2.715  13.082  0.1897  0.0751 -0.5127
 2294SOL    HW118344   1.167   2.738  13.175  0.2707 -1.9442 -0.0026
 2294SOL    HW218345   1.085   2.728  13.045 -0.5227 -1.3860  0.6643
 2295SOL     OW18346   4.266   4.446   0.888  0.4452  0.0986  0.5128
 2295SOL    HW118347   4.333   4.430   0.954 -0.1917  0.7509  1.3286
 2295SOL    HW218348   4.194   4.407   0.937  0.3101 -0.4243 -0.0949
 2296SOL     OW18349   1.910   1.533   7.827  0.3245  0.2671 -0.4670
 2296SOL    HW118350   1.941   1.620   7.852  0.2652  0.2786 -0.4323
 2296SOL    HW218351   1.954   1.511   7.745 -1.7641 -1.9535 -0.9973
 2297SOL     OW18352   4.004   1.266   3.997 -0.2869  0.2030 -0.5614
 2297SOL    HW118353   3.983   1.225   4.081  0.9051  1.3133  0.2767
 2297SOL    HW218354   3.964   1.352   4.011 -1.0696 -0.2661  0.0576
 2298SOL     OW18355   3.515   2.041   2.210 -0.0938  0.0587  0.5215
 2298SOL    HW118356   3.540   1.949   2.196 -0.0591  0.2068 -0.3674
 2298SOL    HW218357   3.424   2.035   2.183  0.2184 -0.0052 -0.5080
 2299SOL     OW18358   0.549   4.599   4.487  0.1498  0.0969  0.1392
 2299SOL    HW118359   0.597   4.536   4.541  1.5822  0.3028 -0.8941
 2299SOL    HW218360   0.476   4.545   4.454 -0.6195  0.4764  1.2068
 2300SOL     OW18361   0.136   0.249  12.312  0.3099 -0.1410 -0.2875
 2300SOL    HW118362   0.109   0.299  12.389 -2.1360 -1.1188 -0.5377
 2300SOL    HW218363   0.225   0.227  12.341  0.8468  0.7087 -1.2847
 2301SOL     OW18364   2.690   4.690   0.125  0.1741  0.5261 -0.2757
 2301SOL    HW118365   2.774   4.679   0.170 -0.1627  2.1243  0.7257
 2301SOL    HW218366   2.655   4.601   0.133 -0.9051  1.0289  0.5878
 2302SOL     OW18367   0.335   4.483   4.356 -0.5447 -0.3278  0.1737
 2302SOL    HW118368   0.264   4.430   4.392  0.9761 -1.0635  2.0200
 2302SOL    HW218369   0.311   4.491   4.263 -2.7158  0.2453  0.7766
 2303SOL     OW18370   1.918   0.447  15.367 -0.3894 -0.1916  0.8814
 2303SOL    HW118371   1.975   0.381  15.327 -0.3253 -0.5124  1.5052
 2303SOL    HW218372   1.834   0.410  15.341 -0.3502 -0.9095  1.8116
 2304SOL     OW18373   2.453   2.464  11.080  0.4598  0.6879 -0.0877
 2304SOL    HW118374   2.429   2.555  11.098 -0.5983  0.2234  0.8297
 2304SOL    HW218375   2.483   2.471  10.990 -0.6370  2.5764 -0.3096
 2305SOL     OW18376   2.218   1.385  12.883 -0.1631  0.0451 -0.3375
 2305SOL    HW118377   2.274   1.451  12.842 -0.5616 -1.4388 -3.2642
 2305SOL    HW218378   2.159   1.357  12.814 -1.4427  2.1996 -0.1170
 2306SOL     OW18379   4.190   0.207  17.026 -0.3333  0.2109  0.0126
 2306SOL    HW118380   4.224   0.234  16.941  0.9756 -3.7976 -0.7616
 2306SOL    HW218381   4.231   0.271  17.084 -1.8730  1.4769 -0.2978
 2307SOL     OW18382   1.124   3.832   8.481 -0.0269 -0.4702 -0.1421
 2307SOL    HW118383   1.085   3.906   8.436  1.3449  0.4393  0.1648
 2307SOL    HW218384   1.095   3.761   8.423  0.7572 -2.6118  2.0752
 2308SOL     OW18385   0.011   3.959   2.489 -0.0130  0.1611  0.0711
 2308SOL    HW118386   4.713   3.958   2.395  2.2731  0.8708 -0.4098
 2308SOL    HW218387   0.059   3.878   2.503  1.2309  0.5799 -1.8059
 2309SOL     OW18388   4.617   4.015   4.368 -0.0823  0.6693 -0.1704
 2309SOL    HW118389   4.595   4.003   4.276  0.5542 -0.3627 -0.1922
 2309SOL    HW218390   4.706   4.048   4.355 -0.2644  2.0779  2.1130
 2310SOL     OW18391   3.229   0.422   4.198  0.3945 -0.3780 -0.0623
 2310SOL    HW118392   3.176   0.493   4.233 -0.6774  0.1380 -2.7175
 2310SOL    HW218393   3.161   0.395   4.136 -0.4236 -1.3011  1.2490
 2311SOL     OW18394   2.465   0.748   7.345 -0.0090 -0.8075 -0.1027
 2311SOL    HW118395   2.452   0.735   7.439 -2.3277  0.6194 -0.2251
 2311SOL    HW218396   2.551   0.706   7.341  0.9528  1.0996  0.7712
 2312SOL     OW18397   4.194   0.831   2.896  0.0412 -0.1500  0.5957
 2312SOL    HW118398   4.165   0.874   2.976  1.8108  5.0566 -1.4937
 2312SOL    HW218399   4.109   0.801   2.865  1.2912 -1.5076 -1.5399
 2313SOL     OW18400   0.369   1.433   0.604 -0.0654  0.0196 -0.2102
 2313SOL    HW118401   0.315   1.359   0.633 -0.4846  0.9204  1.3290
 2313SOL    HW218402   0.445   1.419   0.661 -0.0898 -0.4125 -0.2833
 2314SOL     OW18403   2.578   1.398   1.123  0.2208  0.1131  0.2668
 2314SOL    HW118404   2.601   1.434   1.209 -0.2789  0.5613  0.2144
 2314SOL    HW218405   2.508   1.455   1.092 -0.1214 -0.5054 -0.1183
 2315SOL     OW18406   3.947   2.543   8.819 -0.2679  0.0256  0.0561
 2315SOL    HW118407   3.890   2.530   8.744 -1.6998 -4.7394  2.0053
 2315SOL    HW218408   4.025   2.494   8.794 -0.1390  1.1192 -1.6970
 2316SOL     OW18409   1.859   3.966  13.671  0.6916  0.0545 -0.1208
 2316SOL    HW118410   1.767   3.973  13.694  0.7560  1.0802 -0.1422
 2316SOL    HW218411   1.902   3.992  13.752  2.6363 -1.3641 -0.7127
 2317SOL     OW18412   0.610   4.620  13.589 -0.0709  0.4387 -0.0588
 2317SOL    HW118413   0.686   4.630  13.532  0.0108 -0.0191 -0.0290
 2317SOL    HW218414   0.650   4.635  13.675  3.5398  0.4241 -1.7223
 2318SOL     OW18415   1.680   2.641   2.583  0.3253  0.3099 -0.2322
 2318SOL    HW118416   1.684   2.545   2.585  1.6999  0.3591 -0.9635
 2318SOL    HW218417   1.724   2.652   2.499  1.0862 -2.7752 -0.2454
 2319SOL     OW18418   1.474   3.206   2.196 -0.1501 -0.0582 -0.0541
 2319SOL    HW118419   1.452   3.288   2.152  0.3172 -0.0125 -0.2031
 2319SOL    HW218420   1.391   3.202   2.243 -0.7918  0.1559 -1.1700
 2320SOL     OW18421   1.910   1.177   1.817 -0.3443  0.3048  0.5560
 2320SOL    HW118422   2.006   1.176   1.820 -0.3560 -1.5092  0.2370
 2320SOL    HW218423   1.902   1.191   1.723 -0.4071 -0.0254  0.5121
 2321SOL     OW18424   2.346   1.050   0.969  0.2277 -0.2715 -0.2391
 2321SOL    HW118425   2.413   1.022   0.906 -0.4299  0.7277 -1.3760
 2321SOL    HW218426   2.266   1.027   0.922 -0.4683  2.0179 -0.1450
 2322SOL     OW18427   0.498   3.610   5.447 -0.0159  0.3007 -0.4332
 2322SOL    HW118428   0.409   3.576   5.450  0.3481 -0.6852 -0.7510
 2322SOL    HW218429   0.494   3.648   5.359  0.8966  1.7476  0.1431
 2323SOL     OW18430   2.388   0.481   1.534  0.1072 -0.4019 -0.1158
 2323SOL    HW118431   2.347   0.465   1.449  0.1739  0.2591 -0.2702
 2323SOL    HW218432   2.310   0.475   1.590 -0.1949 -0.0669 -0.5028
 2324SOL     OW18433   1.836   3.609   5.896 -0.2312 -0.6710 -0.3688
 2324SOL    HW118434   1.930   3.611   5.908 -0.0392 -0.8934 -1.7845
 2324SOL    HW218435   1.812   3.577   5.983 -0.6746  0.4081 -0.0872
 2325SOL     OW18436   3.948   0.913  13.388  0.0936  0.3281  0.7066
 2325SOL    HW118437   3.886   0.847  13.359 -1.7641  2.3930 -0.0205
 2325SOL    HW218438   4.001   0.917  13.309  0.8995 -1.5941  1.1518
 2326SOL     OW18439   2.487   2.675   5.770 -0.4228 -0.1704  0.2691
 2326SOL    HW118440   2.573   2.711   5.793  0.4222 -1.8834 -0.2114
 2326SOL    HW218441   2.469   2.728   5.693 -0.8671 -1.2971 -0.4148
 2327SOL     OW18442   3.931   2.551   8.374  0.1801 -0.2410 -0.0981
 2327SOL    HW118443   3.891   2.638   8.368  1.4745  0.4160  0.5599
 2327SOL    HW218444   3.887   2.501   8.306 -1.5441 -0.4934  1.2263
 2328SOL     OW18445   3.957   2.880   7.853 -0.1689 -0.4378  0.4954
 2328SOL    HW118446   3.979   2.858   7.943 -0.0823 -0.1910  0.5321
 2328SOL    HW218447   4.045   2.857   7.824  0.1475 -1.9333  2.6718
 2329SOL     OW18448   2.181   0.908   4.636 -0.0984  0.5601 -0.2735
 2329SOL    HW118449   2.235   0.939   4.708 -0.0854 -2.9432  1.2263
 2329SOL    HW218450   2.164   0.996   4.600  2.9486  0.8683 -0.9393
 2330SOL     OW18451   4.097   3.006   6.374 -0.4003  0.2749 -0.6393
 2330SOL    HW118452   4.070   2.919   6.403 -0.7041  0.2857 -0.8884
 2330SOL    HW218453   4.050   3.047   6.446  2.2725  0.7258  0.8580
 2331SOL     OW18454   4.473   0.308   5.820  0.1054 -0.3545 -0.0894
 2331SOL    HW118455   4.465   0.328   5.914  3.6865 -0.0552  0.1572
 2331SOL    HW218456   4.432   0.390   5.792  0.1545 -0.9564 -1.8864
 2332SOL     OW18457   4.002   2.155   3.212  0.4134 -0.9331  0.0631
 2332SOL    HW118458   3.986   2.082   3.153 -3.4038  0.3054 -0.4018
 2332SOL    HW218459   3.928   2.148   3.273 -1.0087 -0.0261 -1.5896
 2333SOL     OW18460   4.408   0.482  16.755 -0.0021 -0.2955  0.1502
 2333SOL    HW118461   4.502   0.467  16.768 -0.0398 -0.7978 -0.1689
 2333SOL    HW218462   4.418   0.522  16.669  2.5118 -0.5128  0.3303
 2334SOL     OW18463   0.522   3.021   4.698  0.4183 -0.5004 -0.0794
 2334SOL    HW118464   0.521   3.106   4.653  1.9292 -0.6239 -0.3344
 2334SOL    HW218465   0.452   2.981   4.645 -0.1530 -0.6019  0.7559
 2335SOL     OW18466   2.591   1.324  15.076  0.0012 -0.0704 -0.0429
 2335SOL    HW118467   2.598   1.294  15.167 -1.6140 -2.0814 -0.5912
 2335SOL    HW218468   2.517   1.276  15.038  0.6635 -0.9640 -0.2045
 2336SOL     OW18469   1.853   3.945   5.016 -0.0842  0.2375 -0.1159
 2336SOL    HW118470   1.847   4.019   4.956 -1.0070  1.0303  0.9497
 2336SOL    HW218471   1.775   3.969   5.067 -0.0146  0.4268 -0.1002
 2337SOL     OW18472   0.475   3.776   0.665  0.1573 -0.4402 -0.2990
 2337SOL    HW118473   0.560   3.781   0.709  1.1621  0.6445 -2.3387
 2337SOL    HW218474   0.489   3.853   0.609 -0.5273  0.1597  0.3630
 2338SOL     OW18475   2.333   0.623  11.394  0.1367  0.8656 -0.4873
 2338SOL    HW118476   2.304   0.543  11.437 -0.4336  1.3615  0.0403
 2338SOL    HW218477   2.283   0.689  11.441  0.5466 -1.3072  2.9902
 2339SOL     OW18478   0.705   1.702   4.545 -0.6371  0.2570  0.5771
 2339SOL    HW118479   0.634   1.697   4.481  1.3621 -1.3502 -1.5248
 2339SOL    HW218480   0.653   1.726   4.622 -2.0322 -0.3309 -0.1768
 2340SOL     OW18481   0.691   2.202   8.194 -0.2498 -0.2011 -0.4710
 2340SOL    HW118482   0.773   2.245   8.172  0.8624 -1.6934  0.7973
 2340SOL    HW218483   0.672   2.146   8.119  1.3905 -2.5357  0.8673
 2341SOL     OW18484   2.650   3.431   3.536  0.7265  0.0261 -0.5633
 2341SOL    HW118485   2.743   3.443   3.520  0.6485  0.2023 -0.8690
 2341SOL    HW218486   2.659   3.385   3.620  0.3873 -0.5175 -0.8266
 2342SOL     OW18487   2.962   4.280  10.612  0.2271  0.2562  0.2232
 2342SOL    HW118488   3.040   4.322  10.576  0.2980 -0.5665 -0.5838
 2342SOL    HW218489   2.933   4.333  10.687 -1.5899 -1.7260  0.9176
 2343SOL     OW18490   1.155   2.397  14.959 -0.4808  0.0745 -0.0233
 2343SOL    HW118491   1.205   2.471  14.993  0.5389  0.0166 -1.3874
 2343SOL    HW218492   1.199   2.384  14.874 -0.6077 -0.2233 -0.0464
 2344SOL     OW18493   3.955   2.213   0.272  0.7745 -0.4252 -0.5072
 2344SOL    HW118494   4.027   2.151   0.260  0.6018 -0.7684  0.2473
 2344SOL    HW218495   3.911   2.198   0.188  1.0761  5.1523 -1.6802
 2345SOL     OW18496   4.279   1.902   2.202  0.0453 -0.6297  0.1019
 2345SOL    HW118497   4.359   1.910   2.253 -0.0012 -0.2241  0.1155
 2345SOL    HW218498   4.253   1.994   2.195 -0.9933 -1.0351 -1.2938
 2346SOL     OW18499   1.158   2.577  11.677  0.4592  0.0791  0.1310
 2346SOL    HW118500   1.122   2.532  11.601 -0.3882  2.5390 -0.9169
 2346SOL    HW218501   1.219   2.634  11.630  0.5995  0.9393  1.3493
 2347SOL     OW18502   4.645   4.681  15.719 -0.1650  0.1622 -0.2576
 2347SOL    HW118503   4.610   4.665  15.807 -2.3832  4.0591 -0.4285
 2347SOL    HW218504   4.622   0.052  15.716 -1.1825 -0.0040  2.1096
 2348SOL     OW18505   2.310   2.822   1.472  0.1542  0.1241 -0.5513
 2348SOL    HW118506   2.364   2.901   1.469  2.1783 -1.1227  3.0754
 2348SOL    HW218507   2.253   2.825   1.396  1.0541 -3.1957 -1.3329
 2349SOL     OW18508   0.599   4.002   2.986 -0.2883  0.0075 -0.2817
 2349SOL    HW118509   0.691   3.984   3.007 -0.7405  0.6807  2.1990
 2349SOL    HW218510   0.556   3.987   3.070  1.6136 -1.1463  0.4769
 2350SOL     OW18511   1.674   2.220   5.055  0.7299  0.0914  0.1096
 2350SOL    HW118512   1.707   2.150   5.111  0.0270  1.4046  2.1595
 2350SOL    HW218513   1.662   2.183   4.968 -1.4622  2.1393 -0.4646
 2351SOL     OW18514   1.011   2.656   4.276  0.4471 -0.4066 -0.0123
 2351SOL    HW118515   0.954   2.727   4.246 -0.5747 -1.7002 -1.1682
 2351SOL    HW218516   1.008   2.585   4.212 -0.4884  0.3740 -0.8372
 2352SOL     OW18517   3.682   3.629  13.334  0.5013  0.3908 -0.6025
 2352SOL    HW118518   3.624   3.567  13.291 -0.5060  0.6872  0.3197
 2352SOL    HW218519   3.660   3.714  13.296 -0.1888  1.5510  2.3757
 2353SOL     OW18520   0.089   3.282  13.697  0.0404  0.0697 -0.4446
 2353SOL    HW118521   0.158   3.339  13.731 -0.0851 -0.2691  0.3691
 2353SOL    HW218522   0.019   3.314  13.754  2.0150  1.2956  1.2714
 2354SOL     OW18523   1.105   0.376  13.606  0.0152  0.0519  0.1695
 2354SOL    HW118524   1.108   0.379  13.511  2.0710 -0.4134  0.2144
 2354SOL    HW218525   1.041   0.307  13.623 -2.1860  2.5030  1.8286
 2355SOL     OW18526   0.488   2.971  12.305 -0.3527  0.2860  0.3573
 2355SOL    HW118527   0.479   3.048  12.361  0.6948  1.0144 -0.4616
 2355SOL    HW218528   0.425   2.913  12.345 -0.2144  0.5193  0.9074
 2356SOL     OW18529   1.588   4.552  12.990 -0.1368 -0.3599  0.0772
 2356SOL    HW118530   1.675   4.514  12.998 -1.0015 -2.6380 -1.2227
 2356SOL    HW218531   1.590   4.616  13.061 -0.4133  1.0004 -1.1417
 2357SOL     OW18532   2.372   0.442   4.610  0.5581  0.1550 -0.1121
 2357SOL    HW118533   2.333   0.503   4.673 -2.3411 -0.1621 -1.5939
 2357SOL    HW218534   2.368   0.484   4.525  2.3430  0.7936  0.1307
 2358SOL     OW18535   2.012   0.503   5.132  0.0751  0.1082  0.5924
 2358SOL    HW118536   2.099   0.503   5.171 -0.0748 -0.2624  0.9225
 2358SOL    HW218537   1.978   0.416   5.151  1.9661 -0.6496  0.4999
 2359SOL     OW18538   0.368   3.165   9.521 -0.2519  0.1703 -0.9162
 2359SOL    HW118539   0.452   3.209   9.512 -1.1861  2.1327 -0.2563
 2359SOL    HW218540   0.316   3.228   9.572 -0.1286 -3.0610  3.1888
 2360SOL     OW18541   1.650   3.753   5.514  0.0957 -0.0591 -0.3202
 2360SOL    HW118542   1.698   3.835   5.524  0.5082 -0.3544  0.0836
 2360SOL    HW218543   1.715   3.686   5.534 -0.7266 -0.1626  1.9606
 2361SOL     OW18544   0.726   2.269   6.093 -0.1605 -0.4353  0.2297
 2361SOL    HW118545   0.678   2.344   6.060 -2.6363 -1.8987  0.4532
 2361SOL    HW218546   0.716   2.212   6.017 -1.5247 -1.4992  1.1827
 2362SOL     OW18547   0.211   2.211   5.413 -0.2732 -0.3928  0.1670
 2362SOL    HW118548   0.172   2.173   5.335 -0.4864 -1.1240  0.6337
 2362SOL    HW218549   0.238   2.128   5.453 -0.4621 -1.2655 -1.5006
 2363SOL     OW18550   1.176   3.268  15.724  0.1246  0.2210  0.7069
 2363SOL    HW118551   1.131   3.258  15.808  1.4552  1.3968  1.5417
 2363SOL    HW218552   1.120   3.328  15.674  1.1192  2.4274  2.2846
 2364SOL     OW18553   0.472   3.534   7.385  0.2525 -0.1928  0.1832
 2364SOL    HW118554   0.394   3.477   7.390 -0.6384  0.8037 -2.0181
 2364SOL    HW218555   0.431   3.609   7.341 -1.3106 -1.7241 -1.0061
 2365SOL     OW18556   1.252   2.122   0.662  0.2866  0.5164 -0.3608
 2365SOL    HW118557   1.343   2.144   0.641 -0.2019  0.8824 -2.1330
 2365SOL    HW218558   1.225   2.185   0.728 -1.3328  0.3951 -0.9021
 2366SOL     OW18559   1.667   1.675  10.445  0.0060 -0.0864 -0.5501
 2366SOL    HW118560   1.714   1.737  10.389  0.6306  2.0920  2.3446
 2366SOL    HW218561   1.604   1.740  10.475  2.7001  1.7156  1.3095
 2367SOL     OW18562   1.088   0.444  14.808 -0.5024 -1.0150  0.0654
 2367SOL    HW118563   1.078   0.526  14.760 -1.3189 -0.2485  1.5442
 2367SOL    HW218564   1.161   0.405  14.760  0.9396 -0.1959  1.6199
 2368SOL     OW18565   2.895   4.227   4.349  0.7152 -0.3234 -0.1023
 2368SOL    HW118566   2.947   4.298   4.312 -0.9009  1.6529  1.4618
 2368SOL    HW218567   2.831   4.270   4.404  1.2345  0.1952  0.0946
 2369SOL     OW18568   4.175   3.339   5.413 -0.3599  0.3718 -0.6737
 2369SOL    HW118569   4.122   3.388   5.476  1.4432  0.4663  0.7621
 2369SOL    HW218570   4.121   3.337   5.334 -0.7075  3.5173 -0.5233
 2370SOL     OW18571   3.634   1.509   8.897  0.3070  0.6178  0.1352
 2370SOL    HW118572   3.649   1.417   8.874 -4.3932 -0.5234  1.5915
 2370SOL    HW218573   3.563   1.490   8.958  1.0516 -1.8293  0.2320
 2371SOL     OW18574   0.544   1.050  13.453 -0.4908  0.0446 -0.5147
 2371SOL    HW118575   0.599   1.128  13.447  1.6624 -1.5814 -2.0049
 2371SOL    HW218576   0.479   1.065  13.522  1.4684  0.5486  1.2227
 2372SOL     OW18577   0.940   1.750  11.452 -0.1984  0.0215 -0.1264
 2372SOL    HW118578   1.005   1.805  11.407 -0.1630 -0.7989 -1.0717
 2372SOL    HW218579   0.862   1.771  11.401 -0.7426  0.5736  0.9393
 2373SOL     OW18580   1.118   0.918   8.335  0.0384  0.0325 -0.8715
 2373SOL    HW118581   1.184   0.851   8.349 -0.1844 -0.2363 -1.1200
 2373SOL    HW218582   1.161   1.004   8.342 -0.7803  0.6173 -3.0104
 2374SOL     OW18583   1.008   3.042   8.196 -0.4680  0.4950  0.2486
 2374SOL    HW118584   0.963   3.105   8.251 -0.9582  1.2245 -0.9835
 2374SOL    HW218585   1.094   3.044   8.239  0.5618 -1.8493 -1.6852
 2375SOL     OW18586   3.126   2.825   0.970  0.0747 -0.5556  0.1036
 2375SOL    HW118587   3.150   2.733   0.960 -0.3889 -0.6177 -0.4772
 2375SOL    HW218588   3.034   2.823   0.999  0.5535  3.1229  1.8187
 2376SOL     OW18589   1.691   2.715   0.610  0.0790 -0.0403 -0.2282
 2376SOL    HW118590   1.618   2.769   0.638  0.3667  2.1350 -3.7110
 2376SOL    HW218591   1.687   2.644   0.675 -0.3362 -0.8309 -1.1103
 2377SOL     OW18592   0.808   1.066   5.453 -0.6938 -0.1675 -0.4092
 2377SOL    HW118593   0.789   1.138   5.512  0.4329 -1.4184  1.4559
 2377SOL    HW218594   0.902   1.051   5.463 -1.0765 -0.2376  2.8247
 2378SOL     OW18595   2.032   0.185   4.316 -0.1225 -0.0555  0.2086
 2378SOL    HW118596   2.004   0.198   4.407 -1.3208  1.9518 -0.4435
 2378SOL    HW218597   2.060   0.094   4.312 -1.6463 -0.5558  0.8856
 2379SOL     OW18598   2.723   0.156   9.054 -0.2016 -0.5723 -0.0491
 2379SOL    HW118599   2.634   0.190   9.058  0.0334  0.1166 -0.7407
 2379SOL    HW218600   2.778   0.218   9.101 -0.8050 -0.6889  0.8058
 2380SOL     OW18601   2.373   2.040   2.848 -0.1434  0.3251  0.0573
 2380SOL    HW118602   2.318   1.990   2.788  0.1890  1.2063 -0.9820
 2380SOL    HW218603   2.366   1.984   2.925 -1.6786  0.6642  0.1531
 2381SOL     OW18604   0.463   2.446   5.327 -0.2784  0.0754 -0.2357
 2381SOL    HW118605   0.405   2.396   5.385  1.6247 -0.8469  0.8455
 2381SOL    HW218606   0.528   2.481   5.387  1.0914 -0.3569 -1.4593
 2382SOL     OW18607   0.755   4.247   5.301  0.3941 -0.3119  0.1096
 2382SOL    HW118608   0.797   4.163   5.316  0.4671 -0.7814 -2.7912
 2382SOL    HW218609   0.669   4.232   5.262  0.4057  0.7990 -0.3261
 2383SOL     OW18610   3.206   1.280  14.756  0.0289 -0.0642  0.0508
 2383SOL    HW118611   3.242   1.265  14.843 -3.2410 -1.9617  1.0955
 2383SOL    HW218612   3.161   1.363  14.775 -1.8344 -1.3947  1.4090
 2384SOL     OW18613   4.482   4.653   6.948  0.4220 -0.3923  0.2867
 2384SOL    HW118614   4.478   4.605   7.031 -1.1647 -2.5906 -1.0575
 2384SOL    HW218615   4.574   4.673   6.934  0.6870 -0.9464  1.2529
 2385SOL     OW18616   0.955   2.140  16.253 -0.1502 -0.1837 -0.4082
 2385SOL    HW118617   0.912   2.065  16.212 -1.2576  0.5450 -0.5825
 2385SOL    HW218618   0.993   2.181  16.175  1.6631  1.5481  1.3949
 2386SOL     OW18619   0.243   1.614   6.226 -0.6606 -0.2745  0.6565
 2386SOL    HW118620   0.306   1.625   6.297  0.7971  0.5310 -0.7363
 2386SOL    HW218621   0.218   1.526   6.252 -1.0761 -0.7895 -1.4659
 2387SOL     OW18622   2.761   1.121  12.606  0.3953 -0.0007  0.1495
 2387SOL    HW118623   2.815   1.087  12.678 -3.6617 -1.2765  2.5811
 2387SOL    HW218624   2.673   1.091  12.629 -0.3564  0.7706 -1.7848
 2388SOL     OW18625   0.151   2.604   2.331 -0.3561  0.0802 -0.2250
 2388SOL    HW118626   0.079   2.664   2.313 -0.4710 -0.0136 -0.0827
 2388SOL    HW218627   0.112   2.517   2.326 -1.6831  0.6422  0.2784
 2389SOL     OW18628   4.563   0.055  16.230 -0.5231  0.0139 -0.0028
 2389SOL    HW118629   4.613   4.700  16.202  0.9614  0.1638  2.1959
 2389SOL    HW218630   4.472   0.025  16.236 -0.2279 -1.1708 -1.3847
 2390SOL     OW18631   0.067   3.811  13.115  0.1956 -0.6926 -0.0628
 2390SOL    HW118632   0.004   3.799  13.044 -2.7725 -0.4072  2.5061
 2390SOL    HW218633   0.144   3.761  13.089 -0.5155 -1.9093  0.1507
 2391SOL     OW18634   3.000   3.784   6.732 -0.0692  0.1850  0.6912
 2391SOL    HW118635   3.052   3.780   6.812  2.9121  1.6952 -1.1596
 2391SOL    HW218636   3.068   3.804   6.667 -0.9727  3.3496  0.7464
 2392SOL     OW18637   1.403   2.351   5.508  0.6950 -0.1002  0.2367
 2392SOL    HW118638   1.335   2.418   5.504  0.6925 -0.1650 -1.0183
 2392SOL    HW218639   1.421   2.353   5.602  0.6222  1.1421  0.2270
 2393SOL     OW18640   2.855   2.447  15.716  0.0442 -0.3110 -0.3768
 2393SOL    HW118641   2.868   2.447  15.621 -0.5003 -0.4856 -0.4503
 2393SOL    HW218642   2.892   2.363  15.742  0.9219 -0.5826 -2.4861
 2394SOL     OW18643   1.021   4.446   3.074 -0.0930  0.3730 -0.0359
 2394SOL    HW118644   1.094   4.458   3.015  0.2193  0.0732  0.2936
 2394SOL    HW218645   0.986   4.367   3.034  1.2824  1.2846 -3.0459
 2395SOL     OW18646   0.170   2.578   6.511  0.7076  0.2516 -0.8522
 2395SOL    HW118647   0.174   2.609   6.601  0.5006 -1.6988 -0.1764
 2395SOL    HW218648   0.075   2.582   6.499  0.6101 -0.3656 -0.2951
 2396SOL     OW18649   2.459   4.586   3.225  0.1701  0.0151  0.0709
 2396SOL    HW118650   2.507   4.632   3.156 -3.3001  4.0307  0.3221
 2396SOL    HW218651   2.522   4.596   3.296  0.2944  0.3427 -0.0826
 2397SOL     OW18652   1.482   2.166   7.371  0.3945  0.5049  0.3273
 2397SOL    HW118653   1.518   2.251   7.396  0.1821  1.1166 -1.4465
 2397SOL    HW218654   1.544   2.122   7.312 -1.2916  1.5650 -2.2402
 2398SOL     OW18655   3.105   0.244   2.818 -0.1385  0.4702 -0.0030
 2398SOL    HW118656   3.025   0.205   2.852 -0.0629  1.1483  0.9389
 2398SOL    HW218657   3.152   0.253   2.901 -0.1351  1.6721 -0.1318
 2399SOL     OW18658   0.899   3.225   8.345 -0.0248  0.0700 -0.3649
 2399SOL    HW118659   0.864   3.196   8.429 -0.1661 -0.0349 -0.4592
 2399SOL    HW218660   0.862   3.313   8.339  0.9065  0.3623 -1.7925
 2400SOL     OW18661   4.424   2.369  10.781 -0.4713  0.1046  0.3314
 2400SOL    HW118662   4.500   2.353  10.837  0.1404 -1.2177 -0.8706
 2400SOL    HW218663   4.458   2.404  10.698  2.1149  3.0103  2.6210
 2401SOL     OW18664   4.284   1.687  13.848 -0.4750 -0.4032  0.4816
 2401SOL    HW118665   4.239   1.727  13.773 -0.3376  1.4150  1.3697
 2401SOL    HW218666   4.259   1.595  13.846  0.9481 -0.7591 -1.0621
 2402SOL     OW18667   1.630   1.311   1.521 -0.2327  0.2099  0.3917
 2402SOL    HW118668   1.698   1.249   1.494 -2.3160 -2.0914  0.3558
 2402SOL    HW218669   1.566   1.295   1.451 -2.0407  1.5536  1.7530
 2403SOL     OW18670   4.538   3.032   9.220 -0.2460 -0.2701  0.0215
 2403SOL    HW118671   4.467   3.093   9.198  0.5251  1.0764  1.3046
 2403SOL    HW218672   4.610   3.058   9.163 -1.2848 -0.4036 -1.3655
 2404SOL     OW18673   1.985   1.484   0.233 -0.2253 -0.2677 -0.4385
 2404SOL    HW118674   2.046   1.411   0.240 -0.0355 -0.0502  0.2421
 2404SOL    HW218675   1.952   1.483   0.144 -0.2613  1.1993 -0.4384
 2405SOL     OW18676   4.033   3.632  10.815 -0.2737 -0.1436 -0.1839
 2405SOL    HW118677   3.979   3.631  10.893 -0.0129  1.4460  0.0122
 2405SOL    HW218678   4.118   3.661  10.849 -1.9805  0.4874  3.5246
 2406SOL     OW18679   2.385   1.321  16.337  0.0885 -0.1838  0.2470
 2406SOL    HW118680   2.409   1.230  16.352  3.0177  0.7509  1.3432
 2406SOL    HW218681   2.351   1.331  16.248 -0.5518 -2.0384  0.2997
 2407SOL     OW18682   1.959   3.883  14.887 -0.2746 -0.5712 -0.1390
 2407SOL    HW118683   1.923   3.953  14.832  1.6779 -0.8086 -1.7101
 2407SOL    HW218684   1.891   3.862  14.951 -0.1525 -0.0529  0.1598
 2408SOL     OW18685   2.311   0.571  16.598 -0.4207  0.5267  0.0022
 2408SOL    HW118686   2.357   0.567  16.681 -0.4569  1.3554  0.0661
 2408SOL    HW218687   2.256   0.492  16.602  1.9577 -1.0174  2.0476
 2409SOL     OW18688   3.914   0.115   6.758 -0.2516 -0.5263 -0.3862
 2409SOL    HW118689   3.893   0.072   6.841  0.4458  1.2714  0.7230
 2409SOL    HW218690   3.939   0.199   6.796 -2.1782 -0.5197  0.8700
 2410SOL     OW18691   4.692   3.680   7.978  0.2353  0.2659 -0.1795
 2410SOL    HW118692   4.641   3.744   8.028  0.0234  1.2946 -1.7044
 2410SOL    HW218693   0.034   3.638   8.036  2.2439  1.2186 -1.6761
 2411SOL     OW18694   2.942   2.833   3.281  0.5086  0.3972  0.1977
 2411SOL    HW118695   2.927   2.883   3.200 -2.3064  0.2821  0.6603
 2411SOL    HW218696   2.909   2.747   3.257  1.0473  0.6788 -1.5545
 2412SOL     OW18697   0.114   4.660   3.233 -0.2610  0.7710 -0.2947
 2412SOL    HW118698   0.065   4.701   3.161 -2.2030 -0.2904  0.4507
 2412SOL    HW218699   0.204   4.676   3.204  0.1780 -0.1570  0.5679
 2413SOL     OW18700   3.306   1.817   3.391 -0.0446 -0.3829  0.5008
 2413SOL    HW118701   3.275   1.831   3.302 -1.7662  3.7014  1.7400
 2413SOL    HW218702   3.234   1.758   3.414 -0.4930 -0.1531 -0.3079
 2414SOL     OW18703   1.981   2.646   0.462 -0.3060  0.2172 -0.3748
 2414SOL    HW118704   1.888   2.666   0.450 -0.3321 -0.3405 -1.1358
 2414SOL    HW218705   1.973   2.558   0.497 -0.2278  1.1445  1.9770
 2415SOL     OW18706   2.174   3.646   0.827 -0.6508 -0.6355  0.0131
 2415SOL    HW118707   2.178   3.553   0.846  0.4828 -0.4738  0.5665
 2415SOL    HW218708   2.104   3.680   0.883  0.4741 -0.0090  1.0600
 2416SOL     OW18709   0.572   3.342   5.153 -0.1054 -0.3648  0.0456
 2416SOL    HW118710   0.591   3.420   5.100  0.4565  0.6901  1.8003
 2416SOL    HW218711   0.657   3.300   5.167 -0.6381 -0.6883  2.2191
 2417SOL     OW18712   2.189   3.439  12.010 -0.8068 -0.4372  0.3110
 2417SOL    HW118713   2.150   3.353  11.999  1.1103 -1.2885  0.0552
 2417SOL    HW218714   2.115   3.494  11.988 -1.1660 -1.0049  0.1044
 2418SOL     OW18715   1.792   2.210   1.531 -0.3019 -0.3451  0.1022
 2418SOL    HW118716   1.802   2.250   1.617 -0.0370  1.6680 -0.8751
 2418SOL    HW218717   1.759   2.287   1.485  0.1873 -0.4079 -0.3597
 2419SOL     OW18718   0.642   2.504  17.412 -0.2625  0.3348 -0.6986
 2419SOL    HW118719   0.736   2.515  17.430 -0.1396  1.0854 -1.8396
 2419SOL    HW218720   0.621   2.595  17.392 -0.3027  0.1150 -1.6300
 2420SOL     OW18721   1.448   2.782  15.070 -0.5843 -0.4327 -0.0100
 2420SOL    HW118722   1.444   2.870  15.030  0.0784 -1.0351 -1.4081
 2420SOL    HW218723   1.440   2.723  14.995  0.0411  0.7258 -1.0083
 2421SOL     OW18724   3.079   0.476   4.515 -0.2708  0.1327 -0.4574
 2421SOL    HW118725   3.045   0.439   4.433 -1.5963 -2.0409  1.0598
 2421SOL    HW218726   3.029   0.556   4.533  2.9607  2.1493 -0.4657
 2422SOL     OW18727   2.104   1.517   4.990 -0.0831 -0.6852 -0.3896
 2422SOL    HW118728   2.114   1.604   4.953  0.2233 -1.2553 -1.6593
 2422SOL    HW218729   2.030   1.491   4.935 -0.1247  2.0233 -1.5840
 2423SOL     OW18730   1.506   0.741   3.890  0.3345 -0.8096  0.9812
 2423SOL    HW118731   1.541   0.800   3.957  0.3492 -1.4952  1.5753
 2423SOL    HW218732   1.556   0.777   3.817  0.1509 -0.1937  1.1517
 2424SOL     OW18733   1.701   3.637   9.072  0.1710  0.6337  0.1143
 2424SOL    HW118734   1.676   3.563   9.017  2.8258 -2.3699  3.0225
 2424SOL    HW218735   1.635   3.621   9.139 -1.7830 -1.0604 -2.2156
 2425SOL     OW18736   3.423   1.590   3.489  0.1713 -0.6054  0.8458
 2425SOL    HW118737   3.397   1.678   3.461 -1.2456 -0.7234  1.7917
 2425SOL    HW218738   3.357   1.579   3.558 -1.0169 -1.1226 -0.3950
 2426SOL     OW18739   4.607   3.163   8.597 -0.3953  0.5028 -0.1697
 2426SOL    HW118740   4.520   3.196   8.572  0.0847  1.6083 -0.4053
 2426SOL    HW218741   4.611   3.079   8.551 -1.3366  0.6063 -0.4521
 2427SOL     OW18742   2.164   3.909   5.688 -0.4523 -0.1331  0.0678
 2427SOL    HW118743   2.141   3.840   5.750  0.3759  0.6951  1.2899
 2427SOL    HW218744   2.187   3.979   5.749 -3.0509  0.5343  0.2957
 2428SOL     OW18745   0.454   4.449   3.858 -0.0014  0.1154 -0.9442
 2428SOL    HW118746   0.489   4.537   3.876 -0.6753  0.1069  0.4171
 2428SOL    HW218747   0.392   4.469   3.788 -1.1249 -1.6715 -0.4495
 2429SOL     OW18748   1.686   0.536   3.354 -0.8010  0.1706 -0.5066
 2429SOL    HW118749   1.752   0.495   3.300 -0.2277 -0.2084  0.4848
 2429SOL    HW218750   1.608   0.525   3.299 -1.5453  0.7647  0.4060
 2430SOL     OW18751   3.113   1.828  13.392  0.7819 -0.3280 -0.0692
 2430SOL    HW118752   3.061   1.842  13.313  0.6191 -0.9283 -0.0681
 2430SOL    HW218753   3.081   1.896  13.451  1.6520  0.7225 -0.8009
 2431SOL     OW18754   0.672   2.758   3.146  0.0972  0.5380  0.0072
 2431SOL    HW118755   0.604   2.704   3.186 -1.7932  1.5114 -1.9117
 2431SOL    HW218756   0.645   2.759   3.054  0.2613 -1.1943 -0.0590
 2432SOL     OW18757   3.372   1.932   1.007 -0.2632 -0.6865  0.0341
 2432SOL    HW118758   3.358   2.024   0.986  0.4096 -0.7690 -0.7629
 2432SOL    HW218759   3.407   1.888   0.929 -0.9934  1.0543 -1.2750
 2433SOL     OW18760   4.004   2.940   6.911 -0.6379  0.0180 -0.1469
 2433SOL    HW118761   4.076   2.905   6.963  0.6630  0.6494 -1.5192
 2433SOL    HW218762   3.962   2.854   6.903  1.1711 -0.8951  0.3496
 2434SOL     OW18763   0.574   3.656   2.135 -0.2741 -0.0401  0.5287
 2434SOL    HW118764   0.500   3.692   2.087 -0.2489  0.8940  1.2067
 2434SOL    HW218765   0.574   3.574   2.085 -2.2806 -2.3201  4.1823
 2435SOL     OW18766   1.600   2.113   4.042 -0.1207  0.8461  0.1619
 2435SOL    HW118767   1.604   2.019   4.060  0.5637  0.8490  0.0166
 2435SOL    HW218768   1.513   2.121   4.003 -0.0759  0.6970  0.0261
 2436SOL     OW18769   2.200   4.072   5.382 -0.4215  0.1938 -0.2757
 2436SOL    HW118770   2.288   4.035   5.371 -0.9028 -0.9846 -0.2057
 2436SOL    HW218771   2.152   3.990   5.394  1.1783 -0.6208  0.6323
 2437SOL     OW18772   3.208   2.765   2.572 -0.8477 -0.3082  0.3391
 2437SOL    HW118773   3.237   2.756   2.663 -0.0806 -0.3487  0.0940
 2437SOL    HW218774   3.293   2.746   2.531 -0.7113 -2.2820  1.5271
 2438SOL     OW18775   4.312   1.888   4.693 -0.2978  0.0087  0.2752
 2438SOL    HW118776   4.346   1.926   4.774 -0.1263 -1.5349  0.9497
 2438SOL    HW218777   4.382   1.834   4.656 -0.3174 -0.7993  1.3935
 2439SOL     OW18778   0.533   3.817   7.356 -0.2593  0.5086  0.6329
 2439SOL    HW118779   0.571   3.812   7.268 -1.0025 -0.1944  0.3515
 2439SOL    HW218780   0.592   3.763   7.408 -0.3930  1.7299  2.0436
 2440SOL     OW18781   1.125   0.024  16.591 -0.3950  0.2696 -0.2695
 2440SOL    HW118782   1.138   0.093  16.655 -4.0414  1.4094 -0.7828
 2440SOL    HW218783   1.035   4.717  16.609 -0.4380  0.6187  0.0477
 2441SOL     OW18784   0.316   0.195   4.477  0.1122 -0.0070  0.3532
 2441SOL    HW118785   0.370   0.158   4.548 -0.3300  0.6852  1.0407
 2441SOL    HW218786   0.236   0.143   4.481 -0.4730  1.0166  1.9791
 2442SOL     OW18787   3.464   4.423  10.168  0.1966 -0.6414 -0.0738
 2442SOL    HW118788   3.517   4.493  10.206 -1.0630  2.2970 -3.8791
 2442SOL    HW218789   3.456   4.358  10.239  0.9265  0.1888  0.7723
 2443SOL     OW18790   0.977   1.421   6.203 -0.5211 -0.3142  0.2289
 2443SOL    HW118791   0.886   1.409   6.174 -0.8979  0.3937  1.0945
 2443SOL    HW218792   0.960   1.498   6.257  0.7500 -0.8486  1.3883
 2444SOL     OW18793   2.693   3.125   4.231 -0.1971 -0.2740  0.2566
 2444SOL    HW118794   2.786   3.101   4.241  0.2905  0.8242 -1.7994
 2444SOL    HW218795   2.667   3.044   4.187  0.6830  0.8194 -2.2882
 2445SOL     OW18796   4.215   3.087   3.581  0.1839  0.4248 -0.2207
 2445SOL    HW118797   4.236   2.996   3.562 -3.7545 -0.7403  1.0491
 2445SOL    HW218798   4.217   3.090   3.676 -0.3272  2.1089 -0.2667
 2446SOL     OW18799   2.947   3.745   8.905  0.8246  0.4616  0.0451
 2446SOL    HW118800   2.874   3.687   8.886 -1.0164  3.3342 -1.6665
 2446SOL    HW218801   2.914   3.816   8.961 -0.7204 -0.4732  0.3135
 2447SOL     OW18802   4.580   2.385   4.682  0.1552  0.2335  0.1385
 2447SOL    HW118803   4.516   2.456   4.670  1.4230  1.4322  0.5013
 2447SOL    HW218804   4.592   2.376   4.587  1.0724  2.0206  0.0988
 2448SOL     OW18805   2.440   2.974   2.274  0.0089 -0.1595 -0.5333
 2448SOL    HW118806   2.525   2.986   2.316 -1.2729 -0.6063  2.2262
 2448SOL    HW218807   2.465   2.959   2.183 -0.3604  2.0067 -0.9893
 2449SOL     OW18808   1.034   1.547   7.548 -0.2172  0.3578  0.1809
 2449SOL    HW118809   1.048   1.459   7.511  2.5368 -0.2848  2.8107
 2449SOL    HW218810   0.962   1.541   7.611  0.3543 -0.0789  0.7936
 2450SOL     OW18811   1.058   3.695  13.657 -0.4582 -0.3323 -0.0414
 2450SOL    HW118812   1.117   3.620  13.671 -0.6043 -0.6484 -1.0979
 2450SOL    HW218813   0.972   3.652  13.662 -1.7195  1.8743 -2.8220
 2451SOL     OW18814   1.424   0.156  12.677 -0.0234 -0.2912 -0.3977
 2451SOL    HW118815   1.339   0.169  12.633  0.0791 -0.1468 -0.5540
 2451SOL    HW218816   1.449   0.078  12.627  1.4686  1.5944 -2.6030
 2452SOL     OW18817   1.380   3.988  14.919  0.2235 -0.2257  0.1753
 2452SOL    HW118818   1.318   4.024  14.983  1.3624 -1.1206  1.7440
 2452SOL    HW218819   1.352   3.897  14.925 -1.3786  0.2917  0.7283
 2453SOL     OW18820   2.056   1.765   9.644  0.2033  0.3453 -0.2164
 2453SOL    HW118821   2.076   1.680   9.605  2.4792  0.2838  1.1270
 2453SOL    HW218822   2.096   1.825   9.581  1.4980  0.1892  0.4587
 2454SOL     OW18823   0.607   2.889  12.083 -0.1430 -0.4502 -0.1477
 2454SOL    HW118824   0.567   2.923  12.163 -1.7531 -3.3326  0.2781
 2454SOL    HW218825   0.646   2.810  12.121 -0.4205 -0.9717 -0.9366
 2455SOL     OW18826   2.712   3.454  11.309 -0.3075  0.1346  0.2110
 2455SOL    HW118827   2.717   3.521  11.377 -1.3499  0.8085 -0.3798
 2455SOL    HW218828   2.661   3.388  11.356 -0.3926 -1.0195 -1.4949
 2456SOL     OW18829   1.746   0.715   7.004  0.9026 -0.2139 -0.1028
 2456SOL    HW118830   1.663   0.749   6.969  0.2044 -1.4307  0.3947
 2456SOL    HW218831   1.797   0.692   6.926 -0.0289  1.0290 -1.0740
 2457SOL     OW18832   1.848   0.388  13.869  0.2429  0.3217 -0.0737
 2457SOL    HW118833   1.879   0.464  13.918  2.6189  0.1193 -1.2706
 2457SOL    HW218834   1.775   0.413  13.813 -0.6588 -0.3367  0.8082
 2458SOL     OW18835   0.191   0.982  17.681  0.6706 -0.4653  0.2646
 2458SOL    HW118836   0.262   1.044   0.006 -0.4920  0.8602  0.2957
 2458SOL    HW218837   0.133   1.034  17.626 -2.8677 -2.2595  2.2643
 2459SOL     OW18838   4.018   2.802   8.831  0.5322 -0.4500 -0.7080
 2459SOL    HW118839   3.992   2.794   8.740 -1.0849  1.1108 -0.3997
 2459SOL    HW218840   4.007   2.711   8.859 -2.0804  0.0341 -0.1131
 2460SOL     OW18841   3.365   2.940   0.919 -0.1666 -0.1298  0.3528
 2460SOL    HW118842   3.427   2.952   0.992  0.7445  1.1085 -0.6410
 2460SOL    HW218843   3.278   2.912   0.946 -1.1109  0.6228 -1.9690
 2461SOL     OW18844   4.623   0.498   2.411 -0.6502 -0.0503  0.2344
 2461SOL    HW118845   4.651   0.464   2.497  1.8288  1.6532  0.1002
 2461SOL    HW218846   4.708   0.511   2.368 -1.1588 -2.7757 -1.5687
 2462SOL     OW18847   4.237   1.835   8.736  0.2129 -0.6014  0.7295
 2462SOL    HW118848   4.268   1.823   8.646 -2.0789 -1.1813  0.0247
 2462SOL    HW218849   4.143   1.854   8.732 -0.0053 -1.7955  0.3909
 2463SOL     OW18850   2.218   3.130   4.555 -0.0561  0.1451 -0.1643
 2463SOL    HW118851   2.311   3.144   4.537  0.0385 -0.0451  0.1776
 2463SOL    HW218852   2.191   3.198   4.493 -0.3208  1.8708  1.8377
 2464SOL     OW18853   2.434   2.164   1.881  0.3584 -0.4477  0.0103
 2464SOL    HW118854   2.517   2.118   1.875  0.9064  0.3769  1.1032
 2464SOL    HW218855   2.452   2.213   1.962  1.3349 -0.3587 -0.2571
 2465SOL     OW18856   1.480   0.519   5.165  0.2155  0.4542  0.0837
 2465SOL    HW118857   1.532   0.454   5.118 -0.3544 -0.5980  0.9116
 2465SOL    HW218858   1.430   0.470   5.230 -1.2887  2.0904  0.1800
 2466SOL     OW18859   2.594   0.696  11.332  0.0833  0.5099  0.4399
 2466SOL    HW118860   2.629   0.756  11.398  1.6569  0.2330 -0.1589
 2466SOL    HW218861   2.502   0.684  11.357  0.5373 -1.3357  1.2198
 2467SOL     OW18862   4.382   1.159   7.709 -0.0828 -0.4323  0.3639
 2467SOL    HW118863   4.378   1.081   7.765 -0.0154  0.0195  1.0057
 2467SOL    HW218864   4.406   1.218   7.781  0.0874 -0.3721  0.2580
 2468SOL     OW18865   1.044   3.903   3.739 -0.2535 -1.0496 -0.2284
 2468SOL    HW118866   0.952   3.885   3.759 -0.5547 -0.2267 -0.9316
 2468SOL    HW218867   1.050   3.873   3.648 -0.3535  0.6723 -0.7963
 2469SOL     OW18868   1.118   2.928   2.496  0.1068  0.5052  0.2298
 2469SOL    HW118869   1.120   2.833   2.483 -0.5553  0.7394 -1.5661
 2469SOL    HW218870   1.168   2.942   2.576 -0.7422  1.4344  0.5986
 2470SOL     OW18871   0.545   1.843   9.310  0.1106 -0.5255 -0.0781
 2470SOL    HW118872   0.578   1.756   9.329 -0.4606 -0.4902  1.0496
 2470SOL    HW218873   0.612   1.911   9.301 -0.2684 -0.5140 -3.0802
 2471SOL     OW18874   0.101   0.568   7.826  0.1205  0.5154 -0.1513
 2471SOL    HW118875   0.098   0.625   7.903  1.3789 -1.1936  1.1574
 2471SOL    HW218876   0.027   0.511   7.845  0.2840  0.5093  0.4642
 2472SOL     OW18877   3.586   2.228   8.003  0.4021 -0.1494 -0.2082
 2472SOL    HW118878   3.545   2.258   7.921  0.1764 -2.7958 -1.0697
 2472SOL    HW218879   3.635   2.310   8.009 -0.7834  0.7945 -3.3480
 2473SOL     OW18880   3.181   2.036   2.992  0.5480 -0.0928 -0.3728
 2473SOL    HW118881   3.262   2.076   2.963  0.4972 -0.1768 -0.6297
 2473SOL    HW218882   3.199   2.041   3.086 -0.2214  3.1616 -0.3997
 2474SOL     OW18883   2.960   4.707  10.689 -0.4227  0.0133  0.1649
 2474SOL    HW118884   2.944   4.633  10.747 -1.3780  0.1775  0.1165
 2474SOL    HW218885   3.014   4.671  10.618  0.1233  0.2871  0.4406
 2475SOL     OW18886   3.810   4.676   4.986 -0.0045 -0.1976 -0.2409
 2475SOL    HW118887   3.888   4.698   5.038  0.7077 -3.3934  0.1057
 2475SOL    HW218888   3.866   4.631   4.923 -2.0797 -0.3310 -1.9636
 2476SOL     OW18889   1.593   2.554   4.071  0.3352  0.1267  0.0998
 2476SOL    HW118890   1.624   2.607   3.997  0.5357  0.8672  0.7196
 2476SOL    HW218891   1.565   2.616   4.138  1.0603 -1.1498  1.5680
 2477SOL     OW18892   2.451   3.852  16.969 -0.0934  0.2408  0.1419
 2477SOL    HW118893   2.457   3.819  17.058 -3.0080 -0.5188  0.0881
 2477SOL    HW218894   2.414   3.779  16.920 -1.0815  0.0101  1.2235
 2478SOL     OW18895   3.202   4.588   8.697  0.3159 -0.1592 -0.7632
 2478SOL    HW118896   3.205   4.655   8.629 -0.7686  2.3820  1.6567
 2478SOL    HW218897   3.149   4.523   8.651 -0.2857 -0.5573  0.4885
 2479SOL     OW18898   1.995   4.110  10.777 -0.5022  0.1725 -0.5473
 2479SOL    HW118899   2.050   4.095  10.700  0.0633  0.0292 -0.1104
 2479SOL    HW218900   1.983   4.205  10.789  2.0390  0.6897 -2.1903
 2480SOL     OW18901   1.114   0.590   5.784 -0.3980 -0.1846  0.0956
 2480SOL    HW118902   1.121   0.548   5.869 -0.8077  1.2127  0.8191
 2480SOL    HW218903   1.141   0.524   5.720 -1.7883 -0.5032 -0.1784
 2481SOL     OW18904   4.432   3.348   7.635 -0.3841 -0.1788  0.4758
 2481SOL    HW118905   4.486   3.411   7.683 -0.8021  0.8927 -0.4332
 2481SOL    HW218906   4.493   3.330   7.563 -3.4273 -1.4853 -1.7683
 2482SOL     OW18907   3.111   0.908   1.681  0.2513  0.8779 -0.1904
 2482SOL    HW118908   3.038   0.947   1.633  0.4634  2.8567  1.0964
 2482SOL    HW218909   3.072   0.892   1.767 -0.4596 -2.6019 -1.1343
 2483SOL     OW18910   0.295   2.851  13.110  0.0675  0.3810 -0.2433
 2483SOL    HW118911   0.251   2.907  13.173 -0.5192  1.1174 -1.3036
 2483SOL    HW218912   0.372   2.819  13.157  0.1470  2.1313  0.8216
 2484SOL     OW18913   0.574   3.894   8.950  0.1246 -0.1151  0.0603
 2484SOL    HW118914   0.481   3.876   8.936 -0.3906  0.1065  3.1757
 2484SOL    HW218915   0.606   3.850   8.871  3.7303 -0.2286  1.6072
 2485SOL     OW18916   4.261   1.076   6.025  0.1285 -0.7068  0.1182
 2485SOL    HW118917   4.294   0.989   6.044 -0.2995 -0.8963 -0.0113
 2485SOL    HW218918   4.341   1.118   5.992 -0.8175 -0.3510 -1.7466
 2486SOL     OW18919   0.023   3.904   6.085 -0.2888  0.5201 -0.0385
 2486SOL    HW118920   4.697   3.831   6.045  1.4764  0.1040 -1.4227
 2486SOL    HW218921   0.113   3.897   6.052  0.5384 -0.0253  2.3552
 2487SOL     OW18922   4.174   4.394   8.069 -0.0017 -0.5734 -0.0569
 2487SOL    HW118923   4.190   4.434   8.154 -0.1931 -0.1199 -0.2371
 2487SOL    HW218924   4.247   4.436   8.024  0.0503  0.2276  0.7807
 2488SOL     OW18925   3.811   0.317   1.593  0.0048 -0.1206  0.2287
 2488SOL    HW118926   3.809   0.225   1.621 -1.7969 -0.4413 -0.9313
 2488SOL    HW218927   3.905   0.328   1.609 -0.4571  1.9374  1.5435
 2489SOL     OW18928   3.574   4.690   3.896  0.1817  0.4621  0.5231
 2489SOL    HW118929   3.598   0.024   3.971 -2.8296  0.3350  1.5664
 2489SOL    HW218930   3.585   0.025   3.820  0.4604  0.5394  0.6190
 2490SOL     OW18931   0.816   1.894   2.862 -0.1309 -0.0412  0.7536
 2490SOL    HW118932   0.784   1.896   2.772 -0.1973 -2.9897  0.7249
 2490SOL    HW218933   0.845   1.804   2.876 -0.1030 -0.4860 -2.1955
 2491SOL     OW18934   0.352   4.413   4.693  0.1650  0.3519 -0.8317
 2491SOL    HW118935   0.447   4.415   4.690  0.1935 -0.5482 -0.3771
 2491SOL    HW218936   0.333   4.501   4.727  0.6407  0.6961 -1.4476
 2492SOL     OW18937   1.053   2.803   3.919 -0.2730  0.4985 -0.1439
 2492SOL    HW118938   1.052   2.882   3.973  2.0094  0.1655  0.3707
 2492SOL    HW218939   0.958   2.794   3.908 -0.2573 -1.5210  1.5183
 2493SOL     OW18940   1.890   4.320  11.510 -0.2884  0.2179  0.0181
 2493SOL    HW118941   1.957   4.370  11.462 -0.3220  0.6450  0.4087
 2493SOL    HW218942   1.957   4.271  11.559 -1.5596 -0.7605  0.7601
 2494SOL     OW18943   2.117   3.503   9.883 -0.0850 -0.2284  0.7635
 2494SOL    HW118944   2.181   3.442   9.921 -0.3673 -0.8099  0.3151
 2494SOL    HW218945   2.167   3.578   9.915 -0.2096  0.4197 -0.5703
 2495SOL     OW18946   3.265   1.256   3.993  0.0393 -0.1695 -0.8952
 2495SOL    HW118947   3.242   1.347   3.975  0.9809 -0.0038 -1.2370
 2495SOL    HW218948   3.342   1.270   4.049  1.5187 -1.2168 -2.6689
 2496SOL     OW18949   1.270   3.605   8.758  0.4804  0.2540 -0.3297
 2496SOL    HW118950   1.298   3.685   8.804  2.8142 -0.5452 -0.3590
 2496SOL    HW218951   1.286   3.530   8.816 -0.5894  0.3503  0.0843
 2497SOL     OW18952   3.493   3.525   2.579  0.2966  0.2542  0.4856
 2497SOL    HW118953   3.575   3.477   2.586 -0.5922 -1.1059  1.6268
 2497SOL    HW218954   3.429   3.456   2.597  1.2492 -0.5135  0.8667
 2498SOL     OW18955   0.220   2.065   2.271  0.1941  0.1259 -0.6180
 2498SOL    HW118956   0.203   1.981   2.313  0.5253  0.7004  0.6705
 2498SOL    HW218957   0.167   2.057   2.192  0.6128  0.8627 -0.9733
 2499SOL     OW18958   0.637   1.754   5.597 -0.0503 -0.2674  0.1211
 2499SOL    HW118959   0.664   1.842   5.569 -1.1876 -0.6120 -2.0807
 2499SOL    HW218960   0.603   1.722   5.513  0.7599 -0.6651 -0.0620
 2500SOL     OW18961   4.630   4.525   3.706 -0.0159  0.2225 -0.0398
 2500SOL    HW118962   4.563   4.471   3.747  1.4670 -2.2049 -0.7839
 2500SOL    HW218963   4.624   4.513   3.611 -1.1654  1.0796 -0.0702
 2501SOL     OW18964   4.022   1.507   5.625  0.0079 -0.2954  0.5315
 2501SOL    HW118965   3.971   1.582   5.596  0.1422 -0.2414  0.4350
 2501SOL    HW218966   4.004   1.442   5.556 -0.0588 -0.2222  0.4798
 2502SOL     OW18967   2.874   4.431   3.253  0.1438  0.6599 -0.1075
 2502SOL    HW118968   2.917   4.477   3.324  0.2618  0.3262  0.0346
 2502SOL    HW218969   2.938   4.364   3.231  1.4846  1.9277 -0.0589
 2503SOL     OW18970   2.828   1.648  13.299 -0.1062  0.0399  0.0065
 2503SOL    HW118971   2.865   1.631  13.385  0.6886 -1.4441 -0.6181
 2503SOL    HW218972   2.740   1.678  13.320 -0.1121  0.6239 -0.8424
 2504SOL     OW18973   1.783   3.223   7.666  0.6712 -0.1899  0.3803
 2504SOL    HW118974   1.709   3.271   7.703  1.6300  2.4916 -1.1427
 2504SOL    HW218975   1.826   3.196   7.747  0.1808  1.5746  1.2352
 2505SOL     OW18976   0.513   0.547  11.187 -0.0568 -0.5403 -0.1123
 2505SOL    HW118977   0.479   0.459  11.207 -0.0221 -0.1927  1.5313
 2505SOL    HW218978   0.528   0.572  11.278 -2.7777 -1.9909  0.7343
 2506SOL     OW18979   0.168   1.317  13.672 -0.1594  0.3266 -0.0578
 2506SOL    HW118980   0.131   1.381  13.733  0.0966 -0.8894  1.3650
 2506SOL    HW218981   0.114   1.333  13.594  0.1062 -2.6731 -0.8412
 2507SOL     OW18982   3.406   3.009   2.423  0.4972 -0.0788  0.2744
 2507SOL    HW118983   3.412   2.914   2.424 -3.2799 -0.3168 -0.0303
 2507SOL    HW218984   3.358   3.021   2.341  0.6807  3.2931  0.6372
 2508SOL     OW18985   3.058   0.540   8.166  0.2677  0.1235 -0.4934
 2508SOL    HW118986   2.984   0.535   8.227  0.0390 -0.6433 -0.8292
 2508SOL    HW218987   3.076   0.446   8.157 -1.4557 -0.3209  0.7871
 2509SOL     OW18988   0.864   0.484  11.157 -0.5160  0.3897  0.6173
 2509SOL    HW118989   0.835   0.501  11.247 -0.2468 -0.3453  0.8398
 2509SOL    HW218990   0.895   0.573  11.140  1.4837 -0.6712 -1.1658
 2510SOL     OW18991   4.179   0.356   4.333 -0.1915  0.7000 -0.3393
 2510SOL    HW118992   4.219   0.279   4.373 -0.1867  0.2597 -1.1958
 2510SOL    HW218993   4.257   0.390   4.288  1.1378 -0.2607  1.2713
 2511SOL     OW18994   3.749   2.013   9.041  0.2420  0.1284 -0.0198
 2511SOL    HW118995   3.827   2.067   9.034  0.1756  0.1735 -0.4681
 2511SOL    HW218996   3.758   1.946   8.973  0.0306  0.4453 -0.3578
 2512SOL     OW18997   1.104   4.279   2.822  0.4207 -0.0684 -0.2956
 2512SOL    HW118998   1.168   4.255   2.890 -0.1059  0.3655  0.3618
 2512SOL    HW218999   1.157   4.337   2.767  0.1517 -0.0635 -0.5472
 2513SOL     OW19000   4.190   4.131   1.002 -0.5127 -0.1872  0.1885
 2513SOL    HW119001   4.164   4.097   1.088 -1.2178 -1.4681 -0.5219
 2513SOL    HW219002   4.147   4.216   1.005 -0.5331 -0.2326  1.4654
 2514SOL     OW19003   1.843   4.594   8.791 -0.0974 -0.6409  0.5025
 2514SOL    HW119004   1.904   4.581   8.718  0.8526  0.1917  1.1619
 2514SOL    HW219005   1.781   4.524   8.768  0.1667 -0.3659 -1.0853
 2515SOL     OW19006   1.633   4.357   6.578  0.0704  0.1473  0.1840
 2515SOL    HW119007   1.638   4.274   6.532 -0.3786  1.5860 -2.4928
 2515SOL    HW219008   1.715   4.405   6.565  0.2821 -0.0899  0.6770
 2516SOL     OW19009   1.687   1.923   5.046  0.2859 -0.0524 -0.2599
 2516SOL    HW119010   1.690   1.953   4.955  1.0755  3.1546  0.8428
 2516SOL    HW219011   1.768   1.873   5.058  0.6602  0.5542 -0.2818
 2517SOL     OW19012   0.422   1.586   8.457  0.0631 -0.3608 -0.1110
 2517SOL    HW119013   0.514   1.564   8.473  0.3521  0.4564 -0.6540
 2517SOL    HW219014   0.422   1.681   8.456  0.1359 -0.3398  2.5286
 2518SOL     OW19015   1.049   4.271  15.498 -0.2758 -0.3448 -0.2738
 2518SOL    HW119016   1.043   4.339  15.431  0.2759  1.8743  1.9221
 2518SOL    HW219017   1.000   4.202  15.454 -0.7409 -1.4672  2.0501
 2519SOL     OW19018   2.113   0.679   3.341  0.3679  0.1693  0.0636
 2519SOL    HW119019   2.143   0.765   3.313  0.3937  0.3354  0.5967
 2519SOL    HW219020   2.020   0.703   3.346 -0.2378 -2.4775  1.7600
 2520SOL     OW19021   2.508   0.198   7.107  0.0647  0.7488  0.5324
 2520SOL    HW119022   2.452   0.210   7.184 -1.0702 -0.7589 -0.0526
 2520SOL    HW219023   2.490   0.106   7.086  1.6474  0.2700  1.2838
 2521SOL     OW19024   3.743   0.532  12.792  0.0099 -0.9186  0.0502
 2521SOL    HW119025   3.765   0.611  12.842  1.2408 -0.8560 -0.5942
 2521SOL    HW219026   3.831   0.505  12.765  1.1920  1.4802  1.4756
 2522SOL     OW19027   2.396   0.882  10.417 -0.0810 -0.1569  0.0496
 2522SOL    HW119028   2.414   0.897  10.510  0.8376 -1.0816  0.0211
 2522SOL    HW219029   2.322   0.941  10.403 -0.8250 -0.8888  0.9887
 2523SOL     OW19030   0.022   3.806   1.853  0.2137 -0.2243 -0.2135
 2523SOL    HW119031   4.661   3.832   1.813 -0.6389  0.5836  2.0648
 2523SOL    HW219032   4.715   3.778   1.940 -1.5276 -0.8641 -0.9951
 2524SOL     OW19033   4.394   3.585  11.538 -0.1709 -0.2927  0.4812
 2524SOL    HW119034   4.335   3.655  11.567  0.0879  0.1964 -0.1705
 2524SOL    HW219035   4.476   3.629  11.557  0.6317 -1.7879  0.4756
 2525SOL     OW19036   3.994   2.245  10.925 -0.4610  0.3216 -0.2025
 2525SOL    HW119037   3.975   2.221  11.016  0.3429 -1.8205 -0.6006
 2525SOL    HW219038   3.937   2.322  10.920 -2.3722 -0.9992  1.1909
 2526SOL     OW19039   2.297   2.619   4.584 -0.0628  0.3491 -0.6585
 2526SOL    HW119040   2.249   2.691   4.543 -2.8827  0.1305  2.2167
 2526SOL    HW219041   2.256   2.548   4.535  1.0289 -0.0969 -0.9297
 2527SOL     OW19042   3.564   2.278   3.521 -0.1665 -0.3209 -0.0216
 2527SOL    HW119043   3.510   2.222   3.577  0.1247 -1.8704 -1.2928
 2527SOL    HW219044   3.519   2.362   3.531  0.4246  0.0152 -0.2106
 2528SOL     OW19045   3.523   0.730   9.098 -0.2263  0.2574 -0.1974
 2528SOL    HW119046   3.473   0.711   9.178  1.9659  1.3463  1.4247
 2528SOL    HW219047   3.472   0.807   9.074 -3.7899 -1.6339  1.3164
 2529SOL     OW19048   2.537   3.734   0.781  0.4973  0.1897  0.1605
 2529SOL    HW119049   2.577   3.655   0.818  0.6690 -0.7585 -2.0340
 2529SOL    HW219050   2.564   3.806   0.838 -0.3827  0.0287  0.7923
 2530SOL     OW19051   3.344   1.215   2.990  0.0026 -0.0048  0.1678
 2530SOL    HW119052   3.249   1.208   2.978  0.0905 -1.2595  0.1172
 2530SOL    HW219053   3.381   1.129   2.969 -0.7016  0.1161 -1.5967
 2531SOL     OW19054   2.196   2.226   4.906 -0.4870 -0.2611 -0.4493
 2531SOL    HW119055   2.270   2.286   4.896 -0.7131  0.1519  0.3422
 2531SOL    HW219056   2.131   2.291   4.933 -0.3020 -1.3052  2.5417
 2532SOL     OW19057   3.607   4.208   3.462 -0.0440  0.6141 -0.3407
 2532SOL    HW119058   3.637   4.183   3.549  0.0969 -1.5252 -0.9933
 2532SOL    HW219059   3.629   4.300   3.449  3.3163  0.0565  1.3714
 2533SOL     OW19060   4.516   3.348   5.753  0.0747 -0.2685 -0.3826
 2533SOL    HW119061   4.586   3.282   5.755  0.8207  0.4995 -1.0873
 2533SOL    HW219062   4.551   3.401   5.682 -2.2699  1.6615 -0.0492
 2534SOL     OW19063   1.971   2.009   3.254  0.1727 -0.4941  0.7713
 2534SOL    HW119064   2.063   2.000   3.278  0.0180  0.6233  1.7718
 2534SOL    HW219065   1.936   1.922   3.270 -0.1100 -1.3513 -4.5624
 2535SOL     OW19066   0.013   2.883   4.045 -0.1907  0.1018  0.1511
 2535SOL    HW119067   0.032   2.976   4.036 -0.5575 -0.0231 -1.8306
 2535SOL    HW219068   4.704   2.897   4.135 -1.6029 -0.6006 -0.2236
 2536SOL     OW19069   3.799   1.841   8.384  0.1766  0.1214  0.5712
 2536SOL    HW119070   3.715   1.860   8.342  0.1653  2.3804  1.5945
 2536SOL    HW219071   3.795   1.746   8.378  0.7837  0.1485 -0.1678
 2537SOL     OW19072   1.759   0.842   8.812  0.3885 -0.5040 -0.8068
 2537SOL    HW119073   1.831   0.794   8.773  2.3602  1.6959  0.1083
 2537SOL    HW219074   1.745   0.914   8.750  0.1075 -0.8747 -1.1762
 2538SOL     OW19075   3.982   1.611   2.635 -0.1026 -0.7137  0.3502
 2538SOL    HW119076   3.908   1.616   2.695 -0.2947  0.4521  0.0213
 2538SOL    HW219077   3.988   1.518   2.613 -0.0020 -1.1686  2.2757
 2539SOL     OW19078   1.969   4.619   5.093  0.4173 -0.2842  0.2740
 2539SOL    HW119079   2.006   4.634   5.180 -0.0604  0.0075  0.4254
 2539SOL    HW219080   2.046   4.610   5.036 -1.6491 -1.5374 -2.3085
 2540SOL     OW19081   2.638   2.739  16.519  0.2164 -0.1555  0.0167
 2540SOL    HW119082   2.686   2.758  16.438  0.7438 -1.8833 -0.0644
 2540SOL    HW219083   2.548   2.743  16.488 -0.4097 -2.1964  1.5975
 2541SOL     OW19084   2.833   1.547   3.005  0.3006 -0.0983  0.2121
 2541SOL    HW119085   2.781   1.497   3.068 -0.3329  1.7847  1.1672
 2541SOL    HW219086   2.915   1.553   3.055 -0.4584 -2.9050  1.7703
 2542SOL     OW19087   1.993   1.446   5.251  0.1719  0.3055 -0.0704
 2542SOL    HW119088   1.976   1.536   5.278  0.6758 -0.5097  2.9019
 2542SOL    HW219089   2.038   1.462   5.168 -0.3372  0.1368 -0.3799
 2543SOL     OW19090   2.957   1.219  12.348  0.3668 -0.4796 -0.0984
 2543SOL    HW119091   2.909   1.302  12.340  0.7520 -0.4599 -2.3588
 2543SOL    HW219092   2.898   1.155  12.308 -0.6581  1.3378 -1.5248
 2544SOL     OW19093   0.815   4.497   5.357 -0.4249 -0.1632 -0.3263
 2544SOL    HW119094   0.772   4.471   5.439  1.3653 -3.2798 -0.3742
 2544SOL    HW219095   0.818   4.408   5.323 -2.2417 -0.0541 -0.7803
 2545SOL     OW19096   3.502   1.618   6.165  0.2153  0.0838 -0.7901
 2545SOL    HW119097   3.446   1.597   6.090 -0.8654  3.9695 -1.0741
 2545SOL    HW219098   3.567   1.549   6.154 -1.0127 -0.9317 -1.7322
 2546SOL     OW19099   2.741   0.556   7.624 -0.2677 -0.3668 -0.7249
 2546SOL    HW119100   2.730   0.566   7.529  1.0843  1.5476 -0.6822
 2546SOL    HW219101   2.707   0.468   7.640  2.5267 -1.0674  1.4110
 2547SOL     OW19102   2.273   1.067   6.435  0.5245  0.0898 -0.7534
 2547SOL    HW119103   2.299   1.103   6.350  0.3953  3.9841  0.8633
 2547SOL    HW219104   2.353   1.024   6.464  0.5247 -0.0018 -0.8886
 2548SOL     OW19105   3.855   3.983   8.660 -0.2073  0.6954 -0.1553
 2548SOL    HW119106   3.946   3.956   8.667 -0.2684 -0.5462 -3.7494
 2548SOL    HW219107   3.825   3.894   8.641 -1.5036  0.9120  0.8718
 2549SOL     OW19108   3.541   4.487   8.689 -0.1107 -0.0509 -0.1892
 2549SOL    HW119109   3.537   4.577   8.657  0.8462  0.3849  0.9113
 2549SOL    HW219110   3.544   4.498   8.784  2.2611 -0.1743 -0.2547
 2550SOL     OW19111   0.935   3.585   9.122  0.5982  0.0746  0.0355
 2550SOL    HW119112   0.844   3.614   9.115  0.5591 -0.2820 -0.9126
 2550SOL    HW219113   0.966   3.651   9.061 -2.6096  1.6218  0.0582
 2551SOL     OW19114   2.220   4.720   7.031 -0.1773  0.4737  0.3052
 2551SOL    HW119115   2.125   0.011   7.034 -0.4553 -1.3602 -0.3005
 2551SOL    HW219116   2.243   0.056   6.958 -1.4917 -1.2591 -1.4879
 2552SOL     OW19117   3.440   3.988   9.264  0.1684 -0.1135  0.3003
 2552SOL    HW119118   3.428   3.951   9.351 -0.1535 -1.5659 -0.3608
 2552SOL    HW219119   3.382   4.064   9.275  0.8522  0.8678 -2.9797
 2553SOL     OW19120   1.690   0.315   1.952  0.2806 -0.5817  0.0829
 2553SOL    HW119121   1.756   0.250   1.977  1.3459  1.2261  2.0162
 2553SOL    HW219122   1.627   0.261   1.905  1.2519  0.0155 -1.9331
 2554SOL     OW19123   0.924   2.439   6.921 -0.5099 -0.6874 -0.3946
 2554SOL    HW119124   0.858   2.418   6.987  1.0164 -1.4096  0.9087
 2554SOL    HW219125   0.960   2.352   6.907 -0.2531 -0.5358 -0.6970
 2555SOL     OW19126   3.534   4.247   7.187 -0.4115 -0.2000 -0.0216
 2555SOL    HW119127   3.470   4.234   7.257  0.6225 -0.1177  0.9459
 2555SOL    HW219128   3.588   4.168   7.198  0.5775  0.3498 -0.8720
 2556SOL     OW19129   0.185   3.598   8.150  0.1333  0.0659 -0.1739
 2556SOL    HW119130   0.271   3.590   8.191  1.2339 -1.3268 -2.7632
 2556SOL    HW219131   0.186   3.510   8.112  0.0688  0.7993 -1.8704
 2557SOL     OW19132   2.950   2.175   5.868 -0.4013 -0.1237  0.0001
 2557SOL    HW119133   3.015   2.225   5.918 -2.3577  2.0550  0.3316
 2557SOL    HW219134   2.873   2.219   5.902 -1.2996 -1.7331  0.0518
 2558SOL     OW19135   2.558   1.709  13.414  0.7094 -0.4104 -0.4503
 2558SOL    HW119136   2.512   1.776  13.363  1.0712 -1.6275 -2.3873
 2558SOL    HW219137   2.483   1.671  13.460  3.5432 -2.5118  2.3953
 2559SOL     OW19138   2.031   0.028   8.375  0.0828 -0.0332  0.3824
 2559SOL    HW119139   1.983   0.059   8.298  0.9489 -1.6380 -0.7938
 2559SOL    HW219140   2.119   0.031   8.338  1.1681  0.0216  2.9788
 2560SOL     OW19141   2.263   0.096  16.831 -0.1120 -0.0863 -0.0052
 2560SOL    HW119142   2.252   0.188  16.856  0.4517  0.5294 -2.0250
 2560SOL    HW219143   2.171   0.074  16.814  0.1530 -1.0495 -0.1963
 2561SOL     OW19144   1.047   3.963  17.440 -0.2362  0.1278  0.1336
 2561SOL    HW119145   1.031   3.939  17.349 -0.4366  1.0723 -0.0780
 2561SOL    HW219146   1.143   3.961  17.440 -0.2262  0.5908 -0.4417
 2562SOL     OW19147   0.575   2.772   8.847  0.3229  0.2970 -0.0533
 2562SOL    HW119148   0.509   2.817   8.796  0.9192  2.4021  1.0375
 2562SOL    HW219149   0.576   2.823   8.928 -1.3758 -0.3014  0.3512
 2563SOL     OW19150   2.961   0.467   5.761  0.2929 -0.2743  0.2920
 2563SOL    HW119151   2.995   0.467   5.672 -2.6907 -0.3418 -0.8328
 2563SOL    HW219152   2.873   0.502   5.748 -0.3246 -1.6918  0.6732
 2564SOL     OW19153   0.549   4.697   3.835  0.1508 -0.1021 -0.4048
 2564SOL    HW119154   0.558   0.071   3.832  0.6505 -0.0780  1.8840
 2564SOL    HW219155   0.606   4.674   3.762  1.2537 -0.7779  0.6809
 2565SOL     OW19156   3.464   4.431   0.063 -0.1477  0.3258  0.4540
 2565SOL    HW119157   3.413   4.502   0.024  0.0977 -0.1406 -0.7153
 2565SOL    HW219158   3.551   4.463   0.043 -0.5584 -0.3049 -2.2953
 2566SOL     OW19159   1.645   2.507  17.605  0.1245 -0.0274 -0.2830
 2566SOL    HW119160   1.615   2.550  17.684  1.5246 -1.6006  1.1027
 2566SOL    HW219161   1.627   2.565  17.531 -1.7694  1.7392  1.5910
 2567SOL     OW19162   0.054   1.560   3.881 -0.9406 -0.0217  0.2104
 2567SOL    HW119163   0.003   1.495   3.928 -0.1944  0.9678  2.3636
 2567SOL    HW219164   0.098   1.506   3.815 -0.1477  0.4285  0.3652
 2568SOL     OW19165   0.921   4.095  11.154 -0.1028  0.4123 -0.2954
 2568SOL    HW119166   0.933   4.119  11.062 -2.3520 -0.0990 -0.7280
 2568SOL    HW219167   0.933   4.000  11.160  1.9198  0.6723 -0.4474
 2569SOL     OW19168   0.370   3.035   5.874  0.3810  0.4285  0.2043
 2569SOL    HW119169   0.298   3.017   5.935 -1.1100  2.5039 -0.9634
 2569SOL    HW219170   0.399   3.120   5.906  0.8704 -0.8189  3.1108
 2570SOL     OW19171   0.699   2.525  14.623 -0.6001  0.5442  0.0926
 2570SOL    HW119172   0.759   2.560  14.557 -0.7109  0.3353 -0.1158
 2570SOL    HW219173   0.761   2.496  14.690  0.0779 -0.9714 -1.2050
 2571SOL     OW19174   0.189   2.233   4.493 -0.9039  0.4705 -0.6548
 2571SOL    HW119175   0.266   2.227   4.549 -0.0635  1.4457 -1.7070
 2571SOL    HW219176   0.147   2.319   4.495 -1.1438  0.2551  3.9858
 2572SOL     OW19177   1.497   1.121  12.707 -0.1005  0.2908  0.1015
 2572SOL    HW119178   1.573   1.070  12.680 -0.6390 -0.8530  0.7894
 2572SOL    HW219179   1.506   1.204  12.659 -0.4551  0.9915  1.2694
 2573SOL     OW19180   2.145   2.524   3.462  0.0757 -0.4618  0.1784
 2573SOL    HW119181   2.092   2.604   3.453 -0.2529 -1.0101 -2.5586
 2573SOL    HW219182   2.237   2.543   3.477 -0.0537  0.4442 -0.1770
 2574SOL     OW19183   1.049   0.428   0.724 -0.6412 -0.6520 -0.2694
 2574SOL    HW119184   1.057   0.335   0.703  0.8417 -0.6019  0.0640
 2574SOL    HW219185   1.068   0.469   0.639  4.6830 -0.9953  0.7499
 2575SOL     OW19186   0.138   4.056   4.596  0.2843  0.1260  0.1237
 2575SOL    HW119187   0.052   4.017   4.613 -0.0644  0.2013 -1.4705
 2575SOL    HW219188   0.149   4.098   4.682  3.0302  0.2891 -0.3002
 2576SOL     OW19189   2.825   1.357  11.491  0.2053 -0.1210  0.3944
 2576SOL    HW119190   2.865   1.441  11.469  1.0922 -0.4672  0.7065
 2576SOL    HW219191   2.850   1.309  11.412  1.5736  0.8808  0.2171
 2577SOL     OW19192   0.122   4.394   9.736 -0.1065  0.1370 -0.3899
 2577SOL    HW119193   0.061   4.424   9.668 -2.7267  1.5120  2.5533
 2577SOL    HW219194   0.152   4.316   9.689 -1.3957 -0.4499 -0.2385
 2578SOL     OW19195   1.237   3.144   2.940  0.0911  0.3048 -0.0718
 2578SOL    HW119196   1.181   3.156   3.016 -1.1771  3.7225 -1.5818
 2578SOL    HW219197   1.321   3.171   2.977 -0.6165 -0.2770  2.0065
 2579SOL     OW19198   2.850   4.308   7.574 -0.7299 -0.0513  0.2135
 2579SOL    HW119199   2.763   4.343   7.558 -0.6167 -0.2602 -0.8455
 2579SOL    HW219200   2.846   4.296   7.669 -1.0611  0.8540  0.3195
 2580SOL     OW19201   3.783   1.189  10.160  0.2044 -0.2778 -0.2327
 2580SOL    HW119202   3.702   1.236  10.178 -0.2832 -2.8928  4.4246
 2580SOL    HW219203   3.810   1.247  10.089  0.2624  0.8698  0.7209
 2581SOL     OW19204   3.593   0.561  15.419  0.2730 -0.0211  0.1383
 2581SOL    HW119205   3.570   0.651  15.398  3.8791  0.3434 -2.2632
 2581SOL    HW219206   3.619   0.577  15.510  1.1387  2.0455 -0.4774
 2582SOL     OW19207   3.851   3.778   6.407 -0.6059 -0.2984 -0.4507
 2582SOL    HW119208   3.920   3.844   6.406 -0.3096 -0.5746  1.0819
 2582SOL    HW219209   3.901   3.697   6.419  0.1794  0.2165 -0.2316
 2583SOL     OW19210   2.928   0.639   4.717  0.2063  0.2522  0.4430
 2583SOL    HW119211   2.965   0.629   4.805 -0.1613 -0.2453  0.5386
 2583SOL    HW219212   2.842   0.664   4.749 -0.3352  0.7685 -1.4246
 2584SOL     OW19213   0.943   2.213   8.057 -0.1833  0.4512 -0.1474
 2584SOL    HW119214   1.021   2.267   8.068 -1.0718  1.4652  1.1220
 2584SOL    HW219215   0.987   2.132   8.080  0.8706  0.6654 -1.4657
 2585SOL     OW19216   1.783   2.939  11.317  0.2789  0.8232 -0.3282
 2585SOL    HW119217   1.697   2.908  11.293  0.4930 -0.0164  0.0070
 2585SOL    HW219218   1.754   3.009  11.375  2.9509  1.8801 -0.2494
 2586SOL     OW19219   0.011   2.212  14.736 -0.2187  0.1024  0.1974
 2586SOL    HW119220   4.708   2.125  14.706  0.6040 -0.0930  0.0911
 2586SOL    HW219221   0.095   2.203  14.780 -0.9241  0.8374  1.7004
 2587SOL     OW19222   0.113   1.029   6.519 -0.3790  0.1518 -0.1984
 2587SOL    HW119223   0.029   1.020   6.564 -0.1803 -0.0686  0.1219
 2587SOL    HW219224   0.114   1.124   6.505 -0.4174  0.0347 -0.9768
 2588SOL     OW19225   3.306   3.512   0.508 -0.0624  0.3170  0.2369
 2588SOL    HW119226   3.369   3.444   0.532 -0.4696  0.0230  0.4965
 2588SOL    HW219227   3.295   3.492   0.415  1.2715  0.1105  0.1295
 2589SOL     OW19228   3.380   3.947   6.352  0.2425  0.2484 -0.7285
 2589SOL    HW119229   3.336   4.032   6.355 -1.6323 -0.7718  0.6927
 2589SOL    HW219230   3.417   3.953   6.440 -2.8519 -2.5056  0.7573
 2590SOL     OW19231   3.211   1.609   1.608 -0.4639  0.3541 -0.5663
 2590SOL    HW119232   3.169   1.606   1.522 -0.3588  0.3448 -0.6169
 2590SOL    HW219233   3.299   1.581   1.586  0.8788  3.2722  0.9847
 2591SOL     OW19234   0.242   1.655   9.364 -0.0189 -0.1462  0.5696
 2591SOL    HW119235   0.288   1.574   9.342  0.1571  0.1486 -0.1599
 2591SOL    HW219236   0.216   1.632   9.453  2.2794 -1.0874  1.0136
 2592SOL     OW19237   0.885   3.106  14.280 -0.3390 -0.0166  0.1773
 2592SOL    HW119238   0.896   3.199  14.263 -2.7648  0.2973  0.2910
 2592SOL    HW219239   0.904   3.099  14.373  2.6346 -2.0237 -0.5984
 2593SOL     OW19240   4.492   0.355  12.363 -0.3941  0.0266 -0.3102
 2593SOL    HW119241   4.467   0.309  12.283  1.4250 -1.9840  0.2783
 2593SOL    HW219242   4.518   0.442  12.333 -2.0406  0.6403  0.0285
 2594SOL     OW19243   2.246   2.881   5.066  0.0543  0.3594  0.2600
 2594SOL    HW119244   2.169   2.929   5.033 -0.0400 -0.8593 -1.2909
 2594SOL    HW219245   2.204   2.834   5.138 -1.1010 -0.3410 -0.8707
 2595SOL     OW19246   2.140   2.543   4.005  0.2197 -0.3613 -0.0269
 2595SOL    HW119247   2.133   2.450   4.029  0.6045 -0.3191  0.2545
 2595SOL    HW219248   2.126   2.551   3.911 -1.4996 -0.8225  0.2011
 2596SOL     OW19249   3.087   1.055   8.237 -0.3122  0.4775  0.7389
 2596SOL    HW119250   3.146   1.099   8.176  0.3759 -1.0387  0.3147
 2596SOL    HW219251   3.073   0.968   8.200  0.7011  0.8663 -0.5432
 2597SOL     OW19252   1.662   0.312   3.124 -0.2007 -0.1150  0.5069
 2597SOL    HW119253   1.622   0.338   3.208  0.8681  0.2566  0.8932
 2597SOL    HW219254   1.708   0.235   3.159  2.2129  0.9258 -0.4154
 2598SOL     OW19255   2.703   3.609   8.878 -0.5411  0.1538 -0.7934
 2598SOL    HW119256   2.668   3.535   8.928 -1.2981  0.6617 -0.5575
 2598SOL    HW219257   2.644   3.675   8.915  0.7994  0.8051  0.1633
 2599SOL     OW19258   0.276   2.536  16.999  0.3616 -0.4552  0.0502
 2599SOL    HW119259   0.368   2.560  17.002  0.2528 -0.1597  0.8996
 2599SOL    HW219260   0.249   2.593  16.927 -0.3750 -2.0504 -0.9528
 2600SOL     OW19261   2.876   4.036   6.124  0.0651 -0.2648 -0.5428
 2600SOL    HW119262   2.844   4.099   6.189 -1.4949 -0.2913 -1.2735
 2600SOL    HW219263   2.845   4.077   6.043  0.1728 -0.9834 -0.9449
 2601SOL     OW19264   3.002   2.243   6.171  0.9219 -0.3214 -0.0468
 2601SOL    HW119265   2.908   2.258   6.171  1.1670  1.2714 -3.2401
 2601SOL    HW219266   3.023   2.229   6.263  2.2514  0.2723 -0.2511
 2602SOL     OW19267   1.117   2.415  16.147 -0.2770 -0.0115  0.5205
 2602SOL    HW119268   1.147   2.496  16.107  0.3675 -1.1557 -1.3335
 2602SOL    HW219269   1.032   2.402  16.105 -0.7454 -1.0871  1.7928
 2603SOL     OW19270   2.397   2.210   4.385 -0.0515  0.5650  0.2038
 2603SOL    HW119271   2.422   2.192   4.294  2.1793  0.0196  0.9305
 2603SOL    HW219272   2.480   2.202   4.431 -0.7955 -1.3751  1.2221
 2604SOL     OW19273   1.955   3.636  12.519  0.2127  0.3375 -0.3671
 2604SOL    HW119274   2.024   3.628  12.453  0.1099 -0.7164 -0.3441
 2604SOL    HW219275   1.886   3.572  12.505 -0.7380  1.1762  0.5250
 2605SOL     OW19276   1.346   1.212  13.138  0.1984  0.1463  0.0086
 2605SOL    HW119277   1.406   1.286  13.129 -0.9675  0.7772 -2.3662
 2605SOL    HW219278   1.283   1.240  13.204 -0.1854  0.6015 -0.5584
 2606SOL     OW19279   1.723   2.458   5.953 -0.4026 -0.0201 -0.5550
 2606SOL    HW119280   1.727   2.473   5.859  2.0829 -1.9240 -0.7565
 2606SOL    HW219281   1.780   2.533   5.969 -0.7892  0.6815 -2.5171
 2607SOL     OW19282   2.886   1.910   8.362 -0.0753  0.5540 -0.5280
 2607SOL    HW119283   2.887   1.824   8.319  2.2926 -0.5034  1.6658
 2607SOL    HW219284   2.913   1.884   8.450 -2.4226 -1.6557 -0.4405
 2608SOL     OW19285   4.230   0.538   5.302  0.5141 -0.2045 -0.4016
 2608SOL    HW119286   4.246   0.529   5.395 -1.6722  0.3385  0.0457
 2608SOL    HW219287   4.249   0.632   5.299 -0.3147 -0.0480 -0.9271
 2609SOL     OW19288   0.314   1.724   7.887 -0.3836 -0.1741 -0.1205
 2609SOL    HW119289   0.289   1.775   7.810 -2.3425  1.0887  1.3668
 2609SOL    HW219290   0.247   1.657   7.897 -0.4981 -0.0945 -0.3611
 2610SOL     OW19291   3.729   3.498   1.473  0.3090  0.7415 -0.2920
 2610SOL    HW119292   3.649   3.458   1.506  0.7318  0.5350  0.4874
 2610SOL    HW219293   3.712   3.498   1.379 -2.2377 -1.4420  0.1919
 2611SOL     OW19294   0.071   2.308   8.348  0.2858  0.1323  0.4275
 2611SOL    HW119295   0.057   2.214   8.336 -0.9323  0.5739 -1.5584
 2611SOL    HW219296   0.113   2.312   8.434  0.1695 -0.0101  0.4923
 2612SOL     OW19297   3.139   1.375   2.569  0.5946  0.3625 -0.1720
 2612SOL    HW119298   3.229   1.344   2.560  0.3785 -0.0750 -0.8199
 2612SOL    HW219299   3.127   1.384   2.664 -0.4169 -1.1721 -0.1398
 2613SOL     OW19300   2.911   2.568  16.443  0.0502  0.3799 -0.6400
 2613SOL    HW119301   2.987   2.613  16.405 -0.9598  1.5665 -1.2810
 2613SOL    HW219302   2.947   2.480  16.445  0.2565  0.5416  2.8146
 2614SOL     OW19303   0.677   3.594   0.411  0.8317  0.2682  0.2779
 2614SOL    HW119304   0.742   3.599   0.482  1.5620  0.7198 -0.4169
 2614SOL    HW219305   0.604   3.562   0.463  1.5987 -2.7223 -0.4979
 2615SOL     OW19306   4.154   2.975   2.890  0.3759  0.7496  0.4901
 2615SOL    HW119307   4.101   2.905   2.928  1.3650  0.5749  1.5719
 2615SOL    HW219308   4.224   2.994   2.953 -0.0657  1.6095  0.7172
 2616SOL     OW19309   0.277   2.756   2.520 -0.1403  0.2367 -0.7310
 2616SOL    HW119310   0.251   2.682   2.465 -0.6469  1.1574 -1.7311
 2616SOL    HW219311   0.192   2.763   2.563  0.6919 -1.3598  1.1562
 2617SOL     OW19312   2.425   0.143  16.134 -0.0590 -0.2963 -0.8304
 2617SOL    HW119313   2.437   0.049  16.151  3.2842  0.2751  0.1311
 2617SOL    HW219314   2.493   0.157  16.068  0.2714 -0.3005 -0.4936
 2618SOL     OW19315   0.641   0.616   5.617 -0.1196  0.2015 -0.1266
 2618SOL    HW119316   0.692   0.664   5.683 -0.8537  0.7015  0.0788
 2618SOL    HW219317   0.642   0.682   5.547  1.3356 -0.8098 -1.0485
 2619SOL     OW19318   0.566   4.270   4.421  0.8487  0.2566  0.0112
 2619SOL    HW119319   0.472   4.276   4.403  0.5742 -1.6469  0.8264
 2619SOL    HW219320   0.571   4.188   4.470  1.3233  0.2474 -0.0531
 2620SOL     OW19321   4.408   0.975   7.027 -0.3000 -0.0733 -0.4790
 2620SOL    HW119322   4.389   1.024   7.107  0.4571 -1.3360  0.4725
 2620SOL    HW219323   4.490   1.019   7.007  0.3187 -0.8274  0.4283
 2621SOL     OW19324   4.676   2.988   5.201 -0.2555 -0.5329 -0.1489
 2621SOL    HW119325   4.641   3.063   5.248  0.8191  0.1508 -0.4288
 2621SOL    HW219326   0.045   2.986   5.232  0.1834  1.4496 -1.2992
 2622SOL     OW19327   1.140   1.500   4.846  0.3658 -0.0929 -0.3327
 2622SOL    HW119328   1.057   1.477   4.887  1.5772 -0.0282  2.1844
 2622SOL    HW219329   1.148   1.419   4.796  1.1945 -1.7283  2.4612
 2623SOL     OW19330   0.497   4.471  16.705 -0.4345  0.3996 -0.2894
 2623SOL    HW119331   0.490   4.468  16.609  0.9919 -0.2354 -0.3618
 2623SOL    HW219332   0.422   4.413  16.721 -0.7415  1.1975  1.1694
 2624SOL     OW19333   0.792   3.288   1.847 -0.1748 -0.0370 -0.4940
 2624SOL    HW119334   0.726   3.230   1.809  0.8795 -1.4503 -0.1743
 2624SOL    HW219335   0.736   3.358   1.879 -0.3053 -0.2613 -0.2301
 2625SOL     OW19336   0.038   3.052   4.889 -0.2060 -0.3304 -0.1254
 2625SOL    HW119337   0.002   3.082   4.972  0.8201 -0.1678  0.2548
 2625SOL    HW219338   0.028   2.958   4.903  0.1350 -0.1165  1.5040
 2626SOL     OW19339   0.633   0.226  15.544  0.1952  0.3175 -0.0026
 2626SOL    HW119340   0.597   0.163  15.481  1.9271  1.2886 -1.9963
 2626SOL    HW219341   0.583   0.304  15.523  2.0130  1.5918  0.4336
 2627SOL     OW19342   2.426   0.343   2.601  0.2461 -0.2817  0.2264
 2627SOL    HW119343   2.384   0.427   2.618 -0.6979 -0.7084  0.0028
 2627SOL    HW219344   2.351   0.286   2.584 -1.3669  1.5023  1.3357
 2628SOL     OW19345   2.361   1.428  15.225 -0.5418 -0.0316  0.2375
 2628SOL    HW119346   2.375   1.334  15.233  0.5996  0.1412  0.2128
 2628SOL    HW219347   2.434   1.464  15.274 -0.6340  0.7875 -0.2311
 2629SOL     OW19348   1.654   1.562   2.237  0.2407  0.0253 -1.3718
 2629SOL    HW119349   1.720   1.631   2.230 -0.3167  0.5667 -1.2737
 2629SOL    HW219350   1.589   1.615   2.282  0.9195  0.1107 -0.4868
 2630SOL     OW19351   3.685   4.601   4.334  0.3625  0.2658  0.2062
 2630SOL    HW119352   3.699   4.695   4.326  0.8966  0.1193 -0.6047
 2630SOL    HW219353   3.661   4.593   4.426  1.8605 -1.1960  0.4652
 2631SOL     OW19354   3.626   0.349   0.594  0.5150  0.0629  0.1032
 2631SOL    HW119355   3.541   0.320   0.627 -0.2291  1.4206 -0.6285
 2631SOL    HW219356   3.623   0.443   0.616 -0.2966  0.1505 -0.3731
 2632SOL     OW19357   2.976   4.664  10.248 -0.2348 -0.1180 -0.2800
 2632SOL    HW119358   3.032   4.669  10.325  1.2676  0.7488 -1.4333
 2632SOL    HW219359   3.021   4.718  10.183 -4.2545  2.1785 -1.1538
 2633SOL     OW19360   0.374   3.934  14.170 -0.5184 -0.0421  0.0485
 2633SOL    HW119361   0.429   3.922  14.092 -0.8654  0.8539 -0.3328
 2633SOL    HW219362   0.403   4.023  14.188  0.7148 -0.5600  0.6821
 2634SOL     OW19363   2.137   2.110  15.395 -0.8326 -0.3523  0.1314
 2634SOL    HW119364   2.153   2.147  15.309 -0.8909 -0.9018 -0.1160
 2634SOL    HW219365   2.227   2.092  15.423 -0.0618  2.8017 -0.3700
 2635SOL     OW19366   2.017   2.754   4.152  0.1840 -0.3344  0.0015
 2635SOL    HW119367   1.939   2.703   4.176 -0.1056 -0.5663 -1.4231
 2635SOL    HW219368   2.063   2.691   4.096 -0.2027  2.2695 -3.2499
 2636SOL     OW19369   0.888   1.515  15.309 -0.1690  0.1713 -0.7021
 2636SOL    HW119370   0.962   1.561  15.270  0.5391 -1.2621 -1.0360
 2636SOL    HW219371   0.817   1.578  15.294 -0.6695  0.1469  1.6124
 2637SOL     OW19372   1.942   0.805   2.060 -0.2960  0.4565 -0.2936
 2637SOL    HW119373   1.903   0.891   2.077 -2.1419 -0.5283  0.3818
 2637SOL    HW219374   1.873   0.742   2.077  1.1158  0.0958  4.0048
 2638SOL     OW19375   3.645   2.774   4.114  0.2473  0.0501 -0.4863
 2638SOL    HW119376   3.721   2.826   4.091  0.5465 -0.4345 -0.5822
 2638SOL    HW219377   3.655   2.783   4.209  2.5371  2.5425 -0.9611
 2639SOL     OW19378   4.305   0.483  15.787 -0.1517 -0.6434  0.5168
 2639SOL    HW119379   4.399   0.490  15.805 -0.0450 -2.2623  0.5387
 2639SOL    HW219380   4.297   0.388  15.796 -1.2835 -0.7370 -1.3424
 2640SOL     OW19381   4.588   1.555   7.755  0.3218  0.5503 -0.0733
 2640SOL    HW119382   4.526   1.600   7.812 -1.1699 -3.5932  1.5845
 2640SOL    HW219383   4.543   1.573   7.672 -1.5013 -0.4004  0.7168
 2641SOL     OW19384   2.247   2.660   1.657 -0.2810  0.0494  0.4310
 2641SOL    HW119385   2.200   2.742   1.672 -0.7414 -0.2181  0.4348
 2641SOL    HW219386   2.274   2.683   1.568  1.4224 -0.6573  0.7596
 2642SOL     OW19387   4.315   2.817   3.558 -0.1592 -0.6426  0.0100
 2642SOL    HW119388   4.354   2.734   3.529  1.7695 -1.0681  3.8304
 2642SOL    HW219389   4.392   2.862   3.593 -0.6502 -0.5377  0.9360
 2643SOL     OW19390   3.936   0.682  13.218  0.1733 -0.2609 -0.0835
 2643SOL    HW119391   3.918   0.646  13.305 -1.6698  1.6326  0.3445
 2643SOL    HW219392   4.001   0.622  13.182  1.1709  1.5644 -1.3601
 2644SOL     OW19393   0.843   0.763  11.518 -0.0183  0.2703  0.1277
 2644SOL    HW119394   0.811   0.813  11.443 -2.5132  0.7141  1.4868
 2644SOL    HW219395   0.866   0.682  11.472 -2.1098 -0.9657  1.2699
 2645SOL     OW19396   4.002   0.033   0.162 -0.5148  0.3733 -0.1883
 2645SOL    HW119397   3.978   0.091   0.234  3.3982  0.1229  1.3251
 2645SOL    HW219398   4.073   4.710   0.208 -1.8847 -0.8315  0.7608
 2646SOL     OW19399   0.525   3.872   7.857  0.3869  0.4118 -0.4704
 2646SOL    HW119400   0.588   3.923   7.805 -2.2775  1.0994 -3.0068
 2646SOL    HW219401   0.442   3.908   7.825  0.8014  0.9770 -0.9199
 2647SOL     OW19402   2.313   3.068  16.522  0.4521  0.7496  0.0594
 2647SOL    HW119403   2.293   3.161  16.533 -0.1348  0.4554  1.5128
 2647SOL    HW219404   2.377   3.065  16.451 -1.0319 -2.8190 -1.1440
 2648SOL     OW19405   3.531   0.308   8.153  0.3406 -0.3391 -0.0483
 2648SOL    HW119406   3.612   0.336   8.195 -0.5677  1.3980  0.5269
 2648SOL    HW219407   3.487   0.389   8.130  0.6531  0.2830  1.5720
 2649SOL     OW19408   1.284   4.593   7.845 -0.2867  0.0349  0.4460
 2649SOL    HW119409   1.292   4.623   7.755  2.8196  2.7702  1.6291
 2649SOL    HW219410   1.190   4.598   7.861 -0.2945 -1.0186  0.7661
 2650SOL     OW19411   2.759   1.804   7.486  0.3471  0.0959  0.1846
 2650SOL    HW119412   2.789   1.861   7.415  2.4421 -0.4205  0.6558
 2650SOL    HW219413   2.721   1.738   7.428  0.3130 -0.1755  0.5214
 2651SOL     OW19414   1.156   3.601   4.095  0.0791  0.2514 -0.1673
 2651SOL    HW119415   1.106   3.535   4.047 -0.8966  1.6546 -1.0967
 2651SOL    HW219416   1.175   3.674   4.035  0.3770 -0.4837 -0.9611
 2652SOL     OW19417   1.802   3.101   9.402  0.0680 -0.0084  0.1195
 2652SOL    HW119418   1.870   3.054   9.451  1.8678  2.4579 -0.0320
 2652SOL    HW219419   1.835   3.191   9.401  0.1665 -0.0442  0.0924
 2653SOL     OW19420   3.933   2.712  10.071 -0.0578  0.1037  0.1139
 2653SOL    HW119421   3.997   2.689  10.004 -0.4267 -1.4591  0.2877
 2653SOL    HW219422   3.864   2.647  10.055 -0.1520 -0.1543  1.5645
 2654SOL     OW19423   4.631   4.174   0.111 -0.6855  0.2990  0.2918
 2654SOL    HW119424   4.697   4.235   0.144 -0.8808  1.2036 -0.9925
 2654SOL    HW219425   4.678   4.123   0.045  1.4192  2.3198  0.2025
 2655SOL     OW19426   4.524   1.649   7.060  0.2682 -0.1582 -1.0291
 2655SOL    HW119427   4.466   1.725   7.063  2.3164  1.3620  0.6270
 2655SOL    HW219428   4.591   1.674   7.125 -0.2493  0.1262 -0.6048
 2656SOL     OW19429   3.174   2.562  16.129 -0.1117 -0.3225 -0.0473
 2656SOL    HW119430   3.236   2.501  16.168 -0.6410 -1.5171 -1.0240
 2656SOL    HW219431   3.190   2.535  16.038 -0.9640  3.1994 -1.2216
 2657SOL     OW19432   1.486   3.522   3.586 -0.2722 -0.3518  0.0423
 2657SOL    HW119433   1.529   3.546   3.668  0.3219  0.6059 -0.5498
 2657SOL    HW219434   1.502   3.601   3.534  0.2871 -0.4164  0.1241
 2658SOL     OW19435   1.908   1.379   3.765  0.6887  0.3269 -0.3624
 2658SOL    HW119436   1.870   1.351   3.681 -0.7093  1.7834 -0.2310
 2658SOL    HW219437   1.825   1.390   3.811  1.4094 -0.7364  1.1687
 2659SOL     OW19438   0.390   0.579   4.212 -0.2716 -0.3727 -0.1095
 2659SOL    HW119439   0.303   0.559   4.179  0.1354 -2.7572  0.2985
 2659SOL    HW219440   0.404   0.502   4.266 -2.1629  0.6985  1.8874
 2660SOL     OW19441   1.907   2.450  12.396  0.3445  0.0295 -0.2248
 2660SOL    HW119442   1.828   2.501  12.384  0.9769  1.0439 -0.0630
 2660SOL    HW219443   1.966   2.479  12.326  1.1457  0.0140  0.4425
 2661SOL     OW19444   0.285   3.862   5.703  0.2204 -0.1037 -0.0418
 2661SOL    HW119445   0.276   3.827   5.792  0.5286 -3.0112 -1.1739
 2661SOL    HW219446   0.262   3.954   5.715 -2.8006 -0.9528  0.8614
 2662SOL     OW19447   0.423   3.370  11.785 -0.4933  0.0486  0.5349
 2662SOL    HW119448   0.491   3.436  11.795 -1.2157  1.0167 -0.7848
 2662SOL    HW219449   0.439   3.349  11.693 -0.5096 -0.0807  0.5614
 2663SOL     OW19450   1.518   1.014   7.390 -0.7659 -0.6350  0.0636
 2663SOL    HW119451   1.498   1.089   7.334 -2.5372  0.6606  2.4394
 2663SOL    HW219452   1.609   1.033   7.412 -0.5066 -3.3432  1.3099
 2664SOL     OW19453   0.913   2.879   5.297  0.0751 -0.2987  0.6333
 2664SOL    HW119454   0.935   2.904   5.207 -0.5873  0.5195  0.7062
 2664SOL    HW219455   0.824   2.913   5.297  0.1233 -0.1823  2.5165
 2665SOL     OW19456   2.810   0.388   2.542  0.7260 -0.2540  0.7621
 2665SOL    HW119457   2.786   0.344   2.461  0.7879 -1.6661  1.5067
 2665SOL    HW219458   2.868   0.459   2.514 -1.4687  0.3807 -2.2062
 2666SOL     OW19459   2.776   0.362   6.073 -1.0522  0.0236 -0.2122
 2666SOL    HW119460   2.686   0.333   6.057 -0.9289 -0.1074 -0.6579
 2666SOL    HW219461   2.755   0.439   6.125 -1.1596 -0.7713  0.9179
 2667SOL     OW19462   0.721   1.879  13.586  0.4322  0.1979 -0.0352
 2667SOL    HW119463   0.671   1.818  13.533 -3.1061  2.3184  0.8515
 2667SOL    HW219464   0.651   1.913  13.643  0.8794 -0.5938  1.0024
 2668SOL     OW19465   1.496   3.115  17.051 -0.1294  0.1343  0.2975
 2668SOL    HW119466   1.499   3.209  17.069  1.7625  0.1491 -0.0492
 2668SOL    HW219467   1.425   3.104  16.988 -0.3507 -0.3294  0.6336
 2669SOL     OW19468   3.569   1.039   3.969 -0.4234  0.3947  0.5153
 2669SOL    HW119469   3.600   1.112   4.024 -1.7773 -0.5191  2.5023
 2669SOL    HW219470   3.565   1.082   3.884 -2.7454 -1.2424 -0.1957
 2670SOL     OW19471   4.040   1.954   3.518 -0.1601 -0.4287 -0.1662
 2670SOL    HW119472   3.992   2.037   3.524  2.1780  0.7396  2.9565
 2670SOL    HW219473   3.984   1.886   3.554 -0.4176 -2.5080 -4.5372
 2671SOL     OW19474   4.161   4.285  12.319  0.1685 -0.0691 -0.1160
 2671SOL    HW119475   4.091   4.275  12.255  0.7085  2.4958 -1.1134
 2671SOL    HW219476   4.217   4.217  12.281 -0.6224 -0.5237 -0.4514
 2672SOL     OW19477   2.162   3.202   8.321  0.7729 -0.8241 -0.1908
 2672SOL    HW119478   2.210   3.150   8.386  0.2390 -0.2523  0.6706
 2672SOL    HW219479   2.078   3.156   8.322  0.3795 -0.0826  1.2457
 2673SOL     OW19480   3.883   3.341   3.996  0.0297 -0.1494  0.3347
 2673SOL    HW119481   3.912   3.411   4.054 -2.1872  0.1823  1.0326
 2673SOL    HW219482   3.937   3.357   3.918  2.3128  0.9110  2.1328
 2674SOL     OW19483   1.114   0.333   5.035  0.4236 -0.2717 -0.7241
 2674SOL    HW119484   1.160   0.274   5.095 -1.1101 -0.8910 -0.1730
 2674SOL    HW219485   1.187   0.366   4.983  0.9520 -0.4993 -0.1233
 2675SOL     OW19486   1.817   2.785   8.531  0.2376 -0.3580 -0.2798
 2675SOL    HW119487   1.819   2.778   8.436 -1.6441  1.6263 -0.4608
 2675SOL    HW219488   1.813   2.879   8.548 -0.6164 -0.3873 -0.3539
 2676SOL     OW19489   1.797   4.528   8.450  0.2346 -0.1510  0.7081
 2676SOL    HW119490   1.885   4.521   8.486  0.4826  0.7794  0.2717
 2676SOL    HW219491   1.794   4.621   8.429 -0.7023 -0.6561 -1.4303
 2677SOL     OW19492   2.268   0.180   6.816 -0.1690  0.0450 -0.6190
 2677SOL    HW119493   2.189   0.169   6.763 -0.1864 -0.7249 -0.4451
 2677SOL    HW219494   2.286   0.273   6.810 -2.3500  0.3953 -1.7767
 2678SOL     OW19495   1.090   3.893   5.219 -0.1690 -0.2892 -0.1790
 2678SOL    HW119496   0.998   3.907   5.194 -0.3336  1.2306  1.3129
 2678SOL    HW219497   1.083   3.879   5.313 -0.2232 -1.0900 -0.3036
 2679SOL     OW19498   2.788   3.612  11.087  0.2389 -0.0154  0.0516
 2679SOL    HW119499   2.774   3.558  11.165  1.1729 -2.3501 -1.3769
 2679SOL    HW219500   2.698   3.643  11.095  0.0317 -0.4274 -0.6462
 2680SOL     OW19501   1.425   2.473   8.560  0.9913 -0.2392  0.1227
 2680SOL    HW119502   1.378   2.454   8.479 -0.9476  0.3603  1.1120
 2680SOL    HW219503   1.393   2.559   8.590  2.4871 -0.5985  2.7508
 2681SOL     OW19504   2.928   3.479  12.450 -0.7060  0.3435 -0.5537
 2681SOL    HW119505   2.969   3.412  12.395  0.9465  1.6731 -0.9315
 2681SOL    HW219506   2.969   3.555  12.408  0.9350  0.2133  0.8183
 2682SOL     OW19507   0.839   3.604   3.195  0.2456 -0.0065  0.2020
 2682SOL    HW119508   0.864   3.598   3.103 -1.9194  0.0851 -0.3966
 2682SOL    HW219509   0.924   3.632   3.230  1.1553 -1.8665 -0.5411
 2683SOL     OW19510   1.652   4.538  15.100  0.1188 -0.4247  0.1491
 2683SOL    HW119511   1.620   4.505  15.016  0.1867  0.3826 -0.1946
 2683SOL    HW219512   1.707   4.466  15.132  1.2566  1.0328  1.5035
 2684SOL     OW19513   3.209   1.693   5.422  0.5260 -0.5049 -0.3137
 2684SOL    HW119514   3.245   1.613   5.383 -1.8702 -1.8879  0.3168
 2684SOL    HW219515   3.294   1.737   5.414  0.7244 -1.0073 -0.9579
 2685SOL     OW19516   1.189   1.850   8.760  0.1349  0.2064  0.7986
 2685SOL    HW119517   1.231   1.805   8.834 -0.4783 -0.0844  0.9716
 2685SOL    HW219518   1.136   1.778   8.724  2.8048 -1.9249  1.1193
 2686SOL     OW19519   0.747   3.018   7.648 -0.8378  0.5274  0.4603
 2686SOL    HW119520   0.732   3.103   7.690 -0.8692  0.5845  0.3342
 2686SOL    HW219521   0.794   3.047   7.569 -0.7277  0.2482  0.4259
 2687SOL     OW19522   4.258   2.603  14.391 -0.6688 -0.0331 -0.0160
 2687SOL    HW119523   4.294   2.579  14.477  0.8851  3.2928  0.2743
 2687SOL    HW219524   4.331   2.653  14.355  0.0276  0.0198  1.4428
 2688SOL     OW19525   4.292   4.517   2.168 -0.0699 -0.5491  0.2039
 2688SOL    HW119526   4.207   4.474   2.179  0.0395 -0.5993  0.8166
 2688SOL    HW219527   4.348   4.439   2.165  0.4323 -0.1927  0.2925
 2689SOL     OW19528   1.893   2.362   3.888  1.2736  0.0386 -0.2345
 2689SOL    HW119529   1.853   2.328   3.808  0.6604  1.6659 -0.6188
 2689SOL    HW219530   1.927   2.286   3.935  0.3922  0.8122  1.6458
 2690SOL     OW19531   0.855   3.118   6.729  0.3852  0.1395 -0.1021
 2690SOL    HW119532   0.891   3.064   6.800  1.3022  1.8042  0.7001
 2690SOL    HW219533   0.793   3.164   6.785  0.3244  0.8114 -0.7258
 2691SOL     OW19534   0.246   0.454   8.327  0.1657  0.2716 -0.3960
 2691SOL    HW119535   0.258   0.373   8.376  1.0411  0.4722 -0.2769
 2691SOL    HW219536   0.326   0.435   8.278  0.3501  2.8412 -1.0736
 2692SOL     OW19537   1.745   1.223   7.620  0.6690  0.4249 -0.2391
 2692SOL    HW119538   1.806   1.261   7.557 -0.0135 -1.6759 -2.1269
 2692SOL    HW219539   1.804   1.169   7.673 -1.3423 -1.7232 -0.2007
 2693SOL     OW19540   3.392   4.140   8.500 -0.2212  0.4809 -0.4618
 2693SOL    HW119541   3.348   4.061   8.529 -3.1540  1.7740 -1.3708
 2693SOL    HW219542   3.473   4.099   8.469  0.1043 -0.5869  1.8716
 2694SOL     OW19543   2.645   1.625   8.579  0.3311  0.6762 -0.6904
 2694SOL    HW119544   2.631   1.719   8.578 -1.7208  0.3750 -0.6123
 2694SOL    HW219545   2.738   1.617   8.599  0.9812  1.3814 -3.4750
 2695SOL     OW19546   1.686   0.873   8.295 -0.6513  0.4422 -0.5323
 2695SOL    HW119547   1.634   0.848   8.219 -2.6764  0.3009  0.8854
 2695SOL    HW219548   1.673   0.805   8.361  0.3037  1.1075  0.3412
 2696SOL     OW19549   0.169   3.614   0.584  0.0191 -0.7067 -0.1636
 2696SOL    HW119550   0.123   3.538   0.622  1.2016 -0.6218  1.4611
 2696SOL    HW219551   0.198   3.663   0.661  3.4993  1.0323 -2.6268
 2697SOL     OW19552   1.464   2.942   3.158 -0.1442 -0.4625  0.5902
 2697SOL    HW119553   1.429   2.894   3.233 -0.3765  0.5756  1.1362
 2697SOL    HW219554   1.426   2.887   3.089 -0.7343  1.1608 -0.3649
 2698SOL     OW19555   3.421   1.881   5.003 -0.0350 -0.2801  0.2112
 2698SOL    HW119556   3.344   1.911   5.050 -0.1529  1.3048 -1.0181
 2698SOL    HW219557   3.457   1.811   5.058 -0.1012  0.1110  0.7491
 2699SOL     OW19558   0.003   0.047  11.462  0.3512 -0.1076  0.3344
 2699SOL    HW119559   4.681   0.126  11.494 -0.3548 -0.4901  0.3176
 2699SOL    HW219560   4.695   0.051  11.371  0.1060 -1.1325  0.3688
 2700SOL     OW19561   2.392   2.312   1.667  0.1929  0.1627  0.3098
 2700SOL    HW119562   2.411   2.251   1.738  2.6227  0.1127 -0.3955
 2700SOL    HW219563   2.442   2.267   1.599 -0.6210  3.6766 -2.6512
 2701SOL     OW19564   3.649   3.380   5.169 -0.3249  0.6003 -0.1030
 2701SOL    HW119565   3.681   3.465   5.138  1.2088  0.7969  2.0544
 2701SOL    HW219566   3.732   3.345   5.201 -1.5480 -1.7298  0.5427
 2702SOL     OW19567   2.515   3.387  15.776 -0.1863 -0.2314  0.4124
 2702SOL    HW119568   2.558   3.436  15.846  0.0122  0.5142 -0.2345
 2702SOL    HW219569   2.480   3.311  15.823  0.2055 -1.3328 -1.0821
 2703SOL     OW19570   1.005   0.610   2.815 -0.6986  0.1155 -0.6302
 2703SOL    HW119571   1.032   0.664   2.889 -0.2647 -0.0168 -0.6885
 2703SOL    HW219572   1.044   0.527   2.844 -1.4166  0.3809  1.0794
 2704SOL     OW19573   0.461   0.517   4.918  0.2830 -0.3410 -0.3025
 2704SOL    HW119574   0.372   0.535   4.889  0.8676 -0.9841 -2.5187
 2704SOL    HW219575   0.472   0.589   4.980  1.2773 -1.6575  1.0503
 2705SOL     OW19576   4.645   0.094   5.046  0.0116 -0.3475  0.0860
 2705SOL    HW119577   4.569   0.108   4.990 -0.3744  0.8486  0.9033
 2705SOL    HW219578   4.649   0.186   5.074  0.5124 -0.6845  1.1417
 2706SOL     OW19579   2.279   2.092   8.800 -0.1259  0.0967 -0.7006
 2706SOL    HW119580   2.191   2.086   8.838  1.0999 -1.3371  1.8797
 2706SOL    HW219581   2.331   2.126   8.873 -0.4971  1.9999 -1.3140
 2707SOL     OW19582   1.839   0.035   6.282  0.0757 -0.9761  0.2377
 2707SOL    HW119583   1.914   4.710   6.245  0.6265  0.4571 -0.4656
 2707SOL    HW219584   1.805   0.077   6.204  2.2579  0.7081  0.1989
 2708SOL     OW19585   3.424   1.722  14.001 -0.7765  0.1420  0.2083
 2708SOL    HW119586   3.457   1.699  13.914  0.1798 -1.9435  1.1237
 2708SOL    HW219587   3.333   1.748  13.985 -0.6668 -0.8543 -1.9506
 2709SOL     OW19588   4.011   3.969   5.892 -0.3959 -0.1177 -0.2777
 2709SOL    HW119589   4.066   4.030   5.941 -3.3505  2.2997  0.0127
 2709SOL    HW219590   4.073   3.961   5.819 -1.8688 -0.8324 -1.4353
 2710SOL     OW19591   2.517   3.577   6.802 -0.3043 -0.3382 -0.0131
 2710SOL    HW119592   2.495   3.670   6.806 -2.5411 -0.8411 -0.6059
 2710SOL    HW219593   2.605   3.577   6.766 -0.2415  2.4028  0.1604
 2711SOL     OW19594   2.601   4.208   4.625  0.1682 -0.2942  0.3950
 2711SOL    HW119595   2.646   4.275   4.574  1.9445 -1.4160  0.4799
 2711SOL    HW219596   2.645   4.134   4.583 -1.6134 -1.0171 -0.1935
 2712SOL     OW19597   3.347   1.401   6.970  0.3298  0.4194  0.2505
 2712SOL    HW119598   3.429   1.360   6.946 -0.0375  1.4125 -2.6899
 2712SOL    HW219599   3.361   1.441   7.056 -3.2568  0.2101  0.9489
 2713SOL     OW19600   1.819   1.734  17.365 -0.1691  0.3569 -0.5637
 2713SOL    HW119601   1.857   1.804  17.418 -2.6286  0.5198  0.9993
 2713SOL    HW219602   1.733   1.722  17.406 -0.2956 -2.7598 -1.7209
 2714SOL     OW19603   0.039   1.062  10.759 -0.0253 -0.5613  0.2353
 2714SOL    HW119604   0.048   1.153  10.787 -1.9331  0.0426 -1.1017
 2714SOL    HW219605   0.073   1.064  10.670 -1.2618 -1.5587 -0.2640
 2715SOL     OW19606   1.773   2.939   3.404 -0.2194 -0.1136 -0.1288
 2715SOL    HW119607   1.805   3.025   3.376 -0.3755 -0.3546 -1.0502
 2715SOL    HW219608   1.803   2.935   3.495  0.6214  0.5554 -0.3775
 2716SOL     OW19609   1.270   0.184   2.758 -0.7868  0.0428 -0.0951
 2716SOL    HW119610   1.319   0.109   2.725 -2.6497 -0.5961 -1.4074
 2716SOL    HW219611   1.290   0.251   2.692 -1.4489  0.0258 -0.3122
 2717SOL     OW19612   0.746   0.490   0.066  0.2852 -0.7765  0.0425
 2717SOL    HW119613   0.779   0.464   0.152  0.6396 -1.8301 -0.4166
 2717SOL    HW219614   0.702   0.572   0.087 -2.2955 -2.4759  1.2559
 2718SOL     OW19615   4.220   1.593   1.360 -0.5162 -0.2924  0.1771
 2718SOL    HW119616   4.206   1.636   1.275 -0.0478 -0.2400  0.1306
 2718SOL    HW219617   4.275   1.519   1.333  0.4104  0.4454  0.0550
 2719SOL     OW19618   3.927   2.528   4.312 -0.2457 -0.3854 -0.4154
 2719SOL    HW119619   4.019   2.520   4.339 -2.1284 -2.2718  5.2436
 2719SOL    HW219620   3.885   2.445   4.330  0.2663 -0.2445  1.3675
 2720SOL     OW19621   2.335   1.839   5.136  0.3942  0.0303 -0.2762
 2720SOL    HW119622   2.329   1.855   5.042  0.9592  0.2520 -0.2735
 2720SOL    HW219623   2.425   1.809   5.154  0.9181  2.1343  0.6083
 2721SOL     OW19624   0.001   3.919   3.705  0.5209  0.4453  0.3954
 2721SOL    HW119625   4.653   3.967   3.752  0.0905  0.8563 -0.6710
 2721SOL    HW219626   0.084   3.956   3.736  1.5213 -0.3213 -1.3968
 2722SOL     OW19627   1.236   4.692   4.748 -0.7505  0.0314  0.5535
 2722SOL    HW119628   1.231   0.010   4.661  0.0435 -0.8035  0.1202
 2722SOL    HW219629   1.182   0.034   4.793  0.2639  1.4906 -0.3102
 2723SOL     OW19630   3.040   0.464  13.699  0.0323  0.2639 -0.4319
 2723SOL    HW119631   3.103   0.535  13.708  0.1161  0.1604 -0.2071
 2723SOL    HW219632   3.035   0.456  13.604 -1.8697  0.9560 -0.3821
 2724SOL     OW19633   1.685   3.369   0.804  0.2838  0.2914  0.0992
 2724SOL    HW119634   1.609   3.357   0.747 -1.8863  0.4789  2.9496
 2724SOL    HW219635   1.749   3.350   0.736  0.6513 -0.6096  0.7080
 2725SOL     OW19636   4.644   2.534   8.752 -0.1277  0.3988 -0.4596
 2725SOL    HW119637   4.636   2.465   8.818  0.4512  1.3160  0.5696
 2725SOL    HW219638   4.565   2.519   8.701  0.3033 -1.3512 -0.6177
 2726SOL     OW19639   3.815   2.942   2.342 -0.0487  0.5178 -0.0957
 2726SOL    HW119640   3.871   2.869   2.369 -0.1028  0.0313 -1.3240
 2726SOL    HW219641   3.885   3.001   2.314 -1.1883  0.9833 -1.9661
 2727SOL     OW19642   0.153   2.476  11.886 -1.2180  0.2374 -0.5448
 2727SOL    HW119643   0.069   2.429  11.886 -1.8931  1.4873 -2.6613
 2727SOL    HW219644   0.214   2.414  11.846 -3.2140 -2.9267  1.2570
 2728SOL     OW19645   1.844   4.376   5.095  0.1195 -0.1014 -0.4622
 2728SOL    HW119646   1.892   4.456   5.113 -1.2358  0.4346  0.7695
 2728SOL    HW219647   1.773   4.389   5.157  0.1831  0.2499 -0.4675
 2729SOL     OW19648   3.104   1.252   9.505  0.0490  0.3535  0.2680
 2729SOL    HW119649   3.118   1.197   9.582  0.8504 -0.9108 -0.7793
 2729SOL    HW219650   3.091   1.183   9.440  2.1186  0.2953 -0.0676
 2730SOL     OW19651   1.172   0.515  15.323 -0.2901 -0.2443  0.3559
 2730SOL    HW119652   1.159   0.533  15.230 -0.0536  0.7036  0.5040
 2730SOL    HW219653   1.210   0.427  15.324 -2.7828 -1.3078  0.5305
 2731SOL     OW19654   3.201   1.903   6.924  0.0865  0.0904 -0.2214
 2731SOL    HW119655   3.283   1.938   6.959  1.2488 -0.3152 -2.4999
 2731SOL    HW219656   3.142   1.975   6.945 -1.2762 -1.1367  0.1710
 2732SOL     OW19657   3.405   2.706   0.757 -0.2366  0.6611 -0.3141
 2732SOL    HW119658   3.312   2.696   0.735 -1.1425  1.4791  3.1308
 2732SOL    HW219659   3.393   2.771   0.826  0.5916  2.2676 -1.7032
 2733SOL     OW19660   1.596   3.502   7.615 -0.1335  0.2807 -0.0663
 2733SOL    HW119661   1.522   3.479   7.558  0.5259 -2.0990  0.0546
 2733SOL    HW219662   1.663   3.530   7.552 -0.7843  2.3666  0.1628
 2734SOL     OW19663   1.576   0.878   1.409  0.5641 -0.0135  0.2324
 2734SOL    HW119664   1.533   0.858   1.492 -0.9635 -0.1245 -0.5910
 2734SOL    HW219665   1.620   0.795   1.389 -2.6797 -1.0674 -2.4939
 2735SOL     OW19666   1.395   3.837   8.853 -0.3379  0.5713 -0.1087
 2735SOL    HW119667   1.444   3.815   8.932  0.0137  2.2172  0.1119
 2735SOL    HW219668   1.324   3.899   8.870 -0.8249 -0.1776  0.6121
 2736SOL     OW19669   3.170   2.978  16.684 -0.1320 -0.3914  0.0618
 2736SOL    HW119670   3.200   3.069  16.683  2.1703 -1.1332  1.5085
 2736SOL    HW219671   3.236   2.928  16.636  0.3186 -1.0226  1.3433
 2737SOL     OW19672   1.437   3.717   0.314 -0.3223 -0.0486 -0.1530
 2737SOL    HW119673   1.496   3.648   0.283  0.6805  0.4189  0.7621
 2737SOL    HW219674   1.409   3.764   0.235  1.7256 -0.9899 -1.4338
 2738SOL     OW19675   1.819   1.912   8.078  0.2821  0.1016 -0.5309
 2738SOL    HW119676   1.729   1.881   8.087  0.8400 -0.4707  3.1316
 2738SOL    HW219677   1.867   1.830   8.089  2.3266  1.2739 -0.7523
 2739SOL     OW19678   2.597   4.058   7.700 -0.1663  0.4085 -0.1331
 2739SOL    HW119679   2.608   4.134   7.757  0.0606 -1.2461  2.0323
 2739SOL    HW219680   2.544   4.091   7.627 -2.1024  1.7922  1.9142
 2740SOL     OW19681   0.261   4.003   7.794  0.0443  0.2501 -0.0466
 2740SOL    HW119682   0.317   4.065   7.748  2.2579 -1.2608  0.5900
 2740SOL    HW219683   0.208   4.059   7.850  0.9514  4.0508 -2.9522
 2741SOL     OW19684   0.943   0.040  16.844 -0.1403  0.4904 -0.3514
 2741SOL    HW119685   0.964   4.701  16.915  0.9296 -0.5872 -1.5877
 2741SOL    HW219686   0.910   4.696  16.782 -0.9554  0.6909 -0.1238
 2742SOL     OW19687   1.627   1.643   1.415 -0.1055 -0.1667  0.4033
 2742SOL    HW119688   1.685   1.597   1.355 -0.8906  1.0469 -1.2795
 2742SOL    HW219689   1.660   1.731   1.398  1.3970 -1.6497 -4.2037
 2743SOL     OW19690   1.496   0.012   3.260  0.4072  0.4255 -0.4432
 2743SOL    HW119691   1.456   0.003   3.173 -2.7107 -0.0824  1.0930
 2743SOL    HW219692   1.520   4.644   3.281 -0.5370 -0.4208 -2.9694
 2744SOL     OW19693   1.759   2.926   3.100 -0.2779 -0.3721 -0.5834
 2744SOL    HW119694   1.759   2.906   3.194 -0.5296 -0.0272 -0.5115
 2744SOL    HW219695   1.665   2.922   3.083 -0.7090  1.9223  1.2038
 2745SOL     OW19696   3.606   4.031  13.492  0.2248  0.1021  1.2289
 2745SOL    HW119697   3.657   4.039  13.411 -1.3759  2.6826  0.4636
 2745SOL    HW219698   3.635   4.109  13.540 -0.7456  1.3292 -0.1554
 2746SOL     OW19699   2.963   0.103  13.473  0.1732  0.0124  0.3332
 2746SOL    HW119700   2.956   0.152  13.392  1.8847 -1.8937 -0.9687
 2746SOL    HW219701   2.913   0.164  13.528 -1.5652  1.3707 -2.7809
 2747SOL     OW19702   4.485   1.893  11.555 -0.6971 -0.0193 -0.0473
 2747SOL    HW119703   4.445   1.979  11.548 -2.0571 -0.7467 -1.4377
 2747SOL    HW219704   4.465   1.875  11.646  2.4203  0.6748  0.7750
 2748SOL     OW19705   2.287   0.296  16.629 -0.7422 -0.2845 -0.1974
 2748SOL    HW119706   2.371   0.306  16.583 -0.1991 -1.4242  0.5445
 2748SOL    HW219707   2.290   0.209  16.668  1.8848  0.1911  0.6730
 2749SOL     OW19708   2.724   1.287   3.446 -0.2547  0.7411  0.4002
 2749SOL    HW119709   2.793   1.266   3.384 -0.6743  1.3601 -0.2885
 2749SOL    HW219710   2.691   1.203   3.478  0.1500  0.6841  0.6607
 2750SOL     OW19711   0.195   2.899   3.286  0.4004  0.6728  0.4335
 2750SOL    HW119712   0.215   2.818   3.240 -0.9030  1.8966 -2.2607
 2750SOL    HW219713   0.249   2.961   3.236  0.5733  1.0336  1.0669
 2751SOL     OW19714   0.715   4.280   6.035  0.6118 -0.2160 -0.4880
 2751SOL    HW119715   0.639   4.264   6.091  0.3664  0.5828 -0.5904
 2751SOL    HW219716   0.776   4.217   6.071  2.3002  2.1518  0.7992
 2752SOL     OW19717   2.652   3.932  12.817  0.0865 -0.2083 -0.0414
 2752SOL    HW119718   2.599   3.964  12.890 -0.4178 -1.4468  0.1330
 2752SOL    HW219719   2.592   3.912  12.746 -2.0992  0.5157  1.6140
 2753SOL     OW19720   0.269   2.163  14.837 -0.8983  0.1647 -0.0295
 2753SOL    HW119721   0.356   2.145  14.873 -0.7573  0.4964 -0.2145
 2753SOL    HW219722   0.285   2.176  14.744  0.1626  0.1238  0.1509
 2754SOL     OW19723   2.809   1.775   1.425  0.0611 -0.1088 -0.6175
 2754SOL    HW119724   2.894   1.780   1.382 -0.2869 -0.0872 -1.3016
 2754SOL    HW219725   2.815   1.802   1.517 -0.7391 -3.0952  0.3036
 2755SOL     OW19726   0.019   3.123  14.723  0.0339 -0.2773 -0.2776
 2755SOL    HW119727   4.712   3.214  14.720  0.7106 -0.0338  0.4682
 2755SOL    HW219728   4.664   3.080  14.761  0.1450  0.0059  0.2757
 2756SOL     OW19729   2.752   3.962   4.785  0.0049 -0.0762  0.2200
 2756SOL    HW119730   2.829   3.925   4.740 -0.6572 -0.5237 -0.5432
 2756SOL    HW219731   2.696   3.885   4.775  1.4329 -1.1739  0.6699
 2757SOL     OW19732   2.784   3.766   1.945 -0.2853 -0.3375  0.8548
 2757SOL    HW119733   2.817   3.820   2.017  3.3137 -1.8743  0.3509
 2757SOL    HW219734   2.774   3.835   1.880  1.0097  0.6112  1.6685
 2758SOL     OW19735   0.893   2.070  16.501  0.1655  0.5027  0.3237
 2758SOL    HW119736   0.953   2.096  16.572 -0.4492  2.7989  0.0007
 2758SOL    HW219737   0.940   2.093  16.421  3.1458 -1.6784  1.4540
 2759SOL     OW19738   3.631   4.503   7.294 -0.6826  1.0443 -0.2488
 2759SOL    HW119739   3.624   4.421   7.243 -0.3520  0.4850  0.6072
 2759SOL    HW219740   3.634   4.463   7.381 -2.0028 -0.1212 -0.7358
 2760SOL     OW19741   3.656   3.706   3.185  0.7001  0.0973 -0.0165
 2760SOL    HW119742   3.651   3.644   3.258  0.5517 -0.1058 -0.1967
 2760SOL    HW219743   3.630   3.792   3.216 -0.1830 -0.1394 -0.0982
 2761SOL     OW19744   3.831   2.231   7.786 -0.3541 -0.1420  0.1707
 2761SOL    HW119745   3.884   2.182   7.848 -1.0109 -0.4179  0.5129
 2761SOL    HW219746   3.901   2.293   7.764  1.1827 -1.5817  1.0041
 2762SOL     OW19747   0.775   4.036   9.066 -0.1086  0.2011 -0.5057
 2762SOL    HW119748   0.718   3.978   9.015  2.2092 -0.6888 -2.1454
 2762SOL    HW219749   0.707   4.102   9.077 -1.5876 -1.3977 -0.1471
 2763SOL     OW19750   0.910   1.000  16.021  0.1546 -0.1075 -0.0886
 2763SOL    HW119751   0.968   1.062  16.066  0.4418 -1.8971  2.0188
 2763SOL    HW219752   0.962   0.922  16.044 -1.6203 -1.3965 -0.4841
 2764SOL     OW19753   1.397   4.383  13.622  0.5893 -0.6700  0.0646
 2764SOL    HW119754   1.351   4.322  13.680  0.1743  1.3102  1.8277
 2764SOL    HW219755   1.346   4.463  13.633  3.3308  0.9665  0.9375
 2765SOL     OW19756   3.335   1.163   2.127 -0.1637  0.0211 -0.1400
 2765SOL    HW119757   3.355   1.255   2.111 -1.2615  0.3129  0.2028
 2765SOL    HW219758   3.350   1.135   2.037 -1.6286  2.1846 -1.0446
 2766SOL     OW19759   2.404   1.797  11.544  0.4213 -0.9800 -0.1471
 2766SOL    HW119760   2.323   1.823  11.588  1.1933  0.6803  0.2939
 2766SOL    HW219761   2.380   1.710  11.512 -2.4379 -0.6102  1.0248
 2767SOL     OW19762   0.233   3.769   9.589 -0.7049  0.7071 -0.3810
 2767SOL    HW119763   0.195   3.726   9.666  0.0905 -0.6863 -0.7896
 2767SOL    HW219764   0.267   3.845   9.636 -1.1704  0.3833  0.4850
 2768SOL     OW19765   1.897   3.375   9.407 -0.2493 -0.4310  0.3568
 2768SOL    HW119766   1.920   3.437   9.338 -0.6564 -0.2390  0.3949
 2768SOL    HW219767   1.929   3.415   9.488  2.4551  0.0085 -0.9162
 2769SOL     OW19768   1.311   4.650   3.515  0.3552 -0.3671 -0.5367
 2769SOL    HW119769   1.260   4.620   3.441 -0.1001  0.5146 -0.5844
 2769SOL    HW219770   1.323   0.022   3.500 -2.6514  0.6735  3.3311
 2770SOL     OW19771   1.990   3.659   6.434 -0.0585  0.5618 -0.7617
 2770SOL    HW119772   2.030   3.583   6.392  0.9418 -0.0558  1.2861
 2770SOL    HW219773   1.997   3.647   6.529  0.0706 -1.4837 -1.0111
 2771SOL     OW19774   0.322   0.851   2.904 -0.0628  0.3484  0.4033
 2771SOL    HW119775   0.246   0.818   2.952 -0.8824  0.7841 -0.6064
 2771SOL    HW219776   0.387   0.794   2.945  1.0686  0.6749 -0.9169
 2772SOL     OW19777   2.782   3.272   0.939 -0.1787  0.7041 -0.0178
 2772SOL    HW119778   2.867   3.285   0.983 -0.0908 -0.0845  0.0443
 2772SOL    HW219779   2.730   3.227   1.005  0.9806 -2.6664 -1.4093
 2773SOL     OW19780   1.660   3.437   5.358 -0.2086  0.0293 -0.2658
 2773SOL    HW119781   1.668   3.397   5.271  0.3366 -1.2574  0.3725
 2773SOL    HW219782   1.746   3.477   5.371 -1.2541  1.3650  2.4524
 2774SOL     OW19783   0.434   0.285  11.253 -0.1570 -0.9047  0.0318
 2774SOL    HW119784   0.420   0.202  11.208 -1.6516 -0.2619 -0.6980
 2774SOL    HW219785   0.525   0.275  11.281  0.5501  1.8106 -1.2516
 2775SOL     OW19786   3.780   0.251   7.147  0.0830  0.5490  0.5412
 2775SOL    HW119787   3.732   0.321   7.192 -0.2624  0.2305  0.6654
 2775SOL    HW219788   3.765   0.176   7.203  2.7091  0.3338  0.9649
 2776SOL     OW19789   1.464   1.528   1.217 -0.5613  0.0090  0.8215
 2776SOL    HW119790   1.489   1.574   1.298  1.2201  0.2738  0.1315
 2776SOL    HW219791   1.537   1.530   1.155 -1.3192  2.3751  0.0071
 2777SOL     OW19792   3.878   0.639   5.725  0.1387 -0.2680 -0.3480
 2777SOL    HW119793   3.962   0.685   5.720 -0.2670  0.5816  0.6512
 2777SOL    HW219794   3.857   0.628   5.632 -0.3463 -0.6077 -0.1936
 2778SOL     OW19795   3.476   1.706   6.973  0.0101 -0.1129 -0.3000
 2778SOL    HW119796   3.469   1.738   7.063  1.1116 -0.5755 -0.0439
 2778SOL    HW219797   3.387   1.671   6.969  0.1636 -0.4787 -0.5213
 2779SOL     OW19798   1.695   4.095   5.500  0.0740  0.6574 -0.2185
 2779SOL    HW119799   1.758   4.049   5.555  0.1320  1.5444  0.4444
 2779SOL    HW219800   1.727   4.184   5.507  0.3669  0.4483  1.0634
 2780SOL     OW19801   2.139   3.149   1.689  0.1801  0.1080 -0.5497
 2780SOL    HW119802   2.047   3.161   1.665  0.2689  1.6341 -0.0867
 2780SOL    HW219803   2.130   3.057   1.717 -2.5701  0.4183 -0.4292
 2781SOL     OW19804   1.879   4.551   3.743 -0.6187  0.5421 -0.4615
 2781SOL    HW119805   1.899   4.643   3.757 -1.1191  0.3743  1.4586
 2781SOL    HW219806   1.829   4.558   3.662 -1.5157  1.7367  0.1845
 2782SOL     OW19807   2.417   4.192   3.390  0.7339  0.0060  0.2061
 2782SOL    HW119808   2.392   4.126   3.455 -1.8707  1.9724  1.1921
 2782SOL    HW219809   2.478   4.232   3.452  0.6758  1.3678 -0.6201
 2783SOL     OW19810   0.611   4.173  12.298 -0.1798  1.0658  0.2451
 2783SOL    HW119811   0.603   4.239  12.229  0.0088 -0.3696 -1.1587
 2783SOL    HW219812   0.680   4.113  12.268  0.8771  3.4264 -1.9998
 2784SOL     OW19813   3.334   1.443   2.054 -0.2562  0.4365 -0.2997
 2784SOL    HW119814   3.387   1.498   1.995  2.6982 -0.9081  1.0763
 2784SOL    HW219815   3.291   1.410   1.976  0.3995 -1.1382 -0.0002
 2785SOL     OW19816   1.842   3.946  13.242  0.4538  0.3608  0.0072
 2785SOL    HW119817   1.865   4.036  13.266  1.9950 -0.3406  1.1737
 2785SOL    HW219818   1.912   3.896  13.286 -1.0242 -1.9674 -0.2853
 2786SOL     OW19819   0.991   0.562  12.395  0.3108 -0.0135  0.1330
 2786SOL    HW119820   1.083   0.546  12.375  0.2239 -2.0154  1.3018
 2786SOL    HW219821   0.971   0.634  12.335  0.2762  1.0417  1.4095
 2787SOL     OW19822   2.057   3.215   5.462  0.0863  0.1116 -0.3003
 2787SOL    HW119823   1.974   3.168   5.472  0.4191 -0.4401 -0.1333
 2787SOL    HW219824   2.046   3.287   5.525  0.8212  0.4144 -0.5246
 2788SOL     OW19825   3.830   0.703   4.467  0.2680  0.5076 -0.2053
 2788SOL    HW119826   3.908   0.759   4.470  1.2645 -0.8481 -1.1839
 2788SOL    HW219827   3.870   0.617   4.460 -0.7495  0.0609 -0.4241
 2789SOL     OW19828   2.758   0.896   2.894 -0.0642  0.0407  0.1153
 2789SOL    HW119829   2.747   0.832   2.823  0.7573  1.0433 -0.9224
 2789SOL    HW219830   2.798   0.972   2.852  0.7698 -0.0872  0.6812
 2790SOL     OW19831   1.002   0.440  17.302 -0.3818 -0.4821  0.8444
 2790SOL    HW119832   0.979   0.370  17.240 -1.4107  0.9252 -0.3849
 2790SOL    HW219833   0.977   0.407  17.388 -3.3140 -0.6469 -0.0631
 2791SOL     OW19834   1.594   0.525   1.747 -0.1597 -0.3011  0.0779
 2791SOL    HW119835   1.571   0.466   1.818 -0.3635  0.7270  0.8724
 2791SOL    HW219836   1.589   0.465   1.673 -0.0314 -0.8482  0.5137
 2792SOL     OW19837   2.391   2.981  13.252  0.1609  0.3121 -0.4219
 2792SOL    HW119838   2.470   2.984  13.306 -0.1118  0.9222 -0.0489
 2792SOL    HW219839   2.334   3.029  13.313  3.7077  3.1652  0.6972
 2793SOL     OW19840   3.107   0.016   3.700 -0.1676  0.0581 -0.2280
 2793SOL    HW119841   3.110   0.099   3.747 -0.3371  0.9899 -1.8319
 2793SOL    HW219842   3.193   4.699   3.682  0.3593  0.8813  0.4931
 2794SOL     OW19843   4.313   1.094   4.996  0.4788  0.3523 -0.1344
 2794SOL    HW119844   4.225   1.057   4.997  1.2890 -1.7018 -1.8925
 2794SOL    HW219845   4.348   1.073   4.909  2.1876 -0.5902  0.7778
 2795SOL     OW19846   3.584   1.987  16.212  0.2977  0.6414 -0.0084
 2795SOL    HW119847   3.555   2.070  16.174 -1.4093  0.8438  1.7822
 2795SOL    HW219848   3.678   2.004  16.213  0.0408  1.9029  1.2951
 2796SOL     OW19849   1.113   0.704   7.518 -0.3579  0.2369  0.6826
 2796SOL    HW119850   1.172   0.766   7.561 -1.1698  0.9469  0.7843
 2796SOL    HW219851   1.049   0.766   7.482  0.4637  1.8799  2.0691
 2797SOL     OW19852   3.008   0.923  16.435  0.0048 -1.0838  0.0407
 2797SOL    HW119853   3.048   0.962  16.513  0.2703  1.1647 -1.2117
 2797SOL    HW219854   3.051   0.837  16.442  1.7495 -0.0824  1.7351
 2798SOL     OW19855   1.097   0.474   6.017 -0.4706 -0.2963  0.1612
 2798SOL    HW119856   1.087   0.497   6.109 -1.6561  1.0031 -0.2969
 2798SOL    HW219857   1.112   0.380   6.026  2.8631 -0.0001 -2.0962
 2799SOL     OW19858   1.166   3.688  14.657 -0.2255 -0.2283 -0.3369
 2799SOL    HW119859   1.164   3.611  14.600  2.2350  0.7352 -1.7490
 2799SOL    HW219860   1.133   3.757  14.600  0.9797  0.3382 -0.3446
 2800SOL     OW19861   0.169   4.677   5.836 -0.4528  0.3047 -0.8090
 2800SOL    HW119862   0.162   4.594   5.789 -1.7149 -0.7016  1.2096
 2800SOL    HW219863   0.088   4.721   5.810 -1.4101 -0.5228  0.7951
 2801SOL     OW19864   4.052   4.510  15.084  0.4661  0.2953  0.3347
 2801SOL    HW119865   4.050   4.593  15.131  0.4733  1.4306 -1.7118
 2801SOL    HW219866   3.980   4.461  15.124 -1.2279  1.8732 -0.7560
 2802SOL     OW19867   0.978   0.581   4.389  0.0469  0.5264  0.0735
 2802SOL    HW119868   1.013   0.511   4.334 -1.5686  1.2440 -1.8761
 2802SOL    HW219869   1.017   0.652   4.339 -0.5848  2.0467  1.7278
 2803SOL     OW19870   1.664   4.119   6.449  0.1808 -0.2326 -0.1932
 2803SOL    HW119871   1.576   4.113   6.412 -0.5730  0.1762  1.5260
 2803SOL    HW219872   1.683   4.025   6.454  0.2998 -0.2773 -1.6878
 2804SOL     OW19873   0.784   3.688   1.681 -0.0251 -0.0552 -0.4013
 2804SOL    HW119874   0.766   3.706   1.774 -2.8762  0.7207 -1.0986
 2804SOL    HW219875   0.878   3.672   1.690 -0.6679 -3.3068  0.4471
 2805SOL     OW19876   2.925   3.414   6.943 -0.1304  0.2739  0.5412
 2805SOL    HW119877   2.955   3.324   6.931 -2.0203 -0.3897  0.7261
 2805SOL    HW219878   2.962   3.443   7.026  1.2417 -0.1922  0.0916
 2806SOL     OW19879   1.193   0.471   6.956  0.6864  0.2959  0.2249
 2806SOL    HW119880   1.109   0.465   6.911  0.5732  0.3019  0.4384
 2806SOL    HW219881   1.161   0.434   7.038  0.6785 -0.3403 -0.0676
 2807SOL     OW19882   0.024   0.967   4.895  0.2343 -0.5071  0.0334
 2807SOL    HW119883   0.010   1.043   4.951 -0.8240 -1.0798  0.5639
 2807SOL    HW219884   0.089   0.923   4.949  0.9205  1.5910  0.8823
 2808SOL     OW19885   4.628   4.520   1.240  0.0566  0.0793 -0.0756
 2808SOL    HW119886   4.691   4.586   1.212  0.5276 -0.4772 -0.3382
 2808SOL    HW219887   4.699   4.457   1.256  0.7724  0.4188 -1.9045
 2809SOL     OW19888   4.368   0.775   8.932  0.1992 -0.0883 -0.3503
 2809SOL    HW119889   4.278   0.781   8.962  1.0705  1.7237  1.9289
 2809SOL    HW219890   4.411   0.842   8.986 -0.1992  0.0588 -0.2198
 2810SOL     OW19891   2.818   3.861   5.184  0.0967  0.4686 -0.3285
 2810SOL    HW119892   2.888   3.864   5.249 -0.1461 -1.1809  0.0017
 2810SOL    HW219893   2.740   3.838   5.236  0.8150 -0.4682  0.3364
 2811SOL     OW19894   4.304   2.536   5.937  0.4121 -0.0742 -0.1943
 2811SOL    HW119895   4.247   2.461   5.923  0.4550  0.5668 -3.6968
 2811SOL    HW219896   4.262   2.600   5.880 -0.7398 -0.1779  0.5308
 2812SOL     OW19897   2.825   0.568   9.295  0.2799  0.0541 -0.7021
 2812SOL    HW119898   2.888   0.622   9.248 -0.8487 -0.2486 -2.5669
 2812SOL    HW219899   2.750   0.627   9.305  0.7028  0.3249  0.8154
 2813SOL     OW19900   0.077   2.717   6.206 -0.4634 -0.4946 -0.0185
 2813SOL    HW119901   0.152   2.766   6.239  0.1711 -2.5432  1.6052
 2813SOL    HW219902   0.118   2.680   6.127 -2.3474 -0.4118 -1.0301
 2814SOL     OW19903   1.576   4.154  13.375  0.4093 -0.4353  0.6478
 2814SOL    HW119904   1.538   4.242  13.375  1.8775  0.1838 -0.6779
 2814SOL    HW219905   1.585   4.132  13.283 -0.2352 -1.3917  0.8064
 2815SOL     OW19906   1.476   4.623   9.101  0.2015  0.5043 -0.8803
 2815SOL    HW119907   1.522   4.655   9.023  0.0054  0.3782 -1.0476
 2815SOL    HW219908   1.457   4.709   9.139 -0.1602 -0.6654  1.5523
 2816SOL     OW19909   2.988   1.566   0.863 -0.1411  0.1327  0.0316
 2816SOL    HW119910   3.047   1.622   0.812  1.0153 -0.5034  0.6865
 2816SOL    HW219911   2.907   1.584   0.816 -0.4813  0.9524  0.9247
 2817SOL     OW19912   1.177   2.338   1.951 -0.3212  0.4788 -0.2198
 2817SOL    HW119913   1.179   2.247   1.980 -2.4680  1.0115  1.6105
 2817SOL    HW219914   1.267   2.347   1.921 -0.2504 -1.5741 -0.6475
 2818SOL     OW19915   0.480   1.951   2.976 -0.5264  0.0218 -0.3362
 2818SOL    HW119916   0.389   1.975   2.992 -0.7199 -1.6211  1.0327
 2818SOL    HW219917   0.538   2.026   2.993  0.1931 -0.2847 -1.4382
 2819SOL     OW19918   0.703   0.412  12.121  0.2969 -0.0003 -0.2703
 2819SOL    HW119919   0.750   0.388  12.041  0.7381 -0.7006  0.1996
 2819SOL    HW219920   0.736   0.348  12.184  1.6235  1.6588  0.7190
 2820SOL     OW19921   3.713   3.695   8.698  0.0307 -0.0730 -0.0201
 2820SOL    HW119922   3.739   3.701   8.606 -1.5261 -2.3448 -0.6043
 2820SOL    HW219923   3.680   3.605   8.699 -1.7712  0.5864  3.2551
 2821SOL     OW19924   3.378   2.331   6.913 -0.1779  0.0584 -0.0601
 2821SOL    HW119925   3.351   2.322   7.004  2.4870  0.0778  0.7319
 2821SOL    HW219926   3.348   2.419   6.892  0.2727  0.1385 -0.3692
 2822SOL     OW19927   3.879   1.646   4.908 -0.2918 -0.1889  0.2819
 2822SOL    HW119928   3.953   1.704   4.890 -1.0702  1.0475  1.0631
 2822SOL    HW219929   3.903   1.628   4.999  0.5782 -0.0795  0.0729
 2823SOL     OW19930   3.463   2.061   8.204  0.1645  0.4722  0.0179
 2823SOL    HW119931   3.521   2.106   8.142 -1.1733 -0.0499 -1.5774
 2823SOL    HW219932   3.382   2.088   8.160 -0.1422  1.6425  1.2883
 2824SOL     OW19933   3.006   1.074   3.630 -0.4424 -0.3421  0.3631
 2824SOL    HW119934   2.950   1.079   3.708  0.9713 -0.0110  1.3403
 2824SOL    HW219935   3.014   1.168   3.613 -0.9527 -0.0100  1.9673
 2825SOL     OW19936   3.880   2.603   4.010  0.0004  0.0901 -0.1841
 2825SOL    HW119937   3.880   2.524   4.064  2.1947  0.3979  0.2736
 2825SOL    HW219938   3.796   2.580   3.970  0.3614  1.1247 -1.5636
 2826SOL     OW19939   2.553   2.291  11.280 -0.6154  0.0339 -0.4148
 2826SOL    HW119940   2.502   2.240  11.217  0.7544 -1.0605 -0.6265
 2826SOL    HW219941   2.527   2.378  11.249  0.2372  0.9820  1.5164
 2827SOL     OW19942   2.068   3.152   9.176 -0.2033 -0.4473 -0.2301
 2827SOL    HW119943   2.043   3.067   9.212 -1.3089  0.6430  1.6024
 2827SOL    HW219944   2.091   3.201   9.254 -0.0900 -1.0722  0.1296
 2828SOL     OW19945   1.719   0.759  13.750  0.0546 -0.1387  0.5909
 2828SOL    HW119946   1.699   0.665  13.751 -0.9655  0.0732  0.0377
 2828SOL    HW219947   1.814   0.770  13.754  0.0057 -0.0087  1.4486
 2829SOL     OW19948   2.901   1.920   8.960 -0.1201  0.9935 -1.2331
 2829SOL    HW119949   2.975   1.894   9.015 -1.8518  1.8464  1.4724
 2829SOL    HW219950   2.938   1.986   8.901 -0.5054  2.5560  0.2941
 2830SOL     OW19951   3.667   3.199   4.024 -0.1307  0.6897 -0.4382
 2830SOL    HW119952   3.757   3.230   4.013  0.8925 -1.9072  0.6906
 2830SOL    HW219953   3.680   3.122   4.080 -0.5999  0.8079 -0.1645
 2831SOL     OW19954   0.419   3.430  15.185  0.1009 -0.2547 -0.0511
 2831SOL    HW119955   0.406   3.412  15.092  0.3175 -0.1381 -0.1018
 2831SOL    HW219956   0.376   3.352  15.221  0.7234 -0.5774 -0.0222
 2832SOL     OW19957   4.610   0.301  16.616 -0.1765  0.3289 -0.2532
 2832SOL    HW119958   4.689   0.338  16.656  0.9819 -1.6750 -0.6794
 2832SOL    HW219959   4.580   0.242  16.685 -1.9596  1.9535  0.3437
 2833SOL     OW19960   3.412   2.899   7.474 -0.3176  0.5123  0.2606
 2833SOL    HW119961   3.364   2.876   7.554  0.8464 -0.2486  0.7418
 2833SOL    HW219962   3.443   2.815   7.442 -0.5812  0.0193  1.2823
 2834SOL     OW19963   4.108   0.210  15.766 -0.0975  0.4820 -0.2561
 2834SOL    HW119964   4.101   0.176  15.855  0.0419  1.4859  0.1296
 2834SOL    HW219965   4.203   0.198  15.761 -0.4226 -1.6926 -1.3428
 2835SOL     OW19966   1.946   3.410   0.644  0.1020  0.0772 -0.1397
 2835SOL    HW119967   1.956   3.427   0.738 -0.1784 -1.3383  0.1476
 2835SOL    HW219968   2.032   3.426   0.606  0.4361 -0.4079  0.4124
 2836SOL     OW19969   2.667   2.204   5.153 -0.0866  0.0236 -0.0042
 2836SOL    HW119970   2.573   2.202   5.136  0.0297 -0.9228 -0.5218
 2836SOL    HW219971   2.658   2.160   5.238 -0.1851 -2.3057 -1.2116
 2837SOL     OW19972   4.463   3.730   0.966  0.2992  0.1944  0.0713
 2837SOL    HW119973   4.390   3.758   1.021  0.6178  1.4692 -0.1614
 2837SOL    HW219974   4.497   3.810   0.927 -0.6199  1.4781  1.9333
 2838SOL     OW19975   1.257   2.824   4.733  0.1841 -0.0075 -0.1147
 2838SOL    HW119976   1.248   2.784   4.646 -0.3434 -1.0638  0.4266
 2838SOL    HW219977   1.207   2.761   4.785  1.5157 -0.0165  1.1475
 2839SOL     OW19978   0.567   4.441  16.982 -0.4039 -0.0092  0.4544
 2839SOL    HW119979   0.515   4.482  16.913 -1.8688  0.8294  2.0697
 2839SOL    HW219980   0.566   4.513  17.046  0.1939  0.2355  0.1902
 2840SOL     OW19981   1.477   4.311   3.886 -0.2783  0.1812  0.1672
 2840SOL    HW119982   1.495   4.249   3.816  0.4024 -2.0638  2.3271
 2840SOL    HW219983   1.490   4.393   3.837  1.9521 -1.2935 -1.7015
 2841SOL     OW19984   2.084   3.339   1.249 -0.2571  0.6649 -0.0157
 2841SOL    HW119985   2.092   3.412   1.311  1.1973 -0.4398  1.0837
 2841SOL    HW219986   2.106   3.378   1.164  1.3250  0.3913  0.2627
 2842SOL     OW19987   1.300   4.029  13.454  0.9009  0.1518  0.0964
 2842SOL    HW119988   1.244   4.106  13.451 -0.1885 -0.6509 -0.3056
 2842SOL    HW219989   1.378   4.070  13.491  0.0024 -2.4606  4.9671
 2843SOL     OW19990   1.141   2.440   8.082 -0.4824  0.3136 -0.4755
 2843SOL    HW119991   1.201   2.481   8.020  0.7931  1.6686  1.6258
 2843SOL    HW219992   1.201   2.409   8.150 -0.8117 -0.5242 -0.5757
 2844SOL     OW19993   2.647   1.971  17.316 -0.2472 -0.1593  0.5144
 2844SOL    HW119994   2.586   1.947  17.246 -0.5784  0.1936  0.6808
 2844SOL    HW219995   2.599   2.043  17.358 -1.6923  0.3389 -1.9760
 2845SOL     OW19996   3.839   0.289   0.747  0.0577 -0.3293 -0.0274
 2845SOL    HW119997   3.809   0.307   0.836  0.5600 -1.4598  0.3723
 2845SOL    HW219998   3.778   0.344   0.698 -0.3081 -0.2570  0.5018
 2846SOL     OW19999   0.908   0.331   7.662  0.0559 -0.1664  0.0172
 2846SOL    HW120000   0.932   0.422   7.645  0.9538 -0.3840  0.1297
 2846SOL    HW220001   0.872   0.349   7.749  0.7800 -0.6248  0.4080
 2847SOL     OW20002   0.921   1.553  11.202 -0.5015 -0.1153  0.6004
 2847SOL    HW120003   1.004   1.544  11.250  0.6407 -3.3111 -1.9694
 2847SOL    HW220004   0.921   1.638  11.158 -0.3758 -1.4978 -2.0504
 2848SOL     OW20005   1.069   2.987  12.114 -0.3507  0.2824 -0.3847
 2848SOL    HW120006   1.016   2.959  12.188  1.7552 -1.0810  0.6113
 2848SOL    HW220007   0.999   3.000  12.050  0.1620 -1.1425 -1.2372
 2849SOL     OW20008   0.397   1.911   7.135  0.1025 -0.5432 -0.3529
 2849SOL    HW120009   0.433   1.992   7.098 -1.3471 -0.7525 -2.2401
 2849SOL    HW220010   0.307   1.944   7.135  0.4643  0.5142 -2.5437
 2850SOL     OW20011   2.946   3.806  12.782 -0.3251  0.5979 -0.1841
 2850SOL    HW120012   3.016   3.742  12.766  2.3646  3.4020  0.4077
 2850SOL    HW220013   2.927   3.838  12.694  0.5852 -1.7621 -1.2255
 2851SOL     OW20014   3.765   4.098   9.655 -0.5423  1.1511 -0.1285
 2851SOL    HW120015   3.746   4.108   9.748 -1.3926 -1.7194 -0.0074
 2851SOL    HW220016   3.767   4.003   9.646  2.4567  1.2002  0.1422
 2852SOL     OW20017   3.307   2.069   3.498 -0.4600  0.3351  0.0753
 2852SOL    HW120018   3.300   2.112   3.412 -0.4790 -0.2651 -0.2247
 2852SOL    HW220019   3.357   1.993   3.469  0.5620  0.4851  1.5139
 2853SOL     OW20020   1.830   4.402  11.985  0.3893 -0.0794 -0.1778
 2853SOL    HW120021   1.867   4.452  12.058 -0.9681  1.3293 -0.4613
 2853SOL    HW220022   1.759   4.356  12.031 -0.7995  0.4999 -1.4625
 2854SOL     OW20023   1.169   3.775  11.133 -0.9857 -0.5466 -0.2638
 2854SOL    HW120024   1.196   3.809  11.048  0.1158  1.9824  1.0848
 2854SOL    HW220025   1.074   3.784  11.122 -0.6389  1.8864 -1.3171
 2855SOL     OW20026   3.169   0.455   5.950 -0.0838 -0.2067  0.3732
 2855SOL    HW120027   3.212   0.515   5.889 -1.4000  0.3726  0.0038
 2855SOL    HW220028   3.074   0.464   5.936  0.1882 -1.6097 -2.5049
 2856SOL     OW20029   1.825   2.920   8.905  0.1425  0.3496 -0.1049
 2856SOL    HW120030   1.914   2.910   8.872 -0.2470 -1.6877 -0.5751
 2856SOL    HW220031   1.774   2.906   8.826  0.5393 -1.1814 -0.0957
 2857SOL     OW20032   3.051   0.975   7.412 -0.5374  1.3811 -0.3531
 2857SOL    HW120033   2.964   0.977   7.370 -1.0003 -2.3817  0.3910
 2857SOL    HW220034   3.037   1.035   7.485  1.8947  0.3763  0.9387
 2858SOL     OW20035   3.860   4.288  10.023  0.1960 -0.3115  0.1098
 2858SOL    HW120036   3.918   4.351  10.065  0.2366  0.4141 -1.0275
 2858SOL    HW220037   3.927   4.238   9.975  0.0285 -0.2434 -0.1970
 2859SOL     OW20038   1.711   4.541   9.255 -0.0114  0.3216  0.1133
 2859SOL    HW120039   1.740   4.486   9.183 -0.0629  1.6206 -0.9068
 2859SOL    HW220040   1.625   4.558   9.217  0.6701  0.6066 -1.2868
 2860SOL     OW20041   1.174   1.723   2.369 -0.0803  0.2823  0.7499
 2860SOL    HW120042   1.129   1.804   2.346  0.5388  0.6716  0.9008
 2860SOL    HW220043   1.181   1.741   2.463  0.9439 -1.4275  1.0086
 2861SOL     OW20044   2.845   1.120   2.762 -0.1470 -0.7339  0.2171
 2861SOL    HW120045   2.821   1.209   2.739  0.6144 -0.5996 -0.0390
 2861SOL    HW220046   2.847   1.084   2.673 -0.0310 -0.8942  0.2847
 2862SOL     OW20047   0.916   2.185   2.209  0.0899 -0.0443  0.4499
 2862SOL    HW120048   0.900   2.130   2.132 -1.5331 -0.1905  0.8982
 2862SOL    HW220049   0.886   2.267   2.169  0.9914 -0.1017 -0.3485
 2863SOL     OW20050   1.738   4.486   3.312  0.4956 -0.2728  0.4416
 2863SOL    HW120051   1.717   4.406   3.362 -1.1423  1.3970  2.4050
 2863SOL    HW220052   1.767   4.438   3.234 -0.3680  0.4098 -0.2832
 2864SOL     OW20053   0.056   2.511  16.522  0.0397  0.4498 -0.1861
 2864SOL    HW120054   0.027   2.470  16.603 -1.1307  0.8255 -0.4128
 2864SOL    HW220055   0.048   2.603  16.546 -0.4661  0.6291 -1.0257
 2865SOL     OW20056   0.506   4.061   9.325 -0.5033 -0.0473 -0.5522
 2865SOL    HW120057   0.438   4.107   9.275 -2.6303 -1.7840  0.7206
 2865SOL    HW220058   0.463   3.975   9.331  3.4673 -2.0549 -0.8927
 2866SOL     OW20059   0.112   3.945   4.011  0.0894  0.0882  0.0569
 2866SOL    HW120060   0.147   3.993   4.087 -0.3157  2.0083 -0.9570
 2866SOL    HW220061   0.092   4.018   3.952 -2.0095  0.4345  1.1964
 2867SOL     OW20062   0.024   3.043   3.085  0.3675  0.0011  0.0286
 2867SOL    HW120063   0.073   3.118   3.051 -0.4681 -0.4037 -2.1147
 2867SOL    HW220064   0.076   2.966   3.061  1.2796  0.3147  1.0329
 2868SOL     OW20065   1.903   3.122  13.831 -0.1495  0.0788  0.1862
 2868SOL    HW120066   1.885   3.207  13.871 -1.1270 -0.4451  0.8809
 2868SOL    HW220067   1.846   3.122  13.755  0.9487  0.0955 -0.6293
 2869SOL     OW20068   1.247   2.526   3.542  0.2410 -0.1945 -0.4952
 2869SOL    HW120069   1.162   2.564   3.562 -0.0540 -1.5108  0.7562
 2869SOL    HW220070   1.304   2.570   3.606 -0.2938 -1.5155  0.8931
 2870SOL     OW20071   2.451   2.869   8.164 -0.0855 -0.7978  0.3889
 2870SOL    HW120072   2.362   2.834   8.177 -0.1287 -0.8690 -0.0981
 2870SOL    HW220073   2.498   2.787   8.157  1.4661  0.1487 -0.2761
 2871SOL     OW20074   1.499   4.430   5.094 -0.1873  0.2167  0.3489
 2871SOL    HW120075   1.489   4.423   4.999  0.1163  0.3642  0.3075
 2871SOL    HW220076   1.418   4.383   5.115 -0.3480  0.5508  0.4804
 2872SOL     OW20077   4.173   4.533   9.165 -0.2279 -0.8076 -0.2839
 2872SOL    HW120078   4.153   4.470   9.234  0.4754  1.4654  1.9540
 2872SOL    HW220079   4.138   4.489   9.087 -2.5092  0.8810 -0.2111
 2873SOL     OW20080   2.618   4.492  16.463  0.6865 -0.0938  0.1020
 2873SOL    HW120081   2.559   4.494  16.539  2.1585  0.6037  1.2215
 2873SOL    HW220082   2.613   4.398  16.444 -0.8150  0.0232 -0.0662
 2874SOL     OW20083   2.317   0.815  17.501  0.5359 -0.9707  0.2176
 2874SOL    HW120084   2.375   0.890  17.514  0.4187 -0.8907  0.2775
 2874SOL    HW220085   2.264   0.813  17.580 -0.4217 -1.8915 -0.4415
 2875SOL     OW20086   0.559   0.413   7.914 -0.4079  0.5396  0.4868
 2875SOL    HW120087   0.479   0.386   7.870  1.0255 -2.7198 -0.1223
 2875SOL    HW220088   0.520   0.488   7.959 -1.8939 -0.5471  0.9869
 2876SOL     OW20089   3.979   2.166  11.178 -0.4247  0.3954 -0.2935
 2876SOL    HW120090   3.954   2.082  11.216 -1.9751  1.2872  0.6571
 2876SOL    HW220091   4.068   2.175  11.213 -0.9261 -2.0302  1.5920
 2877SOL     OW20092   1.150   3.621   1.990  0.4145  0.2970 -0.0486
 2877SOL    HW120093   1.078   3.628   2.053  0.0334  0.4734 -0.5083
 2877SOL    HW220094   1.107   3.595   1.909 -1.4770 -0.2181  1.1150
 2878SOL     OW20095   0.712   4.250   1.901  0.1714 -0.0746 -0.1101
 2878SOL    HW120096   0.693   4.337   1.867 -0.8986 -0.6998 -1.0967
 2878SOL    HW220097   0.802   4.235   1.873  0.3086  0.1897  0.1895
 2879SOL     OW20098   0.168   2.624   3.370 -0.0045  0.1851  0.1807
 2879SOL    HW120099   0.231   2.649   3.438 -1.1093  1.0910  0.8641
 2879SOL    HW220100   0.121   2.552   3.410 -0.3308 -0.4094 -1.2871
 2880SOL     OW20101   1.221   4.529   2.924 -0.0903  0.0775 -0.4650
 2880SOL    HW120102   1.295   4.469   2.913 -0.4270 -0.0303 -2.1959
 2880SOL    HW220103   1.225   4.569   2.837  1.0517 -1.3862 -1.0913
 2881SOL     OW20104   3.674   0.897   5.680 -0.1146 -0.0507  0.4386
 2881SOL    HW120105   3.731   0.825   5.705  0.5338  1.1057  2.3014
 2881SOL    HW220106   3.743   0.957   5.650  0.6181 -0.9262  0.3548
 2882SOL     OW20107   4.703   2.201   4.195 -0.2890  0.1050 -0.5869
 2882SOL    HW120108   0.075   2.219   4.182 -0.0245 -1.8124 -1.2219
 2882SOL    HW220109   4.680   2.262   4.125 -2.1297  1.1423  0.9130
 2883SOL     OW20110   1.523   3.646  11.026  0.4380  0.1283  0.2269
 2883SOL    HW120111   1.557   3.736  11.017 -1.0115  0.7830  1.4450
 2883SOL    HW220112   1.601   3.593  11.008  0.0036 -0.5733  0.4410
 2884SOL     OW20113   2.247   3.840   6.134 -0.0031  0.2082 -0.6526
 2884SOL    HW120114   2.179   3.773   6.124  1.2081 -1.3632  1.7231
 2884SOL    HW220115   2.234   3.871   6.224  3.2076  1.6393 -0.6713
 2885SOL     OW20116   4.030   4.381   1.017 -0.3222  0.2769  0.8142
 2885SOL    HW120117   3.970   4.403   1.088 -2.4154 -0.0359 -0.8723
 2885SOL    HW220118   3.977   4.338   0.950  0.0405 -0.7465  1.1775
 2886SOL     OW20119   4.180   3.356   6.415  0.1082  0.4936  0.2275
 2886SOL    HW120120   4.254   3.378   6.358 -0.4424  0.7882 -0.3877
 2886SOL    HW220121   4.135   3.282   6.374 -1.2115  1.0314  0.7046
 2887SOL     OW20122   0.412   0.047   6.409  0.1212  0.5049  0.5770
 2887SOL    HW120123   0.442   0.120   6.463  1.8566 -0.7825  1.3346
 2887SOL    HW220124   0.334   0.082   6.365  0.1751  0.4520  0.4422
 2888SOL     OW20125   1.366   3.686   2.749  0.0341 -0.0361  0.1502
 2888SOL    HW120126   1.299   3.754   2.749  2.0892  1.9714  1.0613
 2888SOL    HW220127   1.322   3.638   2.819 -1.1400  1.3430  0.3542
 2889SOL     OW20128   3.047   2.517   4.247  0.5589  0.1066 -0.0860
 2889SOL    HW120129   3.002   2.598   4.225  0.1540 -0.2095 -0.4336
 2889SOL    HW220130   2.987   2.474   4.309  0.1992  3.8279  2.1346
 2890SOL     OW20131   0.693   4.031  15.090  0.4679 -0.0648 -0.0998
 2890SOL    HW120132   0.684   4.123  15.116  0.2884 -0.0373 -0.2592
 2890SOL    HW220133   0.700   4.033  14.995 -1.0512 -1.0357 -0.2242
 2891SOL     OW20134   3.200   3.919  16.068 -0.3210 -0.4198  0.0782
 2891SOL    HW120135   3.106   3.904  16.079 -0.1883  0.0353  1.8992
 2891SOL    HW220136   3.204   3.980  15.995 -2.7899 -0.2581  0.0625
 2892SOL     OW20137   0.500   1.359  15.339  0.2285 -0.3579 -0.4602
 2892SOL    HW120138   0.527   1.379  15.250  3.0124 -1.5002  0.1217
 2892SOL    HW220139   0.563   1.413  15.388  0.4114 -0.3895 -0.6633
 2893SOL     OW20140   0.802   0.296   4.455  0.3458 -0.0683  0.2621
 2893SOL    HW120141   0.728   0.255   4.500 -0.0443  0.5298  0.1592
 2893SOL    HW220142   0.812   0.223   4.394  0.9487  1.8589 -1.9002
 2894SOL     OW20143   3.056   2.587   6.272  0.0687 -0.0222  0.1223
 2894SOL    HW120144   2.986   2.587   6.337  0.4968 -0.1113  0.5785
 2894SOL    HW220145   3.040   2.669   6.225  1.7985 -1.1227 -2.4109
 2895SOL     OW20146   0.896   2.389   8.850  0.2447  0.1497 -0.5555
 2895SOL    HW120147   0.942   2.412   8.769  0.8860  2.4882  0.4864
 2895SOL    HW220148   0.821   2.447   8.836 -1.7129 -1.6733  2.4334
 2896SOL     OW20149   1.822   3.494   0.986  0.2490  0.1773  0.2009
 2896SOL    HW120150   1.852   3.406   1.011 -1.9884 -0.5662  0.2087
 2896SOL    HW220151   1.752   3.473   0.925 -0.4596  2.1119  0.3472
 2897SOL     OW20152   0.082   2.010   7.132  0.3116 -0.0990 -0.4132
 2897SOL    HW120153   0.068   1.951   7.058 -1.3041 -0.9962  0.5938
 2897SOL    HW220154   4.720   2.056   7.134 -1.0502 -2.7346  3.3904
 2898SOL     OW20155   4.353   1.392   8.680  0.1940 -0.3333  0.1785
 2898SOL    HW120156   4.388   1.349   8.758 -0.7432 -2.5054 -0.5942
 2898SOL    HW220157   4.436   1.384   8.632  0.3565  0.4732  0.3332
 2899SOL     OW20158   0.822   2.050  15.106  0.1441 -1.1132  0.4882
 2899SOL    HW120159   0.882   2.124  15.119 -0.2541 -0.6325 -0.5045
 2899SOL    HW220160   0.793   2.066  15.017  2.2372 -1.2346 -0.2253
 2900SOL     OW20161   0.015   0.450  16.048 -0.2102 -0.2147 -0.1310
 2900SOL    HW120162   0.090   0.493  16.089 -0.8456 -0.7667  1.6141
 2900SOL    HW220163   4.668   0.507  16.083 -1.8000 -1.3164 -1.4677
 2901SOL     OW20164   1.295   2.257   4.809 -0.4196 -0.1670 -0.2032
 2901SOL    HW120165   1.291   2.333   4.867 -0.9031 -0.5403  0.2373
 2901SOL    HW220166   1.371   2.272   4.752  1.0766 -0.4535  1.7413
 2902SOL     OW20167   1.245   1.913   6.297 -0.1403 -0.1141 -0.1228
 2902SOL    HW120168   1.172   1.955   6.342  0.2585 -0.1731  0.5706
 2902SOL    HW220169   1.215   1.822   6.296  0.5036 -0.3187 -2.6506
 2903SOL     OW20170   4.433   4.171   7.924 -0.3787  0.1367 -0.1334
 2903SOL    HW120171   4.487   4.209   7.855  1.0944 -0.1765  0.8422
 2903SOL    HW220172   4.501   4.169   7.991 -0.9438 -1.2643  0.3968
 2904SOL     OW20173   1.204   2.093   2.025 -0.2981  0.1747 -0.0446
 2904SOL    HW120174   1.277   2.033   2.039 -0.2904 -0.2474 -1.8597
 2904SOL    HW220175   1.127   2.038   2.036 -0.4355  0.1074 -1.3813
 2905SOL     OW20176   3.114   1.219   2.830  0.2581 -0.2022  0.1920
 2905SOL    HW120177   3.073   1.157   2.889 -0.0820 -0.5666 -0.4255
 2905SOL    HW220178   3.125   1.180   2.743 -1.1619  1.2939 -0.6545
 2906SOL     OW20179   3.403   4.150   2.009  0.3228 -0.0178 -0.4286
 2906SOL    HW120180   3.368   4.217   2.067  2.6392  0.9326 -0.1233
 2906SOL    HW220181   3.326   4.095   1.992 -0.1577 -0.1884  2.3969
 2907SOL     OW20182   2.316   3.733   5.491  0.3279 -0.2923  0.8421
 2907SOL    HW120183   2.283   3.643   5.494  2.2599 -1.0346 -0.2176
 2907SOL    HW220184   2.295   3.772   5.576 -0.3977  0.8357  0.1452
 2908SOL     OW20185   0.297   3.753  12.780  0.1704 -0.3980  0.7157
 2908SOL    HW120186   0.259   3.706  12.854  0.1279 -2.5962 -0.7067
 2908SOL    HW220187   0.284   3.686  12.713  0.8566  2.3595 -2.2176
 2909SOL     OW20188   2.353   2.835  12.992  0.5133 -0.0389 -0.1908
 2909SOL    HW120189   2.331   2.761  13.048  0.9105 -0.2177 -0.2759
 2909SOL    HW220190   2.415   2.882  13.047 -0.1201 -0.7411  1.1075
 2910SOL     OW20191   0.234   1.918  10.595 -0.6062 -0.0568  0.0798
 2910SOL    HW120192   0.150   1.958  10.617 -0.5481 -0.5365  1.1824
 2910SOL    HW220193   0.249   1.855  10.666  1.8303 -0.7089 -1.0367
 2911SOL     OW20194   2.304   1.783   2.729  0.1495  0.3584 -0.1259
 2911SOL    HW120195   2.394   1.784   2.761  0.4911 -0.4666 -1.0642
 2911SOL    HW220196   2.291   1.694   2.696 -1.2323  1.2148 -1.8781
 2912SOL     OW20197   2.909   3.951  17.028  0.9597 -0.2419 -0.3818
 2912SOL    HW120198   2.841   3.912  16.974 -2.2356  1.9719  2.0112
 2912SOL    HW220199   2.981   3.926  16.971 -0.2135 -1.2846 -1.4133
 2913SOL     OW20200   4.526   3.712   0.189  0.5150  0.4526 -0.1197
 2913SOL    HW120201   4.541   3.704   0.283  0.1373  1.0083 -0.0139
 2913SOL    HW220202   4.450   3.654   0.175 -0.6455  2.1620 -0.9459
 2914SOL     OW20203   3.430   4.142   5.878 -0.2560  0.2454  0.3838
 2914SOL    HW120204   3.372   4.086   5.929 -1.4217  1.3360  0.2574
 2914SOL    HW220205   3.485   4.177   5.948  0.8439  0.0355 -0.3814
 2915SOL     OW20206   2.028   1.425   9.087  0.3524 -0.4519  0.5475
 2915SOL    HW120207   2.009   1.458   9.175 -0.0377 -1.8167  0.9841
 2915SOL    HW220208   1.986   1.340   9.101 -0.3424 -0.0748  0.7493
 2916SOL     OW20209   2.626   2.004   2.907  0.5551  0.0515  0.1957
 2916SOL    HW120210   2.605   1.918   2.942  3.5877 -0.4511  0.7530
 2916SOL    HW220211   2.544   2.018   2.859  1.5551  2.5149 -0.8468
 2917SOL     OW20212   4.293   4.149  13.062 -0.0300 -0.6589  0.4158
 2917SOL    HW120213   4.310   4.055  13.067  0.2062 -0.5941  0.7664
 2917SOL    HW220214   4.369   4.173  13.009 -0.7619 -1.1501 -0.8661
 2918SOL     OW20215   0.904   2.415  14.799 -0.0014  0.2980  0.3690
 2918SOL    HW120216   0.962   2.424  14.874 -0.5216 -0.6867  0.8980
 2918SOL    HW220217   0.955   2.460  14.731 -2.5129  1.2188 -0.9161
 2919SOL     OW20218   4.510   3.743  10.343  0.7597  0.1857 -0.1495
 2919SOL    HW120219   4.592   3.696  10.359  0.0427 -1.2634 -0.7555
 2919SOL    HW220220   4.513   3.756  10.248  3.2300 -1.3481 -0.2823
 2920SOL     OW20221   0.698   1.553   4.830 -0.3284  0.6511 -0.1107
 2920SOL    HW120222   0.753   1.632   4.834  0.7635 -0.0645 -1.0274
 2920SOL    HW220223   0.613   1.589   4.855 -0.7311  0.6041 -1.4436
 2921SOL     OW20224   3.373   2.523   6.550  0.1353  0.2494 -0.2524
 2921SOL    HW120225   3.335   2.482   6.472 -3.8781  0.0939  1.7895
 2921SOL    HW220226   3.306   2.492   6.611  0.5370 -2.1888 -1.0153
 2922SOL     OW20227   2.634   0.867   6.166  0.0085 -0.0076  0.4044
 2922SOL    HW120228   2.697   0.868   6.238  2.0180  0.6779 -1.3561
 2922SOL    HW220229   2.699   0.835   6.103 -0.6133 -1.1851  0.3699
 2923SOL     OW20230   0.056   1.549   6.867 -0.1671  0.1843  0.6539
 2923SOL    HW120231   0.073   1.527   6.958 -0.0313  2.4072  1.1625
 2923SOL    HW220232   4.684   1.531   6.859 -0.0436 -0.7663  1.3446
 2924SOL     OW20233   3.790   1.282  12.217  0.1618  0.4689 -0.1028
 2924SOL    HW120234   3.707   1.244  12.248 -0.0066 -0.4045 -1.6036
 2924SOL    HW220235   3.849   1.210  12.239  1.3090  1.9737  1.7271
 2925SOL     OW20236   2.339   4.130  11.571  0.4422 -0.0849 -0.6740
 2925SOL    HW120237   2.359   4.049  11.522 -1.5901 -1.0576  0.1193
 2925SOL    HW220238   2.425   4.170  11.582  0.3421 -0.2874  0.8529
 2926SOL     OW20239   4.295   2.059   6.667  0.3393 -0.3199 -0.3343
 2926SOL    HW120240   4.287   2.118   6.592 -3.3993 -0.4464 -0.0180
 2926SOL    HW220241   4.325   1.977   6.625 -2.8237  0.0389 -3.2772
 2927SOL     OW20242   2.419   3.171   3.518 -0.4492  0.0198 -0.3689
 2927SOL    HW120243   2.510   3.197   3.508 -0.5756  1.9674  3.4304
 2927SOL    HW220244   2.378   3.222   3.448 -1.0033  0.7331  0.4640
 2928SOL     OW20245   0.453   0.646   6.260  0.3135  0.1567 -0.1065
 2928SOL    HW120246   0.444   0.665   6.166  2.8470  1.9716  0.0050
 2928SOL    HW220247   0.532   0.696   6.281  0.4615 -0.4682  0.7855
 2929SOL     OW20248   1.777   4.256  13.816  0.0121  0.8470 -0.4003
 2929SOL    HW120249   1.727   4.174  13.813  0.7649  0.3419  0.9951
 2929SOL    HW220250   1.866   4.224  13.831  0.8230  1.0955 -4.6407
 2930SOL     OW20251   3.275   4.720   6.854 -0.6253 -0.5441 -0.2144
 2930SOL    HW120252   3.309   4.638   6.889  0.9148  1.1743  2.3067
 2930SOL    HW220253   3.355   0.037   6.816 -0.3641 -0.6684  0.2065
 2931SOL     OW20254   1.482   0.902  11.916 -0.0423  0.5304 -0.2931
 2931SOL    HW120255   1.551   0.929  11.976 -0.6344  2.3130 -0.4016
 2931SOL    HW220256   1.525   0.911  11.831  1.0662 -1.0173  0.1102
 2932SOL     OW20257   3.034   0.157   1.360 -0.6865 -0.2983  1.0232
 2932SOL    HW120258   3.050   0.216   1.287 -1.6565 -0.7503  0.4503
 2932SOL    HW220259   3.091   0.191   1.429  0.0309 -0.8585  0.7088
 2933SOL     OW20260   4.414   0.914  12.833 -0.2588  0.0793  0.0699
 2933SOL    HW120261   4.466   0.912  12.913  0.1956 -0.6256 -0.2388
 2933SOL    HW220262   4.468   0.877  12.762  0.2192 -1.4240  1.2137
 2934SOL     OW20263   0.910   3.328   7.241  0.0136  0.3374 -0.0703
 2934SOL    HW120264   0.862   3.365   7.316 -0.6583 -2.2744  0.7948
 2934SOL    HW220265   0.978   3.394   7.231 -0.2590  0.9789  2.1357
 2935SOL     OW20266   3.535   1.575  17.115 -0.5019  0.2723 -0.0792
 2935SOL    HW120267   3.572   1.487  17.105 -2.4131 -0.6065  0.6634
 2935SOL    HW220268   3.467   1.559  17.180 -0.9178  3.8624  0.3716
 2936SOL     OW20269   4.027   2.653   6.105 -0.6363  0.0103  0.2042
 2936SOL    HW120270   4.047   2.561   6.119 -0.0544  0.3755  1.8060
 2936SOL    HW220271   3.944   2.667   6.151 -1.5702  3.4746 -2.5271
 2937SOL     OW20272   3.263   4.194   6.390  0.3024  0.7932  0.3305
 2937SOL    HW120273   3.320   4.251   6.442  0.3251  0.0516  1.1160
 2937SOL    HW220274   3.254   4.248   6.312  1.3341 -0.0998 -0.4087
 2938SOL     OW20275   2.215   4.689   5.307  0.2382  0.5802  0.0343
 2938SOL    HW120276   2.243   4.640   5.384 -0.4791  3.5741  2.2105
 2938SOL    HW220277   2.295   4.705   5.257 -0.9938  2.1961 -1.4090
 2939SOL     OW20278   4.124   2.077   8.494  0.0041 -0.6793 -0.0638
 2939SOL    HW120279   4.067   2.063   8.418  0.2273  1.1935 -0.5691
 2939SOL    HW220280   4.161   2.161   8.469  0.5516 -0.9730 -0.2516
 2940SOL     OW20281   3.228   4.386   4.575 -0.5715  0.5721  0.1239
 2940SOL    HW120282   3.289   4.398   4.502  1.2774 -0.7387  1.4847
 2940SOL    HW220283   3.289   4.395   4.648  0.5865  3.0464 -1.1349
 2941SOL     OW20284   3.023   2.811  14.846 -0.2520  0.7208  0.3233
 2941SOL    HW120285   2.961   2.847  14.910 -0.4405 -0.0068  0.5514
 2941SOL    HW220286   3.095   2.873  14.859 -0.5563  1.6641 -2.5558
 2942SOL     OW20287   3.175   4.603  16.302 -0.2654 -0.0187  0.3818
 2942SOL    HW120288   3.130   4.606  16.386 -1.3118 -0.7213 -0.1466
 2942SOL    HW220289   3.256   4.558  16.325 -0.3341 -0.9010 -1.0532
 2943SOL     OW20290   2.455   0.226   3.124 -0.4578  0.2658 -0.3270
 2943SOL    HW120291   2.406   0.258   3.048 -0.4992 -0.0195 -0.4205
 2943SOL    HW220292   2.392   0.242   3.194 -0.2249  0.7124 -0.2159
 2944SOL     OW20293   1.222   0.727  13.470 -0.0667 -0.2013 -0.1641
 2944SOL    HW120294   1.139   0.758  13.506  0.0056  2.0924 -1.9267
 2944SOL    HW220295   1.239   0.788  13.398  1.9323  0.3446  0.7666
 2945SOL     OW20296   1.982   3.713   2.670 -0.3895 -0.0227  0.5901
 2945SOL    HW120297   1.915   3.767   2.628 -1.8772 -1.3324  1.2933
 2945SOL    HW220298   1.936   3.629   2.673 -1.8046  0.7758  1.1872
 2946SOL     OW20299   0.199   4.204  15.995  0.1084  0.3040 -0.0404
 2946SOL    HW120300   0.200   4.241  15.907  2.1986  0.9023  0.2338
 2946SOL    HW220301   0.117   4.240  16.029 -0.2479 -0.7499  0.2361
 2947SOL     OW20302   0.556   0.730   2.004  0.4639 -0.1347  0.0107
 2947SOL    HW120303   0.645   0.695   2.008  0.8668  0.9978  0.9447
 2947SOL    HW220304   0.530   0.733   1.912 -0.6660  1.5775  0.3818
 2948SOL     OW20305   2.382   4.107  14.373  0.3980  0.0634 -0.0557
 2948SOL    HW120306   2.310   4.081  14.431  1.0086  0.4285  0.8640
 2948SOL    HW220307   2.422   4.022  14.357 -0.1599 -0.6823  2.4345
 2949SOL     OW20308   2.234   0.608   1.829  0.9268 -0.3486  0.5438
 2949SOL    HW120309   2.320   0.573   1.851  2.3909  3.7224  1.3578
 2949SOL    HW220310   2.202   0.538   1.773  0.5355 -0.7162  1.2316
 2950SOL     OW20311   1.154   1.287   7.472  0.0318 -0.3371 -0.7713
 2950SOL    HW120312   1.186   1.209   7.517  0.4989  0.4849  0.3284
 2950SOL    HW220313   1.157   1.256   7.382  0.7003 -0.7000 -0.6255
 2951SOL     OW20314   0.459   2.146   2.428  0.4561 -0.4968 -0.0477
 2951SOL    HW120315   0.486   2.080   2.364 -1.9739  0.2368 -1.8022
 2951SOL    HW220316   0.500   2.114   2.509  0.8939  1.6566  0.5958
 2952SOL     OW20317   1.416   4.113   9.113 -0.3989  0.6828  0.2947
 2952SOL    HW120318   1.356   4.038   9.113  0.7588 -0.2367 -0.0651
 2952SOL    HW220319   1.349   4.182   9.120  0.6567  1.6492  0.7471
 2953SOL     OW20320   2.318   4.522   4.468  0.2679  0.3483 -0.0581
 2953SOL    HW120321   2.266   4.555   4.542 -2.3061 -0.4037 -1.5542
 2953SOL    HW220322   2.256   4.458   4.433  0.1370  0.4437 -0.0000
 2954SOL     OW20323   4.063   2.162  17.424 -0.3588 -0.1146  0.2687
 2954SOL    HW120324   4.023   2.247  17.406 -0.2674 -0.0330  0.4519
 2954SOL    HW220325   4.143   2.192  17.466  1.0296 -0.0214 -2.4582
 2955SOL     OW20326   0.479   3.306   2.435  0.0521 -0.1809  0.3091
 2955SOL    HW120327   0.521   3.392   2.433  0.8151 -0.6017 -1.6181
 2955SOL    HW220328   0.495   3.274   2.347 -0.6150 -1.8194  0.7918
 2956SOL     OW20329   4.479   4.024   2.850 -0.1611  0.3877  0.2675
 2956SOL    HW120330   4.550   4.044   2.788  0.1249  1.4054  0.9222
 2956SOL    HW220331   4.404   4.019   2.792  1.3998 -0.0775 -1.7297
 2957SOL     OW20332   0.617   3.341  12.110  0.7108  0.0320 -0.5254
 2957SOL    HW120333   0.664   3.280  12.168 -0.0060  1.9399  2.0849
 2957SOL    HW220334   0.526   3.311  12.114  0.3080  1.1463 -1.4423
 2958SOL     OW20335   0.616   1.757   5.063 -0.0477 -0.0878  0.1515
 2958SOL    HW120336   0.615   1.815   4.987  1.0184  0.5798  0.6440
 2958SOL    HW220337   0.611   1.835   5.119 -0.2691 -1.2159  1.6965
 2959SOL     OW20338   2.876   3.145   5.254 -0.1277  0.0078 -0.1246
 2959SOL    HW120339   2.870   3.054   5.281  0.5733 -0.1409 -0.4602
 2959SOL    HW220340   2.809   3.184   5.310  0.3194  3.5510 -2.0405
 2960SOL     OW20341   1.523   1.577   3.260 -0.1760  0.3638  0.5759
 2960SOL    HW120342   1.593   1.555   3.322 -1.0616  1.1851  1.8808
 2960SOL    HW220343   1.590   1.563   3.193  0.0037 -1.5139  1.1257
 2961SOL     OW20344   3.218   0.651   6.431  0.5019 -0.0923 -0.4993
 2961SOL    HW120345   3.132   0.643   6.472  0.0359  0.7235 -1.3295
 2961SOL    HW220346   3.208   0.586   6.362 -1.0728 -0.4577  0.0582
 2962SOL     OW20347   1.471   4.445   3.635  0.1693 -0.1242  0.4849
 2962SOL    HW120348   1.403   4.511   3.623 -0.8377 -1.4942 -1.4091
 2962SOL    HW220349   1.548   4.487   3.597 -1.5179  1.5123 -1.1505
 2963SOL     OW20350   0.873   3.269   5.126 -0.0776  0.1199  0.1050
 2963SOL    HW120351   0.902   3.177   5.124 -1.4568 -0.2509 -3.0260
 2963SOL    HW220352   0.881   3.296   5.217  1.0055  1.7244 -0.4709
 2964SOL     OW20353   4.396   3.253  14.645  0.2250 -0.4524 -0.1437
 2964SOL    HW120354   4.425   3.344  14.644 -0.8505 -0.1172 -0.9718
 2964SOL    HW220355   4.301   3.248  14.634  0.3281 -2.1961 -0.2107
 2965SOL     OW20356   2.318   4.602   0.855  0.3251 -0.2624 -0.1014
 2965SOL    HW120357   2.305   4.514   0.889  4.1202 -1.4881 -1.8805
 2965SOL    HW220358   2.356   4.630   0.938  1.0171 -0.8159 -0.2362
 2966SOL     OW20359   3.966   0.476   4.448 -0.0947  0.1486  0.3332
 2966SOL    HW120360   4.040   0.439   4.400 -0.6324  2.2263 -2.0907
 2966SOL    HW220361   3.980   0.443   4.537 -2.4334  0.7036  0.8934
 2967SOL     OW20362   2.864   0.633   3.987  0.6528  0.4188  0.5227
 2967SOL    HW120363   2.816   0.715   3.979 -0.3529 -0.0240  1.9210
 2967SOL    HW220364   2.802   0.573   3.946  1.1751  2.0865 -2.6454
 2968SOL     OW20365   3.792   0.238   7.972  0.2049 -0.0445 -0.1153
 2968SOL    HW120366   3.751   0.172   8.028  0.8493 -1.1999 -0.9982
 2968SOL    HW220367   3.883   0.210   7.972  0.3772  0.5284  0.3806
 2969SOL     OW20368   3.599   3.547   3.398  0.0134 -0.0383 -0.4817
 2969SOL    HW120369   3.509   3.528   3.373 -0.5821  1.0214  0.8287
 2969SOL    HW220370   3.613   3.481   3.466  0.0207 -0.3253 -0.7624
 2970SOL     OW20371   0.041   3.076   9.412 -1.2999 -0.0158  0.4241
 2970SOL    HW120372   0.026   3.162   9.373 -1.4659 -0.0820  0.3401
 2970SOL    HW220373   0.105   3.087   9.482 -1.5102 -0.7787  0.7414
 2971SOL     OW20374   1.542   3.226   9.474 -0.2706  0.1758 -0.5163
 2971SOL    HW120375   1.621   3.172   9.475  0.3938  1.1300 -1.4747
 2971SOL    HW220376   1.571   3.300   9.528  1.7238 -1.0101  0.0154
 2972SOL     OW20377   3.131   1.788   0.756  0.1150  0.2466 -0.6773
 2972SOL    HW120378   3.094   1.836   0.681 -1.0928 -0.0792 -0.2737
 2972SOL    HW220379   3.218   1.829   0.756 -0.0092  0.5129 -0.4564
 2973SOL     OW20380   3.539   1.325  10.204  0.2084 -0.0418  0.4336
 2973SOL    HW120381   3.568   1.398  10.259 -2.1386  1.3942 -0.2424
 2973SOL    HW220382   3.447   1.313  10.228 -0.0263  0.8047 -0.0282
 2974SOL     OW20383   4.504   2.870   9.470  0.0294 -0.1093 -0.1614
 2974SOL    HW120384   4.555   2.937   9.424 -0.6599 -0.7070 -1.8045
 2974SOL    HW220385   4.428   2.920   9.500  0.5491 -0.4632  1.6830
 2975SOL     OW20386   2.666   4.049   8.111 -0.0766  0.1874  0.6263
 2975SOL    HW120387   2.622   4.126   8.076 -0.7391 -0.2125  0.5848
 2975SOL    HW220388   2.595   4.019   8.169 -2.8831  0.1343 -2.8810
 2976SOL     OW20389   1.702   1.876   8.936  0.5728  0.1121 -0.4062
 2976SOL    HW120390   1.667   1.824   9.009  2.1050 -0.9397 -0.4200
 2976SOL    HW220391   1.759   1.939   8.979 -0.0354 -0.1695  0.8378
 2977SOL     OW20392   4.282   2.008   3.407 -0.2271  0.3396 -0.4044
 2977SOL    HW120393   4.203   1.983   3.453  0.4020  0.2811  0.6483
 2977SOL    HW220394   4.344   1.951   3.453  0.6035  1.8550  0.3744
 2978SOL     OW20395   2.211   0.579   8.495 -0.1170  0.0614 -0.3355
 2978SOL    HW120396   2.230   0.651   8.434  0.8235  1.6248  1.8278
 2978SOL    HW220397   2.302   0.554   8.512  0.1720  0.9712 -0.5345
 2979SOL     OW20398   0.741   3.823   8.710 -0.2972 -0.5816  0.3275
 2979SOL    HW120399   0.816   3.783   8.754  0.6860  3.3339  2.2100
 2979SOL    HW220400   0.682   3.748   8.698 -0.3938 -0.1880 -1.6572
 2980SOL     OW20401   2.833   1.309  17.288 -0.6146 -0.0794 -0.0064
 2980SOL    HW120402   2.789   1.332  17.206 -0.3760 -1.3503 -0.4943
 2980SOL    HW220403   2.799   1.379  17.344  0.7041  0.9134 -0.4421
 2981SOL     OW20404   1.320   1.294   4.570  0.3822 -0.1240  0.4753
 2981SOL    HW120405   1.376   1.336   4.635  1.2232  0.3342 -0.5409
 2981SOL    HW220406   1.233   1.317   4.601 -0.2292 -0.2846 -1.1392
 2982SOL     OW20407   3.092   1.087   4.162 -0.2659 -0.4139  0.3125
 2982SOL    HW120408   3.133   1.027   4.100 -0.1073  0.4770 -0.4398
 2982SOL    HW220409   3.118   1.171   4.125 -1.2562 -0.9209 -1.5510
 2983SOL     OW20410   1.640   0.889   4.108 -0.3121  0.2338 -0.0708
 2983SOL    HW120411   1.673   0.801   4.128 -2.4932 -1.3196 -3.4179
 2983SOL    HW220412   1.592   0.900   4.190 -2.1421 -0.4789 -1.0406
 2984SOL     OW20413   3.369   4.431   8.501  0.2836  0.3977  0.0842
 2984SOL    HW120414   3.437   4.449   8.565  0.0854  1.6472 -0.0661
 2984SOL    HW220415   3.359   4.335   8.506 -0.4203  0.3915 -1.2062
 2985SOL     OW20416   3.301   4.245   1.110  0.1682 -0.4608 -0.0530
 2985SOL    HW120417   3.237   4.248   1.182  0.6164 -3.3653  0.4981
 2985SOL    HW220418   3.248   4.258   1.032 -1.2110  0.7395  1.0905
 2986SOL     OW20419   1.071   0.717  13.211 -0.2345  0.0498  1.0192
 2986SOL    HW120420   1.144   0.659  13.233 -1.2151 -0.9524  1.6251
 2986SOL    HW220421   1.063   0.770  13.290  1.0064  2.2047 -0.3015
 2987SOL     OW20422   4.687   4.601   5.401 -0.7684 -0.5452  0.0157
 2987SOL    HW120423   4.602   4.598   5.357 -1.5297  1.3839  1.3437
 2987SOL    HW220424   4.673   4.647   5.484  2.7165 -0.2565  0.4412
 2988SOL     OW20425   2.460   1.200   4.002 -0.0821  0.2618 -0.1596
 2988SOL    HW120426   2.432   1.176   3.914 -0.3776 -1.6650  0.4550
 2988SOL    HW220427   2.511   1.124   4.030  0.9169  0.5200 -1.2794
 2989SOL     OW20428   4.003   0.269   5.082  0.9588 -0.5280 -0.1165
 2989SOL    HW120429   4.063   0.257   5.008  2.1199 -1.7915  1.0210
 2989SOL    HW220430   3.922   0.274   5.031  1.1199 -0.8488 -0.4098
 2990SOL     OW20431   3.933   2.690   2.440  0.1589 -0.1565 -0.2302
 2990SOL    HW120432   3.996   2.621   2.415 -1.1816 -1.1075 -0.9714
 2990SOL    HW220433   3.988   2.746   2.495 -0.5745  0.2641  0.0689
 2991SOL     OW20434   2.403   0.450   7.477  0.5788 -0.2662  0.1799
 2991SOL    HW120435   2.445   0.388   7.536 -0.1515 -0.0302  0.9475
 2991SOL    HW220436   2.395   0.403   7.394 -0.6669  0.5482 -0.1681
 2992SOL     OW20437   2.688   0.897   8.997 -0.3177  0.0261  0.2401
 2992SOL    HW120438   2.728   0.973   8.955 -1.4122  0.3293 -0.2610
 2992SOL    HW220439   2.751   0.877   9.066 -0.6344 -2.7060 -0.2375
 2993SOL     OW20440   1.703   4.002  14.476  0.8280  0.9513  0.5488
 2993SOL    HW120441   1.637   3.947  14.434  1.4765  1.8885 -1.6647
 2993SOL    HW220442   1.672   4.013  14.566 -0.4173 -0.6452  0.3202
 2994SOL     OW20443   0.661   3.418   8.400 -0.8864  0.2903 -0.1257
 2994SOL    HW120444   0.607   3.436   8.477 -2.6102 -0.6485 -1.1115
 2994SOL    HW220445   0.601   3.354   8.362 -0.3418 -0.8321  0.9141
 2995SOL     OW20446   2.124   0.598   2.782  0.3511 -0.0510  0.0931
 2995SOL    HW120447   2.083   0.515   2.755 -0.4222 -0.8118  3.5683
 2995SOL    HW220448   2.216   0.581   2.762  0.0655  0.2711 -1.4578
 2996SOL     OW20449   1.377   4.405   3.192 -0.2711  0.2500 -0.2471
 2996SOL    HW120450   1.443   4.352   3.237 -0.6618 -1.9328 -2.2554
 2996SOL    HW220451   1.337   4.339   3.136 -2.5317  1.4434 -0.0378
 2997SOL     OW20452   4.601   1.162   4.549 -0.1651 -0.3106 -0.7510
 2997SOL    HW120453   4.600   1.205   4.463  0.5486  0.0594 -0.5747
 2997SOL    HW220454   4.683   1.112   4.549  1.0552  1.7263  0.6763
 2998SOL     OW20455   4.439   4.370   0.099  0.2503 -0.0019  0.4637
 2998SOL    HW120456   4.444   4.338   0.189 -1.1896 -0.9741  0.2007
 2998SOL    HW220457   4.500   4.312   0.055 -1.1286 -0.0523 -1.3859
 2999SOL     OW20458   0.585   1.899  11.091 -0.2938 -0.1363 -0.3973
 2999SOL    HW120459   0.554   1.990  11.096 -1.2767 -0.2571 -4.0802
 2999SOL    HW220460   0.515   1.853  11.044  0.3068  0.1145 -1.5429
 3000SOL     OW20461   1.798   4.122   7.365  0.3749 -0.4862  0.2768
 3000SOL    HW120462   1.765   4.208   7.338  4.8290  0.3085 -2.6043
 3000SOL    HW220463   1.886   4.141   7.331  0.6135 -2.2661 -0.1109
 3001SOL     OW20464   0.009   0.506   8.191  0.0139 -0.2382  0.3036
 3001SOL    HW120465   0.050   0.585   8.157  0.4711 -0.4479  0.3758
 3001SOL    HW220466   0.045   0.502   8.280 -0.5910  0.3234  0.5749
 3002SOL     OW20467   0.527   0.287  15.217 -0.6326 -0.5241 -0.1428
 3002SOL    HW120468   0.527   0.195  15.243 -2.3750 -0.0491  1.4808
 3002SOL    HW220469   0.620   0.290  15.192 -1.1243  1.4096 -1.7247
 3003SOL     OW20470   1.789   3.843   3.794  0.0992  0.0979 -0.0295
 3003SOL    HW120471   1.790   3.846   3.698  0.8161  1.6365  0.0290
 3003SOL    HW220472   1.710   3.789   3.802  0.1091 -0.1802 -1.7841
 3004SOL     OW20473   1.756   3.008   2.857  0.3940  0.1172  0.0849
 3004SOL    HW120474   1.772   2.978   2.946  0.3742  2.3655  0.8536
 3004SOL    HW220475   1.709   2.939   2.810 -1.8907  1.4248  0.4549
 3005SOL     OW20476   0.015   3.503  10.094  0.2089 -0.1716  0.3641
 3005SOL    HW120477   4.649   3.538  10.113 -0.2274  0.2349 -2.3496
 3005SOL    HW220478   0.003   3.408  10.089  0.8268 -0.1668 -1.4137
 3006SOL     OW20479   0.884   2.735  16.926  0.3127  0.4108  0.2529
 3006SOL    HW120480   0.838   2.684  16.993  0.4522  0.0331  0.0623
 3006SOL    HW220481   0.956   2.778  16.971  1.5932 -0.5675 -0.8647
 3007SOL     OW20482   1.007   2.947   3.516  0.4206  0.3117 -0.0313
 3007SOL    HW120483   0.941   2.917   3.453  1.3795 -1.0270 -0.3983
 3007SOL    HW220484   1.029   3.032   3.479 -1.4149 -0.1677 -2.2207
 3008SOL     OW20485   2.138   1.555  13.801  0.9316 -0.4397 -0.0688
 3008SOL    HW120486   2.064   1.614  13.790  1.5611  0.1917 -0.9010
 3008SOL    HW220487   2.160   1.577  13.892 -0.7221 -0.2025  0.2694
 3009SOL     OW20488   1.687   1.064   6.789  0.8895  0.0088  0.1031
 3009SOL    HW120489   1.742   1.025   6.857 -0.6323  0.4376  1.6006
 3009SOL    HW220490   1.651   0.984   6.752 -0.3955 -0.6193  2.6632
 3010SOL     OW20491   2.451   4.622   7.036  0.0516  0.1627 -0.3588
 3010SOL    HW120492   2.459   4.596   6.944 -2.2633  1.5878 -0.9657
 3010SOL    HW220493   2.361   4.653   7.026 -0.8877 -2.2623  0.3880
 3011SOL     OW20494   4.417   3.054  14.952 -0.1060 -0.0335  0.0452
 3011SOL    HW120495   4.393   3.072  14.861  2.4371  0.7442 -0.4970
 3011SOL    HW220496   4.474   2.978  14.941  2.6035  2.1573 -1.1323
 3012SOL     OW20497   2.668   1.543  10.100 -0.4135 -0.1077 -0.6701
 3012SOL    HW120498   2.760   1.562  10.120 -0.9379  0.9524  0.7257
 3012SOL    HW220499   2.623   1.607  10.155 -1.7121 -0.3626 -1.4525
 3013SOL     OW20500   0.622   2.274   1.132  0.1897 -0.1437 -0.0514
 3013SOL    HW120501   0.666   2.354   1.103  0.3693  0.1560  1.0715
 3013SOL    HW220502   0.657   2.202   1.079 -0.6713 -1.4441  1.1678
 3014SOL     OW20503   0.072   2.128   9.799 -0.4722  0.1204 -0.1033
 3014SOL    HW120504   0.112   2.110   9.884 -1.0891  2.4686  0.7021
 3014SOL    HW220505   0.108   2.212   9.770 -0.7831 -0.4564 -2.1929
 3015SOL     OW20506   4.588   3.776   2.114 -0.0356  0.2231  0.5588
 3015SOL    HW120507   4.554   3.688   2.129  1.4519 -0.7629 -1.8884
 3015SOL    HW220508   4.513   3.829   2.088  0.0972  1.6330  2.9565
 3016SOL     OW20509   1.020   1.757  17.576 -0.5253  0.2556  0.2328
 3016SOL    HW120510   1.052   1.783  17.490 -0.5226 -0.2296  0.0856
 3016SOL    HW220511   1.047   1.665  17.575  0.0264  0.4387 -1.9232
 3017SOL     OW20512   0.739   2.703  11.885  0.5385 -0.0768 -0.4375
 3017SOL    HW120513   0.717   2.713  11.792 -1.0562  0.9001  0.0282
 3017SOL    HW220514   0.678   2.634  11.912  0.8073  0.7094  2.2340
 3018SOL     OW20515   2.895   1.215  11.292  0.5999  0.2884 -0.3385
 3018SOL    HW120516   2.939   1.130  11.297  0.7504  0.2518 -2.5190
 3018SOL    HW220517   2.823   1.202  11.231 -1.3758  0.6424  1.8991
 3019SOL     OW20518   1.690   1.186   7.973  0.1345 -0.0259 -0.0065
 3019SOL    HW120519   1.690   1.145   7.886  1.6347 -0.1441  0.0392
 3019SOL    HW220520   1.636   1.122   8.019 -1.0334  1.2240  0.3475
 3020SOL     OW20521   1.527   0.051  14.975 -0.2596  0.1285 -0.0805
 3020SOL    HW120522   1.440   0.015  14.994 -1.1764  3.6455  2.2512
 3020SOL    HW220523   1.584   4.705  15.011 -0.3636  0.5403  0.8384
 3021SOL     OW20524   4.004   2.320   6.990  0.3013 -0.0558  0.2254
 3021SOL    HW120525   4.082   2.297   7.040  0.3390  0.7687  0.5517
 3021SOL    HW220526   3.989   2.407   7.028  0.3334  0.3454 -0.6810
 3022SOL     OW20527   2.106   3.539  10.614  0.1668  0.4554 -0.2645
 3022SOL    HW120528   2.190   3.563  10.574  0.7317  0.0579  0.6915
 3022SOL    HW220529   2.052   3.535  10.535  0.5611  0.7226 -0.5491
 3023SOL     OW20530   2.470   4.528   7.922  0.0040  0.2096 -0.1319
 3023SOL    HW120531   2.519   4.541   7.841 -1.0686  0.2143 -0.7862
 3023SOL    HW220532   2.518   4.589   7.978  1.5697 -0.9937 -0.1710
 3024SOL     OW20533   0.864   4.517   7.291  0.5978  0.4651 -0.7423
 3024SOL    HW120534   0.770   4.536   7.292 -0.2626 -3.9266 -0.3573
 3024SOL    HW220535   0.859   4.434   7.245 -2.6818  1.3344 -1.9738
 3025SOL     OW20536   4.137   2.368   6.748 -0.7994 -0.1231 -0.1923
 3025SOL    HW120537   4.190   2.292   6.770 -0.8586 -0.6916 -2.0572
 3025SOL    HW220538   4.077   2.352   6.820  1.8335 -1.4361  1.7166
 3026SOL     OW20539   3.545   3.676   0.415  0.1235 -0.5083  0.2503
 3026SOL    HW120540   3.492   3.619   0.359 -0.9090  0.6975  0.0136
 3026SOL    HW220541   3.510   3.764   0.400  0.1131 -0.5809 -0.1542
 3027SOL     OW20542   3.093   1.943   6.643 -0.0361 -0.5441 -0.3794
 3027SOL    HW120543   3.166   2.000   6.619  0.5389 -1.1411 -0.0709
 3027SOL    HW220544   3.119   1.914   6.731  1.0294  2.4890  0.3054
 3028SOL     OW20545   4.213   2.495  13.430 -0.2594  0.1562 -0.1429
 3028SOL    HW120546   4.221   2.577  13.381  0.7932  1.1523  1.6886
 3028SOL    HW220547   4.305   2.480  13.451 -0.1408  0.4836 -0.4159
 3029SOL     OW20548   3.969   0.507  16.499 -0.3446 -0.4068  0.1344
 3029SOL    HW120549   3.927   0.438  16.449  2.5624 -2.0437  0.0005
 3029SOL    HW220550   4.053   0.515  16.454  0.4142 -1.4987  1.3770
 3030SOL     OW20551   1.334   2.840   3.378  0.0725  0.0645  0.1866
 3030SOL    HW120552   1.255   2.838   3.432  1.1921 -0.1173  1.8242
 3030SOL    HW220553   1.391   2.882   3.442  1.6204 -0.1612 -1.0249
 3031SOL     OW20554   2.069   1.467   7.583 -0.3855 -0.2378 -0.2687
 3031SOL    HW120555   2.051   1.557   7.556 -0.4973 -0.3491 -0.5607
 3031SOL    HW220556   1.995   1.425   7.538 -1.1241  2.7782 -1.8813
 3032SOL     OW20557   2.730   4.180   5.198 -0.2954  0.1499 -0.1224
 3032SOL    HW120558   2.717   4.270   5.169 -0.3402 -0.0547 -0.7518
 3032SOL    HW220559   2.761   4.139   5.117  1.1399 -0.3031  0.6642
 3033SOL     OW20560   1.440   2.194   4.579  0.2096  0.4555  0.1171
 3033SOL    HW120561   1.503   2.124   4.561 -0.5968 -0.6142  1.5038
 3033SOL    HW220562   1.471   2.272   4.532 -2.4656  1.4532 -0.0051
 3034SOL     OW20563   4.053   0.515  16.766 -0.3059 -0.5453 -0.0078
 3034SOL    HW120564   4.034   0.516  16.672  1.3170  0.0227 -0.3168
 3034SOL    HW220565   4.113   0.441  16.771  0.2158 -0.1115  0.1137
 3035SOL     OW20566   0.789   3.948   6.216  0.2432  0.2317  0.0362
 3035SOL    HW120567   0.852   3.983   6.153  0.7943 -4.2189 -1.8480
 3035SOL    HW220568   0.838   3.886   6.270 -0.4284 -0.0960  0.2755
 3036SOL     OW20569   3.353   2.335   5.776 -0.2583  0.1095 -0.1124
 3036SOL    HW120570   3.396   2.421   5.775 -0.7279  0.3163 -2.4887
 3036SOL    HW220571   3.305   2.342   5.858 -0.1889  1.4894 -0.1975
 3037SOL     OW20572   0.920   3.068   7.440  0.4099  0.3081 -0.4638
 3037SOL    HW120573   0.923   3.136   7.373  0.5072  0.4003 -0.3668
 3037SOL    HW220574   1.006   3.065   7.482  1.7154  0.0602 -3.1934
 3038SOL     OW20575   0.217   1.060   6.226 -0.3387  0.0121 -0.5769
 3038SOL    HW120576   0.296   1.028   6.270 -0.8902  1.1944  1.2809
 3038SOL    HW220577   0.151   1.005   6.270  0.3356  0.3958  0.9125
 3039SOL     OW20578   4.577   2.408   2.600  0.1013 -0.2601 -0.0105
 3039SOL    HW120579   4.490   2.428   2.566  0.5423  1.3501 -0.1617
 3039SOL    HW220580   4.596   2.472   2.668  0.6347 -1.3057  0.8340
 3040SOL     OW20581   1.285   3.431  13.233  0.1979  0.1676 -0.0245
 3040SOL    HW120582   1.212   3.381  13.196  1.4585 -1.1504 -0.7144
 3040SOL    HW220583   1.265   3.511  13.185  0.1795  0.2833  0.1727
 3041SOL     OW20584   4.417   0.110  16.676 -0.0067  0.3991 -0.0212
 3041SOL    HW120585   4.452   0.031  16.718 -1.6012  0.6769  1.8611
 3041SOL    HW220586   4.440   0.104  16.583 -0.5769 -1.1742 -0.0606
 3042SOL     OW20587   1.747   0.612   6.052 -0.1124 -0.1952  0.3771
 3042SOL    HW120588   1.824   0.627   5.996 -0.8810 -0.5596 -0.7709
 3042SOL    HW220589   1.686   0.668   6.004  1.1093  2.0954  1.4981
 3043SOL     OW20590   0.204   3.289   3.378 -0.0293 -0.3576 -0.3216
 3043SOL    HW120591   0.294   3.293   3.347 -0.2686 -0.1491 -0.9824
 3043SOL    HW220592   0.195   3.198   3.409  2.2157 -0.8428 -1.1501
 3044SOL     OW20593   3.528   1.315   1.369 -0.3651 -0.0135 -0.0820
 3044SOL    HW120594   3.576   1.357   1.297  3.4000 -1.7618  1.4232
 3044SOL    HW220595   3.597   1.268   1.415 -0.6940 -0.0831  0.3351
 3045SOL     OW20596   2.828   2.608   1.927 -0.1319 -0.1824 -0.4880
 3045SOL    HW120597   2.844   2.686   1.980  0.0691 -0.4864 -0.1087
 3045SOL    HW220598   2.915   2.583   1.897 -0.0077 -1.4672  0.9444
 3046SOL     OW20599   2.112   1.724   7.254  0.0104 -0.3674 -0.0061
 3046SOL    HW120600   2.164   1.644   7.249  0.9044  0.1165  1.3558
 3046SOL    HW220601   2.154   1.782   7.190  0.7388 -3.3742 -2.2518
 3047SOL     OW20602   1.580   0.927  13.342  0.5402 -0.0825 -0.2848
 3047SOL    HW120603   1.621   0.842  13.357 -1.3627 -1.1057 -0.9317
 3047SOL    HW220604   1.640   0.968  13.279  0.4680 -0.5145 -0.6320
 3048SOL     OW20605   2.363   0.761   1.374  0.1902 -0.0124 -0.1032
 3048SOL    HW120606   2.329   0.673   1.387 -0.8988  0.4662  0.3481
 3048SOL    HW220607   2.313   0.814   1.436 -0.8135  1.3344 -2.0127
 3049SOL     OW20608   1.763   3.731   0.282  0.3714 -0.4731 -0.3092
 3049SOL    HW120609   1.785   3.824   0.278 -2.1750  0.0827 -1.4419
 3049SOL    HW220610   1.739   3.723   0.375 -2.2770 -1.1497 -1.0396
 3050SOL     OW20611   4.359   2.573   2.638 -0.1520 -0.2502 -0.0443
 3050SOL    HW120612   4.388   2.539   2.723  0.8891  0.5276 -0.0931
 3050SOL    HW220613   4.282   2.625   2.660 -0.8842 -1.3595  0.0420
 3051SOL     OW20614   4.154   1.091  10.903  0.1411 -0.2585  0.0022
 3051SOL    HW120615   4.058   1.093  10.900  0.1557 -2.0029 -1.4065
 3051SOL    HW220616   4.179   1.131  10.820 -0.0564 -1.3278 -0.5735
 3052SOL     OW20617   1.904   3.380   6.559 -0.1394  0.3183 -0.3708
 3052SOL    HW120618   1.973   3.314   6.554  1.5855  1.9535  1.9165
 3052SOL    HW220619   1.933   3.437   6.630 -0.5890  0.1927 -0.0858
 3053SOL     OW20620   1.879   1.051  14.276 -0.2215  0.4337 -0.3437
 3053SOL    HW120621   1.939   1.122  14.301 -0.8051  0.9784 -0.4822
 3053SOL    HW220622   1.793   1.091  14.293 -0.3340  0.1864 -0.3355
 3054SOL     OW20623   2.654   4.178   8.446  0.4404 -0.3181 -0.3001
 3054SOL    HW120624   2.572   4.160   8.400  1.0779 -2.1230 -0.7101
 3054SOL    HW220625   2.696   4.094   8.432  0.5145 -0.3088 -0.1320
 3055SOL     OW20626   1.429   4.520   6.306  0.8016  0.3783  0.2654
 3055SOL    HW120627   1.465   4.432   6.306  0.4608  0.2203 -1.7617
 3055SOL    HW220628   1.496   4.576   6.346  1.1050 -0.0800  0.3936
 3056SOL     OW20629   3.761   2.952   0.491  0.3343 -0.5434  0.0348
 3056SOL    HW120630   3.769   3.038   0.450  1.1023 -0.8572 -0.4674
 3056SOL    HW220631   3.682   2.965   0.543  0.2866 -2.7074  0.5134
 3057SOL     OW20632   4.636   2.189   9.250  0.1925 -0.2750 -0.4675
 3057SOL    HW120633   4.576   2.180   9.176 -1.2748 -1.6984  0.8996
 3057SOL    HW220634   4.718   2.162   9.208  0.2758 -0.6625 -0.0561
 3058SOL     OW20635   1.809   2.975   7.314  0.4922  0.2995  0.0377
 3058SOL    HW120636   1.765   2.929   7.243 -1.4511  1.8985  0.2190
 3058SOL    HW220637   1.735   3.019   7.355 -0.0103  1.4488 -2.1238
 3059SOL     OW20638   1.661   0.733   0.177  0.0943 -0.6333  0.0543
 3059SOL    HW120639   1.700   0.820   0.187 -0.8908 -0.1053 -0.6936
 3059SOL    HW220640   1.583   0.774   0.140 -0.7421  0.7463  3.3550
 3060SOL     OW20641   1.571   1.101   5.137  0.2057 -0.3616  0.3240
 3060SOL    HW120642   1.525   1.024   5.170 -0.4415 -0.7938 -1.5850
 3060SOL    HW220643   1.602   1.153   5.212  1.3009 -0.6471  0.0755
 3061SOL     OW20644   4.467   1.978  11.223 -0.2769  0.1909  0.1369
 3061SOL    HW120645   4.459   1.890  11.260 -1.7266 -0.3582 -1.4842
 3061SOL    HW220646   4.394   2.025  11.264  0.7697  2.2003 -0.3228
 3062SOL     OW20647   3.070   1.573  15.718 -0.1217  0.1674  0.3615
 3062SOL    HW120648   3.140   1.512  15.741  0.2772  1.1692  1.8186
 3062SOL    HW220649   3.118   1.633  15.660 -1.6178  0.5497 -0.4709
 3063SOL     OW20650   2.435   3.133  15.860  0.1038  0.2314  0.2771
 3063SOL    HW120651   2.505   3.072  15.882  0.1710 -0.1715 -1.1112
 3063SOL    HW220652   2.377   3.137  15.937 -0.1534 -0.6511  0.1288
 3064SOL     OW20653   1.066   4.556  11.117  0.5191  0.1235  0.2655
 3064SOL    HW120654   1.152   4.569  11.157  1.1553  0.7292 -1.2975
 3064SOL    HW220655   1.055   4.642  11.076 -1.3249  0.0464  0.6141
 3065SOL     OW20656   1.229   3.271   6.265 -0.0276 -0.2554  0.7075
 3065SOL    HW120657   1.164   3.330   6.304 -0.2196  0.6566 -0.9745
 3065SOL    HW220658   1.191   3.186   6.286 -2.4252  0.9531  1.3116
 3066SOL     OW20659   3.168   0.821   3.300 -0.2845  0.6560  0.2952
 3066SOL    HW120660   3.137   0.731   3.315  0.0452  0.5244  0.1934
 3066SOL    HW220661   3.083   0.863   3.310 -0.3983  0.5939 -0.4011
 3067SOL     OW20662   1.465   0.149   5.763 -0.4064  0.6092 -0.3327
 3067SOL    HW120663   1.481   0.074   5.820 -0.0244  2.0104  1.4145
 3067SOL    HW220664   1.450   0.216   5.829  0.0618 -0.2486  0.6435
 3068SOL     OW20665   0.507   3.103   6.677  0.3370  0.0540 -0.3600
 3068SOL    HW120666   0.537   3.118   6.587 -2.1542  1.0019 -1.0380
 3068SOL    HW220667   0.495   3.008   6.677  0.4173  0.0355 -2.7031
 3069SOL     OW20668   1.187   0.738   2.042  0.0280  0.3896  0.0962
 3069SOL    HW120669   1.193   0.751   2.137 -1.4786  0.2851  0.2002
 3069SOL    HW220670   1.093   0.752   2.035 -0.2695 -3.0442 -2.5847
 3070SOL     OW20671   3.585   3.453   8.638  0.1368 -0.2818 -0.2179
 3070SOL    HW120672   3.511   3.446   8.699 -1.1551 -0.1412 -1.7636
 3070SOL    HW220673   3.613   3.363   8.651 -0.6872 -0.0992  2.8764
 3071SOL     OW20674   2.139   3.734   3.466 -0.2068  0.2273  0.1517
 3071SOL    HW120675   2.069   3.691   3.416 -0.9243  0.9690  0.5081
 3071SOL    HW220676   2.117   3.723   3.559  1.9067 -1.5282  0.4366
 3072SOL     OW20677   0.482   3.202   7.083  0.0312 -0.2853 -0.2333
 3072SOL    HW120678   0.543   3.141   7.124 -1.1231 -0.4343  1.2456
 3072SOL    HW220679   0.412   3.142   7.059 -0.3388  0.2335 -0.4579
 3073SOL     OW20680   0.348   2.124   8.196  0.0276  0.3377  0.4767
 3073SOL    HW120681   0.360   2.119   8.102  1.2248 -2.0877  0.7645
 3073SOL    HW220682   0.315   2.035   8.206 -1.2826  0.9961  2.1457
 3074SOL     OW20683   0.861   4.446  11.342  0.2374  0.0682  0.3001
 3074SOL    HW120684   0.935   4.450  11.403  0.1898 -1.2939  0.4468
 3074SOL    HW220685   0.790   4.457  11.405  1.5351 -0.4915  1.8701
 3075SOL     OW20686   3.263   2.081   2.016  0.2170  0.3143 -0.2413
 3075SOL    HW120687   3.261   2.122   1.929 -0.7515  1.0733  0.1446
 3075SOL    HW220688   3.272   1.988   1.995  0.8477  0.4808 -0.7390
 3076SOL     OW20689   0.746   2.028   9.256  0.4246 -0.1079  0.3410
 3076SOL    HW120690   0.830   2.074   9.261  0.6937 -0.6354  0.6090
 3076SOL    HW220691   0.691   2.106   9.254 -2.3117 -2.0130  1.2241
 3077SOL     OW20692   4.003   0.527   7.257 -0.5581  0.1563 -0.0582
 3077SOL    HW120693   3.964   0.612   7.278 -1.3864 -0.4225  0.7019
 3077SOL    HW220694   3.948   0.478   7.318  0.1215  0.2088  0.6008
 3078SOL     OW20695   4.225   3.240   8.280  0.5365 -0.0336 -0.3216
 3078SOL    HW120696   4.269   3.241   8.195  0.1268  1.2063 -0.5119
 3078SOL    HW220697   4.131   3.238   8.260 -0.1739  0.0359  3.0633
 3079SOL     OW20698   0.550   1.304   4.703  0.0437  0.4045 -0.3483
 3079SOL    HW120699   0.632   1.297   4.656  0.8175  2.2988  0.7129
 3079SOL    HW220700   0.569   1.377   4.762  0.2422 -0.7610  1.0426
 3080SOL     OW20701   2.969   0.720   7.988 -0.6929 -0.0283  0.2278
 3080SOL    HW120702   2.972   0.643   8.044  0.1181  0.0572  0.3070
 3080SOL    HW220703   3.059   0.720   7.955 -0.5299 -0.2825  0.6668
 3081SOL     OW20704   0.046   3.385   2.245  0.5983  0.1407 -0.2853
 3081SOL    HW120705   0.061   3.317   2.179  0.5450  0.6823 -0.8590
 3081SOL    HW220706   0.011   3.339   2.321  1.0899 -0.7767 -0.6139
 3082SOL     OW20707   1.172   0.052   9.117 -0.2748 -0.0208 -0.3890
 3082SOL    HW120708   1.127   0.126   9.157 -0.3746  0.2791 -1.0493
 3082SOL    HW220709   1.231   0.097   9.056 -1.9068  0.3081 -1.7277
 3083SOL     OW20710   1.543   0.904   9.239  0.4288  0.3870 -0.0437
 3083SOL    HW120711   1.513   0.994   9.255 -0.8984  0.1036 -0.8911
 3083SOL    HW220712   1.627   0.926   9.199  0.4586  1.0281  0.3753
 3084SOL     OW20713   0.557   0.718   2.927 -0.0036 -0.4238  0.4592
 3084SOL    HW120714   0.614   0.718   2.850 -0.5104 -0.2753  0.0837
 3084SOL    HW220715   0.619   0.704   2.998 -1.5505 -0.0462  1.8932
 3085SOL     OW20716   2.446   0.715  11.709 -0.2473  0.2975 -0.0942
 3085SOL    HW120717   2.377   0.766  11.665 -0.4457  0.9177  0.9319
 3085SOL    HW220718   2.520   0.747  11.657 -0.8012  0.6144 -0.6980
 3086SOL     OW20719   4.585   4.317   0.867  0.4061  0.3496 -1.3201
 3086SOL    HW120720   4.678   4.309   0.891 -0.4077 -0.0764  1.6099
 3086SOL    HW220721   4.545   4.369   0.937 -0.5861 -1.3456 -0.6311
 3087SOL     OW20722   0.820   0.305   8.464  0.1141  0.0191 -0.0986
 3087SOL    HW120723   0.751   0.241   8.478  0.7648 -0.5270  0.6115
 3087SOL    HW220724   0.891   0.266   8.515  0.5897  1.2795  0.1994
 3088SOL     OW20725   4.038   3.856   6.961  0.1066  0.2916  0.0104
 3088SOL    HW120726   3.969   3.902   7.007 -0.6250 -2.2767  1.5037
 3088SOL    HW220727   4.023   3.761   6.966  1.9699 -0.0872 -1.4415
 3089SOL     OW20728   1.045   0.609   3.380 -0.6128 -0.6807  0.2803
 3089SOL    HW120729   1.032   0.523   3.341  4.1320 -2.1833  1.9971
 3089SOL    HW220730   0.997   0.592   3.462 -1.5850 -0.3409 -0.2161
 3090SOL     OW20731   1.171   2.275   4.372  0.9024  0.3754 -0.7078
 3090SOL    HW120732   1.155   2.235   4.287 -0.7126 -0.2233 -0.1392
 3090SOL    HW220733   1.240   2.340   4.359  0.9953  0.4779  0.3148
 3091SOL     OW20734   0.242   4.277  12.781 -0.2392 -0.5032 -0.0737
 3091SOL    HW120735   0.265   4.197  12.735 -1.3825 -0.5754 -0.5105
 3091SOL    HW220736   0.173   4.247  12.840  0.2787 -1.6094 -0.0402
 3092SOL     OW20737   2.963   1.898   5.567 -0.2873 -0.2863 -0.3840
 3092SOL    HW120738   2.905   1.824   5.548 -1.0490  0.1029  0.3894
 3092SOL    HW220739   3.029   1.850   5.618 -1.6282 -0.8526  0.8163
 3093SOL     OW20740   0.128   1.567  10.647  0.2413  0.3020  0.4129
 3093SOL    HW120741   0.198   1.519  10.603 -0.7359 -0.9696  0.2689
 3093SOL    HW220742   0.175   1.629  10.704  1.3238 -1.3450  1.3356
 3094SOL     OW20743   1.633   3.416   2.216 -0.4799 -0.1616  0.6810
 3094SOL    HW120744   1.597   3.327   2.217 -0.3717 -0.2292 -0.6329
 3094SOL    HW220745   1.591   3.458   2.141 -0.9397 -3.7532 -1.0770
 3095SOL     OW20746   0.318   4.327   8.086  1.0415 -0.2340 -0.3895
 3095SOL    HW120747   0.398   4.300   8.041 -0.3154 -1.0157 -2.3782
 3095SOL    HW220748   0.252   4.281   8.035  0.6934 -1.2324  0.9648
 3096SOL     OW20749   3.068   1.142  12.645  0.8362  0.2358 -0.0300
 3096SOL    HW120750   3.051   1.235  12.661 -1.2919 -0.0560 -0.5747
 3096SOL    HW220751   3.031   1.137  12.557 -0.9668  2.3103  0.6113
 3097SOL     OW20752   1.338   3.125   6.529 -0.2047  0.2147  0.8635
 3097SOL    HW120753   1.284   3.064   6.479 -0.4510  0.5235  0.7543
 3097SOL    HW220754   1.405   3.146   6.464 -0.1624 -1.3024  0.4123
 3098SOL     OW20755   0.388   1.683   2.520 -0.1732 -0.4817  0.1712
 3098SOL    HW120756   0.434   1.602   2.544  1.8609  0.4873 -0.4607
 3098SOL    HW220757   0.403   1.737   2.597 -1.7362 -0.3781  0.4022
 3099SOL     OW20758   0.588   2.617   9.908  0.1529 -0.1128  0.1474
 3099SOL    HW120759   0.591   2.595  10.002 -0.2717  3.0982  0.9193
 3099SOL    HW220760   0.528   2.692   9.911 -1.1036 -1.0873 -0.8031
 3100SOL     OW20761   4.465   4.578   4.228 -0.5886  0.1069 -0.8451
 3100SOL    HW120762   4.386   4.601   4.278  2.1248  2.1878  2.5140
 3100SOL    HW220763   4.526   4.642   4.263  1.4344 -1.1831 -2.0572
 3101SOL     OW20764   2.620   4.239   2.911  0.0372  0.0148 -0.6475
 3101SOL    HW120765   2.679   4.227   2.985 -0.4546  0.3907 -0.1995
 3101SOL    HW220766   2.558   4.298   2.954  0.3544 -0.4865  0.4780
 3102SOL     OW20767   2.947   1.208   3.165 -0.1158  0.0281 -0.4560
 3102SOL    HW120768   2.968   1.122   3.128  0.1470  0.1930 -0.6854
 3102SOL    HW220769   2.979   1.187   3.253 -0.8648  2.1250  0.3062
 3103SOL     OW20770   1.874   4.640   7.549  0.0590 -0.1802 -0.2103
 3103SOL    HW120771   1.925   4.563   7.577 -0.6174  0.6098  3.1209
 3103SOL    HW220772   1.888   4.630   7.455 -0.2453  0.8987 -0.3623
 3104SOL     OW20773   0.030   3.688  11.499 -0.0023  0.0653 -0.3024
 3104SOL    HW120774   0.097   3.621  11.511 -0.8264 -1.1887 -2.7308
 3104SOL    HW220775   0.065   3.748  11.434  0.0990  0.3991  0.0611
 3105SOL     OW20776   2.582   2.711   3.213 -0.2973  0.9621  0.6116
 3105SOL    HW120777   2.675   2.692   3.203 -0.8763 -1.9609  0.9174
 3105SOL    HW220778   2.568   2.801   3.183 -0.0427  0.5418 -0.7825
 3106SOL     OW20779   1.135   2.647   8.907  0.6580 -0.4009 -0.9566
 3106SOL    HW120780   1.140   2.733   8.950  2.7875 -0.3759 -1.2473
 3106SOL    HW220781   1.154   2.589   8.981 -2.2344 -0.9079 -0.6169
 3107SOL     OW20782   0.879   1.008   3.055 -0.7498 -0.4688  0.7110
 3107SOL    HW120783   0.846   1.018   3.145 -0.0842  1.4406  0.7441
 3107SOL    HW220784   0.968   1.043   3.061 -1.1690  0.8058 -0.5442
 3108SOL     OW20785   1.616   1.450   9.492 -1.1826 -0.5325  0.4273
 3108SOL    HW120786   1.642   1.396   9.566  1.2291 -0.4995 -0.3723
 3108SOL    HW220787   1.695   1.500   9.472 -1.5782  0.3668  1.1165
 3109SOL     OW20788   0.508   4.177   5.661 -0.4775 -0.4153 -0.4138
 3109SOL    HW120789   0.597   4.197   5.691  0.4471 -0.5636 -3.0463
 3109SOL    HW220790   0.477   4.138   5.743  2.6293  0.3898  1.1609
 3110SOL     OW20791   3.567   2.748   5.033 -0.1199 -0.5095 -0.4958
 3110SOL    HW120792   3.626   2.694   4.980 -1.8085 -1.8252 -1.0169
 3110SOL    HW220793   3.482   2.713   5.006 -0.9306  0.0167  1.4147
 3111SOL     OW20794   2.885   1.845   3.247  0.0745  0.6582  0.0060
 3111SOL    HW120795   2.876   1.936   3.274 -0.8711  0.7026 -0.4396
 3111SOL    HW220796   2.896   1.817   3.338 -1.8808  0.6778  0.2483
 3112SOL     OW20797   4.686   2.687   6.785  0.0505  0.0885 -0.3980
 3112SOL    HW120798   4.648   2.756   6.731 -0.5798 -1.9469 -2.5706
 3112SOL    HW220799   4.674   2.730   6.869  0.8846  1.4778 -0.9764
 3113SOL     OW20800   0.966   1.171  15.579  0.1493  0.5225 -0.7299
 3113SOL    HW120801   0.959   1.108  15.651 -0.8924  1.5476  0.0410
 3113SOL    HW220802   1.039   1.223  15.614 -0.7605  1.3013  0.0089
 3114SOL     OW20803   0.206   0.776   4.017  0.1301  0.2100 -0.2639
 3114SOL    HW120804   0.182   0.835   3.945  0.0355  0.4352 -0.0464
 3114SOL    HW220805   0.267   0.711   3.983 -1.2843 -0.8326 -0.8087
 3115SOL     OW20806   2.603   1.334   8.109  0.0006 -0.0393 -0.3425
 3115SOL    HW120807   2.686   1.292   8.087  1.3591  0.6480  3.2947
 3115SOL    HW220808   2.584   1.295   8.194 -3.7964 -0.7206 -1.5319
 3116SOL     OW20809   1.194   2.242  10.423  0.3410 -0.4877 -0.1217
 3116SOL    HW120810   1.274   2.294  10.419  1.1928 -1.7441  0.7223
 3116SOL    HW220811   1.193   2.187  10.344 -3.0325  0.9538 -1.0928
 3117SOL     OW20812   0.717   1.349   5.732 -0.5336  0.0180 -0.2786
 3117SOL    HW120813   0.705   1.429   5.680 -3.3814  0.3290  0.8432
 3117SOL    HW220814   0.804   1.371   5.766 -0.0193 -2.3876 -0.0835
 3118SOL     OW20815   2.222   1.063  12.788  0.5562  0.7472 -0.2712
 3118SOL    HW120816   2.229   0.994  12.854  1.1084  0.6033 -0.4812
 3118SOL    HW220817   2.227   1.137  12.849 -0.0860  0.1931  0.4449
 3119SOL     OW20818   0.710   2.141  11.387 -0.3157  0.5453  0.8284
 3119SOL    HW120819   0.792   2.140  11.339 -0.6944  0.5940  0.1894
 3119SOL    HW220820   0.645   2.141  11.317 -0.1428 -1.3243  0.6588
 3120SOL     OW20821   2.406   2.907  13.606  0.4217  0.1729 -0.4228
 3120SOL    HW120822   2.332   2.867  13.561 -1.1937 -0.2749  2.6258
 3120SOL    HW220823   2.432   2.842  13.671  0.3259 -1.0904 -1.6803
 3121SOL     OW20824   1.488   3.281   5.812 -0.0203  0.3460 -0.3820
 3121SOL    HW120825   1.425   3.353   5.812  0.8539  1.1233 -0.2422
 3121SOL    HW220826   1.438   3.221   5.757 -0.5470 -0.5438  1.0765
 3122SOL     OW20827   0.323   3.493  12.278  0.0052  0.4713  0.1330
 3122SOL    HW120828   0.258   3.544  12.231  1.0062  3.2404  1.7574
 3122SOL    HW220829   0.398   3.529  12.231  0.0306 -0.4845 -0.5564
 3123SOL     OW20830   2.034   3.649   4.452 -0.1506 -0.1344  0.0744
 3123SOL    HW120831   2.066   3.601   4.375  1.3095 -1.2121  1.3618
 3123SOL    HW220832   2.042   3.581   4.519  0.2271 -0.1982 -0.0380
 3124SOL     OW20833   2.638   3.249  16.324  0.1202  0.5287  0.6489
 3124SOL    HW120834   2.697   3.198  16.378 -0.0296  1.4339  1.6629
 3124SOL    HW220835   2.686   3.251  16.241 -0.6671  1.3370  0.2060
 3125SOL     OW20836   3.868   2.092   2.373  0.3088  0.4712  0.4196
 3125SOL    HW120837   3.932   2.028   2.342 -1.9016 -0.3281 -2.4565
 3125SOL    HW220838   3.937   2.157   2.383 -0.1631  1.1062 -0.5327
 3126SOL     OW20839   0.324   2.410   6.144 -0.4846 -0.0363 -0.1269
 3126SOL    HW120840   0.342   2.471   6.215  0.0794  1.8101 -1.8531
 3126SOL    HW220841   0.267   2.466   6.092  0.9922  0.1667 -1.5183
 3127SOL     OW20842   0.158   3.047   4.282  0.3336 -0.2357  0.0273
 3127SOL    HW120843   0.192   3.025   4.195 -0.6999  0.0505 -0.4446
 3127SOL    HW220844   0.229   3.103   4.312  1.4397 -0.3914 -2.2808
 3128SOL     OW20845   1.698   3.303   2.873  0.2267 -0.2275 -0.1451
 3128SOL    HW120846   1.731   3.214   2.884  0.1283 -0.1825  0.4804
 3128SOL    HW220847   1.654   3.305   2.958 -2.1182  0.2864 -1.3511
 3129SOL     OW20848   3.331   3.423  11.631  1.1512 -0.5858 -0.3708
 3129SOL    HW120849   3.335   3.428  11.535 -1.9604  1.3962 -0.3884
 3129SOL    HW220850   3.423   3.444  11.650  0.4870  0.1919  1.8998
 3130SOL     OW20851   3.421   0.043  13.765  1.3973 -0.0725  0.1191
 3130SOL    HW120852   3.375   0.017  13.845  0.4180 -1.5347 -0.9156
 3130SOL    HW220853   3.371   0.123  13.747  1.0756 -0.7413 -1.9841
 3131SOL     OW20854   1.647   0.143   4.579 -0.0446 -0.4240  0.8138
 3131SOL    HW120855   1.611   0.096   4.654 -0.0596  1.5370  2.0568
 3131SOL    HW220856   1.575   0.206   4.570  1.0435  0.7050 -0.0189
 3132SOL     OW20857   4.682   0.054   3.059 -0.1016 -0.0780 -0.5234
 3132SOL    HW120858   4.721   0.140   3.073 -0.7889  0.1678 -0.1212
 3132SOL    HW220859   4.587   0.068   3.061  0.0771  0.1263  4.9617
 3133SOL     OW20860   3.120   3.877   5.757  0.6140  0.1453 -0.4639
 3133SOL    HW120861   3.182   3.814   5.720 -0.8819 -0.5615 -1.7671
 3133SOL    HW220862   3.168   3.890   5.838 -0.4224 -0.5722  0.2673
 3134SOL     OW20863   0.873   4.618  16.624  0.3771  0.0269  0.4867
 3134SOL    HW120864   0.800   4.651  16.571 -0.0843 -2.1863 -0.2677
 3134SOL    HW220865   0.841   4.549  16.683  1.1165  1.9072  3.0561
 3135SOL     OW20866   3.403   0.629  15.066  0.1054 -0.2589 -0.1318
 3135SOL    HW120867   3.398   0.549  15.117  4.6543 -0.2654  0.2958
 3135SOL    HW220868   3.498   0.644  15.070  0.1220 -0.6091  0.7437
 3136SOL     OW20869   2.275   4.160   2.887  0.1116 -0.0022 -0.7293
 3136SOL    HW120870   2.358   4.195   2.855  0.7584  1.2673  2.3587
 3136SOL    HW220871   2.305   4.111   2.963 -1.1867  0.5591  0.1248
 3137SOL     OW20872   2.063   1.742   4.848 -0.6283  0.7488 -0.3412
 3137SOL    HW120873   2.086   1.729   4.756  0.5501 -3.4678  0.5163
 3137SOL    HW220874   2.103   1.828   4.862  2.7551 -0.8999  0.2481
 3138SOL     OW20875   3.970   1.357   4.425  0.3566 -0.1306  0.0271
 3138SOL    HW120876   4.045   1.417   4.437 -0.0726  0.6888 -1.4447
 3138SOL    HW220877   3.908   1.399   4.485  0.8303  1.1319 -0.3535
 3139SOL     OW20878   0.092   0.884   9.774 -0.1385  1.1651 -0.0464
 3139SOL    HW120879   0.128   0.965   9.810  0.3060  1.2555 -0.6975
 3139SOL    HW220880   0.014   0.863   9.826 -0.4925 -2.6054 -2.0475
 3140SOL     OW20881   3.116   1.336   7.958 -0.0893 -0.1318  0.2194
 3140SOL    HW120882   3.164   1.416   7.936 -1.4124  0.3376 -0.9532
 3140SOL    HW220883   3.142   1.325   8.049 -0.8953  2.5628  0.7813
 3141SOL     OW20884   2.208   2.272   7.905  0.8515  0.0835  0.0081
 3141SOL    HW120885   2.112   2.277   7.907  0.7862 -1.8579  1.1629
 3141SOL    HW220886   2.213   2.185   7.866 -2.0529  0.8199 -2.0259
 3142SOL     OW20887   2.666   3.472  16.855 -0.3312  0.3296  0.9062
 3142SOL    HW120888   2.703   3.385  16.847 -1.2693  0.4130 -3.9268
 3142SOL    HW220889   2.607   3.461  16.930 -3.7430 -0.7738 -1.9417
 3143SOL     OW20890   1.545   2.356  14.734 -0.6508  0.3925  0.2448
 3143SOL    HW120891   1.496   2.402  14.666 -0.5243 -1.4123 -1.0603
 3143SOL    HW220892   1.604   2.425  14.765  0.9379 -0.1723 -1.5049
 3144SOL     OW20893   1.784   3.104   8.081  0.1166  0.6031 -0.4830
 3144SOL    HW120894   1.701   3.057   8.072  1.0475 -0.5394 -2.9308
 3144SOL    HW220895   1.761   3.195   8.064  1.9286  1.4133  1.4247
 3145SOL     OW20896   4.576   1.169   6.945  0.2205 -0.2885 -0.4037
 3145SOL    HW120897   4.525   1.250   6.939  2.3208  1.0493 -0.2410
 3145SOL    HW220898   4.665   1.204   6.954  0.1233 -0.4128  0.9743
 3146SOL     OW20899   1.219   4.602  13.672  0.0281  0.4873 -0.3800
 3146SOL    HW120900   1.268   4.677  13.707 -0.2568  0.5128 -0.0302
 3146SOL    HW220901   1.170   4.580  13.752  0.2088 -1.4984 -0.8168
 3147SOL     OW20902   3.712   0.274  12.123  0.8290 -0.2155  0.2456
 3147SOL    HW120903   3.708   0.354  12.071  1.3693 -0.9811 -0.9750
 3147SOL    HW220904   3.640   0.287  12.184  0.1863 -1.9074 -0.1526
 3148SOL     OW20905   2.460   2.034   2.438 -0.2542  0.2762 -0.1680
 3148SOL    HW120906   2.373   1.994   2.443  0.4371 -1.0925  1.0528
 3148SOL    HW220907   2.440   2.112   2.490  1.5280  1.6822 -1.6198
 3149SOL     OW20908   0.413   2.639   3.544  0.3818 -0.6817  0.0166
 3149SOL    HW120909   0.489   2.694   3.563 -0.8042  1.1994 -0.6564
 3149SOL    HW220910   0.423   2.570   3.610 -0.9508  1.1959  2.1928
 3150SOL     OW20911   3.857   2.220   5.428  0.2143  0.5093  0.6879
 3150SOL    HW120912   3.778   2.251   5.472  0.3955  1.5592  0.2610
 3150SOL    HW220913   3.841   2.125   5.431 -0.8860  0.7380  2.3218
 3151SOL     OW20914   0.006   1.577  17.444 -0.2197  0.8818  0.3522
 3151SOL    HW120915   0.021   1.572  17.539  2.5654 -1.9331 -0.2529
 3151SOL    HW220916   4.689   1.664  17.437 -1.9662  0.0406 -0.3147
 3152SOL     OW20917   2.752   2.929   1.818 -0.4266  0.1531 -0.3425
 3152SOL    HW120918   2.679   2.990   1.832 -2.4618 -2.6752  1.2307
 3152SOL    HW220919   2.709   2.866   1.760 -1.8896 -0.1879  1.1200
 3153SOL     OW20920   0.378   2.408   1.195 -0.2025 -0.4421  0.2337
 3153SOL    HW120921   0.443   2.349   1.156  0.4147  0.8385 -0.6600
 3153SOL    HW220922   0.364   2.480   1.134 -0.3921  0.0782  0.8949
 3154SOL     OW20923   2.036   3.188  15.165 -0.2679 -0.4984 -0.2279
 3154SOL    HW120924   2.020   3.222  15.077  1.0510 -2.6357 -1.3031
 3154SOL    HW220925   2.087   3.111  15.138  0.0304 -0.4785  0.2719
 3155SOL     OW20926   2.079   4.181  11.618  0.3435 -0.1365  0.1222
 3155SOL    HW120927   2.108   4.215  11.703 -1.3950  0.1816  0.5869
 3155SOL    HW220928   2.160   4.141  11.588 -0.4700 -0.7661 -1.2090
 3156SOL     OW20929   2.153   2.762   0.258  0.1417  0.5170 -0.7424
 3156SOL    HW120930   2.117   2.717   0.335  0.5788 -0.3523 -1.0394
 3156SOL    HW220931   2.079   2.803   0.214 -1.6274 -1.7451  0.1388
 3157SOL     OW20932   4.060   1.884   6.279  0.6135  0.5782 -0.1820
 3157SOL    HW120933   4.090   1.811   6.333 -0.9468 -1.0391 -1.4683
 3157SOL    HW220934   4.136   1.942   6.281  1.5588 -0.7458  3.2051
 3158SOL     OW20935   3.984   3.487   2.579  0.3727 -0.0910  0.3167
 3158SOL    HW120936   3.991   3.573   2.621  0.9689  0.3102 -0.6232
 3158SOL    HW220937   3.892   3.472   2.604 -0.1213  0.3085 -1.2615
 3159SOL     OW20938   1.713   2.223   8.769 -0.5310  0.1185  0.4222
 3159SOL    HW120939   1.737   2.158   8.702 -1.5995  0.1342  0.0293
 3159SOL    HW220940   1.619   2.209   8.775 -0.5682 -0.3876 -1.4604
 3160SOL     OW20941   2.666   1.577   4.073 -0.0288  0.3617 -0.0151
 3160SOL    HW120942   2.601   1.512   4.100 -1.2715  1.3258 -0.6777
 3160SOL    HW220943   2.615   1.657   4.085  0.3079  0.9065 -2.2156
 3161SOL     OW20944   0.699   3.299   7.736 -0.8712 -0.2906 -0.0082
 3161SOL    HW120945   0.651   3.303   7.819  2.0945  0.5224  1.6596
 3161SOL    HW220946   0.681   3.387   7.704 -0.4228  0.3815  1.6001
 3162SOL     OW20947   0.809   1.777  15.240  0.3906  0.3029  0.2819
 3162SOL    HW120948   0.727   1.798  15.284 -0.1899  0.5868 -0.9283
 3162SOL    HW220949   0.841   1.853  15.191  1.1153  1.0176  1.8818
 3163SOL     OW20950   4.052   1.820  16.142 -0.4077  0.1321 -0.2470
 3163SOL    HW120951   3.964   1.855  16.125  0.8434  3.2364 -0.2825
 3163SOL    HW220952   4.104   1.899  16.151 -2.5769  1.5395  0.0273
 3164SOL     OW20953   4.013   1.582   3.577  0.0996 -0.0464  0.4163
 3164SOL    HW120954   4.108   1.584   3.577  0.0852  0.9270 -0.3545
 3164SOL    HW220955   4.000   1.491   3.550 -2.7334  1.6183 -3.7617
 3165SOL     OW20956   2.627   1.439   5.468  0.0373  0.3663  0.7359
 3165SOL    HW120957   2.606   1.346   5.470  2.8429 -0.2475  2.2552
 3165SOL    HW220958   2.549   1.465   5.419  0.7030 -1.7680 -1.4505
 3166SOL     OW20959   1.806   2.754   6.695  0.6913  0.4279  0.3114
 3166SOL    HW120960   1.889   2.786   6.730  0.5316  1.4265 -0.2276
 3166SOL    HW220961   1.814   2.767   6.601 -0.7787 -1.5718 -0.0901
 3167SOL     OW20962   1.356   2.519   6.432 -0.0783  0.0975  0.0914
 3167SOL    HW120963   1.296   2.448   6.407  0.8260 -0.6709  0.0890
 3167SOL    HW220964   1.322   2.586   6.374  1.7310  0.1272 -0.9079
 3168SOL     OW20965   3.797   3.491   8.161 -0.5316 -0.1208 -0.1544
 3168SOL    HW120966   3.811   3.586   8.158  1.1787 -0.3320  1.1444
 3168SOL    HW220967   3.703   3.481   8.142 -1.3258  2.0393  2.6046
 3169SOL     OW20968   1.647   0.372   2.359  0.0723 -0.1403  0.1235
 3169SOL    HW120969   1.659   0.306   2.427  0.2941  1.9952  2.1670
 3169SOL    HW220970   1.733   0.369   2.316  1.2755 -1.4831  2.6675
 3170SOL     OW20971   3.423   2.982   8.086  0.2229  0.1096  1.1904
 3170SOL    HW120972   3.493   3.034   8.047  0.2567 -0.6571  0.2416
 3170SOL    HW220973   3.364   3.056   8.101 -1.5451 -1.3563  1.4712
 3171SOL     OW20974   2.480   1.827   6.236  0.2812 -0.2811  0.5572
 3171SOL    HW120975   2.494   1.920   6.220  0.8141 -0.6624 -1.2039
 3171SOL    HW220976   2.516   1.813   6.323  1.3624  1.3334  0.3663
 3172SOL     OW20977   2.725   3.564  14.380  0.0532  0.3032  0.1008
 3172SOL    HW120978   2.637   3.567  14.419 -0.4508  1.5673 -1.1333
 3172SOL    HW220979   2.791   3.611  14.430  3.0959 -3.5472 -0.3225
 3173SOL     OW20980   3.719   4.197  16.013  0.7043  0.5280  0.5194
 3173SOL    HW120981   3.792   4.168  15.957  1.1973  1.4875  0.6761
 3173SOL    HW220982   3.652   4.224  15.951  0.0663  1.4703  1.6192
 3174SOL     OW20983   2.468   1.193   2.712  0.0367 -0.7318  0.1531
 3174SOL    HW120984   2.402   1.151   2.656  1.0890  0.4532 -1.9987
 3174SOL    HW220985   2.546   1.186   2.657  1.0595  2.2531  1.2157
 3175SOL     OW20986   1.618   4.031  13.769 -0.2138 -0.1975 -0.1577
 3175SOL    HW120987   1.544   4.083  13.738 -1.0065 -0.5821  1.0852
 3175SOL    HW220988   1.575   3.949  13.792 -0.2040 -0.1613 -0.0138
 3176SOL     OW20989   1.099   4.443   7.488  0.2887 -0.1655  0.0344
 3176SOL    HW120990   1.082   4.505   7.417  1.3407  1.5152  1.2389
 3176SOL    HW220991   1.012   4.436   7.528 -0.3917 -3.6302 -2.0932
 3177SOL     OW20992   4.455   3.498   6.547  0.2483 -0.4802  0.2032
 3177SOL    HW120993   4.413   3.570   6.595 -2.0383 -1.3626 -0.4916
 3177SOL    HW220994   4.405   3.421   6.573  0.1067 -0.9257 -1.4044
 3178SOL     OW20995   4.249   1.645   2.857  0.2347  0.0166 -0.1574
 3178SOL    HW120996   4.263   1.735   2.827 -1.5247 -0.0818 -1.2844
 3178SOL    HW220997   4.158   1.634   2.830  0.4129  0.7411 -1.0656
 3179SOL     OW20998   2.880   1.948   0.983 -0.0732  0.0901  0.3328
 3179SOL    HW120999   2.972   1.927   0.969  0.3350  1.2092  1.3580
 3179SOL    HW221000   2.855   1.884   1.050  1.1653 -1.9700 -1.1992
 3180SOL     OW21001   3.874   1.365   9.984 -0.2417  0.3861 -0.2061
 3180SOL    HW121002   3.852   1.401   9.898  2.0852 -0.5900 -1.2282
 3180SOL    HW221003   3.962   1.402   9.992  0.2479 -0.6828 -0.6032
 3181SOL     OW21004   4.431   1.112   8.484 -0.0546 -0.0617  0.2307
 3181SOL    HW121005   4.492   1.184   8.468  2.5016 -2.1516  0.5655
 3181SOL    HW221006   4.411   1.120   8.577 -0.9705 -0.0872  0.0435
 3182SOL     OW21007   3.454   0.331   0.271 -0.4987  0.2747 -0.0630
 3182SOL    HW121008   3.488   0.419   0.286  1.5287 -0.1940 -1.8613
 3182SOL    HW221009   3.496   0.262   0.323 -0.1996  0.1820 -0.4171
 3183SOL     OW21010   1.047   3.442   6.398 -0.2178  0.0599  0.3531
 3183SOL    HW121011   0.971   3.465   6.344 -0.5887 -0.9640  0.4415
 3183SOL    HW221012   1.017   3.363   6.443 -1.4448 -0.7149 -1.8190
 3184SOL     OW21013   0.723   2.666   1.809  0.7191  0.0788 -0.0928
 3184SOL    HW121014   0.767   2.582   1.798 -0.3280 -0.2917 -1.5548
 3184SOL    HW221015   0.637   2.626   1.796  1.7213 -1.9363 -0.4139
 3185SOL     OW21016   2.163   1.322   7.290  0.3108 -0.1983 -0.5859
 3185SOL    HW121017   2.170   1.263   7.215 -2.4033 -1.6913  0.3322
 3185SOL    HW221018   2.194   1.406   7.255  1.6907 -1.1990 -1.7818
 3186SOL     OW21019   4.548   0.243   3.903 -0.0547 -0.4894 -0.3329
 3186SOL    HW121020   4.639   0.272   3.911 -1.0706  2.2845  1.1130
 3186SOL    HW221021   4.575   0.169   3.849 -2.6325 -1.2240 -0.6299
 3187SOL     OW21022   3.602   1.697   7.334  0.1008 -0.4577  0.1176
 3187SOL    HW121023   3.646   1.770   7.290  1.4443 -1.9745 -1.0618
 3187SOL    HW221024   3.520   1.733   7.366 -0.2184 -0.7089 -0.4126
 3188SOL     OW21025   4.492   3.330  11.385  0.5717 -0.0403  0.2186
 3188SOL    HW121026   4.454   3.411  11.418  3.6355  0.8572  1.5240
 3188SOL    HW221027   4.556   3.305  11.451 -0.6440  0.7083  1.6609
 3189SOL     OW21028   2.233   1.761   6.159 -0.7490 -0.1670 -0.0641
 3189SOL    HW121029   2.315   1.770   6.207  0.3369  3.1272 -2.5315
 3189SOL    HW221030   2.209   1.849   6.128 -1.3981 -1.6555 -3.8531
 3190SOL     OW21031   4.508   1.646  12.294  0.5507  0.1820  0.1163
 3190SOL    HW121032   4.445   1.624  12.226  1.1329 -0.8992 -0.0794
 3190SOL    HW221033   4.456   1.689  12.362 -0.7462  1.8464 -1.9231
 3191SOL     OW21034   4.213   2.353   4.080 -0.3350  0.2723 -0.0370
 3191SOL    HW121035   4.246   2.408   4.008 -0.2406 -2.1368 -1.8470
 3191SOL    HW221036   4.176   2.414   4.144  1.4931  1.2647  0.0902
 3192SOL     OW21037   0.291   2.938  16.444  0.1038  0.8939  0.2910
 3192SOL    HW121038   0.356   2.869  16.453  1.3420  1.8358 -1.2420
 3192SOL    HW221039   0.345   3.016  16.428  2.4682 -0.8723 -0.3412
 3193SOL     OW21040   2.273   2.333  16.679  0.6862  0.4357  0.0082
 3193SOL    HW121041   2.323   2.257  16.649  0.8854 -0.5418  2.8038
 3193SOL    HW221042   2.287   2.331  16.774 -0.3318  0.1604  0.1600
 3194SOL     OW21043   1.578   1.424   2.496  0.1020 -0.6543  0.4535
 3194SOL    HW121044   1.591   1.413   2.402 -1.6953  0.8128  0.0364
 3194SOL    HW221045   1.629   1.348   2.523 -1.4836 -1.0048  2.4976
 3195SOL     OW21046   2.476   1.043   8.736 -0.0373  0.2508 -0.7178
 3195SOL    HW121047   2.385   1.035   8.764  0.8572  2.4932  2.9066
 3195SOL    HW221048   2.470   1.119   8.678  1.5893  2.2397  1.6859
 3196SOL     OW21049   1.930   0.259   1.622 -0.1466  0.0089 -0.3361
 3196SOL    HW121050   1.870   0.193   1.588 -1.2660 -1.1076  3.7817
 3196SOL    HW221051   1.935   0.233   1.714 -1.2857  0.2270 -0.2155
 3197SOL     OW21052   4.640   2.386  14.946 -0.6030 -0.2798  0.7050
 3197SOL    HW121053   4.647   2.344  14.860 -1.7660 -0.7304  0.8309
 3197SOL    HW221054   0.005   2.360  14.978  0.3230  0.0222 -1.5264
 3198SOL     OW21055   4.594   0.290  17.681  0.3814  0.0762  0.3720
 3198SOL    HW121056   4.602   0.385  17.679  0.0947  0.0659 -1.1549
 3198SOL    HW221057   4.499   0.288  17.688  0.2940 -2.8513 -1.5984
 3199SOL     OW21058   3.300   2.228   8.372 -0.1571 -0.0775  0.2349
 3199SOL    HW121059   3.340   2.142   8.361  3.5712  1.4624  2.0118
 3199SOL    HW221060   3.352   2.262   8.444 -0.7333  0.8286  0.2217
 3200SOL     OW21061   1.835   2.656  16.698  0.0136  0.4183 -0.0033
 3200SOL    HW121062   1.758   2.698  16.735  0.5005  1.0324  0.3255
 3200SOL    HW221063   1.841   2.564  16.722 -2.8925  0.2218 -0.1118
 3201SOL     OW21064   2.598   0.869   3.132  0.6174  0.4098  0.0658
 3201SOL    HW121065   2.669   0.858   3.069  0.5018 -1.8113  0.3199
 3201SOL    HW221066   2.637   0.837   3.213  0.8188  0.4706 -0.0078
 3202SOL     OW21067   3.779   2.730   3.140 -0.9254  0.5974 -0.6112
 3202SOL    HW121068   3.743   2.814   3.167 -3.1254 -0.3956 -0.4786
 3202SOL    HW221069   3.720   2.668   3.183 -0.2429 -0.5977 -1.3958
 3203SOL     OW21070   1.068   0.783   4.256 -0.3226  0.1733  1.1623
 3203SOL    HW121071   1.006   0.791   4.184 -0.1737 -0.5951  0.9446
 3203SOL    HW221072   1.049   0.868   4.297  0.6078  1.2890 -0.7414
 3204SOL     OW21073   0.779   4.601   2.674  0.8173  0.0960  0.3887
 3204SOL    HW121074   0.731   4.520   2.656  1.2364 -0.1970  0.5729
 3204SOL    HW221075   0.753   4.616   2.765 -0.5965 -0.5010  0.0826
 3205SOL     OW21076   0.175   3.699   9.099  0.2773  0.0114  0.2041
 3205SOL    HW121077   0.197   3.606   9.094  1.0841  0.2688 -0.9869
 3205SOL    HW221078   0.085   3.692   9.132  0.5409  1.2164  1.1670
 3206SOL     OW21079   3.181   1.456   7.654 -0.0593  0.4903 -0.1073
 3206SOL    HW121080   3.216   1.492   7.735  0.8131 -1.7363  0.4859
 3206SOL    HW221081   3.090   1.451   7.682 -0.5171 -1.7316 -1.9708
 3207SOL     OW21082   1.996   1.042   5.661 -0.0979  0.5640  0.1523
 3207SOL    HW121083   2.004   0.994   5.579  1.4316 -1.4018  1.4277
 3207SOL    HW221084   2.078   1.014   5.703 -0.4107 -0.1477  0.2827
 3208SOL     OW21085   0.970   1.872   5.793  0.3157 -0.5693 -0.1709
 3208SOL    HW121086   0.940   1.853   5.704 -1.0997  1.1676 -0.0580
 3208SOL    HW221087   1.054   1.916   5.775  0.8062 -1.5576 -0.3028
 3209SOL     OW21088   2.999   4.094   2.743 -0.0253 -0.2495  0.2098
 3209SOL    HW121089   3.072   4.035   2.722 -1.6547 -2.0518 -0.3747
 3209SOL    HW221090   2.920   4.040   2.739  0.6573 -1.1089 -1.4476
 3210SOL     OW21091   4.244   2.288   7.153  0.2166  0.9241  0.3173
 3210SOL    HW121092   4.229   2.196   7.177 -0.4159  0.4241 -1.9328
 3210SOL    HW221093   4.301   2.313   7.225  1.3204  1.0208 -0.5908
 3211SOL     OW21094   1.905   0.254  10.261 -0.0966  0.2340  0.4537
 3211SOL    HW121095   1.949   0.185  10.312  1.4156 -1.4199 -3.0928
 3211SOL    HW221096   1.890   0.311  10.336 -1.3187  1.6429 -0.8814
 3212SOL     OW21097   1.451   0.785   8.503  0.2648 -0.2294  0.3053
 3212SOL    HW121098   1.409   0.770   8.418 -2.6093  0.7777  1.5675
 3212SOL    HW221099   1.483   0.698   8.527 -0.1700 -0.9521 -1.6613
 3213SOL     OW21100   4.413   1.745   9.240 -0.1945  0.4109  0.9031
 3213SOL    HW121101   4.506   1.740   9.215  0.0184  2.3816  1.2744
 3213SOL    HW221102   4.375   1.707   9.160  2.1540 -0.8075  0.3502
 3214SOL     OW21103   0.427   3.165  16.792 -0.1680 -0.7504  0.2206
 3214SOL    HW121104   0.468   3.217  16.861 -2.1291  0.7398  0.2564
 3214SOL    HW221105   0.485   3.175  16.717 -3.2350  0.9501 -1.9025
 3215SOL     OW21106   1.062   2.822   6.870  0.5009  0.1939  0.0898
 3215SOL    HW121107   1.037   2.839   6.779  0.4803  4.0465  0.8202
 3215SOL    HW221108   0.979   2.831   6.917  0.6052 -1.4714  0.5936
 3216SOL     OW21109   2.797   1.302   2.173  0.2671  0.4333  0.0512
 3216SOL    HW121110   2.872   1.251   2.143  1.2776  1.0467  1.5686
 3216SOL    HW221111   2.835   1.352   2.245 -0.6624  2.3931 -0.7959
 3217SOL     OW21112   1.227   4.707  14.300  0.3345  0.3662  0.1342
 3217SOL    HW121113   1.320   4.687  14.304  0.4612  1.3913  2.1809
 3217SOL    HW221114   1.228   0.042  14.223  1.0925 -1.7255 -1.3989
 3218SOL     OW21115   1.646   2.296   8.409  0.3369 -0.5436 -0.5886
 3218SOL    HW121116   1.701   2.243   8.468  1.2892 -0.1703 -1.1465
 3218SOL    HW221117   1.561   2.290   8.453  0.1547 -3.0339 -1.2844
 3219SOL     OW21118   1.937   4.692   2.348 -0.1914 -0.1167  0.0727
 3219SOL    HW121119   1.865   4.658   2.400 -2.3742 -2.6135 -4.5583
 3219SOL    HW221120   2.006   4.665   2.409 -1.2107 -0.4228  1.0774
 3220SOL     OW21121   2.116   0.302   7.517 -0.3972  0.0549  0.1820
 3220SOL    HW121122   2.191   0.246   7.498 -0.8363 -0.3201 -0.4260
 3220SOL    HW221123   2.105   0.329   7.426  1.4752  1.2895  0.3115
 3221SOL     OW21124   3.605   0.595   5.878 -0.3069 -0.0333  0.2157
 3221SOL    HW121125   3.678   0.602   5.816 -1.3021  0.7165 -0.8660
 3221SOL    HW221126   3.566   0.682   5.889 -0.8921  0.0474 -2.5805
 3222SOL     OW21127   2.814   1.612  15.655  0.1510  0.0837  0.3089
 3222SOL    HW121128   2.826   1.647  15.567 -2.5170  2.8740  1.0839
 3222SOL    HW221129   2.907   1.607  15.680 -0.3735 -1.1191  2.0286
 3223SOL     OW21130   2.329   2.574   4.218  0.1020  0.0982  0.6306
 3223SOL    HW121131   2.264   2.558   4.148  0.0917 -0.2750  0.7255
 3223SOL    HW221132   2.280   2.534   4.290  1.0587 -2.6246 -0.2273
 3224SOL     OW21133   3.984   1.984   7.667 -0.1272  0.5307  0.0531
 3224SOL    HW121134   3.975   1.984   7.571  0.3412 -2.6019  0.0104
 3224SOL    HW221135   3.919   1.915   7.680 -1.7014  2.4795  2.3949
 3225SOL     OW21136   0.612   0.729  15.246  0.0542 -0.3212  0.5015
 3225SOL    HW121137   0.702   0.695  15.239 -0.0485  0.1414 -3.1052
 3225SOL    HW221138   0.630   0.808  15.195  0.8312 -0.0085  1.2527
 3226SOL     OW21139   4.464   0.645   3.741  0.0315 -0.0079 -0.6205
 3226SOL    HW121140   4.399   0.648   3.671  0.3186 -1.5092 -0.9470
 3226SOL    HW221141   4.524   0.580   3.705  0.9041  0.7075 -0.4590
 3227SOL     OW21142   0.664   1.092   5.727  0.4224  0.2943  0.1631
 3227SOL    HW121143   0.677   1.187   5.727  0.8279  0.2356  0.5423
 3227SOL    HW221144   0.750   1.077   5.765  1.2554 -0.2433 -1.9692
 3228SOL     OW21145   3.518   2.100   3.178  0.2197  0.4779  0.2859
 3228SOL    HW121146   3.551   2.010   3.167  0.9447  0.4180  2.9470
 3228SOL    HW221147   3.594   2.147   3.143  0.4669 -0.2056 -0.1047
 3229SOL     OW21148   0.173   3.289   3.950  0.2536  0.0622 -0.2697
 3229SOL    HW121149   0.125   3.360   3.906 -0.9126 -0.0154  0.9032
 3229SOL    HW221150   0.230   3.259   3.879 -0.5350 -0.7083 -0.5793
 3230SOL     OW21151   2.228   0.545   3.546  0.4292  0.3674  0.6393
 3230SOL    HW121152   2.170   0.571   3.618 -1.3128 -2.1327  0.1454
 3230SOL    HW221153   2.191   0.596   3.475 -1.3022 -1.0813  0.4818
 3231SOL     OW21154   2.875   4.195  13.235 -0.0964  0.3513 -0.0793
 3231SOL    HW121155   2.871   4.102  13.259 -1.0000  0.2957 -0.4384
 3231SOL    HW221156   2.868   4.238  13.320  1.5744 -0.3123  0.3980
 3232SOL     OW21157   3.930   1.407   1.325 -0.3832  0.4628  0.5076
 3232SOL    HW121158   4.024   1.405   1.311 -0.5739 -0.0430 -0.7959
 3232SOL    HW221159   3.902   1.315   1.328 -0.3346  0.4199 -0.1909
 3233SOL     OW21160   2.991   2.909   6.443  0.0360 -0.2255 -0.0160
 3233SOL    HW121161   3.042   2.865   6.511  0.2038 -0.8871 -0.5653
 3233SOL    HW221162   3.023   2.999   6.436 -0.9148  0.1951  0.9878
 3234SOL     OW21163   0.982   0.747  11.759 -0.2318  0.1678  0.0675
 3234SOL    HW121164   0.929   0.749  11.680  0.0275 -0.4419 -0.1230
 3234SOL    HW221165   1.057   0.798  11.729  0.4653 -1.0674 -0.3228
 3235SOL     OW21166   3.982   0.304   6.474  0.1509 -0.2221  0.4474
 3235SOL    HW121167   4.055   0.255   6.513  0.2856  0.3657  0.9464
 3235SOL    HW221168   3.996   0.393   6.506  0.1324 -0.1864  0.3554
 3236SOL     OW21169   2.575   1.453   2.848 -0.2538  0.3623  0.0801
 3236SOL    HW121170   2.638   1.381   2.848 -0.8868 -0.2154 -2.7694
 3236SOL    HW221171   2.573   1.478   2.940  1.3087  2.9474 -0.5757
 3237SOL     OW21172   2.594   3.914   3.469 -1.0645  0.0248  0.5397
 3237SOL    HW121173   2.565   3.823   3.473 -2.2422  0.4271  1.1521
 3237SOL    HW221174   2.538   3.948   3.539 -2.1727 -0.4985 -0.0903
 3238SOL     OW21175   3.443   3.928  14.109  0.3169  0.5046 -0.1501
 3238SOL    HW121176   3.367   3.892  14.064  0.9905 -0.6961 -0.3208
 3238SOL    HW221177   3.455   4.002  14.049  2.7621 -0.0057 -0.3064
 3239SOL     OW21178   1.511   2.262   3.278 -0.1190 -0.1080 -0.2237
 3239SOL    HW121179   1.453   2.335   3.300 -1.9325 -2.0351  1.4375
 3239SOL    HW221180   1.591   2.304   3.308  0.5864  0.2072 -2.5351
 3240SOL     OW21181   3.310   1.270  15.019 -0.7316  0.2653 -0.0290
 3240SOL    HW121182   3.314   1.205  15.089  2.2452 -1.5481 -1.8721
 3240SOL    HW221183   3.296   1.347  15.074  0.7069  0.4861  0.0189
 3241SOL     OW21184   4.367   0.291   6.393  0.0647  0.3890 -0.2884
 3241SOL    HW121185   4.339   0.202   6.372 -0.0860 -0.4039  3.2005
 3241SOL    HW221186   4.385   0.266   6.484  2.4907  3.8960  0.1720
 3242SOL     OW21187   1.405   2.059   5.552 -0.4285  0.7190 -0.5141
 3242SOL    HW121188   1.405   2.080   5.459  0.1886 -0.8499 -0.8763
 3242SOL    HW221189   1.462   1.982   5.544 -0.7904  0.7070 -2.9043
 3243SOL     OW21190   3.949   0.573  15.655  0.1988  0.4546 -0.0825
 3243SOL    HW121191   4.032   0.581  15.701  0.4601 -0.2564 -0.4390
 3243SOL    HW221192   3.877   0.570  15.718 -0.3850 -2.0974 -0.8831
 3244SOL     OW21193   4.153   2.099   4.621  0.4246 -0.2241 -0.0265
 3244SOL    HW121194   4.078   2.070   4.674 -0.5132 -0.4361 -1.4604
 3244SOL    HW221195   4.212   2.025   4.636 -1.7323 -1.5626  1.9455
 3245SOL     OW21196   0.811   0.671   5.815 -0.2217 -0.4558 -0.4973
 3245SOL    HW121197   0.903   0.646   5.805  0.1569  0.7060  0.0510
 3245SOL    HW221198   0.815   0.750   5.870  1.0543 -1.6417  1.1016
 3246SOL     OW21199   4.405   4.529   9.391  0.2271  0.1990  0.1433
 3246SOL    HW121200   4.427   4.568   9.476 -0.3212 -0.8256  0.7613
 3246SOL    HW221201   4.446   4.443   9.401  0.1808  0.3807  1.8358
 3247SOL     OW21202   1.363   3.978   7.692  0.2782 -0.6105 -0.8865
 3247SOL    HW121203   1.423   4.047   7.665 -2.0103  1.5370 -0.4753
 3247SOL    HW221204   1.372   3.982   7.787 -2.8894 -1.6091 -0.5307
 3248SOL     OW21205   0.825   1.299   3.847  0.1268 -0.3943  0.6384
 3248SOL    HW121206   0.827   1.268   3.938 -3.5576 -2.9996 -0.2074
 3248SOL    HW221207   0.920   1.299   3.837 -0.0130  3.7636 -0.5841
 3249SOL     OW21208   1.911   2.304   6.943  0.0171 -0.7254  0.6486
 3249SOL    HW121209   1.998   2.336   6.967 -0.9719  2.9581 -0.7362
 3249SOL    HW221210   1.911   2.353   6.861  2.2457 -2.3349 -0.2932
 3250SOL     OW21211   0.511   0.562  11.908  0.0858 -0.0112  0.1152
 3250SOL    HW121212   0.466   0.623  11.966 -0.0080  0.3905 -0.3732
 3250SOL    HW221213   0.528   0.488  11.966 -0.9928  0.2111  0.7133
 3251SOL     OW21214   3.733   0.029   7.307 -0.3125 -0.2131 -0.2368
 3251SOL    HW121215   3.722   0.019   7.401  1.9177 -0.6093 -0.0186
 3251SOL    HW221216   3.685   4.675   7.276  1.0589 -1.8174  1.5932
 3252SOL     OW21217   1.418   4.093   5.507  0.2992 -0.6514 -0.2471
 3252SOL    HW121218   1.512   4.085   5.522  0.4456 -1.2390 -1.5494
 3252SOL    HW221219   1.398   4.185   5.524 -1.8114 -1.3683  1.2571
 3253SOL     OW21220   2.669   4.413   0.626 -0.3289 -0.5805  0.3078
 3253SOL    HW121221   2.623   4.485   0.582  2.6764 -0.3310 -2.5314
 3253SOL    HW221222   2.758   4.446   0.640 -0.3665 -0.1785 -0.3447
 3254SOL     OW21223   1.292   2.124   7.965 -0.3077 -0.2203 -0.1203
 3254SOL    HW121224   1.283   2.139   7.871  1.2421 -0.0448 -0.2540
 3254SOL    HW221225   1.351   2.199   7.977  0.4663 -0.7678 -0.4976
 3255SOL     OW21226   4.046   4.417   4.578  0.0840  0.3665  0.0419
 3255SOL    HW121227   4.134   4.381   4.573  0.0075  0.0666  0.7984
 3255SOL    HW221228   3.987   4.350   4.613  0.0639  1.3923  1.9677
 3256SOL     OW21229   3.686   3.458   1.212 -0.0129  0.4775  0.3932
 3256SOL    HW121230   3.627   3.471   1.138 -0.7528 -2.5867  0.4635
 3256SOL    HW221231   3.741   3.391   1.170  1.3451  1.5525  0.4410
 3257SOL     OW21232   2.130   1.456   3.184  0.1616 -0.2278  0.7481
 3257SOL    HW121233   2.160   1.538   3.143  0.6863  0.5281  2.6281
 3257SOL    HW221234   2.206   1.401   3.164  0.2663 -0.5221  1.9925
 3258SOL     OW21235   2.515   0.652   8.088 -0.2744 -0.0418 -0.3497
 3258SOL    HW121236   2.570   0.673   8.013 -0.5933  0.4056 -0.4540
 3258SOL    HW221237   2.514   0.556   8.079 -0.3854 -0.2040  1.4363
 3259SOL     OW21238   2.411   2.494   3.238 -1.1857  0.0048  0.6161
 3259SOL    HW121239   2.351   2.543   3.293  0.1052  0.6720  1.4300
 3259SOL    HW221240   2.483   2.558   3.232  0.2072 -1.5856  0.3488
 3260SOL     OW21241   1.248   4.123   9.886 -0.1733 -0.3382  0.1400
 3260SOL    HW121242   1.195   4.120   9.806 -0.3598  0.2633  0.2434
 3260SOL    HW221243   1.259   4.028   9.892 -0.9576 -0.4873 -0.6943
 3261SOL     OW21244   4.407   0.261  13.929  0.3510  0.2226  0.2479
 3261SOL    HW121245   4.398   0.169  13.953  2.5355  0.3935  1.7958
 3261SOL    HW221246   4.321   0.303  13.931  1.4597  2.4758  1.5395
 3262SOL     OW21247   1.936   3.546   9.180  0.6455 -0.3811 -0.3773
 3262SOL    HW121248   1.969   3.492   9.107 -0.6347 -0.1990 -1.0840
 3262SOL    HW221249   1.848   3.572   9.155  0.3163 -1.4571 -0.3053
 3263SOL     OW21250   2.506   3.191  12.734 -0.5287 -0.8410 -0.1103
 3263SOL    HW121251   2.533   3.224  12.649 -1.4060  0.8590  0.2773
 3263SOL    HW221252   2.587   3.153  12.769  0.7367  2.1206  0.1332
 3264SOL     OW21253   3.764   1.807  17.320 -0.0671  0.5862 -0.0263
 3264SOL    HW121254   3.772   1.876  17.386 -1.2370  0.2089  0.5106
 3264SOL    HW221255   3.676   1.829  17.289  0.1632  2.1249  0.4091
 3265SOL     OW21256   1.048   0.676  17.148 -0.2266 -0.2686 -0.3176
 3265SOL    HW121257   1.141   0.653  17.149 -0.3331 -0.6874 -0.1651
 3265SOL    HW221258   1.015   0.604  17.202 -1.5060  1.4623  1.2221
 3266SOL     OW21259   2.589   3.685  16.680  0.5273 -0.2186 -0.0129
 3266SOL    HW121260   2.508   3.657  16.638 -0.2174  2.0542 -0.0852
 3266SOL    HW221261   2.596   3.618  16.749 -1.4822  0.5831  0.9643
 3267SOL     OW21262   3.781   1.819   7.726  0.5749  0.2336  0.1683
 3267SOL    HW121263   3.803   1.727   7.710  0.4680  0.1029  0.7608
 3267SOL    HW221264   3.703   1.819   7.782  1.3645  0.1755  1.2706
 3268SOL     OW21265   2.638   1.293   6.206 -0.2109  0.4341  0.0143
 3268SOL    HW121266   2.692   1.371   6.214  0.0293  0.1566  1.1027
 3268SOL    HW221267   2.692   1.234   6.154 -0.4458  0.2709 -0.0423
 3269SOL     OW21268   0.655   4.023  14.821  0.5115 -0.0528 -0.2623
 3269SOL    HW121269   0.627   4.115  14.819 -0.1304 -0.2367  0.3862
 3269SOL    HW221270   0.720   4.014  14.752  2.7943  1.6247  1.6131
 3270SOL     OW21271   1.435   1.384  11.929  0.0777  0.1326 -0.0967
 3270SOL    HW121272   1.522   1.359  11.900  0.0304 -0.5766  0.3580
 3270SOL    HW221273   1.380   1.350  11.859 -1.2112  1.7583  0.1124
 3271SOL     OW21274   0.763   1.849   7.570  0.0700  0.0991  0.8747
 3271SOL    HW121275   0.794   1.782   7.631 -0.2019 -2.7663 -2.1401
 3271SOL    HW221276   0.710   1.795   7.511  0.3907  0.5072  0.2142
 3272SOL     OW21277   0.216   4.016   9.393  0.0641 -0.4494  0.8434
 3272SOL    HW121278   0.212   3.920   9.390 -0.8274 -0.2675 -2.9288
 3272SOL    HW221279   0.172   4.040   9.312  1.6237  2.5778  0.9266
 3273SOL     OW21280   1.271   0.063   6.508  0.1435  0.0300  0.1928
 3273SOL    HW121281   1.318   0.131   6.459  0.4509 -0.2844  0.0555
 3273SOL    HW221282   1.181   0.087   6.487  0.3300  1.2503  0.7989
 3274SOL     OW21283   4.385   1.031   6.422 -0.4232 -0.3363  0.6984
 3274SOL    HW121284   4.367   0.984   6.503  0.8817  1.6457  2.1402
 3274SOL    HW221285   4.354   0.970   6.356 -0.9515 -0.7402  1.3153
 3275SOL     OW21286   4.434   2.179  16.440  0.1493 -0.1781  0.5309
 3275SOL    HW121287   4.456   2.161  16.349  0.4947 -0.4301  0.6681
 3275SOL    HW221288   4.350   2.134  16.452 -0.4089  0.2887 -1.6682
 3276SOL     OW21289   1.368   0.738   4.661  0.1397  0.4749  0.2883
 3276SOL    HW121290   1.326   0.652   4.659  1.5625 -0.2627  2.2879
 3276SOL    HW221291   1.296   0.801   4.660  0.5421  0.9184 -0.5774
 3277SOL     OW21292   4.390   3.884   0.012 -0.5816  0.0780  0.0276
 3277SOL    HW121293   4.357   3.808  17.654  3.5989 -2.0956  0.5924
 3277SOL    HW221294   4.453   3.839   0.068  0.2447  0.3462 -0.6877
 3278SOL     OW21295   0.332   2.173  16.676 -0.4714 -0.1445  0.0811
 3278SOL    HW121296   0.273   2.224  16.621  0.9951 -0.7799 -2.0950
 3278SOL    HW221297   0.283   2.175  16.758 -2.6985 -0.0012 -1.2592
 3279SOL     OW21298   2.668   2.394   8.960  0.1443 -0.4055 -0.5190
 3279SOL    HW121299   2.587   2.379   8.912 -0.4976  1.0830  0.0846
 3279SOL    HW221300   2.679   2.306   8.998  1.0352  0.2784  0.8360
 3280SOL     OW21301   2.079   4.233   7.778  0.1667 -0.4304  0.0550
 3280SOL    HW121302   1.993   4.207   7.811  0.5751 -1.1633  0.5366
 3280SOL    HW221303   2.083   4.177   7.700 -0.2486  0.7387 -0.8129
 3281SOL     OW21304   4.637   3.931   7.841 -0.1618 -0.0368 -0.1420
 3281SOL    HW121305   4.651   3.997   7.909  0.9259  0.7967 -1.1669
 3281SOL    HW221306   4.693   3.859   7.870 -0.4618 -0.6309 -1.0376
 3282SOL     OW21307   1.106   0.583  15.053  0.3155 -0.0641  0.0813
 3282SOL    HW121308   1.096   0.543  14.967 -0.5645  0.7698 -0.2014
 3282SOL    HW221309   1.159   0.659  15.028 -0.0611  0.1528 -0.0633
 3283SOL     OW21310   3.132   4.233   5.466  0.0982  0.1398 -0.0928
 3283SOL    HW121311   3.150   4.229   5.560  1.1819  0.4608 -0.2807
 3283SOL    HW221312   3.042   4.265   5.478 -0.0548 -1.1780  2.2246
 3284SOL     OW21313   1.222   0.510   6.614  0.7081 -0.1819  0.3892
 3284SOL    HW121314   1.220   0.567   6.537 -1.4033 -0.6258  0.1189
 3284SOL    HW221315   1.311   0.520   6.650  0.4528 -1.5684  1.3902
 3285SOL     OW21316   2.970   0.315   4.281 -0.0405  0.7970 -0.2476
 3285SOL    HW121317   2.994   0.271   4.199 -1.3787  0.2009 -0.3073
 3285SOL    HW221318   2.878   0.293   4.274 -0.0763  1.0162 -0.4601
 3286SOL     OW21319   0.252   3.597   5.601 -0.2676  0.1071 -0.6517
 3286SOL    HW121320   0.244   3.690   5.581  0.5789  0.6763  1.5720
 3286SOL    HW221321   0.207   3.553   5.530  0.1996  0.3039 -1.0672
 3287SOL     OW21322   2.912   4.674   3.106  0.3237  0.0171  0.2582
 3287SOL    HW121323   2.974   4.636   3.044 -0.9013  0.4012 -1.2082
 3287SOL    HW221324   2.868   4.595   3.137  0.1005 -0.5631 -1.5684
 3288SOL     OW21325   1.665   4.379  17.506  0.2327  0.3240  0.4846
 3288SOL    HW121326   1.626   4.301  17.465  2.8858 -0.4986 -0.5167
 3288SOL    HW221327   1.702   4.423  17.429  0.1605  0.0332  0.2846
 3289SOL     OW21328   2.653   2.428  16.350  0.1707  0.8058  0.1194
 3289SOL    HW121329   2.567   2.453  16.385 -0.1790 -0.1471 -0.0660
 3289SOL    HW221330   2.665   2.487  16.275 -0.6190 -1.0430 -1.4422
 3290SOL     OW21331   1.450   1.044   2.575  0.2334  0.3004 -0.0631
 3290SOL    HW121332   1.434   1.102   2.501  0.2644 -0.4181 -0.6283
 3290SOL    HW221333   1.384   1.078   2.636  1.4203  1.3312  0.6505
 3291SOL     OW21334   1.251   2.205   6.816  0.4791  0.0139  0.0220
 3291SOL    HW121335   1.168   2.177   6.853  0.4670  1.0736  0.7942
 3291SOL    HW221336   1.239   2.201   6.721 -0.0299 -1.4683  0.1584
 3292SOL     OW21337   1.809   0.310   3.910 -0.7216 -0.0352 -0.1765
 3292SOL    HW121338   1.715   0.326   3.905 -0.6158  0.5934 -0.1965
 3292SOL    HW221339   1.839   0.341   3.996 -0.9562  0.1191 -0.1505
 3293SOL     OW21340   4.308   4.546   8.277 -0.0837  0.3345 -0.3566
 3293SOL    HW121341   4.241   4.558   8.344  1.4280  2.5664  0.7665
 3293SOL    HW221342   4.335   4.637   8.264 -0.0028  0.4623  0.7356
 3294SOL     OW21343   1.448   2.351   6.101 -0.3297  0.2609 -0.7742
 3294SOL    HW121344   1.536   2.326   6.127 -1.6071 -1.0640  2.2758
 3294SOL    HW221345   1.405   2.266   6.110 -0.2018  0.6181  3.0691
 3295SOL     OW21346   1.567   3.618   3.829  0.1044  0.4905  0.7459
 3295SOL    HW121347   1.640   3.560   3.808  1.3240  1.8094  1.3738
 3295SOL    HW221348   1.555   3.605   3.923  0.1401 -0.5301  0.6157
 3296SOL     OW21349   4.636   0.433  16.893  0.1492  0.6520  0.0043
 3296SOL    HW121350   4.722   0.456  16.930  0.8416 -0.7232 -0.7490
 3296SOL    HW221351   4.592   0.414  16.976  1.9736 -0.5385  0.7132
 3297SOL     OW21352   2.736   0.518  14.297 -0.2357  0.1277  0.3733
 3297SOL    HW121353   2.662   0.500  14.238  0.6068 -0.8087 -0.3898
 3297SOL    HW221354   2.800   0.474  14.241  0.6535 -1.6748  2.8493
 3298SOL     OW21355   1.098   1.478   4.298 -0.2342  0.0099 -0.1068
 3298SOL    HW121356   1.055   1.544   4.351 -2.1265 -2.1917  1.1047
 3298SOL    HW221357   1.042   1.475   4.220 -1.7193 -2.6848  1.0606
 3299SOL     OW21358   1.097   0.978   8.078  0.6390 -0.6642 -0.8458
 3299SOL    HW121359   1.109   0.946   8.167 -2.3684 -0.6029 -0.4379
 3299SOL    HW221360   1.014   1.023   8.095  0.8521 -0.8227  0.6708
 3300SOL     OW21361   3.028   0.637   4.209 -0.2651  0.4883 -0.0193
 3300SOL    HW121362   2.991   0.683   4.284  1.2596  1.2175  0.2876
 3300SOL    HW221363   2.956   0.629   4.147  0.5583 -0.1217 -0.8888
 3301SOL     OW21364   0.806   2.338   4.291 -0.1924 -0.0980  0.0397
 3301SOL    HW121365   0.810   2.249   4.258 -3.0804 -0.1915 -0.0662
 3301SOL    HW221366   0.868   2.381   4.232 -0.6392  0.5942  0.0626
 3302SOL     OW21367   4.116   0.931   7.686  0.0037  0.2076  0.7452
 3302SOL    HW121368   4.081   0.854   7.641  3.2146 -1.3777  0.9761
 3302SOL    HW221369   4.195   0.901   7.731 -0.1051  1.2891  1.6730
 3303SOL     OW21370   2.769   1.940  11.227 -0.1831  0.2181 -0.1745
 3303SOL    HW121371   2.728   1.906  11.306  2.8299  1.1444  1.7834
 3303SOL    HW221372   2.789   2.030  11.252 -1.5860  0.0700  1.5026
 3304SOL     OW21373   1.739   1.504   3.402 -0.3092  0.5300  0.0475
 3304SOL    HW121374   1.707   1.446   3.471 -0.4825  0.7820  0.1828
 3304SOL    HW221375   1.817   1.455   3.377 -0.1217 -0.8401  3.2731
 3305SOL     OW21376   3.232   1.859   0.181 -0.4495  0.1328 -0.1738
 3305SOL    HW121377   3.264   1.769   0.184 -2.3445 -0.5449 -0.7477
 3305SOL    HW221378   3.147   1.846   0.222 -0.0599 -2.7628 -0.3143
 3306SOL     OW21379   2.359   1.316  14.602 -0.0018 -0.0516 -0.3268
 3306SOL    HW121380   2.331   1.257  14.672 -0.1303 -1.0632 -1.2316
 3306SOL    HW221381   2.304   1.389  14.630 -0.6125  0.0262 -1.7509
 3307SOL     OW21382   4.052   3.924  10.940  0.4086 -0.1080 -0.4221
 3307SOL    HW121383   4.137   3.967  10.954 -0.2240  0.2578  2.1813
 3307SOL    HW221384   4.059   3.849  10.998  0.5264  0.0420 -0.2435
 3308SOL     OW21385   1.142   4.184   6.944 -0.3839  0.4383 -0.6687
 3308SOL    HW121386   1.219   4.224   6.985  1.3892 -4.4599  0.7975
 3308SOL    HW221387   1.097   4.267   6.928  1.6978  2.0694  2.0785
 3309SOL     OW21388   0.235   3.155  15.141 -0.3753  0.1762 -0.6309
 3309SOL    HW121389   0.205   3.066  15.124  2.3620 -0.8882  0.0434
 3309SOL    HW221390   0.316   3.170  15.091  0.1769  1.1828  0.5381
 3310SOL     OW21391   3.891   1.794   1.704  0.1999  0.0985  0.1718
 3310SOL    HW121392   3.959   1.733   1.674  0.1309  1.1410 -2.0223
 3310SOL    HW221393   3.895   1.859   1.635  1.9258  0.7272  0.8623
 3311SOL     OW21394   3.833   2.003   6.413 -0.2779 -0.1711 -0.1798
 3311SOL    HW121395   3.840   1.978   6.505  0.5241 -3.0025 -0.9998
 3311SOL    HW221396   3.915   1.972   6.375  0.4668  1.6816 -0.0938
 3312SOL     OW21397   0.437   3.843   3.328 -0.0111  0.1054  0.7232
 3312SOL    HW121398   0.433   3.782   3.253  0.4452 -1.7895  2.2444
 3312SOL    HW221399   0.513   3.817   3.380  1.5530  2.3696 -0.4375
 3313SOL     OW21400   4.104   1.191   6.231  0.0371  1.1349  0.0454
 3313SOL    HW121401   4.147   1.244   6.298  0.5047  0.2924  0.4019
 3313SOL    HW221402   4.171   1.159   6.170 -1.3171 -1.4107 -0.0914
 3314SOL     OW21403   0.916   4.696   0.713  0.0393  0.7132 -0.6108
 3314SOL    HW121404   0.974   4.653   0.776  0.7382 -0.7744 -2.2533
 3314SOL    HW221405   0.832   4.670   0.752  1.9324 -1.1164  2.2096
 3315SOL     OW21406   2.475   0.533   8.373  0.6707  0.5587  0.2504
 3315SOL    HW121407   2.511   0.444   8.366 -2.0631 -0.6225  0.8750
 3315SOL    HW221408   2.520   0.576   8.301  0.4623 -2.0739 -1.4566
 3316SOL     OW21409   2.648   1.313  15.377 -0.3698 -0.2574  0.1823
 3316SOL    HW121410   2.632   1.291  15.469 -0.8320 -2.3475 -0.4131
 3316SOL    HW221411   2.637   1.407  15.393 -0.8577  0.2740 -3.2666
 3317SOL     OW21412   4.446   1.606   2.633 -0.3500 -0.2262 -0.2474
 3317SOL    HW121413   4.370   1.568   2.677  0.8487  0.8848  2.7537
 3317SOL    HW221414   4.430   1.570   2.546 -1.8312  3.0150 -1.3206
 3318SOL     OW21415   4.269   3.958   2.687  0.7333  0.2284  0.1799
 3318SOL    HW121416   4.267   3.870   2.650 -1.2378 -0.0597  0.9996
 3318SOL    HW221417   4.304   4.005   2.611  0.9451 -0.8777 -0.4010
 3319SOL     OW21418   0.209   1.186  16.307 -0.1590 -0.2903 -0.2925
 3319SOL    HW121419   0.220   1.114  16.370  2.7031  2.6814  2.5818
 3319SOL    HW221420   0.128   1.154  16.266 -0.0021  0.0421 -0.8693
 3320SOL     OW21421   1.684   1.338   3.615 -0.2716 -0.0239  0.3514
 3320SOL    HW121422   1.614   1.355   3.678 -0.1708  1.3684  0.1005
 3320SOL    HW221423   1.679   1.243   3.609 -2.5044  0.0526  0.8770
 3321SOL     OW21424   2.358   4.256   0.788  0.0699 -0.0189 -0.9330
 3321SOL    HW121425   2.342   4.307   0.867  0.6953  1.5603 -1.8334
 3321SOL    HW221426   2.273   4.259   0.744 -0.7427 -0.7147  0.6267
 3322SOL     OW21427   2.030   4.688   7.911 -0.5593 -0.1996 -0.1234
 3322SOL    HW121428   2.057   4.669   7.821  0.5324 -0.7541  0.3312
 3322SOL    HW221429   2.105   4.663   7.964 -0.9189 -1.9550 -0.4294
 3323SOL     OW21430   4.699   1.729   9.653  0.1844  0.1139  0.2020
 3323SOL    HW121431   4.678   1.812   9.697 -3.7858 -1.5953  1.5006
 3323SOL    HW221432   4.657   1.750   9.569 -1.4168  1.6062  1.3708
 3324SOL     OW21433   3.762   2.846   9.164  0.0671 -0.4214  0.3464
 3324SOL    HW121434   3.784   2.753   9.165  0.3187 -0.3593  0.4452
 3324SOL    HW221435   3.666   2.840   9.157  0.0306  0.5817  0.0427
 3325SOL     OW21436   3.412   1.327   2.542  0.3369 -0.0521  0.1389
 3325SOL    HW121437   3.501   1.349   2.572  0.5785 -0.2074 -0.4764
 3325SOL    HW221438   3.423   1.255   2.480  0.7366  0.5762 -0.5192
 3326SOL     OW21439   4.321   3.997   4.668  0.4546 -0.3949 -0.5681
 3326SOL    HW121440   4.302   3.903   4.663 -1.8664  0.1449 -1.7645
 3326SOL    HW221441   4.332   4.035   4.581 -1.8845  0.3211 -0.5488
 3327SOL     OW21442   1.567   2.541   7.596 -0.4809 -0.2813 -0.5218
 3327SOL    HW121443   1.648   2.581   7.628 -0.6859 -1.1673  1.1416
 3327SOL    HW221444   1.605   2.479   7.534 -0.3684  0.1113 -0.8466
 3328SOL     OW21445   4.041   4.046   6.486  0.0363  0.7293 -0.5678
 3328SOL    HW121446   4.089   3.999   6.418 -0.4596  0.0499 -0.4445
 3328SOL    HW221447   4.076   4.135   6.489  0.4243  0.5991 -1.3112
 3329SOL     OW21448   4.190   3.954   4.280  0.7492 -0.1557 -0.3888
 3329SOL    HW121449   4.151   3.995   4.202 -1.2827  2.2099  1.8474
 3329SOL    HW221450   4.254   4.019   4.310 -0.7769  1.6568 -0.9906
 3330SOL     OW21451   3.329   4.470   7.827  0.0514 -0.5651 -0.1058
 3330SOL    HW121452   3.338   4.380   7.860  1.4703 -0.4654 -0.2145
 3330SOL    HW221453   3.254   4.462   7.769  1.4490  0.8051 -2.0866
 3331SOL     OW21454   1.173   2.155   5.655  0.3530 -0.1898  0.4256
 3331SOL    HW121455   1.192   2.244   5.624  3.4627  0.1845  3.4120
 3331SOL    HW221456   1.257   2.114   5.632  0.3051 -1.0051  1.6794
 3332SOL     OW21457   4.520   2.941   4.240  0.1903  0.0247 -0.4141
 3332SOL    HW121458   4.472   2.935   4.158 -0.8244 -2.8917  0.3972
 3332SOL    HW221459   4.531   3.036   4.243  3.2958 -0.3829  1.1386
 3333SOL     OW21460   0.947   1.845   6.127  0.2487 -0.1393 -0.2801
 3333SOL    HW121461   0.932   1.855   6.033  2.5308 -1.2845 -0.7591
 3333SOL    HW221462   1.035   1.808   6.132 -0.0829 -0.8132  0.7637
 3334SOL     OW21463   1.627   1.783  17.064  0.1927  0.0091 -0.4627
 3334SOL    HW121464   1.705   1.821  17.024  1.6353 -1.1498  1.2091
 3334SOL    HW221465   1.667   1.701  17.097 -1.7509 -0.4074  0.8603
 3335SOL     OW21466   3.426   0.777   7.103 -0.5260 -0.0722 -0.1367
 3335SOL    HW121467   3.384   0.752   7.186  0.0901 -0.9171 -0.0825
 3335SOL    HW221468   3.398   0.868   7.093  1.3188  0.5504  0.3220
 3336SOL     OW21469   2.378   0.576  11.924  0.2937 -0.0232 -0.0113
 3336SOL    HW121470   2.393   0.614  11.837  0.4146 -1.3815 -0.6018
 3336SOL    HW221471   2.443   0.620  11.978 -0.3460  0.3527  0.4467
 3337SOL     OW21472   3.393   2.978   8.592 -0.7969 -0.4032 -0.2252
 3337SOL    HW121473   3.410   2.904   8.534  2.5431  0.6853 -0.6577
 3337SOL    HW221474   3.302   2.996   8.569  0.2653  3.0108 -1.8298
 3338SOL     OW21475   0.535   3.581   2.389 -0.3727  0.3684  0.5885
 3338SOL    HW121476   0.445   3.612   2.384  0.0352  1.4855  0.1504
 3338SOL    HW221477   0.568   3.617   2.307  1.1261 -2.9586 -0.2515
 3339SOL     OW21478   0.561   3.347   4.565 -0.2817 -0.2249  0.6613
 3339SOL    HW121479   0.618   3.271   4.555 -1.3947 -1.1854  1.5473
 3339SOL    HW221480   0.576   3.383   4.478 -0.1578  0.4722  0.9789
 3340SOL     OW21481   4.479   2.851   2.601 -0.3365 -0.6191 -0.4248
 3340SOL    HW121482   4.500   2.833   2.692  0.3631  1.3867 -0.1821
 3340SOL    HW221483   4.466   2.762   2.568  2.6929 -0.6638 -1.5015
 3341SOL     OW21484   1.892   3.661   3.382 -0.4882  0.2889  0.4817
 3341SOL    HW121485   1.805   3.685   3.414 -0.4433 -0.1613  0.9417
 3341SOL    HW221486   1.854   3.640   3.296 -0.7942 -4.4882  1.7791
 3342SOL     OW21487   1.464   3.261   3.916 -0.3213  0.6544  0.1116
 3342SOL    HW121488   1.432   3.174   3.893  0.7222  0.5913 -1.1420
 3342SOL    HW221489   1.386   3.306   3.948  1.0768  2.4518  1.0473
 3343SOL     OW21490   4.565   0.219   5.454 -0.1499  0.0290  0.2549
 3343SOL    HW121491   4.480   0.178   5.469 -0.5913  1.0193  0.4254
 3343SOL    HW221492   4.532   0.278   5.386  1.8477  0.0519 -0.7118
 3344SOL     OW21493   2.433   3.527   9.762  0.2274 -0.4997 -0.2063
 3344SOL    HW121494   2.376   3.569   9.827 -2.4819 -3.2098 -0.8303
 3344SOL    HW221495   2.394   3.548   9.678 -1.8033  1.4987  1.2340
 3345SOL     OW21496   1.778   2.435   0.784 -0.0779  0.4394  0.3689
 3345SOL    HW121497   1.851   2.490   0.811  0.1314  0.6576 -0.6503
 3345SOL    HW221498   1.792   2.414   0.692  2.4090 -2.4849  1.4221
 3346SOL     OW21499   1.447   0.321   3.315 -0.6802 -0.1031  0.4644
 3346SOL    HW121500   1.403   0.310   3.399 -1.4009 -0.9502 -0.0161
 3346SOL    HW221501   1.391   0.270   3.257  1.0906  1.5169 -2.6507
 3347SOL     OW21502   1.453   1.966   8.431  0.3443 -0.0259 -0.0103
 3347SOL    HW121503   1.473   1.891   8.488  0.9712  0.4663  0.4156
 3347SOL    HW221504   1.502   1.951   8.351 -0.3998 -0.7796 -0.3308
 3348SOL     OW21505   2.490   2.820   6.702 -0.2685 -0.2734 -0.7665
 3348SOL    HW121506   2.399   2.822   6.730  0.4390 -0.3171  1.4626
 3348SOL    HW221507   2.519   2.902   6.742 -0.8810 -0.2205 -0.4368
 3349SOL     OW21508   2.790   0.038   4.135  0.2224  0.1315  0.0143
 3349SOL    HW121509   2.754   0.026   4.048 -1.7267  1.9612  0.5527
 3349SOL    HW221510   2.713   0.076   4.177 -0.2338 -0.5323 -0.2219
 3350SOL     OW21511   1.452   3.576   6.972 -0.3762 -0.5964  0.2704
 3350SOL    HW121512   1.491   3.509   6.916 -0.0721  0.5185 -0.8453
 3350SOL    HW221513   1.510   3.649   6.949  0.5522 -1.2082  0.6525
 3351SOL     OW21514   4.635   0.029  10.849 -0.4989  0.0700  0.6519
 3351SOL    HW121515   4.711   4.713  10.892  0.7458  1.6867 -0.0957
 3351SOL    HW221516   4.563   4.697  10.880  0.5450 -2.2909 -1.0394
 3352SOL     OW21517   0.927   0.851   2.021  0.4026 -0.0872 -0.3187
 3352SOL    HW121518   0.873   0.777   2.049  0.3876  0.9050  2.3533
 3352SOL    HW221519   0.894   0.869   1.933 -3.4463  0.5846  1.2590
 3353SOL     OW21520   0.408   3.316   8.238 -0.3028 -0.3000 -0.5048
 3353SOL    HW121521   0.419   3.411   8.237 -0.8849 -0.2234  0.0947
 3353SOL    HW221522   0.465   3.279   8.171  0.8602  0.0332  0.2953
 3354SOL     OW21523   1.029   1.323   7.138  0.4092  0.5058  0.2844
 3354SOL    HW121524   1.081   1.245   7.118 -0.2736  0.4156 -1.1414
 3354SOL    HW221525   0.944   1.304   7.099  1.0358 -0.4174 -0.6273
 3355SOL     OW21526   4.319   1.864  10.528  0.3681 -0.3933  0.5464
 3355SOL    HW121527   4.406   1.825  10.535 -0.2797 -1.8905  0.2727
 3355SOL    HW221528   4.280   1.820  10.452 -0.4978 -0.0796  0.8149
 3356SOL     OW21529   1.451   3.589   5.404  0.4336  0.6819  0.0192
 3356SOL    HW121530   1.487   3.675   5.426  0.3427  0.9208 -0.7749
 3356SOL    HW221531   1.537   3.549   5.396 -0.6812 -1.2910 -2.0744
 3357SOL     OW21532   0.046   3.635  10.386 -0.4729  0.2735 -0.2662
 3357SOL    HW121533   0.105   3.598  10.320 -2.9763 -2.1867 -1.1068
 3357SOL    HW221534   0.104   3.697  10.429 -1.4160  0.3805  0.8404
 3358SOL     OW21535   0.868   2.896   6.365  0.7102 -0.1272 -0.1502
 3358SOL    HW121536   0.923   2.891   6.443 -0.8311 -0.4861  0.9219
 3358SOL    HW221537   0.861   2.803   6.343 -5.9414  0.4389 -0.5302
 3359SOL     OW21538   1.477   0.968   1.918 -0.0569 -0.0202 -0.2301
 3359SOL    HW121539   1.516   1.023   1.850 -2.9243 -1.2337 -2.8941
 3359SOL    HW221540   1.451   0.889   1.871  1.0643 -0.7624  0.4301
 3360SOL     OW21541   1.708   0.376   5.312  0.0928  0.4486 -0.3749
 3360SOL    HW121542   1.682   0.463   5.342 -2.3011 -0.6594  0.6952
 3360SOL    HW221543   1.706   0.320   5.389 -1.2767 -2.1571 -2.3044
 3361SOL     OW21544   3.683   3.981   2.716  0.3355  0.2448 -0.2680
 3361SOL    HW121545   3.662   3.893   2.747  0.9107  0.4456  0.6765
 3361SOL    HW221546   3.738   4.024   2.781  0.4277 -0.7231  0.2894
 3362SOL     OW21547   4.124   2.689   0.668  0.1330 -0.0080  0.3233
 3362SOL    HW121548   4.098   2.739   0.591  0.4370  2.2333  1.6817
 3362SOL    HW221549   4.214   2.666   0.646  0.5036 -1.2585  3.1306
 3363SOL     OW21550   3.059   4.444   8.474  0.3899  0.0829  0.0305
 3363SOL    HW121551   3.103   4.503   8.413  1.8919 -0.5374  0.5266
 3363SOL    HW221552   2.964   4.454   8.462  0.5746 -0.7165 -2.2187
 3364SOL     OW21553   4.545   4.610   0.765 -0.4351  0.2731  0.0469
 3364SOL    HW121554   4.572   4.622   0.674 -0.7722  1.7896  0.1504
 3364SOL    HW221555   4.496   4.528   0.757 -2.0652  1.4265 -1.6897
 3365SOL     OW21556   3.806   1.502   7.665 -0.2025 -0.0885 -0.0421
 3365SOL    HW121557   3.757   1.522   7.745 -1.1991 -1.3386 -0.3556
 3365SOL    HW221558   3.748   1.437   7.627 -0.0002  1.2679 -2.7078
 3366SOL     OW21559   1.051   1.267  12.068  0.2704  0.0064 -0.1677
 3366SOL    HW121560   0.961   1.237  12.058  0.1470 -0.1924  1.6571
 3366SOL    HW221561   1.098   1.199  12.020 -1.7161 -1.2829 -0.2720
 3367SOL     OW21562   0.330   1.201   3.543 -0.0100  0.7311  0.2168
 3367SOL    HW121563   0.297   1.204   3.633  2.4616 -1.6045  1.1946
 3367SOL    HW221564   0.377   1.283   3.528  1.1570  0.1045  0.4309
 3368SOL     OW21565   0.208   1.426   3.129  0.8475 -0.3038  0.4702
 3368SOL    HW121566   0.301   1.434   3.108  0.1257 -1.0094 -3.0050
 3368SOL    HW221567   0.190   1.520   3.133  0.7671 -0.2914 -0.1649
 3369SOL     OW21568   4.444   3.056   7.127 -0.1707  0.0108  0.1538
 3369SOL    HW121569   4.515   3.063   7.063 -1.4913  2.6490 -1.0584
 3369SOL    HW221570   4.386   3.125   7.095  1.0270  0.0564 -1.9142
 3370SOL     OW21571   4.245   0.060   6.940  0.2016  0.3093  0.2323
 3370SOL    HW121572   4.249   0.053   6.844  0.4703 -0.0667  0.2721
 3370SOL    HW221573   4.317   0.004   6.969  0.3116  0.4398  0.2102
 3371SOL     OW21574   1.154   0.050   3.012  0.1651  0.2805 -0.1976
 3371SOL    HW121575   1.171   4.678   3.008  0.1407  0.3056 -1.0149
 3371SOL    HW221576   1.248   0.071   3.004 -0.1825  1.4972 -1.1386
 3372SOL     OW21577   0.119   1.779  16.231  0.2184  0.2125 -0.0353
 3372SOL    HW121578   0.156   1.848  16.286  1.2000 -1.9233  1.9955
 3372SOL    HW221579   0.025   1.780  16.252  0.2897  0.7695  0.2546
 3373SOL     OW21580   4.460   0.266   2.397 -0.2775 -0.7755 -0.0632
 3373SOL    HW121581   4.377   0.312   2.413 -0.1815 -0.4230 -0.5573
 3373SOL    HW221582   4.511   0.346   2.385  0.9554 -1.8515 -1.8679
 3374SOL     OW21583   3.098   1.903  14.959 -0.5228 -0.1008  0.1548
 3374SOL    HW121584   3.160   1.855  15.014 -0.1223 -0.3621 -0.5268
 3374SOL    HW221585   3.136   1.990  14.954  0.1341 -0.5071 -1.6398
 3375SOL     OW21586   3.854   0.561   8.973  1.5743 -0.1570  0.2570
 3375SOL    HW121587   3.875   0.633   8.913  2.5553 -1.6741 -1.2064
 3375SOL    HW221588   3.924   0.556   9.039  0.4357 -0.0570  1.4755
 3376SOL     OW21589   1.888   1.249   5.899  0.5303 -0.5004 -0.3460
 3376SOL    HW121590   1.980   1.267   5.922 -0.0491 -1.2691  2.5027
 3376SOL    HW221591   1.889   1.251   5.803 -1.1199  2.2394 -0.3091
 3377SOL     OW21592   0.646   4.693   5.236  0.0849  0.2990 -0.3291
 3377SOL    HW121593   0.699   0.050   5.248 -0.8670  0.9338 -0.2699
 3377SOL    HW221594   0.700   4.624   5.276 -2.0961  0.2392  2.4907
 3378SOL     OW21595   4.623   3.205   1.831 -0.3982 -0.4793 -0.4437
 3378SOL    HW121596   4.615   3.121   1.876  2.5148  0.5728  2.0472
 3378SOL    HW221597   4.597   3.190   1.740 -0.7007  4.4800 -1.1543
 3379SOL     OW21598   3.507   1.515   4.662 -0.0821 -0.0189  0.5536
 3379SOL    HW121599   3.516   1.547   4.752 -2.0921  3.3991 -0.4492
 3379SOL    HW221600   3.496   1.420   4.671  0.1787 -0.0007  1.0921
 3380SOL     OW21601   2.697   3.091   3.459  0.0589 -0.0259  0.0374
 3380SOL    HW121602   2.713   3.011   3.509  2.6578 -0.6313 -1.7721
 3380SOL    HW221603   2.681   3.059   3.370 -2.7673 -1.2409  0.9868
 3381SOL     OW21604   3.423   2.052   4.375 -0.0421  0.6669 -0.6848
 3381SOL    HW121605   3.455   1.989   4.310  2.5974  0.5282  0.7449
 3381SOL    HW221606   3.462   2.006   4.449 -0.9085  0.3433 -0.4298
 3382SOL     OW21607   3.344   3.407   5.700 -0.1701  0.2079 -0.0188
 3382SOL    HW121608   3.249   3.409   5.688  0.0961  0.9495 -2.0735
 3382SOL    HW221609   3.357   3.392   5.794  0.5450 -0.9798 -0.3031
 3383SOL     OW21610   3.338   0.376   3.395  0.2009  0.5832 -0.5844
 3383SOL    HW121611   3.346   0.299   3.451 -1.4485  2.5794  2.4401
 3383SOL    HW221612   3.366   0.346   3.309  0.1400  2.7360 -1.3738
 3384SOL     OW21613   2.893   2.954   4.394 -0.0507  0.0419 -0.3656
 3384SOL    HW121614   2.977   2.998   4.408 -0.3556  0.4729  0.0651
 3384SOL    HW221615   2.934   2.875   4.359 -0.0400 -0.1236  0.0315
 3385SOL     OW21616   3.639   3.312  14.608  0.5869  0.7859  1.0325
 3385SOL    HW121617   3.695   3.353  14.674  3.4303 -0.4641 -0.5938
 3385SOL    HW221618   3.596   3.243  14.657  1.4279  0.6853  1.6315
 3386SOL     OW21619   1.436   4.534   4.845 -0.2611  0.0818 -0.1186
 3386SOL    HW121620   1.455   4.485   4.765  1.3826 -2.0845  1.6242
 3386SOL    HW221621   1.373   4.596   4.807 -0.2190  0.7394  0.8988
 3387SOL     OW21622   1.340   0.279   6.372 -0.2644  0.3441 -0.0747
 3387SOL    HW121623   1.422   0.313   6.336 -1.4365 -0.5318 -3.5573
 3387SOL    HW221624   1.299   0.365   6.363 -0.1376  0.4100 -0.0173
 3388SOL     OW21625   2.264   2.238   2.584 -0.1100  0.1573 -0.3179
 3388SOL    HW121626   2.191   2.191   2.625  0.7062 -0.3478  0.5481
 3388SOL    HW221627   2.226   2.256   2.498 -0.9049  0.9236  0.1903
 3389SOL     OW21628   2.318   2.688  16.773  0.4721 -0.5284 -0.1667
 3389SOL    HW121629   2.249   2.754  16.768  0.9877 -0.0210 -0.5830
 3389SOL    HW221630   2.380   2.717  16.840  0.8132 -0.7960 -0.3687
 3390SOL     OW21631   3.696   2.425   5.970 -0.5322 -0.6323 -0.5218
 3390SOL    HW121632   3.649   2.484   5.912  0.3252  0.2328 -0.3409
 3390SOL    HW221633   3.780   2.430   5.925 -0.1422 -2.0669  0.0447
 3391SOL     OW21634   4.174   3.877   6.278  0.0526  0.4316  0.2386
 3391SOL    HW121635   4.257   3.856   6.321  0.0945  0.2350  0.0611
 3391SOL    HW221636   4.190   3.821   6.202  4.0565 -0.0112  1.3904
 3392SOL     OW21637   4.496   2.225   0.921 -0.0103  0.2536 -0.8325
 3392SOL    HW121638   4.487   2.318   0.942  2.1358  0.3135 -0.0761
 3392SOL    HW221639   4.411   2.189   0.898 -0.5576 -0.1794  1.8956
 3393SOL     OW21640   3.427   1.605   4.191 -0.2394 -0.1241  0.3606
 3393SOL    HW121641   3.468   1.518   4.188  0.5191  0.2734 -0.7851
 3393SOL    HW221642   3.399   1.603   4.283 -1.4197 -2.2840 -0.0382
 3394SOL     OW21643   2.064   3.813   3.734  0.1328 -0.5750  0.8879
 3394SOL    HW121644   1.970   3.800   3.745 -0.1606 -0.8047 -1.8275
 3394SOL    HW221645   2.090   3.888   3.787  1.1308 -1.1892  1.2757
 3395SOL     OW21646   2.006   3.878   5.452  0.2973 -0.2594  0.2121
 3395SOL    HW121647   2.078   3.854   5.510  0.9485 -0.0767 -0.5125
 3395SOL    HW221648   1.940   3.925   5.504 -0.2547 -1.7238  0.8321
 3396SOL     OW21649   3.230   0.062   4.247 -0.1404 -0.1385 -0.1043
 3396SOL    HW121650   3.152   0.030   4.201 -0.8620 -0.7116  1.5222
 3396SOL    HW221651   3.269   0.118   4.180 -0.1145  1.1127  0.9576
 3397SOL     OW21652   3.159   4.624   5.275 -0.2392  0.8454  0.1737
 3397SOL    HW121653   3.123   4.657   5.193  0.0561  0.4545 -0.1110
 3397SOL    HW221654   3.161   4.529   5.260  0.5861  1.0427 -0.9193
 3398SOL     OW21655   1.743   0.930   5.590  0.0983 -0.3357  0.2246
 3398SOL    HW121656   1.809   0.998   5.599 -1.5076  1.4364 -1.3895
 3398SOL    HW221657   1.667   0.985   5.573  0.3091 -0.4520 -1.1022
 3399SOL     OW21658   2.662   4.380   5.022  0.1701  0.1714  0.6642
 3399SOL    HW121659   2.569   4.390   5.004  0.8290 -0.1635 -2.9873
 3399SOL    HW221660   2.705   4.379   4.936 -2.3023  0.1321 -0.5718
 3400SOL     OW21661   3.176   3.464   1.942 -0.2228  0.7066  0.2835
 3400SOL    HW121662   3.083   3.481   1.931 -0.5566 -0.0503  2.0009
 3400SOL    HW221663   3.191   3.448   1.848  0.2706  0.2340  0.4411
 3401SOL     OW21664   2.121   2.158   2.054  0.1153 -0.5654  0.4439
 3401SOL    HW121665   2.204   2.130   2.093  0.6671 -0.0183 -0.3425
 3401SOL    HW221666   2.112   2.100   1.979  1.6732 -2.0221  1.4065
 3402SOL     OW21667   3.997   3.961   9.255 -0.2601  0.4139 -0.1827
 3402SOL    HW121668   3.974   4.033   9.314  0.8699  3.0487 -2.9725
 3402SOL    HW221669   4.086   3.945   9.286 -0.5079  0.6076  0.6436
 3403SOL     OW21670   3.668   0.889   9.480 -0.0391  0.6662 -0.3012
 3403SOL    HW121671   3.730   0.821   9.507 -0.0389  0.9328  0.3723
 3403SOL    HW221672   3.701   0.965   9.528  0.1854  0.3604  0.0328
 3404SOL     OW21673   2.725   1.962   6.040  0.1938  0.7648  0.1345
 3404SOL    HW121674   2.804   1.947   5.988 -0.2565 -1.8899  0.2128
 3404SOL    HW221675   2.761   1.935   6.125 -2.2180 -1.0398  0.5906
 3405SOL     OW21676   2.768   0.316   7.222  0.2995 -0.6760  0.0851
 3405SOL    HW121677   2.826   0.328   7.147 -3.1637  1.5245 -2.2435
 3405SOL    HW221678   2.680   0.292   7.194  0.0314 -2.4625  2.4089
 3406SOL     OW21679   0.727   2.660   9.062  0.2312 -0.1059  0.3005
 3406SOL    HW121680   0.680   2.580   9.086 -1.0684  0.7277  0.5543
 3406SOL    HW221681   0.683   2.698   8.986  2.5150  0.5188 -0.6988
 3407SOL     OW21682   4.440   4.497   6.253  0.6521  0.1517  0.0146
 3407SOL    HW121683   4.453   4.521   6.345  1.7274  1.6884 -0.5509
 3407SOL    HW221684   4.527   4.525   6.224  1.0772 -1.6885 -0.5222
 3408SOL     OW21685   1.138   1.515  11.950 -0.3463 -0.7811  0.5014
 3408SOL    HW121686   1.048   1.543  11.933  0.3167  0.5812 -0.7597
 3408SOL    HW221687   1.114   1.430  11.986 -1.5678 -0.3019  0.8257
 3409SOL     OW21688   2.720   0.648   5.837 -0.3543 -0.0867 -0.4618
 3409SOL    HW121689   2.744   0.740   5.842 -1.0364  0.1806 -2.1980
 3409SOL    HW221690   2.767   0.626   5.918  2.2199  2.8331 -1.2015
 3410SOL     OW21691   2.557   3.017   6.058 -0.1732  0.1640  0.1436
 3410SOL    HW121692   2.472   2.979   6.083  0.1445 -1.3912 -1.1677
 3410SOL    HW221693   2.615   2.989   6.128  1.7225  0.0454 -1.4829
 3411SOL     OW21694   0.386   3.541   3.783 -0.3863  0.0488  0.3388
 3411SOL    HW121695   0.315   3.494   3.740  0.4455 -1.5092  0.6919
 3411SOL    HW221696   0.339   3.597   3.846 -1.5480 -0.7584  0.1844
 3412SOL     OW21697   2.484   3.604   6.302  0.0781 -0.2639 -0.2588
 3412SOL    HW121698   2.426   3.611   6.377  0.2216 -0.9020 -0.0837
 3412SOL    HW221699   2.525   3.689   6.314 -0.7948  0.0692  0.3204
 3413SOL     OW21700   3.883   2.930   9.424 -0.1024 -0.4330  0.2311
 3413SOL    HW121701   3.858   2.861   9.363 -0.7438  0.7399 -0.8241
 3413SOL    HW221702   3.795   2.965   9.436  1.4716  3.5233  0.0961
 3414SOL     OW21703   2.629   2.427   1.436 -0.3050  0.5793 -0.0772
 3414SOL    HW121704   2.659   2.440   1.527 -0.3617 -0.2905  0.0699
 3414SOL    HW221705   2.659   2.337   1.425 -0.2322  0.4888  0.7969
 3415SOL     OW21706   1.609   4.561   6.834  0.6274 -0.2976  0.0411
 3415SOL    HW121707   1.643   4.472   6.825  1.1967 -0.0496 -0.2781
 3415SOL    HW221708   1.550   4.576   6.761  1.4207 -1.5376 -0.8589
 3416SOL     OW21709   1.496   2.954   4.717  0.4059 -0.4715 -0.4483
 3416SOL    HW121710   1.409   2.917   4.731  0.2205  0.8092  1.7483
 3416SOL    HW221711   1.537   2.916   4.795 -0.9269 -1.3678 -0.1838
 3417SOL     OW21712   1.227   0.082  10.148 -0.0178  0.1184  0.2671
 3417SOL    HW121713   1.247   0.160  10.201 -0.2711 -0.6926  1.5591
 3417SOL    HW221714   1.245   0.110  10.058 -1.1825 -0.8369 -0.2780
 3418SOL     OW21715   2.939   1.308   5.838 -0.4215 -0.0311  0.0888
 3418SOL    HW121716   3.014   1.328   5.895 -0.4994  0.0401  0.1648
 3418SOL    HW221717   2.988   1.308   5.756  0.1492 -1.8575  0.4245
 3419SOL     OW21718   1.414   1.884   6.508  0.3852  0.2658 -0.2246
 3419SOL    HW121719   1.441   1.975   6.517 -4.9338  1.7188  1.1081
 3419SOL    HW221720   1.359   1.889   6.430 -0.1743 -0.3087  0.1301
 3420SOL     OW21721   3.490   3.078  17.441  0.1646  0.0875  0.1414
 3420SOL    HW121722   3.529   2.995  17.469 -0.2914 -0.1736  0.0036
 3420SOL    HW221723   3.541   3.139  17.495 -0.4898  1.8424 -1.2204
 3421SOL     OW21724   1.899   2.873   3.653  0.5059 -0.1055 -0.2441
 3421SOL    HW121725   1.909   2.792   3.703  1.6337 -0.6812 -1.4440
 3421SOL    HW221726   1.989   2.905   3.646  0.4063  0.5076  1.1834
 3422SOL     OW21727   0.256   1.856   4.166  0.3523 -0.3714  0.2309
 3422SOL    HW121728   0.184   1.896   4.117 -0.4274  0.2536  1.8727
 3422SOL    HW221729   0.282   1.935   4.214 -0.8002  0.3768 -0.3579
 3423SOL     OW21730   2.865   3.613  16.715  0.3982  0.0340  0.3355
 3423SOL    HW121731   2.781   3.659  16.706 -1.0586 -2.5980  0.2736
 3423SOL    HW221732   2.848   3.539  16.773  0.0414  0.7978  1.1925
 3424SOL     OW21733   2.348   4.634   2.836 -0.1504  0.5227  0.0226
 3424SOL    HW121734   2.296   4.713   2.851 -1.0001 -0.3076  1.4664
 3424SOL    HW221735   2.272   4.578   2.819 -0.7321  1.2596  0.1998
 3425SOL     OW21736   1.113   3.835   2.690  0.5661  0.1495 -0.0468
 3425SOL    HW121737   1.104   3.825   2.595  0.6862  0.0289 -0.0459
 3425SOL    HW221738   1.036   3.784   2.714  0.3503 -0.2329 -1.5878
 3426SOL     OW21739   0.878   3.105  14.888 -0.0781 -0.0558  0.3710
 3426SOL    HW121740   0.945   3.128  14.952 -1.8074  0.3704  2.0136
 3426SOL    HW221741   0.807   3.168  14.901 -0.2175 -0.0891 -0.2040
 3427SOL     OW21742   0.620   0.363  10.350  0.4349 -0.3535 -0.6572
 3427SOL    HW121743   0.687   0.371  10.281  0.1756 -1.6176 -1.0483
 3427SOL    HW221744   0.636   0.271  10.371 -0.1673 -0.0660  0.9968
 3428SOL     OW21745   3.030   0.512  13.044 -0.2884  0.1737  0.4283
 3428SOL    HW121746   3.025   0.605  13.024 -2.6315  0.3381  1.8502
 3428SOL    HW221747   3.122   0.490  13.026 -0.4636  1.5116 -2.1079
 3429SOL     OW21748   1.682   1.375  14.974 -0.1012 -0.5152 -0.7538
 3429SOL    HW121749   1.745   1.443  14.950  1.0104 -1.3606 -0.2768
 3429SOL    HW221750   1.701   1.375  15.067  0.0046 -0.9235 -0.7730
 3430SOL     OW21751   1.407   2.188   4.222 -0.2701  0.1480  0.4121
 3430SOL    HW121752   1.429   2.271   4.265  1.7532 -0.5721  0.7501
 3430SOL    HW221753   1.495   2.170   4.188 -0.7440  0.9322 -1.2539
 3431SOL     OW21754   1.016   3.871  13.387 -0.9820  0.0500 -0.3807
 3431SOL    HW121755   0.938   3.833  13.429 -0.1801 -1.0887  0.0721
 3431SOL    HW221756   0.965   3.937  13.339 -0.3108 -0.5116 -1.8674
 3432SOL     OW21757   0.642   3.094   1.724 -0.5987  0.3513  0.0593
 3432SOL    HW121758   0.697   3.026   1.686 -0.1620  2.1716 -2.5137
 3432SOL    HW221759   0.559   3.074   1.682 -0.1858 -1.5279  0.1529
 3433SOL     OW21760   3.873   2.623  11.973  0.8358 -0.0211 -0.0428
 3433SOL    HW121761   3.811   2.559  11.938 -2.5985  3.0972  0.3832
 3433SOL    HW221762   3.950   2.566  11.968  1.9620  1.4159  1.1046
 3434SOL     OW21763   2.780   2.865   3.642  0.1890  0.0921 -0.1810
 3434SOL    HW121764   2.796   2.771   3.645  1.1494  0.2862  0.7602
 3434SOL    HW221765   2.867   2.903   3.651  0.0116  0.4510  0.0191
 3435SOL     OW21766   3.856   2.950   8.211 -0.5815  0.3166  0.2074
 3435SOL    HW121767   3.819   2.871   8.173 -1.6931 -0.0465  2.0715
 3435SOL    HW221768   3.934   2.963   8.157 -1.3045  2.5890 -0.2781
 3436SOL     OW21769   4.451   3.779  14.145 -0.4592 -0.1687 -0.8707
 3436SOL    HW121770   4.468   3.712  14.079 -0.1470 -3.2675  2.3667
 3436SOL    HW221771   4.538   3.809  14.172 -0.2648 -0.0731 -1.5781
 3437SOL     OW21772   4.584   1.205  10.557  0.4028 -0.3648 -0.5442
 3437SOL    HW121773   4.505   1.190  10.506  0.5591  0.6461 -1.0943
 3437SOL    HW221774   4.646   1.135  10.535 -0.7359 -1.0853 -1.4008
 3438SOL     OW21775   0.681   0.151   8.146 -0.0858 -0.2714  0.6992
 3438SOL    HW121776   0.745   0.222   8.142 -1.4834  1.0001  0.4854
 3438SOL    HW221777   0.675   0.116   8.057 -0.0884 -0.5587  0.8130
 3439SOL     OW21778   2.885   0.383   9.972  0.6436  0.3353 -0.5135
 3439SOL    HW121779   2.943   0.459   9.979  1.1791 -0.0152 -1.1887
 3439SOL    HW221780   2.915   0.350   9.887  1.2696 -2.3360  0.7586
 3440SOL     OW21781   3.738   2.537  12.369 -0.7255 -0.6314  0.1340
 3440SOL    HW121782   3.699   2.569  12.288 -0.2993  2.4496  1.1233
 3440SOL    HW221783   3.712   2.445  12.369  0.3399 -0.9386 -1.1830
 3441SOL     OW21784   0.266   4.160  15.352  0.3509 -0.1312 -0.4721
 3441SOL    HW121785   0.258   4.199  15.265 -1.8319 -0.7859 -0.5715
 3441SOL    HW221786   0.250   4.067  15.335 -0.1402  0.0142 -0.8097
 3442SOL     OW21787   0.621   4.441   4.689  0.4560 -0.0482  0.0925
 3442SOL    HW121788   0.641   4.500   4.761 -2.5972 -3.0830  3.4059
 3442SOL    HW221789   0.708   4.405   4.673  0.0368 -0.3113 -1.6632
 3443SOL     OW21790   4.464   1.573   7.508  0.0191  0.0671  0.0920
 3443SOL    HW121791   4.373   1.600   7.526 -0.7870 -0.7493 -2.7066
 3443SOL    HW221792   4.464   1.489   7.463 -3.2772  0.2691 -0.3244
 3444SOL     OW21793   2.993   1.335  13.442 -0.1300  0.8709  0.2357
 3444SOL    HW121794   3.052   1.387  13.387 -0.9921  1.8935  0.2926
 3444SOL    HW221795   3.025   1.363  13.528  0.1462 -1.1652  0.7878
 3445SOL     OW21796   2.155   1.520   1.934 -0.1962  0.4081 -0.0320
 3445SOL    HW121797   2.188   1.431   1.934  0.5028  0.6672  3.0353
 3445SOL    HW221798   2.189   1.545   1.848  1.2703  2.4350  1.1356
 3446SOL     OW21799   3.966   2.256   4.448  0.0494 -0.2304 -0.2932
 3446SOL    HW121800   4.033   2.221   4.506  0.2097  2.8955  1.3985
 3446SOL    HW221801   3.933   2.180   4.400  0.5443 -1.6377  1.6158
 3447SOL     OW21802   0.334   0.854   4.269  0.3551 -0.0272 -0.0350
 3447SOL    HW121803   0.376   0.769   4.263 -1.0488 -0.8461  1.7357
 3447SOL    HW221804   0.275   0.842   4.194  0.6866  0.4787 -0.3787
 3448SOL     OW21805   1.968   2.846   7.506  0.2475 -0.0554  0.2081
 3448SOL    HW121806   1.926   2.878   7.586  0.6935 -0.3682  0.5700
 3448SOL    HW221807   1.913   2.893   7.444  1.6021  1.1318 -0.0874
 3449SOL     OW21808   1.478   0.578   2.199 -0.6652  0.0745  0.8181
 3449SOL    HW121809   1.405   0.605   2.255 -2.3141 -0.0200 -1.2770
 3449SOL    HW221810   1.478   0.484   2.217  1.2371 -0.0762  0.0400
 3450SOL     OW21811   3.762   1.051   2.479  0.1310  0.2892 -0.1277
 3450SOL    HW121812   3.736   1.065   2.388 -0.4766  0.5847  0.0997
 3450SOL    HW221813   3.681   1.035   2.526  0.7805  3.5866  2.0477
 3451SOL     OW21814   0.877   1.550  11.921  0.0647  0.4658  0.6407
 3451SOL    HW121815   0.860   1.613  11.852  1.8188 -2.3285 -2.3680
 3451SOL    HW221816   0.792   1.520  11.953  0.3977  0.0222  1.1132
 3452SOL     OW21817   2.698   3.166   2.564 -0.0287 -0.2027  0.1120
 3452SOL    HW121818   2.630   3.116   2.607  0.5799 -0.6694  0.5366
 3452SOL    HW221819   2.646   3.233   2.519 -0.0786  0.0574  0.5586
 3453SOL     OW21820   1.576   1.034   8.540  0.2526  1.0977  0.3072
 3453SOL    HW121821   1.533   0.949   8.531  1.9329  0.1497  1.1820
 3453SOL    HW221822   1.670   1.013   8.536 -0.1468 -1.1596  2.8732
 3454SOL     OW21823   2.933   2.676   5.916 -0.0999  0.4762 -0.0724
 3454SOL    HW121824   3.001   2.609   5.916 -0.6456 -0.0892 -3.8110
 3454SOL    HW221825   2.962   2.733   5.987 -0.4535  1.1568 -0.4696
 3455SOL     OW21826   4.193   4.466  10.791 -0.5540 -0.0818  0.3706
 3455SOL    HW121827   4.148   4.410  10.728  2.1354  1.3955 -2.8585
 3455SOL    HW221828   4.240   4.535  10.744 -0.1927 -0.0875  0.7204
 3456SOL     OW21829   1.377   1.925   3.062 -0.2594 -0.2393 -0.1089
 3456SOL    HW121830   1.341   1.892   3.144 -0.0105 -2.8859 -1.0485
 3456SOL    HW221831   1.472   1.928   3.076 -0.7065 -3.9391  3.6826
 3457SOL     OW21832   1.464   2.333   1.895  0.1709  0.4387  0.6725
 3457SOL    HW121833   1.503   2.251   1.924  0.9914  0.9080  0.8875
 3457SOL    HW221834   1.487   2.326   1.802  0.5596 -1.1419  0.8941
 3458SOL     OW21835   1.137   1.294   7.779 -0.6032 -0.2753 -0.2420
 3458SOL    HW121836   1.086   1.246   7.844 -1.9591  0.8817 -0.4377
 3458SOL    HW221837   1.172   1.228   7.720 -1.6569 -0.7854 -0.2923
 3459SOL     OW21838   4.182   0.835   5.337 -0.0639  0.2892 -0.5312
 3459SOL    HW121839   4.262   0.884   5.316  0.3278  0.5029  1.5059
 3459SOL    HW221840   4.119   0.894   5.296  0.8869 -0.0347 -2.4593
 3460SOL     OW21841   1.332   2.839   6.939 -0.0198  0.1301 -0.4103
 3460SOL    HW121842   1.239   2.838   6.914 -0.5799 -2.2362  1.8411
 3460SOL    HW221843   1.380   2.800   6.866 -1.1094 -2.5445  0.2939
 3461SOL     OW21844   0.974   2.946  14.478  0.7162 -0.7470 -0.4001
 3461SOL    HW121845   1.065   2.976  14.483 -0.4146  2.8170 -1.5809
 3461SOL    HW221846   0.965   2.894  14.558  1.1804 -1.2291 -0.6629
 3462SOL     OW21847   1.146   3.397   2.385  0.4087 -0.5115  0.2781
 3462SOL    HW121848   1.190   3.323   2.344  0.3393 -0.0880 -0.5509
 3462SOL    HW221849   1.151   3.361   2.474 -1.8684 -0.5700  0.3809
 3463SOL     OW21850   3.531   2.098   5.736 -0.1625 -0.1283 -0.8648
 3463SOL    HW121851   3.444   2.136   5.748  0.4484  0.7275  0.8514
 3463SOL    HW221852   3.562   2.102   5.827 -0.4702  1.7144 -0.8483
 3464SOL     OW21853   1.991   3.872   7.426  0.8365  0.2922  0.2417
 3464SOL    HW121854   1.908   3.886   7.381  0.3301 -2.3284  0.3508
 3464SOL    HW221855   1.970   3.788   7.467  1.2890 -0.8116 -1.8073
 3465SOL     OW21856   0.496   0.253   5.731  0.0659 -0.4362 -0.2441
 3465SOL    HW121857   0.404   0.247   5.756  0.2828  0.8474  0.8202
 3465SOL    HW221858   0.484   0.268   5.637  1.4819 -1.2556 -0.5495
 3466SOL     OW21859   0.167   2.905  12.865  0.9337 -0.0921  0.3415
 3466SOL    HW121860   0.230   2.885  12.934  2.2790  1.9010 -0.3137
 3466SOL    HW221861   0.223   2.935  12.794 -0.6639  0.1293 -0.8365
 3467SOL     OW21862   3.127   2.821   4.365 -0.0607  0.4205 -0.2905
 3467SOL    HW121863   3.195   2.837   4.299 -0.7995 -0.6601 -1.3176
 3467SOL    HW221864   3.167   2.750   4.415 -0.1416 -0.3046 -1.2548
 3468SOL     OW21865   4.659   3.892   4.997 -0.1466  0.0051  0.3742
 3468SOL    HW121866   4.688   3.841   4.922 -0.6994  0.6504 -0.2862
 3468SOL    HW221867   4.674   3.980   4.962 -0.8827 -0.3551 -0.8634
 3469SOL     OW21868   2.720   3.413   5.153  0.0301 -0.0220  0.3443
 3469SOL    HW121869   2.734   3.489   5.097 -1.6379  1.0006  1.3110
 3469SOL    HW221870   2.786   3.428   5.221  1.2750 -1.3893 -0.5614
 3470SOL     OW21871   0.929   3.101   7.086 -0.4198 -0.1886  0.7838
 3470SOL    HW121872   0.894   3.180   7.129  2.2998  0.2417  2.2030
 3470SOL    HW221873   1.017   3.131   7.107 -0.4102 -0.9435  1.8199
 3471SOL     OW21874   1.089   2.168   4.131  1.3161  0.4524 -0.0528
 3471SOL    HW121875   1.163   2.109   4.147  0.5834  0.2518  2.5894
 3471SOL    HW221876   1.066   2.135   4.044  1.1148  1.0922 -0.2444
 3472SOL     OW21877   2.115   2.476   6.973 -0.1574  0.4591 -1.1674
 3472SOL    HW121878   2.067   2.527   7.039 -0.9615 -1.8618  0.0354
 3472SOL    HW221879   2.198   2.471   7.019 -2.0508 -0.4845  2.1872
 3473SOL     OW21880   3.070   1.515   3.176  0.1647  0.2773  0.1182
 3473SOL    HW121881   3.088   1.578   3.246 -2.1159  1.6152 -0.4998
 3473SOL    HW221882   3.125   1.441   3.201 -3.1046 -2.5616 -1.1623
 3474SOL     OW21883   2.992   0.593   2.436  0.1105 -0.4630  0.1619
 3474SOL    HW121884   3.074   0.599   2.386  0.7942  2.2403  1.6359
 3474SOL    HW221885   3.025   0.598   2.526  2.7387  1.1634 -0.8813
 3475SOL     OW21886   3.667   0.916   2.894  0.5019 -0.6255  0.3984
 3475SOL    HW121887   3.749   0.965   2.892 -1.2318  2.2259 -0.7181
 3475SOL    HW221888   3.705   0.829   2.905 -0.3600 -0.9876  0.4985
 3476SOL     OW21889   2.380   0.542   4.340 -0.7519 -0.3324  0.0709
 3476SOL    HW121890   2.347   0.630   4.323 -0.0825 -0.5005 -2.1338
 3476SOL    HW221891   2.320   0.483   4.294 -1.3494  0.3919 -0.0765
 3477SOL     OW21892   0.812   2.582  15.207 -0.2528 -0.0712 -0.0247
 3477SOL    HW121893   0.826   2.668  15.168 -1.3369  0.9283  1.7602
 3477SOL    HW221894   0.901   2.549  15.220 -0.5880 -1.0759 -0.3034
 3478SOL     OW21895   3.970   0.792   3.267 -0.0831 -1.1284 -0.0228
 3478SOL    HW121896   3.899   0.729   3.282 -1.9422  1.1212  0.5491
 3478SOL    HW221897   4.034   0.743   3.214  0.0142  1.5514 -2.3680
 3479SOL     OW21898   0.565   3.079   2.867  0.8980 -0.6695  0.0094
 3479SOL    HW121899   0.495   3.074   2.801  0.9385  3.8137 -0.3290
 3479SOL    HW221900   0.578   2.986   2.886 -0.1957 -1.3437 -2.5877
 3480SOL     OW21901   4.452   2.554  10.594 -0.2323  0.6436 -0.4685
 3480SOL    HW121902   4.536   2.587  10.627 -0.4703  0.1530  0.6253
 3480SOL    HW221903   4.408   2.626  10.549  0.7104  0.3395 -1.8584
 3481SOL     OW21904   0.601   3.953   6.696  0.3709  0.0156  0.1282
 3481SOL    HW121905   0.687   3.994   6.689 -0.3054  2.0499  3.3848
 3481SOL    HW221906   0.538   4.025   6.685 -0.8088 -0.8372  1.2151
 3482SOL     OW21907   1.285   2.990   4.403 -0.4258 -0.5241  0.0987
 3482SOL    HW121908   1.254   2.958   4.488 -2.7498  0.0643 -0.5292
 3482SOL    HW221909   1.330   3.068   4.436 -1.5140  1.2852 -2.6440
 3483SOL     OW21910   4.527   3.034   8.826 -0.2252  0.0073  0.2611
 3483SOL    HW121911   4.578   2.953   8.818 -1.1384 -0.5238 -0.1499
 3483SOL    HW221912   4.549   3.077   8.743 -2.9827 -0.3025 -0.6374
 3484SOL     OW21913   1.425   4.227   1.081 -0.0860  0.2476 -0.0946
 3484SOL    HW121914   1.393   4.233   1.171  0.8907  1.1951  0.1924
 3484SOL    HW221915   1.359   4.168   1.043  0.1930  0.2686 -0.6088
 3485SOL     OW21916   3.592   2.249   5.524 -0.2015 -0.7261 -0.0972
 3485SOL    HW121917   3.552   2.335   5.537 -1.3291 -1.2305 -0.2207
 3485SOL    HW221918   3.554   2.200   5.596  1.4326 -0.3030  1.0434
 3486SOL     OW21919   1.733   4.574  16.857  0.2760 -0.1116 -0.2740
 3486SOL    HW121920   1.708   4.664  16.877  1.2623  0.6763 -2.5968
 3486SOL    HW221921   1.806   4.552  16.915  0.4437  0.2229 -0.3558
 3487SOL     OW21922   4.177   3.348  12.781 -0.4660 -0.5481 -0.2501
 3487SOL    HW121923   4.128   3.276  12.741  0.6925 -0.8876 -1.0385
 3487SOL    HW221924   4.236   3.371  12.709 -1.2810  1.1616 -0.3990
 3488SOL     OW21925   1.056   4.469  14.221  0.5325 -0.1646 -0.1627
 3488SOL    HW121926   1.073   4.541  14.282 -0.5454 -0.9818  1.1033
 3488SOL    HW221927   0.961   4.457  14.216  0.3840  0.9944 -0.2672
 3489SOL     OW21928   0.080   3.492   6.299 -0.1872  0.5642  0.3589
 3489SOL    HW121929   0.148   3.546   6.259  0.0066  0.0643  0.0142
 3489SOL    HW221930   0.066   3.537   6.383  0.7727 -0.7254  1.2145
 3490SOL     OW21931   0.951   2.955   0.939 -0.3552 -0.4053  0.2672
 3490SOL    HW121932   0.862   2.949   0.906 -0.8427 -0.3917  1.5921
 3490SOL    HW221933   0.961   2.870   0.982 -1.4532 -1.0347 -0.7496
 3491SOL     OW21934   3.772   0.202   0.424  0.0827  0.0239  0.1944
 3491SOL    HW121935   3.836   0.154   0.476 -0.5933  0.3612  1.3322
 3491SOL    HW221936   3.728   0.247   0.496  1.6620 -1.5522  2.1286
 3492SOL     OW21937   4.611   0.776   4.775 -0.2859  0.7929  0.1779
 3492SOL    HW121938   4.560   0.820   4.707 -0.0848  1.6227  0.5708
 3492SOL    HW221939   4.654   0.849   4.819  6.1103 -2.7155 -0.2126
 3493SOL     OW21940   1.281   3.152   3.444  0.3561  0.3106 -0.0447
 3493SOL    HW121941   1.271   3.212   3.519  1.3868  1.4291 -0.7940
 3493SOL    HW221942   1.367   3.113   3.461 -0.2195 -1.6400 -1.6908
 3494SOL     OW21943   0.712   4.075   7.428 -0.6392  0.7347  0.3418
 3494SOL    HW121944   0.652   4.008   7.396 -1.2906  1.4883 -0.0073
 3494SOL    HW221945   0.787   4.057   7.371 -1.1515 -0.7829  0.1438
 3495SOL     OW21946   4.056   1.009   3.106 -0.3553 -0.5613  0.2271
 3495SOL    HW121947   4.114   1.075   3.146  0.6260  0.7193 -3.2831
 3495SOL    HW221948   4.022   0.966   3.184  3.0930 -1.6909  1.0924
 3496SOL     OW21949   3.421   1.238   8.361 -0.6239  1.1529 -0.3565
 3496SOL    HW121950   3.477   1.250   8.439 -1.3578 -1.1227  0.5286
 3496SOL    HW221951   3.361   1.169   8.388 -1.0966  1.5159 -0.4743
 3497SOL     OW21952   3.409   2.787   3.963  0.1092  0.5289  0.2406
 3497SOL    HW121953   3.492   2.755   3.998  0.0491  1.5217  1.2599
 3497SOL    HW221954   3.382   2.839   4.038 -1.2416 -0.7560  0.6294
 3498SOL     OW21955   2.637   3.945   2.301 -0.1542 -0.0975 -0.6890
 3498SOL    HW121956   2.681   4.026   2.327 -1.9208  0.2720  1.1635
 3498SOL    HW221957   2.587   3.927   2.381  2.4482 -0.4524  0.8329
 3499SOL     OW21958   0.320   0.406   6.164  0.2004  0.5946 -0.1990
 3499SOL    HW121959   0.356   0.486   6.202  0.6669  0.4325 -0.2946
 3499SOL    HW221960   0.396   0.372   6.116 -0.3146 -1.2220  0.2953
 3500SOL     OW21961   2.494   2.348   2.622  0.3785 -0.1674  0.1945
 3500SOL    HW121962   2.482   2.423   2.563  1.9153  1.2573  1.7119
 3500SOL    HW221963   2.409   2.304   2.621  0.3379 -0.1180  1.5386
 3501SOL     OW21964   1.469   4.226   6.211  0.1633  0.4902  0.1744
 3501SOL    HW121965   1.385   4.239   6.167  0.3386 -1.3676 -0.7127
 3501SOL    HW221966   1.434   4.199   6.296 -0.7190 -2.4219 -1.1213
 3502SOL     OW21967   4.275   2.361   7.732 -0.1902 -0.4054  0.5303
 3502SOL    HW121968   4.235   2.275   7.743 -0.5032 -0.2515  0.5846
 3502SOL    HW221969   4.361   2.339   7.768  0.5510  0.0153 -1.0013
 3503SOL     OW21970   4.519   0.084  15.003 -0.9798 -0.0400 -0.2281
 3503SOL    HW121971   4.519   0.180  15.008  1.1397 -0.0405 -0.1895
 3503SOL    HW221972   4.489   0.058  15.090  1.3554  0.8791  0.8332
 3504SOL     OW21973   0.341   1.032   2.349  0.4556 -0.0983  0.5338
 3504SOL    HW121974   0.425   1.034   2.395  0.8566 -0.0774 -0.2098
 3504SOL    HW221975   0.346   1.099   2.281 -3.5713  1.4610  1.7503
 3505SOL     OW21976   4.444   2.041   4.095 -0.1303  0.0630 -0.6110
 3505SOL    HW121977   4.465   2.109   4.159  2.9565 -1.1218 -0.3673
 3505SOL    HW221978   4.387   2.088   4.034 -0.9248  0.4607  0.4386
 3506SOL     OW21979   4.666   4.136   4.875 -0.1935  0.3538  0.1102
 3506SOL    HW121980   4.635   4.191   4.804 -1.7593  0.6638  1.0202
 3506SOL    HW221981   0.036   4.161   4.884 -0.3445  1.5140 -1.6972
 3507SOL     OW21982   2.633   3.711  15.237  0.6853  0.1720 -0.5131
 3507SOL    HW121983   2.725   3.736  15.242  0.4530  0.5990  1.8768
 3507SOL    HW221984   2.645   3.616  15.246  0.2808  0.0833 -0.9016
 3508SOL     OW21985   1.970   2.575   2.100  0.1729  0.1022 -0.1594
 3508SOL    HW121986   2.055   2.554   2.062 -0.7641 -1.6085 -1.3322
 3508SOL    HW221987   1.998   2.666   2.111  1.2644 -0.1355 -0.9535
 3509SOL     OW21988   1.976   0.236   6.415 -0.0798  0.1912 -0.4746
 3509SOL    HW121989   2.045   0.236   6.349  0.7467 -3.5059  0.3804
 3509SOL    HW221990   1.910   0.177   6.381  0.4505 -1.3644  1.1737
 3510SOL     OW21991   3.268   1.781   2.581  0.3124  0.2729  0.4829
 3510SOL    HW121992   3.260   1.788   2.676 -2.0627  1.2014  0.2109
 3510SOL    HW221993   3.284   1.872   2.557  0.5754  0.5678  1.7836
 3511SOL     OW21994   4.359   1.875   7.077  0.1856  0.0867  0.6788
 3511SOL    HW121995   4.294   1.872   7.007  0.7593 -1.3960  0.2264
 3511SOL    HW221996   4.317   1.945   7.128 -0.9621  0.6893 -1.1025
 3512SOL     OW21997   1.981   2.000   3.574  0.1815  0.1657  0.0586
 3512SOL    HW121998   2.015   2.090   3.573 -2.1934  1.0671  1.3568
 3512SOL    HW221999   1.899   1.998   3.525  1.4245 -0.6029 -1.9906
 3513SOL     OW22000   0.708   0.760   6.394 -0.2412 -0.3612  0.0105
 3513SOL    HW122001   0.742   0.678   6.360  1.7654  1.6402 -2.7929
 3513SOL    HW222002   0.783   0.818   6.410 -1.8172  1.3755  1.2031
 3514SOL     OW22003   1.461   1.777   5.042  0.2602  0.2852  0.0402
 3514SOL    HW122004   1.436   1.819   4.960  0.1141  1.5275  0.7260
 3514SOL    HW222005   1.534   1.826   5.079  1.8724 -1.1223 -1.3003
 3515SOL     OW22006   0.222   3.715   8.715 -0.3317  0.0661 -0.1204
 3515SOL    HW122007   0.191   3.726   8.625  0.2359 -1.9712 -0.5648
 3515SOL    HW222008   0.164   3.643   8.737  1.1642 -1.3252 -0.7535
 3516SOL     OW22009   1.172   1.305   5.517 -0.4876 -0.6340  0.0027
 3516SOL    HW122010   1.185   1.370   5.448 -0.3066  1.1701  1.7357
 3516SOL    HW222011   1.234   1.240   5.482 -0.5586  0.3128 -1.8972
 3517SOL     OW22012   1.553   4.164   4.505 -0.4315 -0.0226 -0.2485
 3517SOL    HW122013   1.584   4.161   4.414 -0.2721  0.9184 -0.2240
 3517SOL    HW222014   1.570   4.073   4.529  0.1428 -0.1562 -1.1297
 3518SOL     OW22015   2.082   0.108  10.421 -0.0780  0.1687  0.2101
 3518SOL    HW122016   2.162   0.155  10.441 -0.3066  0.4457  0.4752
 3518SOL    HW222017   2.023   0.127  10.494 -1.7452 -1.9469 -0.5632
 3519SOL     OW22018   0.908   4.075   4.867  0.1697  0.5837  0.0534
 3519SOL    HW122019   0.862   4.156   4.845  0.1981 -0.0406 -2.3145
 3519SOL    HW222020   0.852   4.035   4.934 -1.0733 -0.0555 -1.3546
 3520SOL     OW22021   2.349   1.876  13.326 -0.4785  0.3183  0.1757
 3520SOL    HW122022   2.336   1.949  13.386 -0.7603  0.1626  0.3056
 3520SOL    HW222023   2.358   1.920  13.242 -3.5218  0.5302 -0.0386
 3521SOL     OW22024   2.979   0.778   1.269 -0.2072  0.0156 -0.6682
 3521SOL    HW122025   2.949   0.745   1.354 -1.1553  1.4877 -0.4377
 3521SOL    HW222026   2.901   0.786   1.213 -0.9555 -1.5566  0.1379
 3522SOL     OW22027   2.801   0.809   6.368 -0.1534  0.3866  0.4323
 3522SOL    HW122028   2.758   0.862   6.435  0.3209  1.7419 -0.3209
 3522SOL    HW222029   2.860   0.756   6.422 -1.9102  0.6377  2.5812
 3523SOL     OW22030   0.363   3.583   5.911 -0.3073  0.9105  0.0005
 3523SOL    HW122031   0.425   3.581   5.984 -1.6944 -0.2720  1.1427
 3523SOL    HW222032   0.417   3.543   5.843  0.3441  1.9986 -0.1303
 3524SOL     OW22033   4.199   1.770   1.832 -0.1126  0.9094  0.1506
 3524SOL    HW122034   4.171   1.702   1.770  0.8618  0.2024  0.4769
 3524SOL    HW222035   4.120   1.778   1.886  0.2205 -1.6119  1.0083
 3525SOL     OW22036   1.920   1.693  13.715  0.1147 -0.1069 -0.1487
 3525SOL    HW122037   1.942   1.737  13.633  0.8919  1.1743  0.7433
 3525SOL    HW222038   1.863   1.761  13.752 -0.6142 -0.8351  0.0494
 3526SOL     OW22039   2.952   3.075   1.052  0.0850 -0.5294  0.1625
 3526SOL    HW122040   2.930   3.086   0.959 -2.6266 -0.4742  0.8208
 3526SOL    HW222041   2.927   2.983   1.042  0.4422 -1.0471  4.2203
 3527SOL     OW22042   0.291   4.224   3.820  0.0059  0.1206  0.0609
 3527SOL    HW122043   0.330   4.137   3.826  0.0974 -0.0136 -2.2854
 3527SOL    HW222044   0.360   4.266   3.870 -0.2930  1.7826 -0.8986
 3528SOL     OW22045   4.402   1.217  13.151 -0.1207  0.1131  0.4813
 3528SOL    HW122046   4.465   1.147  13.131 -1.2128 -0.9276  0.6890
 3528SOL    HW222047   4.439   1.246  13.234 -0.1236 -1.7794  1.1542
 3529SOL     OW22048   3.789   3.716  16.116 -1.1410 -0.3885  0.2194
 3529SOL    HW122049   3.801   3.769  16.037 -1.9498 -1.5674 -0.6859
 3529SOL    HW222050   3.761   3.779  16.182 -2.2851  2.2880 -2.8151
 3530SOL     OW22051   2.640   1.973   9.990  0.6311 -0.0701 -0.3341
 3530SOL    HW122052   2.577   1.902   9.982 -0.1264  0.4543  0.9383
 3530SOL    HW222053   2.671   1.997   9.902 -0.2567  1.1993 -0.3113
 3531SOL     OW22054   2.653   3.496   5.544  0.0326 -0.1043  0.1115
 3531SOL    HW122055   2.690   3.530   5.625  2.3290  0.4072 -1.1564
 3531SOL    HW222056   2.559   3.504   5.554  0.2012 -0.9639  2.3606
 3532SOL     OW22057   4.521   4.647   1.465 -0.1796  0.5733 -0.5481
 3532SOL    HW122058   4.539   0.017   1.446 -1.6798  0.9731 -0.0329
 3532SOL    HW222059   4.550   4.604   1.384  1.2317  1.5797 -0.5865
 3533SOL     OW22060   0.285   0.795  14.323  0.2215 -0.1869  0.4634
 3533SOL    HW122061   0.234   0.875  14.311  2.0339  1.1242  1.4798
 3533SOL    HW222062   0.374   0.831  14.320 -0.5106  1.5793  0.0529
 3534SOL     OW22063   4.611   2.778   7.424  0.2085 -0.2588  0.4738
 3534SOL    HW122064   4.651   2.703   7.381 -3.1302 -1.4022 -0.6773
 3534SOL    HW222065   4.687   2.801   7.478  0.4303 -1.2805  0.5982
 3535SOL     OW22066   2.780   3.114   8.140  0.1758  0.0634  0.4302
 3535SOL    HW122067   2.794   3.208   8.144 -0.7377  0.1784  0.9579
 3535SOL    HW222068   2.740   3.092   8.224 -1.5321  1.5489  0.0124
 3536SOL     OW22069   1.130   0.923   4.727  0.6567 -0.1553  0.0349
 3536SOL    HW122070   1.095   0.849   4.777  1.5791 -0.8619 -0.3628
 3536SOL    HW222071   1.166   0.984   4.792  1.9287 -2.2774  1.3230
 3537SOL     OW22072   1.612   4.051   8.352 -0.4524 -0.5312 -0.3732
 3537SOL    HW122073   1.620   4.129   8.408  2.7167 -1.5018  0.5086
 3537SOL    HW222074   1.640   4.082   8.266  0.3769  3.2649  1.2550
 3538SOL     OW22075   0.560   2.325   0.803 -0.2892  0.1093 -1.2727
 3538SOL    HW122076   0.593   2.411   0.827 -0.8239 -0.3981  1.2274
 3538SOL    HW222077   0.609   2.265   0.860  0.9764  2.8083  0.4876
 3539SOL     OW22078   2.947   3.773  17.238 -0.0315  0.0901 -0.1984
 3539SOL    HW122079   2.999   3.827  17.298 -0.1136 -1.6568  1.4270
 3539SOL    HW222080   2.914   3.844  17.182  1.0458 -0.7416 -1.8756
 3540SOL     OW22081   0.140   1.448   5.543 -0.5615 -0.4408  0.4257
 3540SOL    HW122082   0.156   1.540   5.566 -0.3264 -0.1628 -0.8693
 3540SOL    HW222083   0.073   1.458   5.476 -0.5471 -0.5748  0.3916
 3541SOL     OW22084   0.083   3.284  11.839  0.2582  0.5248 -0.1740
 3541SOL    HW122085   0.120   3.330  11.914  1.4507 -0.2498 -0.2920
 3541SOL    HW222086   0.073   3.194  11.871 -0.5103  0.3571 -0.8736
 3542SOL     OW22087   2.535   4.079  13.700 -0.1615 -0.4180 -0.3474
 3542SOL    HW122088   2.480   4.057  13.626 -0.1100  1.8835 -1.0674
 3542SOL    HW222089   2.499   4.162  13.730  1.8855 -0.4940  2.4104
 3543SOL     OW22090   4.043   1.004   9.702  0.5500 -0.0425  0.1242
 3543SOL    HW122091   4.115   1.022   9.642 -1.1060 -0.0861 -1.8597
 3543SOL    HW222092   4.099   0.978   9.775 -0.5460  0.2592  1.0778
 3544SOL     OW22093   3.650   0.237   2.950  1.0532 -0.2688  0.3629
 3544SOL    HW122094   3.621   0.263   2.862 -0.4725  0.5090  1.0776
 3544SOL    HW222095   3.670   0.145   2.933 -0.0635 -0.5486  0.5232
 3545SOL     OW22096   3.162   2.833   6.862  0.6107  0.2276  0.0631
 3545SOL    HW122097   3.100   2.762   6.845 -1.7634  1.8952  1.9146
 3545SOL    HW222098   3.166   2.881   6.779 -0.4607  0.1471 -0.0298
 3546SOL     OW22099   2.261   4.605  17.042 -0.6274  0.2960  0.0254
 3546SOL    HW122100   2.236   4.688  17.003 -0.7691  0.6955  0.9565
 3546SOL    HW222101   2.214   4.542  16.988 -2.2775  1.5178  0.0636
 3547SOL     OW22102   4.624   0.057   8.069  0.2525  0.3316 -0.1178
 3547SOL    HW122103   4.673   0.134   8.099 -0.7680  0.5209  1.0433
 3547SOL    HW222104   4.650   4.721   8.141 -0.2211 -0.1830 -0.3594
 3548SOL     OW22105   1.860   3.771  17.327 -0.0039  0.0529 -0.1839
 3548SOL    HW122106   1.825   3.813  17.248  1.1078  3.5985  1.2227
 3548SOL    HW222107   1.792   3.704  17.333 -0.2980  0.1358 -2.4846
 3549SOL     OW22108   1.946   1.416   2.345  0.1552 -0.1929 -0.1678
 3549SOL    HW122109   1.860   1.443   2.376 -0.4639 -3.5252  0.9932
 3549SOL    HW222110   1.945   1.464   2.262 -4.1002  0.6885  0.3978
 3550SOL     OW22111   1.913   1.556   2.729 -0.1070 -0.8230  0.8404
 3550SOL    HW122112   1.844   1.498   2.760  0.8503 -1.9761  0.7751
 3550SOL    HW222113   1.862   1.617   2.676  0.0077  0.2404  1.9432
 3551SOL     OW22114   4.173   2.867   7.303  0.3906  0.0977 -0.4943
 3551SOL    HW122115   4.169   2.905   7.216  2.5169 -1.4274 -1.2666
 3551SOL    HW222116   4.194   2.777   7.280 -0.4359 -0.7337  1.9876
 3552SOL     OW22117   1.994   0.313   5.833  0.3307 -0.3534 -0.6362
 3552SOL    HW122118   2.059   0.244   5.818 -1.0138 -1.0355 -3.1993
 3552SOL    HW222119   2.030   0.387   5.881  0.1093 -0.3454 -0.4829
 3553SOL     OW22120   3.646   1.326   1.880  0.5579  0.3408 -0.1092
 3553SOL    HW122121   3.653   1.231   1.865 -1.2122  0.2606 -0.3789
 3553SOL    HW222122   3.679   1.335   1.970  0.3790 -2.7264  0.2782
 3554SOL     OW22123   3.660   0.391   4.333  0.3478  0.1245  0.6144
 3554SOL    HW122124   3.695   0.320   4.387  0.7209 -1.1874 -1.3043
 3554SOL    HW222125   3.730   0.456   4.336  0.2309  0.3106 -0.5132
 3555SOL     OW22126   4.530   3.257   3.379 -0.3691 -0.1076 -0.4702
 3555SOL    HW122127   4.522   3.162   3.381 -0.8809 -0.0728 -0.7734
 3555SOL    HW222128   4.615   3.274   3.337  0.0069 -0.1723  0.2671
 3556SOL     OW22129   0.847   4.665   4.602  0.0936 -0.2114  0.5703
 3556SOL    HW122130   0.919   4.602   4.611  0.2695 -0.1566 -0.4996
 3556SOL    HW222131   0.845   4.691   4.511 -0.9743 -1.7664  0.1452
 3557SOL     OW22132   2.115   3.323  14.750  0.5211 -0.7496 -0.3681
 3557SOL    HW122133   2.043   3.386  14.741  2.5976  1.6357 -0.1521
 3557SOL    HW222134   2.073   3.266  14.815 -1.1796 -0.1610 -0.9395
 3558SOL     OW22135   1.479   0.997   8.044 -0.2050 -0.5511 -0.1494
 3558SOL    HW122136   1.402   0.973   7.991 -1.2875  0.6705  0.8727
 3558SOL    HW222137   1.524   0.912   8.045  0.3734 -0.2381  0.0844
 3559SOL     OW22138   2.079   3.350  10.827 -0.2967 -0.0382 -0.3475
 3559SOL    HW122139   2.008   3.287  10.809 -1.4665  0.8459  1.2477
 3559SOL    HW222140   2.078   3.408  10.751  0.2166  0.6666  0.1888
 3560SOL     OW22141   1.851   2.271  10.476  0.3165 -0.2252 -0.7667
 3560SOL    HW122142   1.896   2.224  10.405 -1.7879 -1.8441 -1.0146
 3560SOL    HW222143   1.849   2.360  10.441  0.1797 -0.3263 -1.0198
 3561SOL     OW22144   0.662   2.951   5.836  0.2093  0.0843 -0.5598
 3561SOL    HW122145   0.654   3.045   5.820 -0.0332 -0.0283 -1.1118
 3561SOL    HW222146   0.571   2.935   5.860  0.3031  1.6713  0.8133
 3562SOL     OW22147   2.034   1.406  12.681  0.1214 -0.1127 -0.4037
 3562SOL    HW122148   1.953   1.357  12.699 -0.0856 -0.4994 -2.4073
 3562SOL    HW222149   1.996   1.494  12.688  0.4829 -0.2632  3.3919
 3563SOL     OW22150   0.053   2.874   7.623  0.0285 -0.2016 -0.0573
 3563SOL    HW122151   0.064   2.894   7.716 -1.0735  1.9258 -0.3956
 3563SOL    HW222152   0.111   2.934   7.577 -0.5160 -0.0740 -0.5675
 3564SOL     OW22153   1.951   0.989  14.576 -0.1308  0.1053  0.5050
 3564SOL    HW122154   1.896   1.062  14.549  0.5718  0.5038  0.1405
 3564SOL    HW222155   1.882   0.923  14.571 -0.6124  0.6819 -0.5112
 3565SOL     OW22156   0.058   2.668   1.966  0.1916 -0.1982 -0.9721
 3565SOL    HW122157   4.719   2.703   1.901 -1.3599 -2.7047 -0.8736
 3565SOL    HW222158   4.717   2.668   2.038  0.1584  2.6202 -0.9944
 3566SOL     OW22159   0.991   0.695   6.479  0.0780 -0.2761  0.3537
 3566SOL    HW122160   0.983   0.696   6.575  0.8741 -0.6555  0.4288
 3566SOL    HW222161   1.018   0.785   6.459 -2.4835  0.2550 -0.6380
 3567SOL     OW22162   1.606   4.593   7.175  0.8938 -0.3275 -0.7071
 3567SOL    HW122163   1.517   4.587   7.141  0.5460 -1.1361  0.3417
 3567SOL    HW222164   1.642   4.660   7.116  0.0948 -0.7890 -1.7151
 3568SOL     OW22165   4.668   0.767  14.190  0.2144 -0.1553  0.1380
 3568SOL    HW122166   4.572   0.770  14.196  0.1255 -1.1330 -0.8703
 3568SOL    HW222167   4.696   0.772  14.282  0.8281  1.0046 -0.1176
 3569SOL     OW22168   1.828   2.238   9.440 -0.0640 -0.4288  0.5265
 3569SOL    HW122169   1.825   2.223   9.345  0.6462 -0.1059  0.4577
 3569SOL    HW222170   1.771   2.166   9.469  0.2420 -0.6372  0.6013
 3570SOL     OW22171   3.042   2.074   5.376  0.3497 -0.7510 -0.0994
 3570SOL    HW122172   3.131   2.077   5.413  0.0221 -3.5921  0.9248
 3570SOL    HW222173   3.001   2.016   5.440 -2.5727  3.3698  1.7763
 3571SOL     OW22174   2.244   4.722   8.722 -0.7255  0.0043  0.5482
 3571SOL    HW122175   2.186   0.025   8.793 -0.3906 -1.1147  1.2134
 3571SOL    HW222176   2.328   4.709   8.765  0.4723  2.3226 -1.0905
 3572SOL     OW22177   1.225   4.148   3.546 -0.0655  0.0561  0.5737
 3572SOL    HW122178   1.271   4.127   3.465  0.5710  2.5656  0.3061
 3572SOL    HW222179   1.281   4.098   3.606  0.0321  0.1031  0.5205
 3573SOL     OW22180   4.293   0.805   0.230 -0.7841  0.2719  0.0898
 3573SOL    HW122181   4.360   0.850   0.180 -1.3781  2.2667  1.0642
 3573SOL    HW222182   4.232   0.768   0.165 -0.0390  0.2800 -0.6064
 3574SOL     OW22183   3.121   1.676  16.429 -0.3604 -0.2801  0.6193
 3574SOL    HW122184   3.139   1.594  16.384 -0.6275 -0.7669  1.4025
 3574SOL    HW222185   3.128   1.650  16.521  0.8157 -2.3810 -0.0593
 3575SOL     OW22186   4.058   2.792   4.027 -0.0524  0.3874 -0.3419
 3575SOL    HW122187   4.092   2.744   3.951  1.1805  0.8229 -0.0541
 3575SOL    HW222188   3.977   2.745   4.045  0.4562 -0.7523 -1.0298
 3576SOL     OW22189   3.592   3.558  15.994  0.2871  0.6432 -0.3434
 3576SOL    HW122190   3.664   3.607  16.033 -0.4611  1.3338  0.2038
 3576SOL    HW222191   3.525   3.586  16.057 -0.9272  1.3239 -1.9220
 3577SOL     OW22192   1.820   2.585   7.525 -0.1897 -0.0309 -0.5330
 3577SOL    HW122193   1.880   2.660   7.524  0.7576 -0.7792  0.0886
 3577SOL    HW222194   1.828   2.563   7.618  3.8423  1.1709 -0.5524
 3578SOL     OW22195   0.688   0.932   8.731  0.4806 -0.4393  0.0117
 3578SOL    HW122196   0.771   0.981   8.735  0.2918 -0.1963  0.8995
 3578SOL    HW222197   0.729   0.846   8.742  0.1406 -0.2954  2.3541
 3579SOL     OW22198   1.353   0.481   3.066  0.5029  0.4054  0.3389
 3579SOL    HW122199   1.420   0.421   3.034 -0.1053  0.0682 -0.2911
 3579SOL    HW222200   1.408   0.550   3.104  0.5807  0.2872  0.4454
 3580SOL     OW22201   2.187   3.349  13.837  0.1255 -0.0163 -0.4424
 3580SOL    HW122202   2.160   3.391  13.755  0.6267 -2.2569 -1.7811
 3580SOL    HW222203   2.099   3.333  13.873 -1.0017 -0.7255 -3.4973
 3581SOL     OW22204   4.073   3.430  17.356 -0.2648  0.6990 -0.1955
 3581SOL    HW122205   4.134   3.405  17.425  1.8727  0.5583 -2.1205
 3581SOL    HW222206   4.143   3.459  17.297 -0.1100  1.6619  0.4612
 3582SOL     OW22207   2.316   2.210   3.190 -0.2055 -0.5565 -0.3924
 3582SOL    HW122208   2.268   2.134   3.223  1.6408 -2.0417 -1.1329
 3582SOL    HW222209   2.399   2.194   3.235  0.3995 -1.7649 -1.9359
 3583SOL     OW22210   2.930   4.534   4.004  0.1233  0.5570 -0.7118
 3583SOL    HW122211   2.858   4.514   3.943  0.0681  0.1911 -0.5269
 3583SOL    HW222212   2.881   4.591   4.064 -0.3574 -0.0597 -0.5159
 3584SOL     OW22213   0.041   2.850   9.217 -0.1448 -0.3099 -0.7077
 3584SOL    HW122214   0.035   2.921   9.282  0.7976 -1.4808  0.6596
 3584SOL    HW222215   4.686   2.864   9.162 -1.8775 -0.7535  1.5702
 3585SOL     OW22216   2.581   2.994   6.889 -0.6908  0.2827 -0.3165
 3585SOL    HW122217   2.523   3.009   6.963 -1.5421  0.8809 -1.0964
 3585SOL    HW222218   2.665   2.986   6.934 -0.9669  1.2186  0.3516
 3586SOL     OW22219   3.036   0.282   3.807  0.2263 -0.2975 -0.0230
 3586SOL    HW122220   3.114   0.313   3.760 -0.4445  0.6935 -0.4637
 3586SOL    HW222221   2.976   0.271   3.734 -0.8590 -1.8552  1.1128
 3587SOL     OW22222   1.039   3.885   6.598 -0.1154  0.1061 -0.4538
 3587SOL    HW122223   1.006   3.931   6.675 -0.0355  0.8906 -0.8884
 3587SOL    HW222224   1.117   3.843   6.633  0.7448  0.3652 -2.0595
 3588SOL     OW22225   2.317   4.641   8.264  0.3113  0.3034 -0.1408
 3588SOL    HW122226   2.269   4.581   8.206 -0.1124 -0.3725  0.9164
 3588SOL    HW222227   2.376   4.575   8.301 -0.4967 -0.8819 -0.9333
 3589SOL     OW22228   3.124   2.386  16.443 -1.1808 -0.0326 -0.6036
 3589SOL    HW122229   3.176   2.434  16.379 -0.2592 -0.3729 -0.1067
 3589SOL    HW222230   3.160   2.303  16.413 -0.9844 -0.1809  0.0612
 3590SOL     OW22231   4.205   4.285   5.692 -0.3992  0.4768  0.0906
 3590SOL    HW122232   4.114   4.301   5.667 -0.4131 -1.8372 -1.3634
 3590SOL    HW222233   4.193   4.239   5.775  1.5877  0.2699  0.2750
 3591SOL     OW22234   3.884   0.098   1.233  0.2754 -0.4237  0.2474
 3591SOL    HW122235   3.865   0.013   1.193 -0.1693 -1.0555  1.7754
 3591SOL    HW222236   3.826   0.164   1.195 -1.5241 -1.1172  1.7903
 3592SOL     OW22237   0.944   2.497   6.043 -0.7629  0.0979 -0.2022
 3592SOL    HW122238   1.039   2.489   6.041 -0.7624  0.5562 -2.0546
 3592SOL    HW222239   0.913   2.438   5.974  0.4754 -1.2903  0.4156
 3593SOL     OW22240   0.142   0.715  13.953  0.0794 -0.3129  0.4271
 3593SOL    HW122241   0.112   0.805  13.940  0.5638 -0.1019  0.7792
 3593SOL    HW222242   0.217   0.709  13.894  1.0299 -0.9567  1.6956
 3594SOL     OW22243   4.500   4.408   6.725  0.8042 -0.0267 -0.0609
 3594SOL    HW122244   4.451   4.333   6.758  1.9428  0.2691  2.3670
 3594SOL    HW222245   4.563   4.411   6.798  0.0054 -2.4823  0.7198
 3595SOL     OW22246   3.520   1.620   5.639 -0.1176 -0.2032 -0.0080
 3595SOL    HW122247   3.447   1.576   5.597  0.3155  0.1062 -1.0755
 3595SOL    HW222248   3.476   1.696   5.678  2.8089  0.5263  1.8996
 3596SOL     OW22249   2.351   0.270  10.825  0.4662  0.2784 -0.4709
 3596SOL    HW122250   2.415   0.327  10.782  0.6727 -0.4524 -1.1373
 3596SOL    HW222251   2.337   0.310  10.911  2.4260 -3.1401  1.4504
 3597SOL     OW22252   4.102   4.486   7.776 -0.5136 -0.1639  0.0842
 3597SOL    HW122253   4.145   4.485   7.861 -1.6004 -0.4400  0.6210
 3597SOL    HW222254   4.171   4.453   7.719  0.1631  2.4857 -0.6399
 3598SOL     OW22255   0.897   4.388   3.457  0.2468 -0.3153 -0.0973
 3598SOL    HW122256   0.984   4.368   3.493 -0.3382 -0.5412  1.2094
 3598SOL    HW222257   0.846   4.381   3.538  1.1513  0.7524  0.5744
 3599SOL     OW22258   0.345   1.760  17.225  0.0365  0.1127 -0.5320
 3599SOL    HW122259   0.431   1.796  17.242 -0.2184  1.0245 -1.1654
 3599SOL    HW222260   0.306   1.740  17.310  0.2261 -0.7015 -0.6372
 3600SOL     OW22261   3.192   0.247  13.805  0.5500  0.3682 -0.7880
 3600SOL    HW122262   3.162   0.326  13.759  1.6798  0.7657 -0.8450
 3600SOL    HW222263   3.117   0.188  13.799  2.0476 -1.5895 -0.0269
 3601SOL     OW22264   4.362   3.578   5.373 -0.1316  0.5253 -0.4684
 3601SOL    HW122265   4.453   3.587   5.399 -0.4418 -1.1089  1.1676
 3601SOL    HW222266   4.322   3.538   5.450  1.6247 -0.7115 -0.2051
 3602SOL     OW22267   2.155   3.219  10.509 -0.5247 -0.2749  0.1793
 3602SOL    HW122268   2.127   3.134  10.542  0.8466 -0.9839 -0.4432
 3602SOL    HW222269   2.245   3.231  10.539 -1.4262  0.8084  2.4111
 3603SOL     OW22270   0.814   2.981   4.777  0.1223 -0.0568 -0.1356
 3603SOL    HW122271   0.731   2.965   4.732  1.4692 -0.7463 -2.3911
 3603SOL    HW222272   0.870   2.939   4.711  1.0440 -0.4382  0.8940
 3604SOL     OW22273   0.032   1.375  16.747 -0.6950 -0.4294 -0.0455
 3604SOL    HW122274   0.011   1.378  16.840  1.7996 -0.5323  0.5221
 3604SOL    HW222275   0.120   1.339  16.762 -0.8109 -0.5742  0.2811
 3605SOL     OW22276   1.438   0.064   2.996  0.0487 -0.5639  0.1517
 3605SOL    HW122277   1.478   0.017   2.923 -0.5535  0.0267 -0.5659
 3605SOL    HW222278   1.476   0.151   2.987 -0.3499 -0.3884  0.1425
 3606SOL     OW22279   4.071   0.258   0.022  0.4755  0.0925  0.1788
 3606SOL    HW122280   4.025   0.325   0.072 -1.1700 -1.7051  1.1044
 3606SOL    HW222281   4.016   0.184   0.049  0.1865 -0.8467 -2.9133
 3607SOL     OW22282   1.748   0.835   3.084 -0.3874 -0.1806  0.5487
 3607SOL    HW122283   1.743   0.870   2.995 -0.0967  0.3978  0.7594
 3607SOL    HW222284   1.795   0.752   3.078  1.1314  0.7024  0.2862
 3608SOL     OW22285   1.865   1.775   2.265 -0.0170  0.7359 -0.3292
 3608SOL    HW122286   1.839   1.842   2.203 -0.4328  1.3172  0.4672
 3608SOL    HW222287   1.956   1.774   2.236  0.3554 -0.5521  0.8942
 3609SOL     OW22288   3.631   1.814  13.357 -0.4917  0.5817 -0.2895
 3609SOL    HW122289   3.562   1.762  13.400  0.4299 -0.0011  0.4781
 3609SOL    HW222290   3.575   1.885  13.326 -2.3539 -1.8670 -2.5176
 3610SOL     OW22291   4.279   3.904   5.419  0.0897  0.5136 -0.2491
 3610SOL    HW122292   4.341   3.894   5.347 -0.1367  1.2055 -0.5391
 3610SOL    HW222293   4.232   3.820   5.419  2.4935 -0.8245  1.5887
 3611SOL     OW22294   1.140   3.558  12.937 -0.1086  0.5047  0.1503
 3611SOL    HW122295   1.085   3.637  12.932  1.1619  1.4308  0.9313
 3611SOL    HW222296   1.208   3.593  12.993  0.2579  1.1305 -0.6900
 3612SOL     OW22297   0.166   2.743  17.225 -0.0123  0.5898  0.1892
 3612SOL    HW122298   0.202   2.685  17.292  1.4640  0.4422 -0.7406
 3612SOL    HW222299   0.198   2.707  17.142  1.8942  1.6194  0.4794
 3613SOL     OW22300   2.812   3.508   8.481  0.2122 -0.8995 -0.4243
 3613SOL    HW122301   2.747   3.572   8.452 -0.4518 -1.8752 -1.1092
 3613SOL    HW222302   2.839   3.482   8.393 -2.6160 -1.6342 -1.0638
 3614SOL     OW22303   3.629   2.507   8.535 -0.0171 -0.6952 -0.0520
 3614SOL    HW122304   3.656   2.585   8.486 -0.9566  1.1540  2.3774
 3614SOL    HW222305   3.539   2.495   8.505  0.0627  0.9061 -0.9466
 3615SOL     OW22306   3.793   2.608  16.042  0.5078 -0.5919  0.1349
 3615SOL    HW122307   3.790   2.580  15.950  3.1429 -0.9144  0.1481
 3615SOL    HW222308   3.870   2.665  16.038  0.2502 -0.2096  0.6402
 3616SOL     OW22309   0.816   1.415   1.377  0.2198 -0.2596  0.4429
 3616SOL    HW122310   0.762   1.341   1.349 -0.8694  0.2965  1.0677
 3616SOL    HW222311   0.807   1.485   1.312 -1.3150 -0.1327  0.7854
 3617SOL     OW22312   1.799   1.296   7.141 -0.0962  0.3500  0.3550
 3617SOL    HW122313   1.803   1.388   7.113  1.2864  0.3507  0.5471
 3617SOL    HW222314   1.828   1.251   7.062 -0.3618 -0.8354  0.9321
 3618SOL     OW22315   2.299   3.597  17.228  0.2954 -0.6409 -0.1997
 3618SOL    HW122316   2.376   3.653  17.221  0.6316 -0.9005  1.4390
 3618SOL    HW222317   2.253   3.640  17.301  2.7398  0.6199  0.6153
 3619SOL     OW22318   4.190   3.485   3.989 -0.0580  0.2019  0.0276
 3619SOL    HW122319   4.165   3.571   4.023 -0.3896  0.4541 -0.8578
 3619SOL    HW222320   4.156   3.492   3.900 -2.7602 -0.9247  0.9645
 3620SOL     OW22321   0.137   3.372   9.095  0.2169  0.4553  0.0473
 3620SOL    HW122322   0.048   3.406   9.080 -0.5671 -1.3834  0.4326
 3620SOL    HW222323   0.139   3.302   9.029 -0.4855  0.7181 -0.2528
 3621SOL     OW22324   0.304   2.055  11.562 -0.2159  0.4065 -0.3641
 3621SOL    HW122325   0.281   2.103  11.641 -2.5022 -1.6648  0.2446
 3621SOL    HW222326   0.250   2.104  11.500 -1.5681 -0.7707 -0.1070
 3622SOL     OW22327   3.817   3.863   5.411  0.1568  0.0386 -0.2953
 3622SOL    HW122328   3.886   3.807   5.448  3.3907  4.5428  0.5315
 3622SOL    HW222329   3.865   3.919   5.349  0.7392 -0.0460  0.0737
 3623SOL     OW22330   3.538   1.358   6.756 -0.0921  0.0395  0.2555
 3623SOL    HW122331   3.443   1.363   6.740 -0.6855 -3.4789  2.5014
 3623SOL    HW222332   3.570   1.427   6.698  1.0953 -0.5766  0.1790
 3624SOL     OW22333   0.090   0.056   4.510  0.1917  0.1750 -0.2005
 3624SOL    HW122334   0.053   0.043   4.423  2.7018 -0.0583 -1.2501
 3624SOL    HW222335   0.078   4.692   4.550 -1.0116  1.3004  1.8880
 3625SOL     OW22336   4.607   3.692   0.445  0.0899 -0.0343 -0.3046
 3625SOL    HW122337   4.685   3.742   0.472 -1.4053  1.9967  0.2646
 3625SOL    HW222338   4.544   3.723   0.509  2.5420 -1.2089  2.6885
 3626SOL     OW22339   2.156   4.454   8.108 -0.1166 -0.7448  0.9679
 3626SOL    HW122340   2.190   4.368   8.085 -0.3929 -0.5152 -0.2735
 3626SOL    HW222341   2.067   4.451   8.143  0.6584  0.3643  3.0844
 3627SOL     OW22342   2.971   0.296  13.221 -0.1505 -0.6119 -0.1259
 3627SOL    HW122343   3.001   0.226  13.162  0.8506  0.5811 -1.0153
 3627SOL    HW222344   2.975   0.369  13.160  1.0543 -0.8426 -0.3231
 3628SOL     OW22345   4.135   3.107   2.657  0.0754 -0.2277  0.9313
 3628SOL    HW122346   4.122   3.072   2.745 -2.2833 -1.3402  0.1549
 3628SOL    HW222347   4.130   3.201   2.674  1.8751  0.0421 -0.0971
 3629SOL     OW22348   3.651   0.588   9.554  0.4121 -0.2738 -0.4647
 3629SOL    HW122349   3.719   0.525   9.579 -0.1138 -0.4663  0.4549
 3629SOL    HW222350   3.656   0.605   9.460  2.1859 -0.7246 -0.4526
 3630SOL     OW22351   1.277   0.680   5.029  0.1721 -0.3702  0.5502
 3630SOL    HW122352   1.294   0.623   4.954 -1.2407 -2.5645  1.9008
 3630SOL    HW222353   1.347   0.648   5.086 -0.3820 -0.9539  0.8991
 3631SOL     OW22354   1.799   0.767   2.774  0.1187  0.1340  0.2129
 3631SOL    HW122355   1.831   0.737   2.688 -0.3094 -0.0152  0.1053
 3631SOL    HW222356   1.785   0.680   2.812 -1.3979  0.8829  1.3443
 3632SOL     OW22357   0.587   2.869   1.058 -0.2231 -0.0756  0.4579
 3632SOL    HW122358   0.638   2.891   0.980 -1.5698  0.6250 -0.2331
 3632SOL    HW222359   0.628   2.932   1.117 -1.5494 -0.0999  1.3924
 3633SOL     OW22360   2.414   3.131  14.297  0.0480 -0.5225  0.3671
 3633SOL    HW122361   2.489   3.190  14.292  0.0329 -0.5177  0.2053
 3633SOL    HW222362   2.367   3.170  14.223  1.8969  1.4038  0.2026
 3634SOL     OW22363   0.900   3.343  14.140  0.1810  0.2804  0.1706
 3634SOL    HW122364   0.925   3.363  14.050  1.8769  0.8177  0.7595
 3634SOL    HW222365   0.889   3.435  14.166 -2.0218 -0.3681  1.5467
 3635SOL     OW22366   1.284   3.608   2.317 -0.3344 -0.2715 -0.6564
 3635SOL    HW122367   1.223   3.535   2.305 -1.7172  0.7274  0.2086
 3635SOL    HW222368   1.317   3.596   2.406 -0.0041  4.2071 -0.1480
 3636SOL     OW22369   4.697   1.656   2.333  0.3632  0.3925  0.4144
 3636SOL    HW122370   4.685   1.608   2.251  0.8543  0.2843  0.4049
 3636SOL    HW222371   4.670   1.591   2.397  0.1872  0.4337  0.3831
 3637SOL     OW22372   0.066   3.625   2.375  0.4764  0.6136  0.1384
 3637SOL    HW122373   0.060   3.549   2.317 -2.7796 -0.6091  2.1126
 3637SOL    HW222374   0.145   3.598   2.423 -0.0079 -0.0613  0.5540
 3638SOL     OW22375   1.286   3.047   5.902 -0.2668  0.6018 -0.5374
 3638SOL    HW122376   1.365   3.016   5.946  0.4031  1.6499 -1.0239
 3638SOL    HW222377   1.253   3.118   5.956 -0.0605  0.1420  0.1880
 3639SOL     OW22378   2.293   3.478  12.628 -0.0036  0.0260 -0.4241
 3639SOL    HW122379   2.362   3.415  12.609 -0.7608 -0.8542 -0.2875
 3639SOL    HW222380   2.238   3.466  12.551  2.0444  0.2427 -1.9077
 3640SOL     OW22381   0.382   4.326   9.424 -0.4114  0.0161 -0.0508
 3640SOL    HW122382   0.406   4.234   9.431  0.1228  0.1700  0.1227
 3640SOL    HW222383   0.403   4.363   9.509 -2.4752  0.1181  0.4038
 3641SOL     OW22384   4.298   3.815   3.651 -0.2588 -0.2221  0.1793
 3641SOL    HW122385   4.269   3.728   3.626 -1.8071  0.6753 -1.1264
 3641SOL    HW222386   4.216   3.864   3.645 -0.3833 -0.1878  2.2242
 3642SOL     OW22387   3.798   1.450  13.054 -0.2243  0.1695 -0.2213
 3642SOL    HW122388   3.821   1.403  12.974 -0.4267 -0.8106  0.3035
 3642SOL    HW222389   3.829   1.535  13.020 -0.5662  0.0886 -0.7407
 3643SOL     OW22390   2.417   0.120  13.298  0.4228  0.0806 -0.9713
 3643SOL    HW122391   2.375   0.191  13.346 -0.2895 -1.5779  0.8632
 3643SOL    HW222392   2.499   0.161  13.270  1.6248 -2.1588 -0.7113
 3644SOL     OW22393   3.980   0.679   9.562  0.1931 -0.4319 -0.4211
 3644SOL    HW122394   4.022   0.676   9.476  1.1726 -0.7920  0.0813
 3644SOL    HW222395   4.047   0.655   9.625 -0.6215  3.8100  2.0537
 3645SOL     OW22396   3.669   2.609   2.455 -0.4392  0.2907  0.1844
 3645SOL    HW122397   3.707   2.533   2.410  0.5737  1.2196 -0.5390
 3645SOL    HW222398   3.751   2.652   2.478 -1.2444  1.8480  0.1391
 3646SOL     OW22399   2.164   3.729   8.791  0.2773  0.4209 -0.0438
 3646SOL    HW122400   2.071   3.736   8.770  0.5854  0.6994 -1.3303
 3646SOL    HW222401   2.175   3.764   8.880 -0.8994 -0.2424  0.3687
 3647SOL     OW22402   0.630   1.574  12.024 -0.3757 -0.1942  0.7946
 3647SOL    HW122403   0.570   1.637  12.063  0.6794  0.2351  1.7302
 3647SOL    HW222404   0.577   1.501  11.992 -0.3515 -0.3982  1.2141
 3648SOL     OW22405   1.848   1.955  14.302  0.0131  0.0347 -0.1671
 3648SOL    HW122406   1.844   2.005  14.221 -0.1415 -1.5141 -1.0984
 3648SOL    HW222407   1.905   2.011  14.356 -0.8086  1.2025 -0.5074
 3649SOL     OW22408   2.285   3.018  12.788  0.4308 -0.7435 -0.1765
 3649SOL    HW122409   2.344   3.093  12.785 -1.0371  0.3943 -0.6560
 3649SOL    HW222410   2.315   2.969  12.864  1.2074  1.7849  1.1428
 3650SOL     OW22411   0.048   0.990   9.529 -0.3895  0.3050  0.1367
 3650SOL    HW122412   0.081   0.949   9.608  0.1267 -2.2739 -1.4196
 3650SOL    HW222413   0.037   1.081   9.556 -0.5834 -0.5502  2.9331
 3651SOL     OW22414   1.289   1.411   8.728  0.2777  0.3472  0.1752
 3651SOL    HW122415   1.315   1.360   8.651  0.1876 -0.3503  0.6083
 3651SOL    HW222416   1.359   1.474   8.741  0.3275  0.1633  0.8049
 3652SOL     OW22417   2.419   3.676   7.117 -0.4168  0.3107  0.1724
 3652SOL    HW122418   2.407   3.747   7.180 -1.5468  0.2010  0.0982
 3652SOL    HW222419   2.501   3.704   7.078  0.2386  0.7952  1.9015
 3653SOL     OW22420   2.492   2.140  16.680 -0.7448 -0.0974 -0.1285
 3653SOL    HW122421   2.537   2.093  16.610 -1.9579 -1.4872  0.0301
 3653SOL    HW222422   2.560   2.137  16.747 -0.4392  0.4852 -0.4093
 3654SOL     OW22423   1.218   2.525   7.586  0.1261 -0.5940 -0.7319
 3654SOL    HW122424   1.212   2.552   7.495  1.8597  2.0884 -0.0484
 3654SOL    HW222425   1.135   2.476   7.589  0.1694 -0.6595 -0.5931
 3655SOL     OW22426   3.515   4.260   5.386  0.6333 -0.1206  0.3824
 3655SOL    HW122427   3.483   4.348   5.408  1.1524 -0.0271  0.7538
 3655SOL    HW222428   3.548   4.243   5.474 -1.1950 -1.4745  0.8162
 3656SOL     OW22429   3.542   1.307  15.231  0.2083  0.7830  0.1963
 3656SOL    HW122430   3.502   1.392  15.213 -0.2815  0.5257  0.0539
 3656SOL    HW222431   3.614   1.324  15.292  1.0786  1.3002 -0.9760
 3657SOL     OW22432   2.350   3.608   3.281 -0.1027  0.3575  0.0891
 3657SOL    HW122433   2.299   3.687   3.301  0.1754  0.5304  0.1160
 3657SOL    HW222434   2.422   3.620   3.344  0.5067  1.4111 -0.8191
 3658SOL     OW22435   3.767   4.573   6.291  0.0062  0.2258 -0.4107
 3658SOL    HW122436   3.791   4.653   6.339  0.8331 -0.9169  1.1001
 3658SOL    HW222437   3.694   4.610   6.242 -0.3289 -1.4494 -1.1625
 3659SOL     OW22438   3.423   3.261   1.254  0.3129  0.2650 -0.1781
 3659SOL    HW122439   3.468   3.287   1.173  1.6061 -2.9512 -0.5328
 3659SOL    HW222440   3.354   3.215   1.205  1.4602 -0.8532 -0.7502
 3660SOL     OW22441   3.087   1.000   3.013  0.4892 -0.4863 -0.1738
 3660SOL    HW122442   3.070   0.922   3.066  1.3873 -0.7805 -0.3275
 3660SOL    HW222443   3.177   0.984   2.986  0.3273 -0.4280 -0.7495
 3661SOL     OW22444   0.735   2.716   4.183 -0.0930 -0.0075  0.0445
 3661SOL    HW122445   0.649   2.742   4.151 -0.5029 -2.4057 -0.8090
 3661SOL    HW222446   0.715   2.675   4.267  2.7999  0.6018  1.0456
 3662SOL     OW22447   2.448   1.147   7.706  0.3114 -0.3830  0.1524
 3662SOL    HW122448   2.400   1.230   7.705 -0.4633 -0.8279 -0.1907
 3662SOL    HW222449   2.533   1.181   7.734 -0.7128  4.0824 -2.1674
 3663SOL     OW22450   3.387   2.192  15.821  0.4686 -0.6721  0.1247
 3663SOL    HW122451   3.477   2.217  15.801  0.2699 -0.3219 -0.3271
 3663SOL    HW222452   3.367   2.117  15.765 -3.2168 -0.0214  0.5740
 3664SOL     OW22453   1.598   3.895  13.182 -0.3322 -0.2828 -0.3820
 3664SOL    HW122454   1.607   3.801  13.199 -0.0622 -0.2116 -0.1391
 3664SOL    HW222455   1.690   3.922  13.188 -0.6147  0.8441 -1.2484
 3665SOL     OW22456   2.646   3.119  15.019  0.4953 -0.0272 -0.5229
 3665SOL    HW122457   2.552   3.133  15.010 -0.0696 -3.3315  0.4217
 3665SOL    HW222458   2.658   3.203  15.064 -0.5081  0.3151 -0.8968
 3666SOL     OW22459   3.899   1.296   5.168 -0.0970  0.1639 -0.1890
 3666SOL    HW122460   3.814   1.328   5.201  0.3828 -0.3486  1.5563
 3666SOL    HW222461   3.879   1.296   5.074  1.1327  0.4886 -0.4457
 3667SOL     OW22462   4.381   1.452   3.214 -0.0642 -0.1461  0.2311
 3667SOL    HW122463   4.401   1.506   3.137  0.4980  0.7604  1.0267
 3667SOL    HW222464   4.450   1.483   3.272 -1.4070 -1.0063  2.2794
 3668SOL     OW22465   3.803   2.321   4.679  0.0666 -0.1773 -0.0569
 3668SOL    HW122466   3.768   2.250   4.733  0.9448 -1.4053 -1.1070
 3668SOL    HW222467   3.848   2.265   4.616  2.3567 -2.0170  3.2099
 3669SOL     OW22468   0.176   0.542   5.911  0.0168  0.7634 -0.1262
 3669SOL    HW122469   0.216   0.467   5.955  0.2623  1.2535  0.4846
 3669SOL    HW222470   0.237   0.570   5.842 -0.1184  0.7261 -0.2629
 3670SOL     OW22471   2.286   4.525   5.502 -0.0733  0.4811  0.3749
 3670SOL    HW122472   2.227   4.505   5.574  1.5317 -0.1590  1.5087
 3670SOL    HW222473   2.364   4.560   5.544  2.3171  0.4605 -4.0788
 3671SOL     OW22474   0.234   3.585   5.300 -0.4284 -0.5279  0.1306
 3671SOL    HW122475   0.238   3.490   5.303 -0.9737 -0.5852 -0.8557
 3671SOL    HW222476   0.170   3.613   5.235  0.4284 -1.8121 -1.2700
 3672SOL     OW22477   4.364   1.363   9.687  0.1893  0.5316  0.0632
 3672SOL    HW122478   4.327   1.349   9.775  2.3118  1.2678  1.0743
 3672SOL    HW222479   4.442   1.414   9.709  1.9456 -1.7467 -0.9222
 3673SOL     OW22480   1.529   1.417   3.825 -0.4337 -0.4993 -0.2986
 3673SOL    HW122481   1.523   1.397   3.918 -4.3510 -3.7527 -1.2654
 3673SOL    HW222482   1.570   1.503   3.829  0.2699 -0.7993 -1.1074
 3674SOL     OW22483   4.541   3.904   4.099  0.5356 -0.2278  0.2580
 3674SOL    HW122484   4.628   3.908   4.058  0.6809 -0.1483  0.5746
 3674SOL    HW222485   4.492   3.867   4.025 -1.4529 -0.0973  1.5171
 3675SOL     OW22486   0.238   0.157   6.237 -0.3512  0.6918  0.0313
 3675SOL    HW122487   0.268   0.244   6.210 -0.9311  0.2179 -2.1408
 3675SOL    HW222488   0.245   0.109   6.155 -0.5507 -0.8619  0.9350
 3676SOL     OW22489   0.203   3.699   3.982  0.5909  0.2011 -0.9732
 3676SOL    HW122490   0.272   3.740   4.034  0.7847 -1.6918  0.2685
 3676SOL    HW222491   0.153   3.780   3.971 -0.5062 -0.3482  0.0781
 3677SOL     OW22492   2.881   0.056   6.682 -0.1856 -0.0814 -0.0905
 3677SOL    HW122493   2.890   0.057   6.587  0.0983 -0.8839 -0.0786
 3677SOL    HW222494   2.896   4.684   6.695  1.3270  0.3833  1.6490
 3678SOL     OW22495   2.762   0.906   5.845 -0.0797 -0.1097  0.4972
 3678SOL    HW122496   2.789   0.923   5.755  0.0823 -0.0137  0.5642
 3678SOL    HW222497   2.841   0.931   5.892 -0.7422  1.4675  0.7591
 3679SOL     OW22498   0.149   2.841   5.909  0.4901 -0.4767 -0.2708
 3679SOL    HW122499   0.059   2.860   5.931  1.4860  0.9809  2.4592
 3679SOL    HW222500   0.153   2.861   5.815  0.2125 -0.2208 -0.2269
 3680SOL     OW22501   2.938   4.667  15.752  0.3973  0.7623  0.0487
 3680SOL    HW122502   2.873   0.010  15.778  0.3594  0.8447 -0.2481
 3680SOL    HW222503   2.922   4.650  15.659  0.4638  2.4204 -0.2595
 3681SOL     OW22504   2.210   3.143   0.731  0.0331  0.4325 -0.1754
 3681SOL    HW122505   2.303   3.154   0.715  0.7500 -2.1840  2.0775
 3681SOL    HW222506   2.203   3.048   0.726 -3.4812  0.7674 -1.5534
 3682SOL     OW22507   4.536   2.347   1.605 -0.4260 -0.2076  0.2089
 3682SOL    HW122508   4.537   2.438   1.632 -1.3676  0.5111 -2.2336
 3682SOL    HW222509   4.454   2.317   1.643 -0.5008  0.4011  0.5197
 3683SOL     OW22510   0.700   4.433   6.318 -0.6532  0.7461  0.5288
 3683SOL    HW122511   0.653   4.465   6.241  0.2326  2.3386  0.6457
 3683SOL    HW222512   0.636   4.446   6.388 -0.3156 -2.1122  1.3543
 3684SOL     OW22513   0.256   4.641  16.233  0.3708 -0.6946  0.6272
 3684SOL    HW122514   0.269   4.678  16.320 -0.7403 -1.4577  1.1225
 3684SOL    HW222515   0.337   4.663  16.188 -0.2877  1.6070  0.5992
 3685SOL     OW22516   4.297   3.430  17.202  0.6042 -0.0845  0.4551
 3685SOL    HW122517   4.268   3.418  17.112  1.6620  1.9976 -0.1522
 3685SOL    HW222518   4.374   3.376  17.217  0.0138 -1.3662 -1.1864
 3686SOL     OW22519   4.536   1.631  10.663  0.3897 -0.3265  0.4188
 3686SOL    HW122520   4.549   1.722  10.688 -0.0090  0.0676 -0.8112
 3686SOL    HW222521   4.447   1.602  10.686  1.5816 -2.1928  2.5614
 3687SOL     OW22522   2.596   2.795   1.587 -0.6374  0.1434 -0.1407
 3687SOL    HW122523   2.586   2.836   1.501 -1.2895  0.0438 -0.1142
 3687SOL    HW222524   2.642   2.716   1.560  0.0612  0.3233  0.5213
 3688SOL     OW22525   0.500   3.698   4.176 -0.1417 -0.2405 -0.5327
 3688SOL    HW122526   0.516   3.645   4.097  0.7449  3.6412 -2.9709
 3688SOL    HW222527   0.520   3.634   4.244 -0.8028  1.4440  1.2207
 3689SOL     OW22528   3.223   1.351   8.201 -0.5991 -0.3197 -0.3515
 3689SOL    HW122529   3.302   1.321   8.246 -0.7628  0.2569  0.3219
 3689SOL    HW222530   3.240   1.443   8.224  1.3128 -1.4053  2.6696
 3690SOL     OW22531   3.274   2.649  10.415  0.3450 -0.2022 -0.0496
 3690SOL    HW122532   3.221   2.634  10.337 -0.7170 -2.3975  1.0953
 3690SOL    HW222533   3.231   2.728  10.447 -1.4983 -0.9041 -0.8243
 3691SOL     OW22534   0.355   3.303   5.934  0.0569 -0.0875  0.2405
 3691SOL    HW122535   0.432   3.359   5.945  0.6568 -0.9946  0.6832
 3691SOL    HW222536   0.327   3.324   5.845  0.5809 -1.9024 -0.3496
 3692SOL     OW22537   4.330   2.960   7.639  0.2510 -0.2108 -0.5223
 3692SOL    HW122538   4.391   2.990   7.572  0.4408  1.4748  0.4305
 3692SOL    HW222539   4.254   2.984   7.585 -0.9221  1.9140  2.0606
 3693SOL     OW22540   0.579   3.834  15.247  0.4136  0.3473 -0.3190
 3693SOL    HW122541   0.502   3.811  15.195  0.4259  0.9272 -0.5951
 3693SOL    HW222542   0.594   3.921  15.209  1.2656  0.0095 -0.7581
 3694SOL     OW22543   0.635   3.203   5.818 -0.0826 -0.0011  0.5851
 3694SOL    HW122544   0.701   3.254   5.771 -0.0758 -0.4392  0.1156
 3694SOL    HW222545   0.645   3.252   5.899  1.2433 -0.7359  0.8647
 3695SOL     OW22546   2.208   3.655   9.397  0.5056 -0.2182 -0.0644
 3695SOL    HW122547   2.119   3.638   9.427  0.7725  0.4342  1.0961
 3695SOL    HW222548   2.221   3.744   9.430 -2.7784  0.1482  0.2752
 3696SOL     OW22549   4.268   3.597   6.857 -0.1950  0.0684  0.6593
 3696SOL    HW122550   4.314   3.514   6.851  0.0109  0.1950  0.5058
 3696SOL    HW222551   4.214   3.573   6.933 -0.6578  1.7230  0.8716
 3697SOL     OW22552   1.943   2.500   0.056 -0.2619  0.5169 -0.4023
 3697SOL    HW122553   2.009   2.516  17.678 -0.6985  2.1736 -0.4562
 3697SOL    HW222554   1.883   2.443   0.008  0.2652  0.5572 -1.1014
 3698SOL     OW22555   1.757   0.091   3.249 -0.3010  0.6619  0.1515
 3698SOL    HW122556   1.665   0.089   3.276 -0.7955  0.9103 -1.5147
 3698SOL    HW222557   1.784   4.721   3.256 -1.1671  0.3091 -1.1929
 3699SOL     OW22558   2.260   0.499   3.180 -0.3202  0.3358  0.5590
 3699SOL    HW122559   2.182   0.548   3.207 -0.5199 -0.2781  1.1227
 3699SOL    HW222560   2.323   0.571   3.183 -1.9297  1.9856 -5.3713
 3700SOL     OW22561   1.655   1.914   3.147  0.2222 -0.1798 -0.1692
 3700SOL    HW122562   1.739   1.886   3.112  0.9399  2.3861 -0.5375
 3700SOL    HW222563   1.665   1.938   3.239  1.9715 -1.4007 -0.0500
 3701SOL     OW22564   2.863   0.306  14.154  0.0975 -0.1239  0.2755
 3701SOL    HW122565   2.887   0.220  14.189  1.0451 -0.2671 -0.7173
 3701SOL    HW222566   2.797   0.281  14.089  0.5367 -1.7378  0.4448
 3702SOL     OW22567   1.622   4.627  12.207 -0.1611 -0.6150  0.1359
 3702SOL    HW122568   1.639   4.534  12.192 -1.2489 -0.3795 -2.5528
 3702SOL    HW222569   1.709   4.661  12.188  0.0751 -1.4337 -0.2518
 3703SOL     OW22570   4.191   2.109   2.879 -0.1325 -0.2308  0.0277
 3703SOL    HW122571   4.174   2.199   2.851  2.1702  0.2506  0.1977
 3703SOL    HW222572   4.242   2.129   2.957  0.5563 -2.3958  0.1451
 3704SOL     OW22573   1.415   4.678   8.762 -0.2160 -0.0877 -0.9067
 3704SOL    HW122574   1.399   4.607   8.824  1.2046  1.3095  1.0604
 3704SOL    HW222575   1.329   4.721   8.764 -0.1949 -0.0508 -0.7735
 3705SOL     OW22576   1.022   1.625   3.586  0.3610  0.3809  0.1538
 3705SOL    HW122577   1.088   1.654   3.524  0.2486 -0.4468 -0.3523
 3705SOL    HW222578   1.054   1.673   3.662  0.7836  1.3796 -0.6563
 3706SOL     OW22579   0.154   1.575   0.026 -0.8967 -0.6974  0.6797
 3706SOL    HW122580   0.190   1.633   0.093 -2.6454  1.2927 -0.1218
 3706SOL    HW222581   0.071   1.557   0.070 -2.3904 -0.4232 -2.0594
 3707SOL     OW22582   2.022   3.194   0.019 -0.2032  0.4794  0.8225
 3707SOL    HW122583   2.090   3.252  17.675 -2.3295  3.7001  2.1360
 3707SOL    HW222584   1.943   3.247   0.025 -0.2673  0.6194 -1.4493
 3708SOL     OW22585   0.621   4.647   3.538 -0.3256  0.6479  0.8258
 3708SOL    HW122586   0.574   4.690   3.466 -0.2567  0.3724  0.6199
 3708SOL    HW222587   0.708   4.683   3.526 -0.5122  0.1266 -2.0055
 3709SOL     OW22588   3.486   3.660   4.979 -0.5046  0.0334  0.4512
 3709SOL    HW122589   3.559   3.694   5.031  0.8844 -0.9878 -0.8515
 3709SOL    HW222590   3.416   3.719   5.007 -1.3200 -0.6124 -0.2373
 3710SOL     OW22591   3.165   4.129   9.014  0.6567  0.1231 -0.1584
 3710SOL    HW122592   3.081   4.146   8.973  0.4812 -0.4575 -0.0384
 3710SOL    HW222593   3.222   4.199   8.981 -0.9209  0.8537 -1.3387
 3711SOL     OW22594   3.049   2.283   8.409  0.7564 -0.7976  0.3725
 3711SOL    HW122595   3.049   2.365   8.361 -1.2806 -1.4581 -0.7643
 3711SOL    HW222596   3.142   2.260   8.406  0.9150 -0.1891  0.7967
 3712SOL     OW22597   4.598   1.087   6.648 -0.4499  0.2785  0.1473
 3712SOL    HW122598   4.575   1.158   6.707  2.9783  1.6803 -0.2025
 3712SOL    HW222599   4.536   1.099   6.575  1.3471 -0.4786 -1.5197
 3713SOL     OW22600   0.530   4.288   7.924  0.5171 -0.3094  0.6036
 3713SOL    HW122601   0.514   4.265   7.832 -0.7492 -0.1374  0.7722
 3713SOL    HW222602   0.623   4.308   7.913 -0.5034  3.0369 -2.0440
 3714SOL     OW22603   4.391   1.851  11.798  0.3526  0.3211 -0.1377
 3714SOL    HW122604   4.394   1.759  11.826  0.3494  0.4874  0.3955
 3714SOL    HW222605   4.296   1.866  11.801  0.3675  0.3096  0.3136
 3715SOL     OW22606   0.617   0.343   1.520  0.0144 -0.9613 -0.3020
 3715SOL    HW122607   0.582   0.392   1.446 -0.0667 -0.7359 -0.1132
 3715SOL    HW222608   0.559   0.358   1.595  1.8401  0.2508  0.8719
 3716SOL     OW22609   3.549   3.550   8.351  0.7448  0.4045 -0.2513
 3716SOL    HW122610   3.616   3.619   8.349  1.2708 -0.1393 -1.4057
 3716SOL    HW222611   3.564   3.504   8.434 -0.6240  1.4781  0.5885
 3717SOL     OW22612   1.583   3.600  13.223 -0.1833  0.2385  0.3693
 3717SOL    HW122613   1.586   3.511  13.187 -0.9331  0.3836 -0.0605
 3717SOL    HW222614   1.625   3.582  13.307  0.7143  1.4250  0.1664
 3718SOL     OW22615   3.722   2.274  15.932 -0.1408  0.2011  0.6852
 3718SOL    HW122616   3.716   2.360  15.891  0.2613 -0.7077 -1.2568
 3718SOL    HW222617   3.714   2.223  15.851  0.9776  0.9412  0.1062
 3719SOL     OW22618   1.564   1.728   6.338 -0.1781  0.0144 -0.2699
 3719SOL    HW122619   1.522   1.792   6.395 -0.2410 -1.4392  1.3080
 3719SOL    HW222620   1.612   1.788   6.281  1.3895 -2.3059 -1.3613
 3720SOL     OW22621   1.919   0.725   5.630  0.2837  0.3959  0.5465
 3720SOL    HW122622   1.880   0.639   5.643  1.8631 -0.1811  1.4956
 3720SOL    HW222623   1.842   0.777   5.651 -0.3097 -0.4644  0.4738
 3721SOL     OW22624   0.776   2.367   0.590 -0.5677  0.0574 -0.0409
 3721SOL    HW122625   0.837   2.360   0.517 -0.0241  0.6996  0.3519
 3721SOL    HW222626   0.810   2.444   0.636  0.9944 -1.7228  1.8145
 3722SOL     OW22627   1.732   1.388  15.459 -0.3840  0.3426  0.1023
 3722SOL    HW122628   1.644   1.365  15.488  0.3980  0.9602  3.0204
 3722SOL    HW222629   1.736   1.382  15.364 -0.4902  0.3353  0.0986
 3723SOL     OW22630   3.327   2.625   8.809  0.1556 -0.6369  0.1636
 3723SOL    HW122631   3.414   2.584   8.814  0.1008 -0.7790 -0.0662
 3723SOL    HW222632   3.357   2.716   8.810 -1.7929  0.0287 -1.3728
 3724SOL     OW22633   3.231   3.118   7.736  0.3722 -0.3079  0.3290
 3724SOL    HW122634   3.255   3.046   7.678 -0.4213 -0.1842 -0.1596
 3724SOL    HW222635   3.314   3.164   7.748 -0.3210  0.1661  3.2581
 3725SOL     OW22636   3.941   4.623   8.751 -0.4544  0.3060 -0.2626
 3725SOL    HW122637   3.939   4.715   8.727  0.4071  0.4336  0.1449
 3725SOL    HW222638   3.894   4.641   8.832  0.6191 -0.1750  0.4738
 3726SOL     OW22639   2.013   4.496  16.930 -0.1672 -0.5336 -0.3262
 3726SOL    HW122640   1.958   4.446  16.991 -1.9728  0.0718 -1.4947
 3726SOL    HW222641   2.081   4.435  16.901  1.9903  1.1165  1.3099
 3727SOL     OW22642   2.197   3.009  14.663  0.1708 -0.4351 -0.2836
 3727SOL    HW122643   2.120   2.979  14.711 -0.3977 -0.6420 -1.3207
 3727SOL    HW222644   2.243   3.070  14.720 -1.0770  1.6866 -1.5738
 3728SOL     OW22645   2.957   1.770  15.891  0.3010  0.1766  0.2138
 3728SOL    HW122646   2.949   1.798  15.800  1.6475 -0.2013 -0.0277
 3728SOL    HW222647   3.012   1.693  15.874 -0.2337 -0.0028 -0.7119
 3729SOL     OW22648   1.847   4.258   1.052 -0.0964  0.0659 -0.0845
 3729SOL    HW122649   1.873   4.264   1.144  2.7456  0.5062 -0.9296
 3729SOL    HW222650   1.785   4.330   1.047 -2.5079 -1.9126  0.9990
 3730SOL     OW22651   3.329   0.017   5.450  0.1240 -0.5013  0.2880
 3730SOL    HW122652   3.273   0.095   5.455 -0.7289 -1.0240 -1.0299
 3730SOL    HW222653   3.273   4.689   5.390 -1.2408  1.3116  0.0229
 3731SOL     OW22654   3.963   0.570   4.983 -0.0298  0.3616 -0.6846
 3731SOL    HW122655   3.881   0.618   4.991  1.2841  2.6857 -1.2981
 3731SOL    HW222656   3.991   0.573   5.074 -0.5316  1.0778 -0.5556
 3732SOL     OW22657   1.192   4.378   4.020  0.1228 -0.0731 -0.2083
 3732SOL    HW122658   1.269   4.361   4.075  0.3649  1.8970  0.0738
 3732SOL    HW222659   1.188   4.292   3.979 -5.7872  0.9382 -1.6603
 3733SOL     OW22660   0.258   3.659   6.222 -0.2035 -0.5377 -0.0937
 3733SOL    HW122661   0.349   3.634   6.234 -0.4993 -1.7445 -0.3619
 3733SOL    HW222662   0.271   3.754   6.223 -2.6898 -0.1772 -1.6040
 3734SOL     OW22663   1.043   1.753   5.233 -0.1781 -0.3567 -0.2102
 3734SOL    HW122664   0.958   1.708   5.225  0.3002 -1.5203  1.2689
 3734SOL    HW222665   1.095   1.693   5.179 -1.7907 -1.5668 -0.4572
 3735SOL     OW22666   2.322   2.247   6.542  0.3221  0.2693  0.2120
 3735SOL    HW122667   2.390   2.210   6.598 -0.3796  1.0772  1.5818
 3735SOL    HW222668   2.265   2.276   6.613 -0.1319 -0.0893  0.0011
 3736SOL     OW22669   0.143   2.103   9.124 -0.2172  0.3044 -0.3672
 3736SOL    HW122670   0.217   2.147   9.081  0.1214 -0.4797 -0.5856
 3736SOL    HW222671   0.184   2.041   9.184 -0.7697  0.8222  0.5287
 3737SOL     OW22672   0.581   1.930   6.814 -0.7519 -0.0977 -0.6730
 3737SOL    HW122673   0.636   1.930   6.735  0.7771 -0.1368  0.4062
 3737SOL    HW222674   0.566   1.837   6.832 -1.4140 -0.0887 -1.1413
 3738SOL     OW22675   2.738   2.319   5.958 -0.3949 -0.5048 -0.2124
 3738SOL    HW122676   2.689   2.378   5.901  0.6912 -0.2461 -0.8836
 3738SOL    HW222677   2.726   2.363   6.042 -2.7794 -0.6658 -0.4797
 3739SOL     OW22678   3.152   0.221   5.452 -0.1856 -0.8224  0.0736
 3739SOL    HW122679   3.162   0.235   5.358  1.0537  0.9725  0.4685
 3739SOL    HW222680   3.110   0.306   5.468  2.5238  0.3237  1.0895
 3740SOL     OW22681   2.359   3.429   6.988  0.3606  0.3847 -0.1699
 3740SOL    HW122682   2.388   3.498   7.049 -1.1565 -0.4193  1.4727
 3740SOL    HW222683   2.412   3.466   6.917  1.0535 -1.3793 -0.5599
 3741SOL     OW22684   2.574   2.936   4.060  0.3570 -0.0118 -0.1219
 3741SOL    HW122685   2.519   2.908   4.133  0.8849 -1.3991 -0.2512
 3741SOL    HW222686   2.607   2.861   4.011 -1.5248 -0.7214 -0.3171
 3742SOL     OW22687   4.318   2.813   2.002  0.1071 -0.0011  0.2134
 3742SOL    HW122688   4.294   2.724   1.978  0.5509  0.1704 -0.8796
 3742SOL    HW222689   4.326   2.811   2.098  1.8959  0.9202  0.0970
 3743SOL     OW22690   1.293   1.946  15.483  0.0551 -0.3826  0.4668
 3743SOL    HW122691   1.310   1.856  15.456 -1.2571 -0.3263 -0.5459
 3743SOL    HW222692   1.234   1.975  15.413 -0.3677  2.4165  1.9962
 3744SOL     OW22693   2.240   2.776  16.072 -0.3218 -0.7425  0.1127
 3744SOL    HW122694   2.273   2.766  15.983 -2.1490  0.1013 -0.6514
 3744SOL    HW222695   2.288   2.703  16.113  2.6310  1.1084  0.0032
 3745SOL     OW22696   4.272   3.276   4.116  0.2746  0.0255 -0.1542
 3745SOL    HW122697   4.226   3.253   4.196 -0.8405  0.4313 -0.6814
 3745SOL    HW222698   4.221   3.347   4.076 -2.8830 -1.1302  1.8648
 3746SOL     OW22699   4.170   0.082   7.605  0.1838  0.6277 -0.0187
 3746SOL    HW122700   4.173   0.053   7.696 -0.4778 -0.9672 -0.5097
 3746SOL    HW222701   4.141   0.007   7.554  1.4657 -0.1739  0.4465
 3747SOL     OW22702   3.261   0.709   2.385  0.2431  0.5272 -0.4990
 3747SOL    HW122703   3.321   0.784   2.392  1.7149 -0.6943 -0.1346
 3747SOL    HW222704   3.313   0.640   2.425  0.6638 -0.1940 -2.3081
 3748SOL     OW22705   1.758   1.162   8.317  0.5018  0.3414 -0.0561
 3748SOL    HW122706   1.705   1.085   8.338 -0.0358  0.7653  0.1394
 3748SOL    HW222707   1.694   1.231   8.301  0.5445 -0.0675 -1.9784
 3749SOL     OW22708   3.624   3.106   3.533  0.0649 -0.3485  0.3074
 3749SOL    HW122709   3.603   3.197   3.553 -1.5204 -0.5148 -0.6287
 3749SOL    HW222710   3.599   3.064   3.615 -1.4807  0.1705  0.1023
 3750SOL     OW22711   1.995   0.555   1.299 -0.6466  0.4435 -0.2655
 3750SOL    HW122712   1.905   0.559   1.266  0.3700 -0.7650 -3.0858
 3750SOL    HW222713   1.981   0.584   1.390  0.0347 -1.1236  0.3377
 3751SOL     OW22714   4.345   2.151  12.627  0.6724 -0.2585  0.5675
 3751SOL    HW122715   4.347   2.154  12.723  1.0561 -0.5836  0.5693
 3751SOL    HW222716   4.439   2.138  12.617  0.9749 -0.3801  3.6139
 3752SOL     OW22717   1.038   3.861   3.115  0.4739 -0.1639  0.4012
 3752SOL    HW122718   0.986   3.822   3.045 -0.0371 -0.5018  0.9695
 3752SOL    HW222719   0.995   3.946   3.126 -1.7079 -1.4430  1.8698
 3753SOL     OW22720   0.873   2.958  12.323 -0.1476  0.1731  0.1918
 3753SOL    HW122721   0.924   2.941  12.402  2.3927  0.3180 -1.4098
 3753SOL    HW222722   0.818   2.880  12.316 -0.8702  0.7742 -0.9138
 3754SOL     OW22723   2.654   4.324   3.457  0.2018  0.0988  0.2963
 3754SOL    HW122724   2.731   4.307   3.512 -1.2282  0.2872  2.3268
 3754SOL    HW222725   2.667   4.418   3.444  1.3434 -0.0387  0.4529
 3755SOL     OW22726   4.203   1.658   4.225 -0.0357  0.4608  1.1934
 3755SOL    HW122727   4.172   1.650   4.134 -0.3920  0.8382  1.2797
 3755SOL    HW222728   4.293   1.682   4.203  0.1899 -2.0633 -0.5766
 3756SOL     OW22729   1.482   3.288   6.859 -0.0494  0.1490 -0.1211
 3756SOL    HW122730   1.396   3.270   6.823  0.5664  0.4515 -1.7239
 3756SOL    HW222731   1.486   3.205   6.907 -2.0810  1.4659  2.3314
 3757SOL     OW22732   0.584   4.167   6.495 -0.1800  0.1711 -0.4712
 3757SOL    HW122733   0.677   4.170   6.473  0.2645 -0.3355  1.3019
 3757SOL    HW222734   0.566   4.085   6.451 -1.0954  0.2294 -0.1939
 3758SOL     OW22735   3.394   4.685   8.897  0.7046 -0.4979 -0.0757
 3758SOL    HW122736   3.340   4.677   8.818  0.1132  3.8670 -0.0990
 3758SOL    HW222737   3.456   0.029   8.867 -2.2539  1.8502 -1.0111
 3759SOL     OW22738   4.537   4.237   6.199  0.7332 -0.3063  0.1427
 3759SOL    HW122739   4.618   4.287   6.185  0.1700 -0.4957 -3.7112
 3759SOL    HW222740   4.479   4.309   6.223 -0.0950 -0.1662 -2.2193
 3760SOL     OW22741   1.966   3.428   5.601 -0.5706 -0.2844  0.2962
 3760SOL    HW122742   1.879   3.447   5.636 -1.0738  0.3597 -1.3439
 3760SOL    HW222743   1.974   3.495   5.533 -1.9254 -1.9674 -1.5001
 3761SOL     OW22744   0.812   2.091   4.206 -0.2983 -0.3473 -0.3337
 3761SOL    HW122745   0.897   2.111   4.165 -1.1147  2.6841 -0.5297
 3761SOL    HW222746   0.794   2.001   4.177  1.3934 -0.6593 -0.4489
 3762SOL     OW22747   0.372   1.026   6.649  0.1037 -0.0576 -0.5449
 3762SOL    HW122748   0.433   1.024   6.575  1.7901  2.4066  0.7661
 3762SOL    HW222749   0.291   0.987   6.617 -1.4338  3.2290 -0.6568
 3763SOL     OW22750   1.280   4.064  11.150 -0.4687  1.2337 -0.2308
 3763SOL    HW122751   1.341   4.106  11.211 -0.0448 -0.3248  0.3986
 3763SOL    HW222752   1.201   4.100  11.189 -2.0324  1.4414 -3.5668
 3764SOL     OW22753   1.887   3.724   2.948 -0.1258 -0.1297  0.4945
 3764SOL    HW122754   1.980   3.727   2.967  0.0858  1.2740 -0.7676
 3764SOL    HW222755   1.883   3.716   2.853  0.4794  2.3411  0.2572
 3765SOL     OW22756   1.568   1.844   5.670 -0.0217 -0.1147 -0.1999
 3765SOL    HW122757   1.610   1.925   5.701 -2.3817  1.2011 -0.3894
 3765SOL    HW222758   1.638   1.781   5.680 -0.1096 -0.1930 -0.0745
 3766SOL     OW22759   1.686   2.247   6.149 -0.2643 -0.3434  0.2711
 3766SOL    HW122760   1.747   2.298   6.095 -1.7076  0.1453 -0.8908
 3766SOL    HW222761   1.731   2.237   6.233 -3.2616  2.9789  2.2493
 3767SOL     OW22762   1.196   1.763  17.332 -0.0684  0.1822  0.4053
 3767SOL    HW122763   1.237   1.830  17.276  0.6818 -0.4048  0.2411
 3767SOL    HW222764   1.119   1.725  17.290 -1.0189 -0.5011  2.7499
 3768SOL     OW22765   1.056   4.252   5.485  0.0905 -0.1161  0.2305
 3768SOL    HW122766   1.035   4.285   5.573  1.1016  1.7642 -0.2523
 3768SOL    HW222767   0.989   4.187   5.463 -0.5726  1.6254 -2.8794
 3769SOL     OW22768   2.251   1.893   7.087  0.7695 -0.1586 -0.2229
 3769SOL    HW122769   2.204   1.976   7.084  0.7981 -0.0912  1.4837
 3769SOL    HW222770   2.309   1.911   7.162  0.3101  2.0961 -0.4122
 3770SOL     OW22771   1.465   1.122   5.857  0.3185 -0.3898 -0.4951
 3770SOL    HW122772   1.445   1.065   5.782 -0.2609  0.5735 -1.0798
 3770SOL    HW222773   1.386   1.174   5.843  1.1396  1.2189  0.9371
 3771SOL     OW22774   2.354   1.664   8.636 -0.4263  0.3808 -0.1820
 3771SOL    HW122775   2.373   1.592   8.695 -1.5325 -0.0415 -0.3535
 3771SOL    HW222776   2.442   1.676   8.600 -1.5877 -0.6110 -3.3342
 3772SOL     OW22777   2.471   3.173   0.749 -0.4538 -0.0930 -0.1973
 3772SOL    HW122778   2.552   3.138   0.714  0.9887  1.9469  1.0889
 3772SOL    HW222779   2.482   3.263   0.718 -0.7810  0.5645  1.5603
 3773SOL     OW22780   4.054   0.593   9.959  0.4660 -0.0324 -0.6238
 3773SOL    HW122781   3.961   0.603   9.936  0.7822  1.9372 -1.1023
 3773SOL    HW222782   4.090   0.554   9.879  1.1669 -0.6605  0.0061
 3774SOL     OW22783   1.918   1.490  10.599  0.4175  0.0634 -0.2256
 3774SOL    HW122784   1.914   1.445  10.684  0.7772  1.4388  0.5075
 3774SOL    HW222785   1.957   1.571  10.630  0.4022  0.0142 -0.0747
 3775SOL     OW22786   0.736   3.644   5.839  0.0367  0.2805 -0.1673
 3775SOL    HW122787   0.691   3.723   5.810 -0.2473  0.6817  1.3491
 3775SOL    HW222788   0.673   3.573   5.825  0.1304  0.3669 -1.0079
 3776SOL     OW22789   2.115   0.906   7.844  0.2626 -0.0490  0.4661
 3776SOL    HW122790   2.205   0.879   7.862  1.4525  2.5558 -1.4741
 3776SOL    HW222791   2.067   0.863   7.916  0.0907 -0.4536  0.1086
 3777SOL     OW22792   2.009   0.708  13.734 -0.1145  0.1099 -0.3457
 3777SOL    HW122793   2.024   0.693  13.828  1.9146  3.2736 -0.1678
 3777SOL    HW222794   2.057   0.789  13.719  0.2114 -0.1027 -0.4442
 3778SOL     OW22795   2.835   1.260   8.547 -0.2202  0.3796 -0.1396
 3778SOL    HW122796   2.921   1.223   8.566 -1.1995 -1.4199  0.7990
 3778SOL    HW222797   2.820   1.314   8.625  2.9893 -0.6922  1.2190
 3779SOL     OW22798   3.702   3.879  16.950  0.1196  0.1269 -0.2048
 3779SOL    HW122799   3.709   3.958  16.896 -0.6521 -0.3190 -0.9595
 3779SOL    HW222800   3.607   3.878  16.958 -0.0773 -0.4604 -2.4858
 3780SOL     OW22801   0.555   1.238   4.274 -0.2412 -0.1274 -0.4079
 3780SOL    HW122802   0.644   1.272   4.284 -0.6117  0.1431  1.8384
 3780SOL    HW222803   0.510   1.299   4.332 -1.8148 -0.4705 -1.2711
 3781SOL     OW22804   2.651   0.577   1.962  0.1607 -0.1890 -0.3086
 3781SOL    HW122805   2.732   0.561   2.011 -1.6162 -0.6824  2.5170
 3781SOL    HW222806   2.661   0.508   1.897  0.5562  0.3725 -0.8376
 3782SOL     OW22807   2.656   1.796  14.259 -0.3230 -0.3475  0.2215
 3782SOL    HW122808   2.690   1.714  14.295  2.5553  0.1600 -1.3303
 3782SOL    HW222809   2.684   1.866  14.317  0.0713 -0.5975  0.3329
 3783SOL     OW22810   2.017   2.722  15.554 -0.3391 -0.0695 -0.4458
 3783SOL    HW122811   1.924   2.723  15.532 -0.8461  0.1384  1.6722
 3783SOL    HW222812   2.070   2.765  15.487 -0.0343 -1.4330 -1.0837
 3784SOL     OW22813   3.715   2.906   6.842 -0.5033 -0.3003  0.0084
 3784SOL    HW122814   3.675   2.954   6.915 -1.4921 -0.2734 -0.5542
 3784SOL    HW222815   3.762   2.981   6.805 -1.5448  0.4581  0.2447
 3785SOL     OW22816   3.571   3.834   5.225 -0.5786 -0.1882  0.4445
 3785SOL    HW122817   3.579   3.852   5.318  0.5869 -1.2964  0.5527
 3785SOL    HW222818   3.486   3.868   5.198 -1.1181 -0.8475  1.3119
 3786SOL     OW22819   2.489   3.867   0.389  0.4171 -0.1161  0.2984
 3786SOL    HW122820   2.403   3.846   0.352 -0.1794  1.3713  0.8392
 3786SOL    HW222821   2.454   3.930   0.452 -0.0429 -1.5550  1.4904
 3787SOL     OW22822   0.587   2.802   2.858 -0.1913 -0.2458 -0.0136
 3787SOL    HW122823   0.550   2.782   2.773  0.8854  0.4291 -0.6362
 3787SOL    HW222824   0.677   2.795   2.828 -0.4898 -0.4178 -0.8498
 3788SOL     OW22825   1.572   3.894   4.511  0.4453 -0.4799  0.0616
 3788SOL    HW122826   1.486   3.906   4.551  1.6134  2.7971  1.6385
 3788SOL    HW222827   1.550   3.830   4.443  2.4916 -1.8045  0.6402
 3789SOL     OW22828   2.238   2.737   5.909  0.4035  0.6398  0.4354
 3789SOL    HW122829   2.317   2.755   5.858 -1.1188  0.6746 -1.9430
 3789SOL    HW222830   2.191   2.672   5.856  1.1816 -0.0754  0.6144
 3790SOL     OW22831   3.030   2.370   7.759  0.2707 -0.1814  0.3088
 3790SOL    HW122832   3.099   2.427   7.794  1.0873  0.0897 -1.7210
 3790SOL    HW222833   3.007   2.337   7.846  0.1830 -0.7058  0.0916
 3791SOL     OW22834   0.753   1.445  10.370 -0.0610 -0.0423 -0.1083
 3791SOL    HW122835   0.793   1.372  10.417  0.2787 -0.6622 -1.3483
 3791SOL    HW222836   0.700   1.391  10.312 -1.3230 -0.2720  1.2588
 3792SOL     OW22837   4.403   2.644   0.687  0.2269 -0.5284 -0.2509
 3792SOL    HW122838   4.426   2.554   0.712 -1.1217 -0.5722  0.8435
 3792SOL    HW222839   4.455   2.654   0.607  1.4058 -0.1243  0.5774
 3793SOL     OW22840   3.003   0.627  10.016  0.1042 -0.0253  0.4686
 3793SOL    HW122841   3.028   0.622   9.924 -2.2485 -1.5083 -0.0995
 3793SOL    HW222842   2.953   0.708  10.019  1.7791  0.9718  1.1595
 3794SOL     OW22843   3.559   3.273   1.000  0.5880 -0.1267  0.0185
 3794SOL    HW122844   3.619   3.204   0.972  0.9998 -0.6425  2.1555
 3794SOL    HW222845   3.527   3.314   0.920  0.3919  0.8009  0.5736
 3795SOL     OW22846   2.816   4.456  16.786  0.5666 -0.1339 -0.3790
 3795SOL    HW122847   2.793   4.363  16.779 -0.7128  0.1547 -0.1112
 3795SOL    HW222848   2.755   4.494  16.722  1.1943  1.1102 -0.2371
 3796SOL     OW22849   2.836   1.650   7.189  0.4106 -0.3570  0.1142
 3796SOL    HW122850   2.839   1.600   7.108  0.2389  2.8218 -1.8609
 3796SOL    HW222851   2.762   1.622   7.244 -0.2765 -0.8676 -1.0731
 3797SOL     OW22852   1.623   2.143   9.571 -0.0851 -0.1346  0.2039
 3797SOL    HW122853   1.643   2.051   9.582  0.7314 -0.0157 -0.2389
 3797SOL    HW222854   1.538   2.137   9.527 -0.8550  5.5584  0.8689
 3798SOL     OW22855   2.519   1.470   7.562 -0.1818  0.0783  0.3789
 3798SOL    HW122856   2.438   1.442   7.605 -0.7053  0.2671 -0.4784
 3798SOL    HW222857   2.585   1.427   7.615  1.7902 -1.5223 -3.4000
 3799SOL     OW22858   4.697   0.055  16.987 -0.9550  0.3058 -0.5333
 3799SOL    HW122859   4.603   0.065  17.002 -0.8027  0.6602  0.1696
 3799SOL    HW222860   4.693   0.052  16.891  2.2479  0.3004 -0.6850
 3800SOL     OW22861   4.050   4.673   5.477 -0.6328 -0.2731 -0.5340
 3800SOL    HW122862   4.055   4.611   5.550 -1.6606 -0.6933 -0.8175
 3800SOL    HW222863   4.044   0.036   5.522 -1.8316 -0.7442  0.2075
 3801SOL     OW22864   2.358   3.183   6.090 -0.0163 -0.7768 -0.7887
 3801SOL    HW122865   2.335   3.148   6.004  1.4383  0.2421 -1.6005
 3801SOL    HW222866   2.387   3.112   6.147  1.6500 -1.5854 -2.6475
 3802SOL     OW22867   1.013   2.894   0.373  0.0152  0.7090 -0.1186
 3802SOL    HW122868   1.034   2.808   0.335  1.3096  0.9051  0.1566
 3802SOL    HW222869   1.078   2.943   0.323  1.2438 -2.3670 -1.5080
 3803SOL     OW22870   0.822   3.907   8.012  0.3761 -0.1565 -0.1601
 3803SOL    HW122871   0.907   3.935   7.977  0.5684 -1.6114 -0.8824
 3803SOL    HW222872   0.782   3.993   8.010  0.2554 -0.1945  0.6926
 3804SOL     OW22873   0.509   1.203   3.086 -0.1210  0.6043 -0.6858
 3804SOL    HW122874   0.437   1.176   3.029 -0.3078  1.4406 -0.8435
 3804SOL    HW222875   0.499   1.297   3.078 -1.0968  0.4991 -0.6928
 3805SOL     OW22876   1.649   1.449   0.993  0.3177  0.8088  0.1270
 3805SOL    HW122877   1.651   1.466   0.899 -1.7127 -0.6270 -0.1567
 3805SOL    HW222878   1.625   1.357   0.986  0.6807  0.6029  1.4519
 3806SOL     OW22879   1.001   1.451   8.115  0.3510  0.1577 -0.3085
 3806SOL    HW122880   1.031   1.528   8.068  1.6497  0.6284  1.2523
 3806SOL    HW222881   1.084   1.406   8.132  1.4267  0.9235 -3.5573
 3807SOL     OW22882   0.912   4.105   1.113  0.3074 -0.7186 -0.0163
 3807SOL    HW122883   0.838   4.052   1.142  1.6312 -1.2398  2.3565
 3807SOL    HW222884   0.985   4.043   1.106 -0.5615 -1.6790 -0.5962
 3808SOL     OW22885   3.026   2.243  16.651  0.1302  0.4993  0.1461
 3808SOL    HW122886   3.066   2.301  16.586  0.6835  0.1633  0.1818
 3808SOL    HW222887   3.092   2.251  16.720 -0.3182 -0.4442  0.6809
 3809SOL     OW22888   2.260   3.303   4.345  0.0392 -0.5738  0.0801
 3809SOL    HW122889   2.249   3.240   4.273 -0.7283 -0.5702  0.1973
 3809SOL    HW222890   2.353   3.326   4.355  0.1953 -1.7923  1.3679
 3810SOL     OW22891   0.143   4.121   6.522  0.3723  0.0984 -0.1655
 3810SOL    HW122892   0.142   4.172   6.603 -1.3923 -2.0012  1.1434
 3810SOL    HW222893   0.084   4.182   6.480 -0.9629 -0.5644  0.7611
 3811SOL     OW22894   1.352   1.908   5.906  0.4858  0.6605  0.1588
 3811SOL    HW122895   1.408   1.976   5.941 -0.9096  1.5845  0.5816
 3811SOL    HW222896   1.385   1.886   5.818  1.7990  0.5116  0.6917
 3812SOL     OW22897   3.825   1.252   8.712  0.0231  0.3040 -0.2781
 3812SOL    HW122898   3.868   1.262   8.627 -2.4843  2.0522 -1.3188
 3812SOL    HW222899   3.871   1.307   8.775 -1.6610  1.1598  0.1915
 3813SOL     OW22900   1.772   0.846   1.694 -0.1857 -0.2621  0.5652
 3813SOL    HW122901   1.680   0.823   1.700 -0.3264  0.0143 -0.7628
 3813SOL    HW222902   1.780   0.933   1.733 -2.2640  0.7017 -1.2041
 3814SOL     OW22903   3.967   1.197   3.518 -0.4961 -0.7982 -0.0613
 3814SOL    HW122904   3.956   1.188   3.613 -0.8774 -1.4474 -0.1666
 3814SOL    HW222905   4.061   1.180   3.508 -0.3138 -0.0679  0.3847
 3815SOL     OW22906   0.284   1.322   7.828  0.3520  0.6883 -0.4866
 3815SOL    HW122907   0.260   1.245   7.880  2.7385  1.7708  2.2276
 3815SOL    HW222908   0.370   1.307   7.790 -1.4278  0.1639 -4.3386
 3816SOL     OW22909   2.336   3.773   8.599 -0.2077  0.3097  0.0883
 3816SOL    HW122910   2.280   3.845   8.570 -0.1295  0.1399 -0.4826
 3816SOL    HW222911   2.293   3.753   8.682 -1.4161 -0.8227 -0.7964
 3817SOL     OW22912   4.366   3.377   8.942 -0.5019 -0.1486  0.2070
 3817SOL    HW122913   4.405   3.429   8.871 -0.4241 -1.1315 -0.4653
 3817SOL    HW222914   4.302   3.336   8.883  0.4375  1.3107 -1.8305
 3818SOL     OW22915   2.376   1.859   9.915 -0.1729  0.1381 -0.4594
 3818SOL    HW122916   2.288   1.846   9.880 -0.9586  3.6059  0.2059
 3818SOL    HW222917   2.349   1.932   9.971 -1.9321 -0.5508 -0.3985
 3819SOL     OW22918   2.839   2.720   8.802 -0.1304 -0.0779 -0.2485
 3819SOL    HW122919   2.928   2.755   8.795  0.6617 -2.0400  0.2656
 3819SOL    HW222920   2.830   2.638   8.754 -1.9595 -0.3607  0.5558
 3820SOL     OW22921   0.387   3.134   4.435  0.0250  0.6292 -0.1607
 3820SOL    HW122922   0.461   3.169   4.386  0.2306 -0.1145 -0.3808
 3820SOL    HW222923   0.402   3.040   4.436 -0.6126  0.5325  0.6516
 3821SOL     OW22924   0.115   4.514   5.190  0.0172 -0.6507 -0.1933
 3821SOL    HW122925   0.079   4.550   5.271  0.7196  1.6851 -0.9314
 3821SOL    HW222926   0.087   4.425   5.211  2.0307 -1.2671 -0.0984
 3822SOL     OW22927   4.407   1.376   8.969 -0.2001  0.1093  0.2791
 3822SOL    HW122928   4.449   1.411   9.048  1.3511 -0.1007 -0.4727
 3822SOL    HW222929   4.474   1.314   8.943 -0.4927  0.1182 -0.4862
 3823SOL     OW22930   3.857   2.620   6.763 -0.1854 -0.2416 -0.6681
 3823SOL    HW122931   3.794   2.555   6.732 -0.8121  0.2472 -0.4336
 3823SOL    HW222932   3.804   2.700   6.758 -0.7997 -0.4555  2.6195
 3824SOL     OW22933   3.677   4.051   7.294  0.3712  0.3783  0.3480
 3824SOL    HW122934   3.744   4.102   7.339  1.8152  0.0665 -1.4583
 3824SOL    HW222935   3.636   4.010   7.370  1.5462  0.9658  1.2920
 3825SOL     OW22936   1.221   3.949   5.608  0.3339 -0.2242 -0.7025
 3825SOL    HW122937   1.274   4.002   5.548  0.8038 -0.1590 -0.2295
 3825SOL    HW222938   1.276   3.878   5.641 -1.1108 -0.6915  0.7057
 3826SOL     OW22939   1.477   1.322  15.232  0.3595  0.2844  0.3638
 3826SOL    HW122940   1.472   1.349  15.324  1.3638 -1.4930  0.9471
 3826SOL    HW222941   1.387   1.302  15.209 -0.2315  3.2745  0.1034
 3827SOL     OW22942   1.583   4.110   5.257 -0.0024  0.0591  0.2587
 3827SOL    HW122943   1.553   4.193   5.221 -0.5298 -0.4017 -0.3585
 3827SOL    HW222944   1.604   4.136   5.347  3.4220  0.6377 -0.6947
 3828SOL     OW22945   0.233   3.041   7.513  0.1135  0.4444 -0.9142
 3828SOL    HW122946   0.314   2.993   7.495 -0.7873 -0.8665 -1.4603
 3828SOL    HW222947   0.265   3.129   7.531  3.8627 -0.8684 -1.2574
 3829SOL     OW22948   3.489   1.147   4.907 -0.4023 -0.2413 -0.0511
 3829SOL    HW122949   3.454   1.101   4.831  2.6813  0.1675 -1.7329
 3829SOL    HW222950   3.556   1.195   4.858  0.4620  0.1913  1.5442
 3830SOL     OW22951   3.133   4.688  11.424  0.4268  0.3405 -0.3095
 3830SOL    HW122952   3.190   4.622  11.465  0.1972  0.5891  0.4114
 3830SOL    HW222953   3.195   0.029  11.386  1.0108 -0.2663 -0.3699
 3831SOL     OW22954   2.540   3.862   3.025 -0.5873  0.1887  0.8185
 3831SOL    HW122955   2.594   3.888   3.100 -0.3511  0.3354  0.5996
 3831SOL    HW222956   2.449   3.883   3.045 -0.6926  1.5783 -1.1094
 3832SOL     OW22957   1.187   1.827   6.782 -0.3529  0.0197 -0.7511
 3832SOL    HW122958   1.238   1.867   6.712 -0.3726  1.6108  0.1324
 3832SOL    HW222959   1.100   1.869   6.782 -0.9007 -1.1203 -0.8485
 3833SOL     OW22960   3.841   2.987   4.112  0.2265 -0.1472 -0.1312
 3833SOL    HW122961   3.890   3.030   4.183 -1.0838  1.9206 -0.4782
 3833SOL    HW222962   3.906   2.933   4.068 -0.3168 -1.5469  0.7795
 3834SOL     OW22963   0.743   3.030   9.956  0.3220  0.4095  0.2960
 3834SOL    HW122964   0.738   3.031   9.860 -1.4717  0.2791  0.3997
 3834SOL    HW222965   0.778   2.942   9.969  1.8530  0.6511 -2.0388
 3835SOL     OW22966   1.278   1.085   7.632 -0.7659  0.5625  0.2843
 3835SOL    HW122967   1.301   0.994   7.614  2.0348  1.2264  0.5050
 3835SOL    HW222968   1.367   1.118   7.627  0.0216 -1.8277 -1.2854
 3836SOL     OW22969   3.617   4.027   7.875  0.5641 -0.0407  0.0938
 3836SOL    HW122970   3.704   4.069   7.874 -0.1557  1.4977  0.8512
 3836SOL    HW222971   3.613   3.999   7.967 -1.5964  0.2759  0.0787
 3837SOL     OW22972   0.332   4.385  16.433 -0.0016 -0.0681  0.5107
 3837SOL    HW122973   0.310   4.478  16.424 -0.7339 -0.4412 -1.5566
 3837SOL    HW222974   0.368   4.370  16.345 -1.0241 -1.7248  0.3719
 3838SOL     OW22975   1.446   3.634   4.424  0.7050 -0.0501 -0.9437
 3838SOL    HW122976   1.384   3.575   4.382 -2.5768  0.9733  2.4352
 3838SOL    HW222977   1.391   3.661   4.498  0.7152  1.3809 -1.4423
 3839SOL     OW22978   3.346   1.047   1.181  0.2092  0.3159 -0.0768
 3839SOL    HW122979   3.327   1.141   1.181 -0.8081  0.1153  1.2462
 3839SOL    HW222980   3.272   1.019   1.127  0.9167  0.5106 -1.1355
 3840SOL     OW22981   1.842   0.894   9.819  1.1746  0.4650 -0.0439
 3840SOL    HW122982   1.821   0.854   9.904  0.3723 -0.6373 -0.7549
 3840SOL    HW222983   1.836   0.814   9.766  3.5945 -0.1530  0.6314
 3841SOL     OW22984   1.255   3.072   4.139 -0.1800  0.5339  0.1671
 3841SOL    HW122985   1.224   3.162   4.147 -0.4031  0.6370 -2.0363
 3841SOL    HW222986   1.232   3.030   4.222  1.0286  0.6179  0.5421
 3842SOL     OW22987   1.691   1.905   6.158 -0.3762 -0.5631 -0.7935
 3842SOL    HW122988   1.723   1.927   6.071  1.4206 -0.5156 -0.1218
 3842SOL    HW222989   1.746   1.957   6.216 -0.4525 -2.6878  1.1952
 3843SOL     OW22990   0.232   3.471  11.984 -0.1377  0.0644 -0.0594
 3843SOL    HW122991   0.269   3.482  11.897 -1.5120  0.2475 -0.6140
 3843SOL    HW222992   0.300   3.425  12.033 -0.8075  0.8760  1.6365
 3844SOL     OW22993   2.377   0.836   6.083 -0.4610 -0.3048  0.0456
 3844SOL    HW122994   2.457   0.866   6.126  0.5296 -2.2318 -0.4436
 3844SOL    HW222995   2.315   0.908   6.094 -1.4545 -0.8831 -1.8669
 3845SOL     OW22996   4.434   0.907  12.184 -0.1840  0.2527 -0.4770
 3845SOL    HW122997   4.422   0.927  12.091 -1.8273 -0.8484 -0.5041
 3845SOL    HW222998   4.528   0.902  12.204 -0.0236 -0.9033 -1.4866
 3846SOL     OW22999   1.850   3.982   3.519  0.0407 -0.2351 -0.0327
 3846SOL    HW123000   1.934   3.962   3.477 -0.6190 -0.6034 -1.1825
 3846SOL    HW223001   1.863   4.072   3.549  1.3262  0.0579 -1.4482
 3847SOL     OW23002   2.568   0.160  12.377 -0.3765 -0.0097  0.2987
 3847SOL    HW123003   2.497   0.098  12.362  0.0733 -0.1989 -1.1209
 3847SOL    HW223004   2.649   0.110  12.366  0.8208  2.2569 -1.2249
 3848SOL     OW23005   2.092   2.455   3.179  0.2678 -0.2744  0.2069
 3848SOL    HW123006   2.048   2.529   3.221  0.3762  0.0367 -0.2245
 3848SOL    HW223007   2.029   2.390   3.211 -0.1242  0.0921  0.1857
 3849SOL     OW23008   4.592   0.081  12.384  0.1140  0.1282  0.9428
 3849SOL    HW123009   4.572   0.156  12.439  0.9535  0.6667  0.5102
 3849SOL    HW223010   4.687   0.089  12.379  0.2475 -0.3077  2.8545
 3850SOL     OW23011   0.384   2.716   4.688  0.1088 -0.6772 -0.0357
 3850SOL    HW123012   0.342   2.688   4.769 -2.0088  1.4019 -0.4234
 3850SOL    HW223013   0.315   2.777   4.659  0.6155  1.5482  3.5356
 3851SOL     OW23014   3.366   3.772   6.727 -0.9838  0.1262 -0.1051
 3851SOL    HW123015   3.387   3.785   6.820  1.8056 -0.7616 -0.6116
 3851SOL    HW223016   3.419   3.694   6.712  1.0016  1.3299  0.5511
 3852SOL     OW23017   3.224   1.232   5.300  0.8494  0.0929 -0.7441
 3852SOL    HW123018   3.204   1.178   5.224 -0.0545  0.6554 -0.9070
 3852SOL    HW223019   3.276   1.166   5.345 -0.6346 -0.1891  0.5634
 3853SOL     OW23020   0.718   2.646  10.871 -0.8945  0.7416 -0.4319
 3853SOL    HW123021   0.636   2.627  10.916 -1.2744  0.2329 -1.3426
 3853SOL    HW223022   0.702   2.736  10.842  0.8643  0.6513 -1.6772
 3854SOL     OW23023   0.370   4.562  14.312 -0.0161  0.1388 -0.2548
 3854SOL    HW123024   0.410   4.482  14.278  0.6153 -0.1453  1.1541
 3854SOL    HW223025   0.432   4.568  14.384  0.3875  0.2319 -0.6085
 3855SOL     OW23026   3.392   3.948   2.380 -0.3551 -0.4121 -0.4053
 3855SOL    HW123027   3.443   4.008   2.435  0.4123 -0.8046 -0.6840
 3855SOL    HW223028   3.451   3.933   2.306  0.6646  3.4441 -0.3925
 3856SOL     OW23029   0.167   2.046   5.180 -0.1650  0.4567  0.3060
 3856SOL    HW123030   0.145   1.963   5.221  0.4367 -0.5918 -1.5275
 3856SOL    HW223031   0.181   2.020   5.089 -1.4137  0.2486  0.1626
 3857SOL     OW23032   3.358   2.619   6.866  0.1343  0.1457 -0.1322
 3857SOL    HW123033   3.337   2.701   6.909  2.5574  1.6679 -1.8080
 3857SOL    HW223034   3.318   2.632   6.780  4.3651 -1.3414 -2.3127
 3858SOL     OW23035   3.348   3.121   6.815  0.2013 -0.2446  0.3706
 3858SOL    HW123036   3.388   3.089   6.895  1.5219  2.3891  0.7620
 3858SOL    HW223037   3.273   3.062   6.820  0.2233 -0.2283  0.8618
 3859SOL     OW23038   2.976   3.166   6.840 -0.3118  0.1783 -0.0203
 3859SOL    HW123039   2.938   3.087   6.878 -0.0956  0.6414  1.1444
 3859SOL    HW223040   2.958   3.161   6.746 -0.0415  1.2963 -0.1314
 3860SOL     OW23041   2.244   3.548   7.339 -0.2738  0.3795 -0.1282
 3860SOL    HW123042   2.315   3.608   7.319  0.5236  0.1638  1.9775
 3860SOL    HW223043   2.293   3.495   7.402 -0.0731 -1.6274 -1.9905
 3861SOL     OW23044   3.781   3.710   8.427 -0.9056  0.1041 -0.1469
 3861SOL    HW123045   3.848   3.773   8.402 -0.1223 -0.3179  0.8594
 3861SOL    HW223046   3.829   3.629   8.443 -2.4764 -1.3098 -2.6897
 3862SOL     OW23047   2.971   4.196   8.853  0.3214  0.4284 -0.1908
 3862SOL    HW123048   3.013   4.223   8.772 -1.0097 -0.1156 -1.0503
 3862SOL    HW223049   2.886   4.178   8.812  1.0761  1.9837 -2.4176
 3863SOL     OW23050   4.246   1.394   9.443  0.2158  0.1145  0.5796
 3863SOL    HW123051   4.317   1.395   9.379 -0.3662 -2.9921 -0.0736
 3863SOL    HW223052   4.284   1.406   9.530 -0.1704  1.4692  0.5602
 3864SOL     OW23053   4.568   4.124   8.624 -0.1516 -0.1670  0.9417
 3864SOL    HW123054   4.658   4.094   8.612  0.4270  1.3027  1.5086
 3864SOL    HW223055   4.560   4.128   8.720  0.1346  1.7379  0.8946
 3865SOL     OW23056   3.165   4.305   1.344 -0.2779 -0.6426 -0.1251
 3865SOL    HW123057   3.125   4.392   1.333  1.1831  0.3017  2.0002
 3865SOL    HW223058   3.089   4.258   1.376 -0.2424  0.9264  2.3081
 3866SOL     OW23059   0.940   4.057   6.006  0.5096 -0.2886  0.2829
 3866SOL    HW123060   0.989   4.117   6.062  1.4232 -0.9033  0.1415
 3866SOL    HW223061   1.003   4.022   5.942  1.0732  0.2565  0.5428
 3867SOL     OW23062   0.609   1.971   5.249 -0.1581 -0.4426 -0.0764
 3867SOL    HW123063   0.596   2.056   5.208  1.2720 -0.4973 -0.6490
 3867SOL    HW223064   0.571   1.989   5.334  1.9035  0.5734  0.6262
 3868SOL     OW23065   0.002   1.830   6.940  0.5482  0.6441  0.6766
 3868SOL    HW123066   0.077   1.862   6.890  0.6294  1.1413  1.1106
 3868SOL    HW223067   0.006   1.738   6.914  2.5573  0.7776  0.5416
 3869SOL     OW23068   0.273   4.585   3.658  0.0554  0.0575  0.0891
 3869SOL    HW123069   0.258   4.532   3.580 -0.5871 -1.4619  1.2622
 3869SOL    HW223070   0.288   4.674   3.624  0.1266  0.3047  0.7600
 3870SOL     OW23071   2.734   3.612  13.468 -0.0681  0.4740  0.1784
 3870SOL    HW123072   2.705   3.658  13.389  1.7026  0.9083 -0.2058
 3870SOL    HW223073   2.780   3.537  13.430 -0.5565  0.7152 -0.9012
 3871SOL     OW23074   2.627   4.111  13.027 -0.0798  0.5638  0.2752
 3871SOL    HW123075   2.598   4.157  13.106 -1.9896  2.7160 -1.6704
 3871SOL    HW223076   2.699   4.169  13.001 -1.3402  1.2808 -1.5968
 3872SOL     OW23077   1.471   4.682   5.947  0.0810  0.1589 -0.4749
 3872SOL    HW123078   1.488   4.590   5.923  0.3856  0.3225 -0.9062
 3872SOL    HW223079   1.421   4.670   6.027  2.0964 -0.4975  0.6808
 3873SOL     OW23080   2.257   0.758   8.286 -0.3113  0.2510 -0.3145
 3873SOL    HW123081   2.324   0.758   8.218  1.1074 -0.0128  1.0891
 3873SOL    HW223082   2.254   0.852   8.303  0.4092  0.6770 -2.4855
 3874SOL     OW23083   1.773   4.131  13.039 -0.0752  0.7104  0.0086
 3874SOL    HW123084   1.858   4.099  13.067 -0.5779 -0.3744  0.2917
 3874SOL    HW223085   1.774   4.090  12.952 -2.9514 -0.7062  0.6578
 3875SOL     OW23086   1.257   3.917   6.380 -0.4594 -0.3615  0.2388
 3875SOL    HW123087   1.276   3.824   6.368  1.7098  0.2572 -0.9968
 3875SOL    HW223088   1.252   3.946   6.289 -1.7557 -1.7994 -0.1515
 3876SOL     OW23089   0.978   3.364   8.644 -0.1423  0.0890 -0.4285
 3876SOL    HW123090   0.897   3.327   8.610 -0.5753 -0.1543  0.8710
 3876SOL    HW223091   1.030   3.396   8.570 -0.8292  1.7681 -0.1868
 3877SOL     OW23092   4.310   3.682  17.520  0.1923  0.0420 -0.3546
 3877SOL    HW123093   4.309   3.588  17.501 -2.3749  0.1012 -0.4365
 3877SOL    HW223094   4.220   3.696  17.547 -0.1840 -0.2448 -1.4537
 3878SOL     OW23095   2.131   1.256   2.440  0.0540  0.2298  0.1020
 3878SOL    HW123096   2.119   1.285   2.530 -0.3935 -0.2052  0.1847
 3878SOL    HW223097   2.067   1.307   2.390 -0.8903  1.0499  2.1591
 3879SOL     OW23098   2.528   0.656   0.064 -0.6017  0.4914  0.0810
 3879SOL    HW123099   2.559   0.725   0.122 -2.7439 -0.0595  1.9298
 3879SOL    HW223100   2.599   0.656  17.689 -0.0705  1.7274  0.6742
 3880SOL     OW23101   0.355   1.655  17.539 -0.5388 -0.5125  0.9597
 3880SOL    HW123102   0.299   1.607  17.600 -0.1339 -0.7791  1.1242
 3880SOL    HW223103   0.435   1.677  17.588 -0.6558  0.1470  0.8584
 3881SOL     OW23104   3.529   0.623   4.249 -0.3804 -0.3294  0.1746
 3881SOL    HW123105   3.558   0.533   4.264  0.6846 -0.3754 -2.0579
 3881SOL    HW223106   3.531   0.627   4.153  0.1555 -1.2471  0.1499
 3882SOL     OW23107   3.201   0.630   1.382  0.2831  0.6774 -0.0371
 3882SOL    HW123108   3.134   0.699   1.380 -2.2967 -1.7370  2.0079
 3882SOL    HW223109   3.193   0.588   1.297  0.0950  1.0983 -0.2276
 3883SOL     OW23110   2.423   1.530   2.649  0.6904 -1.0065 -0.1551
 3883SOL    HW123111   2.484   1.506   2.719  0.7869 -0.1960  0.0324
 3883SOL    HW223112   2.412   1.455   2.589  0.5118 -0.6587 -0.5583
 3884SOL     OW23113   2.417   3.929   1.752  0.1630  0.5805  0.4193
 3884SOL    HW123114   2.444   4.008   1.800  2.2907 -1.2394  2.2529
 3884SOL    HW223115   2.324   3.925   1.774 -0.0800  0.9910 -0.5658
 3885SOL     OW23116   4.672   1.341  12.520 -0.7142  0.8686  0.0289
 3885SOL    HW123117   4.688   1.392  12.440  0.8033 -0.6710 -0.6528
 3885SOL    HW223118   0.004   1.265  12.498 -0.8370  0.3609  1.5709
 3886SOL     OW23119   4.146   4.344   7.344  0.7411 -0.1529 -0.7483
 3886SOL    HW123120   4.145   4.250   7.357 -0.4249  0.2713  2.0218
 3886SOL    HW223121   4.166   4.373   7.433 -0.9315 -0.3929 -0.2968
 3887SOL     OW23122   4.693   3.896  11.865 -0.4417  0.0751  0.3762
 3887SOL    HW123123   4.652   3.969  11.911  1.1751  1.8728 -1.0500
 3887SOL    HW223124   0.064   3.919  11.869 -0.1366 -1.2278  0.8701
 3888SOL     OW23125   3.040   2.825  12.898  0.2895 -0.0061  0.0299
 3888SOL    HW123126   3.031   2.871  12.982  1.3379 -2.1246  1.2732
 3888SOL    HW223127   2.949   2.801  12.877 -1.1891  4.2023  1.6107
 3889SOL     OW23128   4.271   2.797   6.100  0.1216  0.2039 -0.2554
 3889SOL    HW123129   4.331   2.725   6.079 -0.8717 -0.6340 -0.2375
 3889SOL    HW223130   4.188   2.749   6.102  1.1177 -1.5205  0.4367
 3890SOL     OW23131   3.823   0.425   3.030  0.1299  0.5548 -0.0602
 3890SOL    HW123132   3.760   0.360   2.997  1.0596 -0.3525 -0.0570
 3890SOL    HW223133   3.805   0.430   3.124 -0.0597  2.0677 -0.1768
 3891SOL     OW23134   3.146   2.994  12.701  0.8162 -0.1121  0.6110
 3891SOL    HW123135   3.121   2.937  12.773 -0.3318 -0.2182  0.1229
 3891SOL    HW223136   3.201   3.057  12.748  1.6737  0.2583 -0.8752
 3892SOL     OW23137   1.986   3.547   3.619 -0.4772  0.1274  0.0803
 3892SOL    HW123138   2.041   3.486   3.570  2.0809  0.2308  2.8493
 3892SOL    HW223139   1.952   3.598   3.545  0.1198  0.3475 -0.0422
 3893SOL     OW23140   3.801   1.052  11.567 -0.1208 -0.4809 -0.0993
 3893SOL    HW123141   3.893   1.078  11.571 -0.4538  0.7834 -0.4382
 3893SOL    HW223142   3.766   1.097  11.490 -2.1708 -0.2148  1.0050
 3894SOL     OW23143   4.443   1.392   5.459  0.7042  0.0205 -0.4401
 3894SOL    HW123144   4.482   1.426   5.540 -1.0062 -0.4696  0.5937
 3894SOL    HW223145   4.378   1.334   5.498 -0.5703  1.5867 -0.2481
 3895SOL     OW23146   0.785   3.516   2.454 -0.7064  0.4629  0.3217
 3895SOL    HW123147   0.806   3.473   2.371 -0.3058  2.4706 -0.6241
 3895SOL    HW223148   0.691   3.529   2.444 -0.4367  1.4719 -0.9322
 3896SOL     OW23149   2.203   3.733   2.092  0.0210 -0.1780  0.8539
 3896SOL    HW123150   2.178   3.643   2.111 -1.7576  0.1103 -0.1370
 3896SOL    HW223151   2.277   3.750   2.150 -1.2127 -0.3793  2.4879
 3897SOL     OW23152   4.298   3.415   2.122  0.0851  0.1403 -0.1183
 3897SOL    HW123153   4.274   3.355   2.052  1.0243 -0.0921 -0.2393
 3897SOL    HW223154   4.220   3.393   2.173  2.3319 -3.0265  1.9274
 3898SOL     OW23155   0.977   4.083  13.671 -0.1662 -0.0629  0.5052
 3898SOL    HW123156   1.008   4.171  13.649  1.5869 -0.6118  0.8023
 3898SOL    HW223157   0.892   4.083  13.628 -0.0822  1.1542  0.3372
 3899SOL     OW23158   3.683   1.961   1.285  0.6279 -0.2083  0.1161
 3899SOL    HW123159   3.674   2.054   1.306  2.3942 -0.3093  1.3139
 3899SOL    HW223160   3.685   1.968   1.189  1.6885 -0.0439  0.1408
 3900SOL     OW23161   2.031   3.205   3.809  0.9066  0.1796  0.2260
 3900SOL    HW123162   2.017   3.195   3.715  1.8275  0.7620  0.0298
 3900SOL    HW223163   2.125   3.197   3.797  0.4275  0.0988 -3.3625
 3901SOL     OW23164   2.240   0.263   9.199 -0.1701  0.5781 -0.1175
 3901SOL    HW123165   2.174   0.195   9.187  0.4942 -0.3131  1.3978
 3901SOL    HW223166   2.199   0.317   9.267 -0.5243  1.7856 -1.2814
 3902SOL     OW23167   2.179   4.687   4.944  0.1231  0.3466 -0.0603
 3902SOL    HW123168   2.204   4.657   4.857 -1.1112 -1.4167  0.2063
 3902SOL    HW223169   2.266   4.707   4.980  0.2771 -0.7025  0.1581
 3903SOL     OW23170   3.266   2.811   4.671  0.0860  0.1837  0.0464
 3903SOL    HW123171   3.179   2.829   4.637 -0.0783 -2.2804 -0.8106
 3903SOL    HW223172   3.260   2.716   4.665 -0.5508  0.2449 -0.2843
 3904SOL     OW23173   1.536   1.666  16.393  0.0733  0.3609 -0.6280
 3904SOL    HW123174   1.485   1.610  16.334 -0.8330  0.1482  0.3542
 3904SOL    HW223175   1.487   1.653  16.474  1.7356  0.4897  0.4013
 3905SOL     OW23176   0.845   1.928   8.165 -0.4850 -0.5911 -0.2358
 3905SOL    HW123177   0.935   1.919   8.136 -0.2963  0.4333  0.0346
 3905SOL    HW223178   0.845   1.932   8.261 -0.3741  0.0620 -0.2650
 3906SOL     OW23179   0.863   4.626  13.445 -0.6230 -0.5259 -0.4027
 3906SOL    HW123180   0.833   4.637  13.355 -1.8430  3.1973  0.4891
 3906SOL    HW223181   0.953   4.659  13.439  0.1399 -1.9121  3.1175
 3907SOL     OW23182   1.887   2.345   2.022  0.0573 -0.3601 -0.0150
 3907SOL    HW123183   1.968   2.297   2.039  0.3804  0.1638 -0.0486
 3907SOL    HW223184   1.912   2.424   2.069  0.1196 -0.3512 -0.0627
 3908SOL     OW23185   3.676   4.009  11.255 -0.3182  0.2156 -0.1204
 3908SOL    HW123186   3.643   3.954  11.184  0.3949 -1.3405  0.7661
 3908SOL    HW223187   3.684   4.095  11.214  0.0348  0.3288  0.1924
 3909SOL     OW23188   0.139   2.553   7.823  0.0394  0.0815 -0.5452
 3909SOL    HW123189   0.234   2.564   7.825 -0.1900  1.6039  0.8556
 3909SOL    HW223190   0.108   2.634   7.862  1.7213  0.6387 -0.3873
 3910SOL     OW23191   2.591   1.616   8.197 -0.3169  0.4638 -0.0319
 3910SOL    HW123192   2.544   1.535   8.216  0.3728  0.1196  0.2103
 3910SOL    HW223193   2.516   1.676   8.202 -1.3420 -0.6731 -2.0209
 3911SOL     OW23194   1.776   1.845   2.848 -0.3670  0.3818  0.4820
 3911SOL    HW123195   1.696   1.896   2.835 -0.9794 -1.1455 -1.6350
 3911SOL    HW223196   1.831   1.866   2.774 -0.3390 -0.9241  0.1423
 3912SOL     OW23197   4.391   2.363  15.661  0.3271 -0.0289 -0.1046
 3912SOL    HW123198   4.364   2.435  15.604 -0.2643 -0.7486 -0.7443
 3912SOL    HW223199   4.471   2.337  15.616 -0.9012 -2.6988 -0.7660
 3913SOL     OW23200   4.589   2.297   4.427  0.1597  0.5061 -0.7967
 3913SOL    HW123201   4.646   2.267   4.356 -1.2778  1.5044 -2.3744
 3913SOL    HW223202   4.509   2.312   4.376  2.6507  4.5845 -3.5661
 3914SOL     OW23203   2.476   2.530   5.092  0.0279  0.2835 -0.2846
 3914SOL    HW123204   2.557   2.561   5.132 -1.9927  1.5831  2.7499
 3914SOL    HW223205   2.421   2.553   5.167  2.4638 -0.3707  1.6907
 3915SOL     OW23206   0.323   2.907   3.587 -0.0463  0.1975 -0.1353
 3915SOL    HW123207   0.413   2.929   3.562 -0.3990  0.8731 -0.8129
 3915SOL    HW223208   0.316   2.815   3.562  1.2930 -0.6060  2.4529
 3916SOL     OW23209   4.683   3.372  14.757 -0.0675 -0.0247 -0.3970
 3916SOL    HW123210   0.053   3.397  14.748 -0.1204  0.1569 -0.4361
 3916SOL    HW223211   4.650   3.454  14.719 -3.0984 -1.1312 -0.1402
 3917SOL     OW23212   2.473   3.849   6.849 -0.7875 -0.4491  0.4820
 3917SOL    HW123213   2.425   3.866   6.768  0.3154 -0.9967 -0.2842
 3917SOL    HW223214   2.493   3.940   6.870  0.7630  0.0279 -3.1107
 3918SOL     OW23215   3.231   2.912  13.892 -0.0609 -0.7704  0.0473
 3918SOL    HW123216   3.186   2.986  13.932  0.2356 -0.8348  0.4954
 3918SOL    HW223217   3.324   2.915  13.914  0.1919  0.6664 -1.2324
 3919SOL     OW23218   0.859   2.822  15.130  0.1560 -0.0408  0.4652
 3919SOL    HW123219   0.930   2.790  15.074 -0.1165  0.4008 -0.1442
 3919SOL    HW223220   0.901   2.885  15.189  0.8559  0.1329 -0.2112
 3920SOL     OW23221   4.150   2.058  13.230  0.0958 -0.1468  0.0418
 3920SOL    HW123222   4.117   2.001  13.161 -2.9925  0.7414  0.7843
 3920SOL    HW223223   4.098   2.136  13.213  0.2455 -0.0937 -0.1699
 3921SOL     OW23224   2.603   4.694  14.716  0.1589 -0.0228  0.5087
 3921SOL    HW123225   2.683   4.713  14.666  0.3151 -1.4645  0.2072
 3921SOL    HW223226   2.560   4.649  14.643 -0.9418 -0.6340  1.5318
 3922SOL     OW23227   0.460   1.703   4.072 -0.2647 -0.1821  0.7552
 3922SOL    HW123228   0.393   1.765   4.099  1.6361  2.6310 -1.0098
 3922SOL    HW223229   0.414   1.627   4.035  0.4916 -0.5424  0.5465
 3923SOL     OW23230   0.691   3.262  16.059  0.0809 -0.0045  0.3749
 3923SOL    HW123231   0.739   3.231  15.982 -0.8647  0.8134 -0.5510
 3923SOL    HW223232   0.678   3.352  16.028 -3.3826 -0.2809  0.9695
 3924SOL     OW23233   1.762   0.553  15.962  0.3975 -0.0727 -0.0233
 3924SOL    HW123234   1.838   0.605  15.989  0.0465 -0.7326  2.2232
 3924SOL    HW223235   1.692   0.578  16.023  1.6034 -0.6123  1.5803
 3925SOL     OW23236   4.463   3.479   3.879 -0.2211  0.6990  0.0863
 3925SOL    HW123237   4.411   3.494   3.958  2.7618 -1.6030  2.4703
 3925SOL    HW223238   4.548   3.499   3.919  1.5042 -3.0897 -1.7527
 3926SOL     OW23239   2.525   1.541   7.909  0.1092 -0.7216  0.3660
 3926SOL    HW123240   2.609   1.586   7.893 -0.6681  0.3388 -0.7488
 3926SOL    HW223241   2.559   1.466   7.958 -0.3936  1.0532  3.3945
 3927SOL     OW23242   4.608   2.994   6.661  0.4244  0.1134  0.2962
 3927SOL    HW123243   4.521   2.984   6.622  0.5934 -0.8959  0.1755
 3927SOL    HW223244   4.661   2.960   6.589 -1.4817  1.0518 -1.5628
 3928SOL     OW23245   0.444   3.087  15.973 -0.9143 -0.2438  0.4447
 3928SOL    HW123246   0.470   3.147  16.043  1.6062  1.2066 -1.7535
 3928SOL    HW223247   0.523   3.034  15.978 -1.9586 -1.6996  1.7699
 3929SOL     OW23248   4.350   1.465  10.018  0.2524  0.6169  0.2611
 3929SOL    HW123249   4.408   1.540  10.006  1.7224 -0.5275  0.2144
 3929SOL    HW223250   4.363   1.458  10.112  3.4404 -0.2842 -0.2595
 3930SOL     OW23251   2.102   3.452   3.945  0.5543  0.4369  0.6886
 3930SOL    HW123252   2.078   3.382   3.885  0.4083  1.0366  0.0483
 3930SOL    HW223253   2.079   3.401   4.023 -1.3386  1.3056  0.7056
 3931SOL     OW23254   1.896   1.359  10.848 -0.2516  0.4231  0.4152
 3931SOL    HW123255   1.938   1.364  10.934  3.6186 -1.5137 -1.3530
 3931SOL    HW223256   1.911   1.267  10.827  0.8369  0.4436  1.1421
 3932SOL     OW23257   2.188   2.531   1.967  0.0953 -0.4430 -0.0098
 3932SOL    HW123258   2.188   2.482   1.884  0.9287 -1.9193  0.8494
 3932SOL    HW223259   2.262   2.506   2.022  1.6335 -0.9477 -2.2785
 3933SOL     OW23260   0.750   0.376   5.532  0.3703  0.1849  0.0970
 3933SOL    HW123261   0.706   0.456   5.559 -2.0581 -1.0857 -0.0968
 3933SOL    HW223262   0.841   0.403   5.548 -0.0538  1.1768  0.8290
 3934SOL     OW23263   2.122   0.047  15.649 -0.0761  0.0583  0.2017
 3934SOL    HW123264   2.143   0.054  15.742 -1.6733 -2.5536  0.7792
 3934SOL    HW223265   2.036   0.088  15.642 -0.4926 -0.2673  3.1638
 3935SOL     OW23266   3.124   0.708   6.703  0.6806  0.0154  0.3570
 3935SOL    HW123267   3.138   0.802   6.714  3.8203 -0.4795  0.5598
 3935SOL    HW223268   3.212   0.682   6.732 -0.4915 -1.9413  2.1373
 3936SOL     OW23269   2.993   3.946  10.338  0.0697 -0.3097  0.3985
 3936SOL    HW123270   3.081   3.909  10.344  0.4269  0.7473  1.4617
 3936SOL    HW223271   2.968   3.915  10.251  0.8707 -1.1143  0.4502
 3937SOL     OW23272   3.694   0.253   6.636 -0.0790  0.0890  0.3551
 3937SOL    HW123273   3.709   0.273   6.729 -1.2442  0.4855  0.4537
 3937SOL    HW223274   3.769   0.201   6.609  0.3646  0.0439  1.6466
 3938SOL     OW23275   1.909   4.380  13.321  0.0269 -0.3691  0.2178
 3938SOL    HW123276   1.926   4.301  13.371  0.2450 -0.3728  0.1392
 3938SOL    HW223277   1.993   4.409  13.284 -0.0154 -0.9730 -0.3369
 3939SOL     OW23278   0.113   0.102   0.439 -0.3362 -0.0946  0.4119
 3939SOL    HW123279   0.095   0.186   0.397  1.2211 -0.0528 -0.1825
 3939SOL    HW223280   0.202   0.082   0.409 -1.7226 -1.8350 -2.5410
 3940SOL     OW23281   0.475   0.910   7.164 -0.0785  0.0647  0.0487
 3940SOL    HW123282   0.426   0.935   7.242 -0.3891  0.5702 -0.3104
 3940SOL    HW223283   0.479   0.814   7.162  1.6273  0.1457 -0.5024
 3941SOL     OW23284   1.934   0.056  15.007 -0.3087 -0.2365  0.2419
 3941SOL    HW123285   1.968   0.126  14.952  1.5706 -1.2642  0.0799
 3941SOL    HW223286   1.992   0.048  15.083 -0.8071 -2.5212  0.3802
 3942SOL     OW23287   3.879   2.770  10.816  0.0688 -0.0897 -0.3314
 3942SOL    HW123288   3.837   2.711  10.878  0.0108 -0.2461 -0.5201
 3942SOL    HW223289   3.828   2.845  10.847 -0.8734 -1.3109  1.0673
 3943SOL     OW23290   0.209   1.887  10.335 -0.1209  1.0250 -0.2073
 3943SOL    HW123291   0.301   1.859  10.334 -0.2735  0.5511 -1.8479
 3943SOL    HW223292   0.191   1.912  10.426  0.5978  2.2101 -0.3899
 3944SOL     OW23293   3.954   0.794   7.259  0.2163  0.5032 -0.2603
 3944SOL    HW123294   4.021   0.862   7.269 -1.2369  1.6832  1.3613
 3944SOL    HW223295   3.876   0.848   7.251 -1.6228 -2.2540 -0.8037
 3945SOL     OW23296   1.464   3.393  13.758 -0.1256 -0.0423 -0.2962
 3945SOL    HW123297   1.451   3.359  13.669 -1.0302  2.1468 -1.0134
 3945SOL    HW223298   1.559   3.403  13.754 -0.1215  0.1470  0.3498
 3946SOL     OW23299   0.210   1.589   9.640 -0.4603 -0.3108  0.3086
 3946SOL    HW123300   0.201   1.498   9.669 -0.8995  0.2091  1.7910
 3946SOL    HW223301   0.122   1.625   9.630  0.3200  1.5263  0.0388
 3947SOL     OW23302   4.647   0.652   2.686  0.1390 -0.1690  0.7126
 3947SOL    HW123303   4.681   0.705   2.757 -1.5617  2.7827 -0.6785
 3947SOL    HW223304   4.564   0.621   2.722  0.0780 -0.9211 -0.0541
 3948SOL     OW23305   3.140   2.309   3.755 -0.1780 -0.5022 -0.1719
 3948SOL    HW123306   3.066   2.344   3.804  0.3713 -0.6322  0.7317
 3948SOL    HW223307   3.187   2.391   3.740  2.0940 -1.6281  0.8442
 3949SOL     OW23308   2.057   0.286  10.861 -0.0921  0.3809 -0.2067
 3949SOL    HW123309   2.123   0.217  10.866  0.2690  0.8282  1.1484
 3949SOL    HW223310   2.114   0.362  10.847  0.0209  0.0050 -1.8358
 3950SOL     OW23311   2.616   3.443   7.866  0.3587  0.2177 -0.1807
 3950SOL    HW123312   2.665   3.519   7.835 -2.9203  2.7442  0.8263
 3950SOL    HW223313   2.615   3.449   7.962  0.9992  1.5412 -0.2538
 3951SOL     OW23314   3.806   2.156   7.503 -0.6033  0.1990 -0.0947
 3951SOL    HW123315   3.801   2.251   7.500  2.3505  0.3895  0.8811
 3951SOL    HW223316   3.842   2.151   7.592  1.3052  2.1500 -0.7690
 3952SOL     OW23317   3.963   1.874   8.751 -0.0062 -0.5895  0.1136
 3952SOL    HW123318   3.942   1.785   8.780  0.3948 -0.7836 -0.1995
 3952SOL    HW223319   3.908   1.885   8.673  1.9748  1.5150 -0.9795
 3953SOL     OW23320   4.513   0.577   1.495  0.0831  0.1973 -0.9167
 3953SOL    HW123321   4.478   0.499   1.537  1.3240  0.6609  0.9785
 3953SOL    HW223322   4.604   0.552   1.481 -0.7077 -1.4315 -2.9963
 3954SOL     OW23323   4.614   2.097   4.743  0.2262 -0.0839 -0.2025
 3954SOL    HW123324   4.527   2.063   4.766  0.0137  1.8744  1.9398
 3954SOL    HW223325   4.607   2.192   4.732  0.4906 -0.1045 -0.5437
 3955SOL     OW23326   3.583   0.193   8.804  0.0073 -0.2454 -0.3894
 3955SOL    HW123327   3.538   0.277   8.803 -0.6781 -0.6248 -1.6902
 3955SOL    HW223328   3.668   0.205   8.847  0.6792  0.1189 -1.8157
 3956SOL     OW23329   1.833   2.961   4.683  0.0551 -0.0998  0.1250
 3956SOL    HW123330   1.832   2.937   4.590  0.9688 -2.6110  0.7582
 3956SOL    HW223331   1.927   2.956   4.700  0.1756  1.3992 -0.1021
 3957SOL     OW23332   0.068   0.533   7.136  0.8029  0.2447 -0.3350
 3957SOL    HW123333   0.070   0.459   7.197  0.8563  0.8508  0.3984
 3957SOL    HW223334   0.066   0.612   7.190 -1.2633  1.7380 -2.6022
 3958SOL     OW23335   0.180   3.998  14.994 -0.6277  0.8017 -0.2384
 3958SOL    HW123336   0.266   3.973  14.960 -0.7275  0.1450 -0.0118
 3958SOL    HW223337   0.126   3.923  14.968  0.4739 -0.4155  0.9315
 3959SOL     OW23338   4.069   2.900  14.598  0.7405  0.1012  0.0663
 3959SOL    HW123339   3.998   2.939  14.547  1.2983  3.0029  1.4887
 3959SOL    HW223340   4.076   2.962  14.670  0.4533  1.5937 -1.2015
 3960SOL     OW23341   0.324   0.424  16.968  0.1682 -0.1874  0.0894
 3960SOL    HW123342   0.261   0.397  17.036 -1.0590  0.2753 -0.8624
 3960SOL    HW223343   0.406   0.437  17.014 -1.0325 -0.0341  2.2163
 3961SOL     OW23344   2.473   0.009   9.602  0.4743  0.2463 -0.1585
 3961SOL    HW123345   2.416   0.083   9.624  0.9660  1.3545 -2.6164
 3961SOL    HW223346   2.477   0.010   9.507 -2.7967  1.6073 -0.3126
 3962SOL     OW23347   1.634   0.365  17.064 -0.8895 -0.2272 -0.0997
 3962SOL    HW123348   1.662   0.289  17.114  1.0143  1.2256  1.0754
 3962SOL    HW223349   1.704   0.430  17.074 -0.6945 -0.6263  1.1447
 3963SOL     OW23350   3.379   1.286   7.578 -0.0022 -0.0312  0.0374
 3963SOL    HW123351   3.345   1.222   7.516  0.5133 -0.8063  0.5464
 3963SOL    HW223352   3.305   1.345   7.586 -0.2124 -0.1956 -0.6903
 3964SOL     OW23353   4.070   2.200  14.238  0.0057  0.0098 -0.0421
 3964SOL    HW123354   4.029   2.116  14.255  1.3297 -0.1716  2.2761
 3964SOL    HW223355   4.073   2.205  14.143 -0.4463  1.4387  0.0151
 3965SOL     OW23356   2.731   1.723   2.657  0.2968 -0.2637 -0.1523
 3965SOL    HW123357   2.708   1.727   2.564  0.6002 -0.9681 -0.2558
 3965SOL    HW223358   2.819   1.685   2.659 -0.1664 -1.1523  2.7624
 3966SOL     OW23359   3.810   0.293   8.919 -0.4892  0.7043  0.1216
 3966SOL    HW123360   3.797   0.380   8.958 -1.2807  0.3573  0.6287
 3966SOL    HW223361   3.862   0.247   8.985 -1.1559  0.4157  0.4504
 3967SOL     OW23362   2.685   0.437   4.211 -0.3555 -0.7383  0.7908
 3967SOL    HW123363   2.626   0.362   4.206 -0.3346 -0.6775 -0.3646
 3967SOL    HW223364   2.708   0.444   4.118  1.2515 -2.8684  1.0300
 3968SOL     OW23365   4.139   4.466   5.207 -0.4823  0.3459  0.0176
 3968SOL    HW123366   4.121   4.551   5.166  0.7741  0.3653 -0.4961
 3968SOL    HW223367   4.191   4.489   5.284 -0.6912  2.4075 -0.4678
 3969SOL     OW23368   4.684   2.169  10.664  0.4031  0.4206  0.9491
 3969SOL    HW123369   4.691   2.188  10.570  0.4317  2.5168  1.3712
 3969SOL    HW223370   4.615   2.103  10.662  1.5573 -0.7277 -1.3564
 3970SOL     OW23371   1.311   4.366   7.981 -0.2754 -0.6205  0.2027
 3970SOL    HW123372   1.316   4.410   8.066 -0.9005  0.8403 -0.5175
 3970SOL    HW223373   1.310   4.441   7.923 -1.4112  0.0065  1.0341
 3971SOL     OW23374   2.006   3.168   3.542 -0.0298 -0.5581 -1.1810
 3971SOL    HW123375   1.923   3.167   3.493 -0.5079 -3.4016 -0.2827
 3971SOL    HW223376   2.059   3.124   3.476 -0.3837 -1.1900 -1.0434
 3972SOL     OW23377   2.779   0.015   4.439  0.6245 -0.3311  0.0188
 3972SOL    HW123378   2.843   4.690   4.385 -2.7249 -2.2802 -2.2177
 3972SOL    HW223379   2.698   0.008   4.390  0.9245  3.1916 -1.0083
 3973SOL     OW23380   0.715   4.093   8.443  0.2192 -0.6000 -0.0257
 3973SOL    HW123381   0.671   4.121   8.363 -0.7267 -1.1201  0.3029
 3973SOL    HW223382   0.756   4.012   8.416 -0.5447 -1.8537  2.5207
 3974SOL     OW23383   4.270   2.114   7.585  0.0973 -0.7919 -0.0461
 3974SOL    HW123384   4.202   2.164   7.539  0.7270 -1.1946 -1.4295
 3974SOL    HW223385   4.308   2.060   7.515  0.5748 -0.2960 -0.1659
 3975SOL     OW23386   4.000   4.650   1.471  0.1823 -0.8991  0.3565
 3975SOL    HW123387   4.090   4.656   1.505 -0.8767  2.0789  2.5503
 3975SOL    HW223388   4.008   4.714   1.400 -0.2346 -1.5454 -0.2771
 3976SOL     OW23389   2.793   4.030   0.538  0.1978 -0.3383 -0.2705
 3976SOL    HW123390   2.708   4.032   0.581  0.1082 -0.0069 -0.4562
 3976SOL    HW223391   2.849   4.053   0.612  2.0129 -1.9677 -1.1461
 3977SOL     OW23392   2.181   3.984   2.400  0.1667 -0.1715  0.2701
 3977SOL    HW123393   2.149   3.983   2.490 -1.2386  3.0839 -0.2016
 3977SOL    HW223394   2.270   4.020   2.405 -0.5352  1.8509 -2.0155
 3978SOL     OW23395   3.374   4.569  11.479  0.1258  0.5097  0.1026
 3978SOL    HW123396   3.356   4.485  11.522 -1.8409  0.7185 -0.3167
 3978SOL    HW223397   3.469   4.565  11.470  0.2225 -0.9117  1.6474
 3979SOL     OW23398   3.537   1.821   8.280  0.0270 -0.2484  0.1103
 3979SOL    HW123399   3.507   1.909   8.258  2.1067 -0.1743 -2.5128
 3979SOL    HW223400   3.475   1.790   8.345 -0.3409 -0.0548 -0.1489
 3980SOL     OW23401   3.540   1.116   9.820  0.8244  0.2083 -0.4605
 3980SOL    HW123402   3.621   1.102   9.869  0.1197 -1.6246  0.1805
 3980SOL    HW223403   3.538   1.040   9.762  0.4649  0.5007 -0.8281
 3981SOL     OW23404   4.691   4.113   2.709  0.1903  0.2496 -0.3964
 3981SOL    HW123405   0.055   4.140   2.743 -0.2616 -1.0596  1.7653
 3981SOL    HW223406   4.718   4.040   2.653 -1.4259 -1.3098  0.8674
 3982SOL     OW23407   0.196   1.244  10.266 -0.1827  0.3608 -0.4140
 3982SOL    HW123408   0.205   1.170  10.207 -1.5718 -0.5029  0.4818
 3982SOL    HW223409   0.144   1.311  10.221  1.0976  1.2814 -0.5185
 3983SOL     OW23410   3.699   1.459   1.211  0.1751  0.2671 -0.4123
 3983SOL    HW123411   3.708   1.437   1.118 -0.6205 -1.6905 -0.0354
 3983SOL    HW223412   3.787   1.440   1.244 -0.3656 -0.1829  0.7451
 3984SOL     OW23413   3.614   3.730  11.012 -0.0641 -0.8609 -0.0687
 3984SOL    HW123414   3.703   3.723  11.047 -0.1260  1.3207  0.4781
 3984SOL    HW223415   3.624   3.815  10.970 -0.1620 -1.1866 -0.7558
 3985SOL     OW23416   3.909   2.775   5.365  0.0523  0.7937  1.1112
 3985SOL    HW123417   3.985   2.722   5.343  0.9541  2.5780 -0.0183
 3985SOL    HW223418   3.928   2.795   5.457  1.8356  2.3188  0.3917
 3986SOL     OW23419   0.313   3.161  13.068  0.1787 -1.0374 -0.4828
 3986SOL    HW123420   0.242   3.126  13.122 -1.2356  1.9090 -0.4025
 3986SOL    HW223421   0.330   3.090  13.007 -1.9871 -2.9657  1.1712
 3987SOL     OW23422   4.715   1.216   3.605  0.3811 -0.2475  0.5844
 3987SOL    HW123423   4.658   1.143   3.580  0.9617 -0.3171 -0.5033
 3987SOL    HW223424   0.034   1.239   3.522 -0.6124 -0.2259  0.1096
 3988SOL     OW23425   0.013   0.751   2.925 -0.1401  0.2563 -0.1415
 3988SOL    HW123426   0.023   0.657   2.914 -0.3929  0.1332  0.7101
 3988SOL    HW223427   4.699   0.767   3.012 -0.6215 -1.6386  0.0048
 3989SOL     OW23428   1.866   3.055   5.967  0.3654  0.3892  0.1770
 3989SOL    HW123429   1.959   3.034   5.975 -0.3100 -2.7855 -0.1925
 3989SOL    HW223430   1.855   3.148   5.987  2.4662  0.5552  0.5716
 3990SOL     OW23431   4.050   4.292  12.803 -0.0637  0.1150  0.4094
 3990SOL    HW123432   4.026   4.284  12.711 -0.5661 -3.5119  0.8389
 3990SOL    HW223433   4.144   4.273  12.795 -0.3530 -0.3545 -1.8933
 3991SOL     OW23434   3.214   1.846   4.404  0.4272 -0.4302  0.1796
 3991SOL    HW123435   3.160   1.904   4.458  0.1682 -0.9690  0.4913
 3991SOL    HW223436   3.299   1.891   4.413 -0.8370  2.3030 -1.5060
 3992SOL     OW23437   3.531   3.031   7.025  0.3606 -0.0274  0.5117
 3992SOL    HW123438   3.575   3.091   7.084 -0.3203 -0.5688  1.5773
 3992SOL    HW223439   3.539   2.946   7.069 -3.7810 -1.3578 -1.2210
 3993SOL     OW23440   2.433   0.832   0.789  0.0295  0.1767 -0.0251
 3993SOL    HW123441   2.431   0.879   0.706  2.0273 -0.3958 -0.4044
 3993SOL    HW223442   2.496   0.761   0.774  0.8227  0.9616 -0.4182
 3994SOL     OW23443   3.491   2.889   8.352 -0.4283  0.2594 -0.1586
 3994SOL    HW123444   3.486   2.889   8.257  0.8571  0.7467 -0.2145
 3994SOL    HW223445   3.538   2.970   8.367  3.4821 -2.0144 -0.0995
 3995SOL     OW23446   2.668   3.199   1.178  0.3363  0.0957 -0.1131
 3995SOL    HW123447   2.647   3.110   1.206  1.5458 -1.1078 -2.9660
 3995SOL    HW223448   2.644   3.253   1.253 -1.7690 -1.5974  0.4618
 3996SOL     OW23449   2.697   2.212   7.562  0.2129  0.7283 -0.2709
 3996SOL    HW123450   2.663   2.139   7.613  0.6155 -0.1390 -1.2316
 3996SOL    HW223451   2.703   2.278   7.631 -1.2783 -0.1938  0.7401
 3997SOL     OW23452   3.056   3.772   6.185 -0.5753 -0.0058 -0.2154
 3997SOL    HW123453   3.025   3.754   6.273 -0.4216  0.1474 -0.1301
 3997SOL    HW223454   2.991   3.832   6.146  1.0362  2.1777  0.4394
 3998SOL     OW23455   3.821   1.304  15.658 -0.5440  0.0395 -0.3197
 3998SOL    HW123456   3.849   1.214  15.638  0.8434  0.1761  1.0041
 3998SOL    HW223457   3.845   1.311  15.751 -0.0144  0.6245 -0.5042
 3999SOL     OW23458   3.222   4.586   8.302 -0.4515 -0.0791 -0.1447
 3999SOL    HW123459   3.254   4.609   8.215 -0.2183  0.8312  0.1696
 3999SOL    HW223460   3.297   4.535   8.332  0.0895  1.1089  0.5530
 4000SOL     OW23461   2.050   3.680  14.692  0.4538  0.1887  0.1224
 4000SOL    HW123462   2.014   3.592  14.705  1.0383  0.1247  1.3531
 4000SOL    HW223463   2.022   3.735  14.765 -1.0226 -0.8212  0.3175
 4001SOL     OW23464   3.501   2.776   9.109  0.0134 -0.2795 -0.4857
 4001SOL    HW123465   3.445   2.701   9.130 -0.0005  0.2159  1.2630
 4001SOL    HW223466   3.456   2.814   9.033  0.1114  1.0874  0.1400
 4002SOL     OW23467   2.337   1.618  10.045 -0.7104 -0.1781  0.5005
 4002SOL    HW123468   2.382   1.702  10.049  1.7515 -1.4921  0.4811
 4002SOL    HW223469   2.275   1.641   9.977 -1.4302  1.8931  1.8631
 4003SOL     OW23470   4.142   1.972   6.904 -0.0990 -0.0654  0.2002
 4003SOL    HW123471   4.176   1.976   6.815 -3.4592  2.4085 -0.9736
 4003SOL    HW223472   4.049   1.985   6.888 -0.0279 -1.4691 -1.2662
 4004SOL     OW23473   3.046   3.474   4.051  0.2907 -0.1420  0.0381
 4004SOL    HW123474   2.965   3.447   4.093  0.6179  1.0109  1.3915
 4004SOL    HW223475   3.121   3.454   4.107  0.5367  1.0839  0.1621
 4005SOL     OW23476   3.709   3.368   6.857  0.4492 -0.1553 -1.0988
 4005SOL    HW123477   3.764   3.291   6.869  0.6957  0.0847 -0.6520
 4005SOL    HW223478   3.627   3.351   6.903 -0.0093 -0.3271 -1.9811
 4006SOL     OW23479   3.792   3.108   4.474 -0.1796  0.4142  0.0818
 4006SOL    HW123480   3.718   3.048   4.483 -1.2068  1.8119  1.1710
 4006SOL    HW223481   3.870   3.054   4.488 -0.6334 -0.6608 -1.6639
 4007SOL     OW23482   2.743   0.879   3.996  0.3618  0.4651 -0.0899
 4007SOL    HW123483   2.724   0.955   3.940  0.3126  0.2050 -0.4267
 4007SOL    HW223484   2.696   0.897   4.078  0.3449  0.0836 -0.0166
 4008SOL     OW23485   0.249   1.925   9.292 -0.8791 -0.0548  0.3556
 4008SOL    HW123486   0.342   1.912   9.274 -0.8477 -0.2818  0.6796
 4008SOL    HW223487   0.230   1.837   9.325  1.1337 -0.8539 -0.6151
 4009SOL     OW23488   2.252   4.180   8.045  0.0493  0.2291 -0.5436
 4009SOL    HW123489   2.228   4.135   8.126  1.4743 -0.8303 -0.6942
 4009SOL    HW223490   2.168   4.174   8.000  0.7669  1.0851 -1.9858
 4010SOL     OW23491   3.208   4.341   5.216  0.5814 -0.2102  0.0802
 4010SOL    HW123492   3.169   4.294   5.289 -0.4913 -1.1963 -1.1108
 4010SOL    HW223493   3.185   4.280   5.145 -0.7334 -2.1167  2.1678
 4011SOL     OW23494   2.855   2.952   9.247  0.2586  0.3501  0.1438
 4011SOL    HW123495   2.788   2.964   9.179  1.3650 -2.8632 -1.5281
 4011SOL    HW223496   2.876   3.037   9.285 -1.2180  0.4001  0.8398
 4012SOL     OW23497   4.196   2.723   0.278  0.1668  0.3788  0.0029
 4012SOL    HW123498   4.112   2.738   0.322  0.5097 -0.3024  0.8869
 4012SOL    HW223499   4.179   2.747   0.187 -3.6938 -1.0111  0.3586
 4013SOL     OW23500   2.799   1.130   8.165 -0.1904  0.0406 -0.3401
 4013SOL    HW123501   2.865   1.191   8.197 -0.6797  0.3023  0.1781
 4013SOL    HW223502   2.840   1.045   8.179  0.7811  0.2492 -1.8996
 4014SOL     OW23503   2.618   4.602   1.505  1.1282 -0.3442 -0.6634
 4014SOL    HW123504   2.617   4.513   1.470 -1.2572 -1.2976  1.8167
 4014SOL    HW223505   2.602   4.586   1.598 -0.5279 -2.5754 -1.3137
 4015SOL     OW23506   3.669   1.515   8.311  0.0095  0.2265 -0.3280
 4015SOL    HW123507   3.749   1.508   8.364  1.1560 -0.1769 -2.1106
 4015SOL    HW223508   3.620   1.581   8.361  1.2301  0.7611  0.1617
 4016SOL     OW23509   2.309   1.763  14.540  0.4638  0.0273 -0.2059
 4016SOL    HW123510   2.254   1.807  14.475 -0.2582 -1.4967 -0.6284
 4016SOL    HW223511   2.348   1.828  14.598 -0.4055  0.2223  0.1703
 4017SOL     OW23512   0.873   2.635   0.943  0.0042 -0.0905 -0.0087
 4017SOL    HW123513   0.922   2.590   1.011 -0.0412 -1.2270 -0.7283
 4017SOL    HW223514   0.911   2.598   0.863  1.0635 -0.0049  0.4588
 4018SOL     OW23515   4.351   1.828   3.809 -0.0797 -0.0206  0.5258
 4018SOL    HW123516   4.390   1.809   3.894  0.4224  1.8922  0.7000
 4018SOL    HW223517   4.388   1.752   3.762  0.4415 -0.3366  1.4420
 4019SOL     OW23518   0.249   3.112   6.110 -0.3355  1.1411 -0.9117
 4019SOL    HW123519   0.159   3.136   6.129 -0.4707  0.4685 -0.7243
 4019SOL    HW223520   0.289   3.199   6.101 -0.2821  1.2362  0.3504
 4020SOL     OW23521   4.395   0.373   4.786  0.2165 -0.1021  0.1183
 4020SOL    HW123522   4.486   0.403   4.790  1.1331 -2.5755 -1.4246
 4020SOL    HW223523   4.368   0.409   4.702 -0.2670 -0.9175 -0.0722
 4021SOL     OW23524   0.985   3.621   0.911 -0.2980 -0.8304 -0.3494
 4021SOL    HW123525   0.909   3.606   0.968 -1.4463  0.6994 -1.4750
 4021SOL    HW223526   1.046   3.556   0.944 -0.2245 -0.1297  0.9003
 4022SOL     OW23527   3.436   0.420  11.739  0.0120 -0.2811 -0.4098
 4022SOL    HW123528   3.452   0.501  11.788  0.2303 -1.0823  0.8399
 4022SOL    HW223529   3.345   0.422  11.712 -0.2149  1.6452  0.4540
 4023SOL     OW23530   2.627   2.897  13.801 -0.2356 -0.5138 -0.1023
 4023SOL    HW123531   2.712   2.936  13.780 -1.4833  1.0509 -2.1732
 4023SOL    HW223532   2.579   2.979  13.804  0.0483 -0.4356  2.2956
 4024SOL     OW23533   4.580   2.682   3.922  0.4337 -0.2197  0.1698
 4024SOL    HW123534   4.648   2.620   3.895  1.6234  0.3972  1.7368
 4024SOL    HW223535   4.632   2.759   3.944 -1.2984  1.3461 -1.1608
 4025SOL     OW23536   0.509   3.920   1.601  0.0315  0.7994  0.0746
 4025SOL    HW123537   0.496   3.936   1.508  1.0690  1.9363  0.1355
 4025SOL    HW223538   0.585   3.968   1.634  0.4169  0.7780 -0.8005
 4026SOL     OW23539   0.560   2.555  13.367 -0.3772 -0.2440  0.6706
 4026SOL    HW123540   0.467   2.572  13.355 -0.1009  1.1349  0.4723
 4026SOL    HW223541   0.571   2.460  13.372 -0.4438 -0.2682  0.3375
 4027SOL     OW23542   1.453   3.625  11.654  0.6997 -0.5035 -1.0966
 4027SOL    HW123543   1.457   3.529  11.656 -0.8995 -0.5397  0.4030
 4027SOL    HW223544   1.464   3.639  11.560 -0.0629 -2.4880 -1.4853
 4028SOL     OW23545   3.771   0.712   2.496  0.1479 -0.0671  0.3344
 4028SOL    HW123546   3.731   0.790   2.534  0.4223  0.3106 -0.1512
 4028SOL    HW223547   3.738   0.641   2.550  1.9790  0.1450  1.7258
 4029SOL     OW23548   3.214   1.084  14.180 -0.0068 -0.6144 -0.2387
 4029SOL    HW123549   3.122   1.108  14.164 -0.1416 -0.6207  0.5154
 4029SOL    HW223550   3.222   1.118  14.269 -0.2598  0.4985 -0.6302
 4030SOL     OW23551   0.700   2.102  15.348  0.1322  0.3738 -0.0342
 4030SOL    HW123552   0.686   2.197  15.346  0.0243  0.3799  0.7762
 4030SOL    HW223553   0.730   2.084  15.259 -1.1435  1.5396 -0.7044
 4031SOL     OW23554   3.800   0.302  16.422 -0.4814 -0.2422  0.0227
 4031SOL    HW123555   3.844   0.275  16.342 -2.0750 -0.8924 -0.6299
 4031SOL    HW223556   3.858   0.259  16.485 -2.6922  1.0293  2.9236
 4032SOL     OW23557   2.842   3.551  13.938 -0.1138 -0.1313  0.1549
 4032SOL    HW123558   2.859   3.556  14.032  0.0377 -0.5099  0.1473
 4032SOL    HW223559   2.756   3.593  13.942  0.3179  0.7518  0.1120
 4033SOL     OW23560   1.009   4.376   2.574  0.1874  0.6829  0.0561
 4033SOL    HW123561   1.087   4.417   2.612  1.6737 -3.9792  2.0933
 4033SOL    HW223562   0.937   4.436   2.592  1.7334  2.2827  0.9278
 4034SOL     OW23563   0.312   1.120   2.904 -0.4311 -0.2557  0.1213
 4034SOL    HW123564   0.310   1.024   2.908  1.3687 -0.2724  0.5856
 4034SOL    HW223565   0.251   1.138   2.833  1.9009 -0.9909 -2.0797
 4035SOL     OW23566   3.051   2.591  13.055 -0.1611 -0.1195 -0.1223
 4035SOL    HW123567   3.132   2.574  13.103 -1.4201  0.7823  2.3126
 4035SOL    HW223568   3.068   2.670  13.003  2.1424 -0.6981 -0.2676
 4036SOL     OW23569   2.925   2.744   4.136  0.1038  0.6474 -0.2390
 4036SOL    HW123570   2.889   2.830   4.156  1.9637  1.4253 -0.2760
 4036SOL    HW223571   2.999   2.770   4.082  0.7799  0.5631  0.6503
 4037SOL     OW23572   3.522   4.153   7.590  0.4529  0.4404  0.1927
 4037SOL    HW123573   3.566   4.117   7.666 -0.1487  0.1287  0.3981
 4037SOL    HW223574   3.524   4.076   7.533  0.5587  0.2432  0.4645
 4038SOL     OW23575   4.613   1.406   9.458  0.0535  0.5525  0.4803
 4038SOL    HW123576   4.708   1.402   9.474  0.0165  1.6356  1.0206
 4038SOL    HW223577   4.589   1.352   9.534  0.4925  0.1777  0.3521
 4039SOL     OW23578   0.490   3.516   3.299  0.3701  0.5011 -0.2144
 4039SOL    HW123579   0.487   3.586   3.234 -1.8586 -0.0088 -0.6360
 4039SOL    HW223580   0.464   3.563   3.378  0.1978 -0.4483  0.2874
 4040SOL     OW23581   4.719   0.199   2.274 -0.5411  0.1056  0.3364
 4040SOL    HW123582   4.722   0.228   2.365 -1.9452 -0.4894  0.5616
 4040SOL    HW223583   4.705   0.283   2.230 -2.3737 -0.1490  0.4566
 4041SOL     OW23584   3.184   4.526   6.359 -0.2657  0.2792  0.2129
 4041SOL    HW123585   3.248   4.499   6.425 -0.0407 -0.9075 -0.4907
 4041SOL    HW223586   3.199   4.620   6.348 -0.4240  0.4998  1.8878
 4042SOL     OW23587   4.212   1.701  16.613  0.0131 -0.6974  0.5946
 4042SOL    HW123588   4.273   1.627  16.612 -0.4795 -1.1182  2.1123
 4042SOL    HW223589   4.241   1.743  16.694  0.0699 -1.6836  1.0887
 4043SOL     OW23590   3.705   3.091   0.844  0.3594 -0.1099  0.1211
 4043SOL    HW123591   3.777   3.037   0.812 -0.4058 -1.8247  1.2428
 4043SOL    HW223592   3.630   3.074   0.787 -0.0391 -3.0423  1.5312
 4044SOL     OW23593   0.424   3.451   0.159  0.1998 -0.7062  0.1293
 4044SOL    HW123594   0.377   3.490   0.233  0.2132  0.5867 -0.5460
 4044SOL    HW223595   0.384   3.511   0.097 -0.3246 -1.4430 -0.2510
 4045SOL     OW23596   3.214   3.900   4.831 -0.0972  0.1353 -0.3870
 4045SOL    HW123597   3.200   3.985   4.789 -0.5223  0.6228  0.7365
 4045SOL    HW223598   3.142   3.849   4.794 -1.4681  1.5469  0.2916
 4046SOL     OW23599   0.433   1.189   2.654 -0.1963 -0.2551 -0.2161
 4046SOL    HW123600   0.450   1.113   2.709 -1.3008  0.5667  1.2654
 4046SOL    HW223601   0.467   1.168   2.567 -1.6040 -1.5184 -0.4583
 4047SOL     OW23602   0.151   3.370   8.014  0.0334  0.1031  0.0155
 4047SOL    HW123603   0.100   3.310   7.959  0.9168 -0.3019 -0.3656
 4047SOL    HW223604   0.211   3.305   8.051  0.2172  0.0174 -0.4341
 4048SOL     OW23605   2.775   0.050   2.805 -0.3630 -0.0821 -0.5225
 4048SOL    HW123606   2.703   0.018   2.860  1.1886 -1.2694  0.8301
 4048SOL    HW223607   2.725   0.082   2.729  2.1764 -0.7754 -2.4600
 4049SOL     OW23608   2.573   1.385   8.693 -0.3106  0.3610  0.2889
 4049SOL    HW123609   2.499   1.346   8.646 -2.5348  2.2308  2.2593
 4049SOL    HW223610   2.598   1.465   8.647 -0.3443  0.6851  0.8420
 4050SOL     OW23611   2.586   0.074  14.288  0.8556 -0.5370  0.0579
 4050SOL    HW123612   2.590   0.146  14.351 -0.1753 -1.8807  1.6694
 4050SOL    HW223613   2.585   0.001  14.350  4.0831  0.5021  1.3178
 4051SOL     OW23614   3.523   3.695   7.273  0.0616  0.7534 -0.0228
 4051SOL    HW123615   3.581   3.627   7.238  0.1060  1.1716 -0.7725
 4051SOL    HW223616   3.517   3.662   7.362  0.2967 -1.7802 -0.9257
 4052SOL     OW23617   1.033   3.736   4.328 -0.4100 -0.1548  0.0059
 4052SOL    HW123618   1.076   3.700   4.251 -0.4120  2.7025 -1.3208
 4052SOL    HW223619   1.043   3.827   4.300  1.3795 -0.4151 -0.2019
 4053SOL     OW23620   4.608   3.925   4.626  0.3158 -0.2580 -0.4830
 4053SOL    HW123621   4.517   3.949   4.643  1.1733  1.4630  1.5388
 4053SOL    HW223622   4.611   3.951   4.534  2.3262  3.2319  0.5832
 4054SOL     OW23623   2.358   0.540  17.498  0.3089 -0.3321  0.2087
 4054SOL    HW123624   2.279   0.552  17.550 -0.3210  0.5385 -0.9289
 4054SOL    HW223625   2.392   0.629  17.486 -3.0242  0.7447 -1.3190
 4055SOL     OW23626   4.577   0.175  13.717 -0.3179 -0.2269 -0.1522
 4055SOL    HW123627   4.500   0.142  13.671 -1.4694  1.5649  0.4942
 4055SOL    HW223628   4.547   0.214  13.799  0.2430  0.4046 -0.2492
 4056SOL     OW23629   3.002   2.616   3.594 -0.6621 -0.4190  0.4133
 4056SOL    HW123630   2.954   2.545   3.551  0.3431  0.5219 -2.2230
 4056SOL    HW223631   3.070   2.584   3.654 -1.6082 -0.9615  1.1918
 4057SOL     OW23632   3.183   1.775   4.861 -0.1767 -0.4643  0.7219
 4057SOL    HW123633   3.271   1.812   4.862 -0.6059  0.6346 -2.7768
 4057SOL    HW223634   3.121   1.841   4.831 -0.6993 -0.3486  2.0554
 4058SOL     OW23635   0.850   2.783  11.166 -0.3153  0.0239  0.0347
 4058SOL    HW123636   0.908   2.859  11.165  0.3345 -0.4600  0.9522
 4058SOL    HW223637   0.890   2.728  11.098  3.2695  1.5444  0.9186
 4059SOL     OW23638   4.473   3.812   1.792 -0.1775  0.1632 -0.3622
 4059SOL    HW123639   4.444   3.842   1.877 -1.2290 -0.8678 -0.3499
 4059SOL    HW223640   4.389   3.783   1.757 -0.5247  0.9004 -0.1246
 4060SOL     OW23641   3.612   3.972   4.845  0.0365 -0.3437  0.8302
 4060SOL    HW123642   3.572   4.019   4.772  0.4919 -2.2846 -0.6803
 4060SOL    HW223643   3.565   3.888   4.846 -0.3491 -0.1813 -2.3955
 4061SOL     OW23644   4.412   1.956   5.313  0.1351 -0.4630  0.1471
 4061SOL    HW123645   4.478   1.968   5.381 -2.5509  1.8999  2.3403
 4061SOL    HW223646   4.366   1.879   5.348 -0.1238  0.8054  2.6120
 4062SOL     OW23647   3.540   4.682   9.577  0.0166 -0.3411  0.1977
 4062SOL    HW123648   3.458   4.699   9.625 -0.2655  0.1937 -0.4679
 4062SOL    HW223649   3.506   4.662   9.490 -0.7843  0.6718  0.2764
 4063SOL     OW23650   3.486   4.281   5.004  0.0707  0.0098  0.3809
 4063SOL    HW123651   3.577   4.289   4.976 -0.3935  1.7947 -0.6447
 4063SOL    HW223652   3.470   4.374   5.019 -1.1527 -0.1773  0.1948
 4064SOL     OW23653   4.514   0.116   6.630  0.1963  0.4524  0.1575
 4064SOL    HW123654   4.562   0.171   6.693  2.2096 -1.2540  0.1450
 4064SOL    HW223655   4.585   0.106   6.566  1.1677 -1.2384  1.4799
 4065SOL     OW23656   4.467   1.501  13.275  0.4557 -0.0322 -0.3771
 4065SOL    HW123657   4.510   1.563  13.215 -0.7654  0.7776 -0.4216
 4065SOL    HW223658   4.399   1.457  13.224  0.1838  0.3754 -0.3680
 4066SOL     OW23659   2.096   2.530  13.605  0.5324  0.4770  0.7138
 4066SOL    HW123660   2.039   2.476  13.550 -0.1396  0.6286  1.2510
 4066SOL    HW223661   2.169   2.469  13.612  0.5281  0.4936  0.9101
 4067SOL     OW23662   3.425   4.226   2.752  0.1990 -0.2741 -0.2272
 4067SOL    HW123663   3.373   4.301   2.782 -1.2987 -0.9913 -1.0435
 4067SOL    HW223664   3.362   4.155   2.740 -0.9013  1.1975 -3.1796
 4068SOL     OW23665   4.457   3.855  17.369 -0.0424 -0.4563  0.3497
 4068SOL    HW123666   4.417   3.780  17.414 -0.9794 -0.3205 -0.2482
 4068SOL    HW223667   4.440   3.842  17.275 -0.5714 -0.5693  0.4598
 4069SOL     OW23668   3.752   2.387   2.328 -0.5717  0.0265 -0.2150
 4069SOL    HW123669   3.735   2.353   2.240 -0.5026 -0.7651  0.0819
 4069SOL    HW223670   3.847   2.375   2.333 -0.7211 -1.0027  0.0928
 4070SOL     OW23671   3.847   0.300   5.487 -0.0046  0.0994 -0.2627
 4070SOL    HW123672   3.787   0.243   5.533  2.2045 -1.8017  0.2585
 4070SOL    HW223673   3.794   0.300   5.407  0.4861  2.2157 -0.5986
 4071SOL     OW23674   2.019   1.463  14.459 -0.2547  0.3809 -0.1552
 4071SOL    HW123675   2.097   1.491  14.507 -0.5031 -0.7896  0.9292
 4071SOL    HW223676   1.993   1.544  14.414  2.5220  0.4850 -1.5488
 4072SOL     OW23677   2.439   1.745  15.243 -0.7524 -0.3694 -0.0066
 4072SOL    HW123678   2.438   1.841  15.243  0.5472 -0.3641 -3.0517
 4072SOL    HW223679   2.379   1.715  15.175 -1.0763  1.3822 -0.4981
 4073SOL     OW23680   0.885   3.218   6.479  0.4071  0.0896  0.4202
 4073SOL    HW123681   0.793   3.237   6.461  0.4876 -0.5717 -0.7125
 4073SOL    HW223682   0.885   3.191   6.571  1.4470 -0.0494  0.3880
 4074SOL     OW23683   2.269   1.960   4.826  0.1315  0.2272 -0.1356
 4074SOL    HW123684   2.241   1.979   4.737 -1.7856  3.3890  1.1370
 4074SOL    HW223685   2.239   2.045   4.857  0.9609  0.5235 -0.1349
 4075SOL     OW23686   1.605   4.051   4.256 -0.5514 -0.2301 -0.4371
 4075SOL    HW123687   1.698   4.029   4.256 -0.4314  0.2855 -2.2138
 4075SOL    HW223688   1.581   3.961   4.234  1.2297 -0.9963  0.7712
 4076SOL     OW23689   1.155   3.130   3.224 -0.0331 -0.0600 -0.0739
 4076SOL    HW123690   1.117   3.042   3.218 -0.5441  0.2021 -0.6761
 4076SOL    HW223691   1.201   3.132   3.307  3.0283 -1.3752 -1.7382
 4077SOL     OW23692   1.664   2.911  15.211 -0.1372  0.2232 -0.1941
 4077SOL    HW123693   1.610   2.832  15.208 -2.0697  1.5213  0.5934
 4077SOL    HW223694   1.605   2.976  15.172 -0.8151  0.1919  0.7642
 4078SOL     OW23695   1.452   3.764   7.436  0.5765 -0.1466 -0.1249
 4078SOL    HW123696   1.422   3.673   7.425 -1.3816  1.2658 -6.1503
 4078SOL    HW223697   1.461   3.768   7.532  2.2525  0.5109 -0.3106
 4079SOL     OW23698   1.379   2.459   4.303 -0.0639 -0.0027 -0.3173
 4079SOL    HW123699   1.387   2.518   4.227 -2.5483  0.1984 -0.3983
 4079SOL    HW223700   1.442   2.509   4.355 -0.3425  0.9350 -0.8714
 4080SOL     OW23701   2.775   3.242   1.982  0.5546  0.4289  0.2233
 4080SOL    HW123702   2.791   3.316   2.041  2.9253 -0.9617  1.2996
 4080SOL    HW223703   2.859   3.218   1.943 -0.5011  0.1742 -1.8673
 4081SOL     OW23704   2.676   0.126   3.253 -0.0884 -0.4278 -0.0926
 4081SOL    HW123705   2.746   0.166   3.202 -0.5892 -0.7417 -1.0218
 4081SOL    HW223706   2.601   0.131   3.194 -0.6815 -1.1659  0.5889
 4082SOL     OW23707   4.554   4.042   3.454 -0.4878  0.1776  0.2611
 4082SOL    HW123708   4.601   4.122   3.475 -0.5786  0.1182  0.6901
 4082SOL    HW223709   4.601   3.994   3.523 -0.8008  0.0611  0.3914
 4083SOL     OW23710   0.437   2.027   6.059  0.2600 -0.4681 -0.0740
 4083SOL    HW123711   0.493   1.976   6.000 -1.1190 -1.1248 -0.8229
 4083SOL    HW223712   0.492   2.035   6.136  2.2516  1.0510 -1.6463
 4084SOL     OW23713   4.278   0.613   0.439  0.3541 -0.2126  0.6501
 4084SOL    HW123714   4.253   0.560   0.364 -1.2791  0.3567  0.7891
 4084SOL    HW223715   4.327   0.685   0.398 -0.0387 -0.7049 -0.6633
 4085SOL     OW23716   2.732   4.206   9.814  0.2110  0.0750 -0.7831
 4085SOL    HW123717   2.754   4.298   9.800 -0.5894  0.7221  2.2583
 4085SOL    HW223718   2.642   4.200   9.780 -0.5719  0.0734  1.2835
 4086SOL     OW23719   3.730   4.184  16.284 -0.2060 -0.4063  0.2972
 4086SOL    HW123720   3.721   4.089  16.291 -1.6125 -0.1866  1.6752
 4086SOL    HW223721   3.706   4.193  16.192  1.7717 -1.6423 -0.3221
 4087SOL     OW23722   0.169   4.192  14.269 -0.4757  0.4680  0.3250
 4087SOL    HW123723   0.153   4.236  14.353 -0.0982  0.0689  0.6092
 4087SOL    HW223724   0.086   4.148  14.253  0.0534  0.3967 -2.1178
 4088SOL     OW23725   2.233   3.390   3.373  0.6786 -0.7526  0.5477
 4088SOL    HW123726   2.275   3.471   3.344 -1.0330 -0.6508 -1.6169
 4088SOL    HW223727   2.168   3.373   3.305  0.1043 -4.1534  1.9379
 4089SOL     OW23728   1.910   4.556   7.028 -0.1914  0.4131  0.6062
 4089SOL    HW123729   1.872   4.493   6.966 -1.7837 -0.4029  2.4151
 4089SOL    HW223730   1.853   4.632   7.015  0.2308  0.6556  0.1341
 4090SOL     OW23731   0.334   2.965  12.641  0.6906  0.1916  0.1607
 4090SOL    HW123732   0.419   3.002  12.617 -0.7725  2.3415 -1.8196
 4090SOL    HW223733   0.308   2.918  12.562  1.3531 -0.3931  0.2952
 4091SOL     OW23734   0.286   1.762   4.982  0.3743 -0.4870 -0.0601
 4091SOL    HW123735   0.343   1.832   4.950  0.9175 -0.8892  0.0314
 4091SOL    HW223736   0.198   1.789   4.953  0.7017  1.4612  0.7503
 4092SOL     OW23737   2.312   1.784   8.190  0.1605  0.0008 -0.3107
 4092SOL    HW123738   2.372   1.858   8.182 -0.2927  0.3647 -0.3022
 4092SOL    HW223739   2.249   1.799   8.120 -2.1330  1.1837  2.0080
 4093SOL     OW23740   1.275   1.648  16.005  0.1250 -0.0567  0.6437
 4093SOL    HW123741   1.261   1.651  15.910  1.9468 -0.1121  0.3703
 4093SOL    HW223742   1.237   1.731  16.032 -0.7860 -0.2958  0.0788
 4094SOL     OW23743   0.050   3.048  15.303 -0.0180  0.0457 -0.3227
 4094SOL    HW123744   0.102   3.106  15.247 -0.3934  2.5076  1.9150
 4094SOL    HW223745   0.106   3.058  15.380 -0.5041  1.2097 -0.1343
 4095SOL     OW23746   4.014   4.543  12.606  0.3109 -0.2896 -0.2431
 4095SOL    HW123747   3.996   4.620  12.552 -1.2926 -0.0055  0.6920
 4095SOL    HW223748   4.065   4.484  12.550  0.1890 -2.7435  2.2031
 4096SOL     OW23749   4.438   0.836  17.057  0.3990  0.6645 -0.3670
 4096SOL    HW123750   4.433   0.796  17.144 -0.3963  0.7876 -0.3498
 4096SOL    HW223751   4.398   0.766  17.006 -1.0868  1.0591  0.2326
 4097SOL     OW23752   2.139   1.007   3.292  0.1032 -0.1754 -0.6060
 4097SOL    HW123753   2.126   1.015   3.197  0.8177  1.1482 -0.5955
 4097SOL    HW223754   2.234   0.995   3.299  0.2427  0.9755 -0.5564
 4098SOL     OW23755   3.130   4.260  17.506  0.3585  0.3456  0.3348
 4098SOL    HW123756   3.173   4.231  17.426 -2.8239 -0.7026 -0.9500
 4098SOL    HW223757   3.101   4.348  17.482 -2.5565 -0.1862  1.9694
 4099SOL     OW23758   1.308   3.895  10.945  0.0587 -0.1448 -0.0477
 4099SOL    HW123759   1.329   3.964  11.007 -2.6295  1.0075 -0.4572
 4099SOL    HW223760   1.384   3.837  10.932 -0.2172 -0.7359  0.9938
 4100SOL     OW23761   0.981   2.485   1.148  0.2135  0.3068  0.0058
 4100SOL    HW123762   0.948   2.404   1.187  0.0065  1.0445  1.3427
 4100SOL    HW223763   1.041   2.509   1.218  1.5354 -1.0568 -0.6793
 4101SOL     OW23764   1.825   1.993   2.054 -0.0641 -0.4327  0.0179
 4101SOL    HW123765   1.749   2.051   2.043 -0.6251 -0.9958  0.8762
 4101SOL    HW223766   1.863   1.995   1.967 -0.6499 -1.6747 -0.2710
 4102SOL     OW23767   3.340   3.112   4.364  0.0919  0.5014 -0.4091
 4102SOL    HW123768   3.388   3.069   4.434 -0.3161  1.0038  0.1880
 4102SOL    HW223769   3.254   3.112   4.406  0.0531  1.1812 -0.4891
 4103SOL     OW23770   4.406   3.428   6.273 -0.2315 -0.8050 -1.1434
 4103SOL    HW123771   4.435   3.441   6.363  1.0328 -1.3482 -1.4681
 4103SOL    HW223772   4.428   3.512   6.232  0.8826  0.7502  2.7223
 4104SOL     OW23773   2.931   1.488   7.747 -0.0868 -0.3135 -0.5995
 4104SOL    HW123774   2.902   1.491   7.839  0.7215 -1.9058 -0.2818
 4104SOL    HW223775   2.874   1.419   7.711  1.1419  0.1074 -3.3283
 4105SOL     OW23776   4.345   2.582   4.923  0.6857  0.0083 -0.3731
 4105SOL    HW123777   4.423   2.548   4.967 -1.5131 -1.6727  2.2258
 4105SOL    HW223778   4.297   2.503   4.901 -1.2017  1.2198 -0.6178
 4106SOL     OW23779   3.928   3.070  17.608 -0.1872 -0.0282  0.5350
 4106SOL    HW123780   3.838   3.041  17.596 -0.0276 -0.5234  0.5578
 4106SOL    HW223781   3.935   3.137  17.540  0.0652  0.0559  0.6398
 4107SOL     OW23782   2.651   3.318  14.257  0.5471 -0.0950  0.3695
 4107SOL    HW123783   2.677   3.401  14.297  0.5805  0.3950 -0.6779
 4107SOL    HW223784   2.692   3.263  14.324  0.3976 -0.0548  0.4959
 4108SOL     OW23785   3.099   2.041  11.537 -0.1001  0.1271  0.0341
 4108SOL    HW123786   3.157   1.967  11.518 -0.9575 -0.8935  1.4129
 4108SOL    HW223787   3.021   1.991  11.513  0.8073 -1.3136  0.0740
 4109SOL     OW23788   3.091   2.854   8.800 -0.7509  0.4772 -0.0163
 4109SOL    HW123789   3.118   2.944   8.818  2.3446 -0.5062  0.2958
 4109SOL    HW223790   3.138   2.798   8.862 -1.0151  1.0571  0.7032
 4110SOL     OW23791   3.718   0.354   4.695  0.1026 -0.2458  0.4327
 4110SOL    HW123792   3.683   0.438   4.665  1.7815  0.9300  1.8275
 4110SOL    HW223793   3.810   0.376   4.709 -0.4167  2.0717  0.1207
 4111SOL     OW23794   3.699   4.308   6.328  0.1873 -0.4531 -0.1224
 4111SOL    HW123795   3.722   4.400   6.341 -0.5081 -0.4880  1.4738
 4111SOL    HW223796   3.629   4.289   6.391  1.5726 -0.8435  1.3016
 4112SOL     OW23797   4.361   0.325   7.333 -0.2925  0.0379  0.1086
 4112SOL    HW123798   4.455   0.345   7.339 -0.4079  0.3535  0.7692
 4112SOL    HW223799   4.331   0.403   7.286  2.1640 -0.5438 -2.4512
 4113SOL     OW23800   2.323   2.386   8.193  0.2474  0.6429 -0.4468
 4113SOL    HW123801   2.315   2.323   8.121  1.5106  0.1006 -0.1167
 4113SOL    HW223802   2.233   2.413   8.207  0.2876  2.5468 -3.7472
 4114SOL     OW23803   3.393   0.932  14.042 -0.2230  0.2178  0.5538
 4114SOL    HW123804   3.358   0.845  14.060 -0.1813  0.0739 -0.0673
 4114SOL    HW223805   3.320   0.989  14.067  0.8811  1.5164  0.8723
 4115SOL     OW23806   1.132   4.538  13.075 -0.5674 -0.3227 -0.2143
 4115SOL    HW123807   1.179   4.466  13.116 -1.7216  0.2820  2.1795
 4115SOL    HW223808   1.196   4.547  13.004 -2.5683  1.2227 -1.8461
 4116SOL     OW23809   2.365   0.340   8.734 -0.8171 -0.1071 -0.2381
 4116SOL    HW123810   2.340   0.392   8.811 -0.1618  0.1041 -0.1634
 4116SOL    HW223811   2.457   0.368   8.737 -0.4620 -1.3729  0.7073
 4117SOL     OW23812   2.462   4.276   1.602 -0.8149 -0.0929  0.2662
 4117SOL    HW123813   2.399   4.331   1.649 -1.5891 -1.8316  1.2740
 4117SOL    HW223814   2.543   4.309   1.640  0.8441  0.5107 -3.8256
 4118SOL     OW23815   1.017   1.857   7.441  0.5609 -0.0338  0.8336
 4118SOL    HW123816   0.927   1.849   7.472  0.5696  0.1257  0.9014
 4118SOL    HW223817   1.042   1.936   7.490 -0.3994 -0.3585  1.8375
 4119SOL     OW23818   3.956   1.227   7.478  0.0873  0.2063  0.6001
 4119SOL    HW123819   4.045   1.198   7.458  0.3989  2.1310 -0.7828
 4119SOL    HW223820   3.965   1.315   7.441  0.1640 -0.4785 -1.0027
 4120SOL     OW23821   4.164   2.497  10.542 -0.5735  0.5387 -0.3698
 4120SOL    HW123822   4.164   2.413  10.496 -1.3210 -0.9297  2.3245
 4120SOL    HW223823   4.254   2.506  10.575 -0.9049 -0.7402  0.9256
 4121SOL     OW23824   3.599   2.517   3.199  0.1419  0.2353 -0.0379
 4121SOL    HW123825   3.509   2.488   3.186 -0.2741  0.7359  1.7327
 4121SOL    HW223826   3.634   2.445   3.251 -0.8103 -0.7155 -0.7060
 4122SOL     OW23827   2.904   1.476   8.938 -0.3958 -0.0076 -0.2078
 4122SOL    HW123828   2.914   1.498   8.845 -0.7501  0.8694 -0.0361
 4122SOL    HW223829   2.828   1.418   8.927  0.9728 -1.6056 -1.2588
 4123SOL     OW23830   0.001   0.026   6.891  0.1553  0.2277 -0.2902
 4123SOL    HW123831   0.079   0.074   6.865  1.7133 -0.6407  2.7952
 4123SOL    HW223832   4.669   0.105   6.881  1.6982  0.9644 -2.5554
 4124SOL     OW23833   2.800   1.807   2.306  0.2506 -0.2796  0.5218
 4124SOL    HW123834   2.762   1.895   2.310 -0.9143 -0.6161 -3.3341
 4124SOL    HW223835   2.729   1.752   2.338 -0.8834  0.7276 -0.2759
 4125SOL     OW23836   1.726   4.526   1.053  0.2928  0.2557 -0.2488
 4125SOL    HW123837   1.746   4.563   0.967 -1.2841  0.7057 -0.4063
 4125SOL    HW223838   1.770   4.586   1.113 -1.1218 -0.2141  1.2660
 4126SOL     OW23839   4.121   1.444   9.874 -0.4280 -0.0857 -0.2341
 4126SOL    HW123840   4.188   1.472   9.936 -0.2869 -0.2721 -0.3046
 4126SOL    HW223841   4.110   1.525   9.823 -1.5181 -0.4482 -0.5838
 4127SOL     OW23842   1.804   2.523   2.954  0.4269  0.2856  0.2360
 4127SOL    HW123843   1.739   2.490   3.016 -0.2629  0.3600 -0.4447
 4127SOL    HW223844   1.882   2.496   3.003 -0.1345 -1.1506  0.3335
 4128SOL     OW23845   3.830   3.168   6.995  0.1362 -0.0911  0.2143
 4128SOL    HW123846   3.818   3.156   7.089 -0.9689 -0.0568  0.0715
 4128SOL    HW223847   3.893   3.100   6.971 -0.3199 -0.7981  1.0109
 4129SOL     OW23848   2.788   3.062  15.539  0.3351 -0.0252 -0.6644
 4129SOL    HW123849   2.714   3.121  15.530 -0.5801 -1.3593 -1.7551
 4129SOL    HW223850   2.849   3.106  15.599 -0.9396  0.7843  0.0539
 4130SOL     OW23851   3.455   2.958  15.045 -0.1052 -0.2964 -0.2681
 4130SOL    HW123852   3.533   2.904  15.058 -1.1426 -1.4546  1.1858
 4130SOL    HW223853   3.405   2.947  15.126  0.6455  1.1303  0.3914
 4131SOL     OW23854   4.548   4.180   8.904 -0.1012 -0.4154 -0.2586
 4131SOL    HW123855   4.524   4.145   8.990  1.1502 -0.5047  0.0564
 4131SOL    HW223856   4.468   4.227   8.879 -0.3138  0.8419  2.8054
 4132SOL     OW23857   1.920   1.886  10.085  0.1693 -0.3678  0.5150
 4132SOL    HW123858   1.887   1.799  10.108  1.6245 -0.5674  1.8571
 4132SOL    HW223859   2.001   1.859  10.042 -0.3661  0.3066 -0.9183
 4133SOL     OW23860   3.720   4.644   5.628  0.2211  0.1270 -0.3523
 4133SOL    HW123861   3.727   4.586   5.552  0.7012 -1.5048  0.9421
 4133SOL    HW223862   3.655   4.713   5.612 -0.9880 -1.3255 -1.6833
 4134SOL     OW23863   3.937   4.571   6.043 -0.0072  0.2764  0.0213
 4134SOL    HW123864   4.033   4.578   6.039  0.1752 -2.1631  0.0193
 4134SOL    HW223865   3.927   4.557   6.137 -1.5399 -0.3268 -0.2413
 4135SOL     OW23866   0.897   3.006   1.923 -0.2872 -0.0424 -0.4609
 4135SOL    HW123867   0.859   3.080   1.875  0.8799  0.6686 -0.2849
 4135SOL    HW223868   0.991   3.023   1.917 -0.3726  0.7389  0.2996
 4136SOL     OW23869   2.823   4.052   3.374 -0.8397 -0.1413 -0.1116
 4136SOL    HW123870   2.787   4.126   3.325 -0.4134  0.0900 -0.0823
 4136SOL    HW223871   2.745   4.006   3.405 -0.0349 -0.0093  2.1131
 4137SOL     OW23872   1.525   3.867   3.253 -0.2880  0.4504  0.0862
 4137SOL    HW123873   1.572   3.871   3.170  1.9714 -0.6774  1.3303
 4137SOL    HW223874   1.441   3.824   3.234  0.4580 -1.6909  1.6667
 4138SOL     OW23875   2.663   4.304   1.214  0.3321  0.1115  0.1345
 4138SOL    HW123876   2.604   4.339   1.149  0.9736 -0.5734 -0.8248
 4138SOL    HW223877   2.628   4.217   1.233 -0.0233  0.6951  2.1810
 4139SOL     OW23878   2.553   1.793   5.451  0.2292  0.1264 -0.1225
 4139SOL    HW123879   2.607   1.749   5.385 -2.7424 -1.8731 -1.1846
 4139SOL    HW223880   2.574   1.884   5.432  0.7324  0.3509  1.5278
 4140SOL     OW23881   0.480   0.896   2.664 -0.4846 -0.1442 -0.1307
 4140SOL    HW123882   0.569   0.869   2.643 -1.1533  0.2141 -3.3645
 4140SOL    HW223883   0.462   0.859   2.751 -0.0766  1.1452  0.5037
 4141SOL     OW23884   2.555   1.537   2.097 -0.3069  0.0047 -0.3204
 4141SOL    HW123885   2.511   1.592   2.162  1.8928  1.2378  0.1116
 4141SOL    HW223886   2.509   1.455   2.113 -0.9165  0.5301  0.6149
 4142SOL     OW23887   3.265   3.897  10.609 -0.4018 -0.2070 -0.1267
 4142SOL    HW123888   3.280   3.962  10.541 -0.1304 -1.5848 -1.3781
 4142SOL    HW223889   3.177   3.920  10.641  0.4163  0.2272  1.7855
 4143SOL     OW23890   3.115   1.654   3.420 -0.5541  0.2327 -0.3828
 4143SOL    HW123891   3.052   1.707   3.468 -0.0960 -0.1011  0.5837
 4143SOL    HW223892   3.125   1.586   3.487 -0.8271  0.2851 -0.2883
 4144SOL     OW23893   1.446   4.444   0.947  0.5102 -0.0669 -0.2364
 4144SOL    HW123894   1.539   4.438   0.928  0.3507 -2.2325 -0.2812
 4144SOL    HW223895   1.424   4.362   0.992  1.7918  0.2541  0.9758
 4145SOL     OW23896   2.703   2.170  16.315  0.2056 -0.2169  0.3525
 4145SOL    HW123897   2.760   2.180  16.239 -1.8670  1.1694 -1.0246
 4145SOL    HW223898   2.676   2.258  16.339  0.9612 -0.1667  0.9934
 4146SOL     OW23899   2.310   1.121   6.847  0.2098 -0.2493  0.4018
 4146SOL    HW123900   2.320   1.177   6.770  1.1681 -2.0611 -0.7880
 4146SOL    HW223901   2.227   1.083   6.818  0.3861 -0.2323 -0.1208
 4147SOL     OW23902   2.374   3.597   2.509 -0.2041 -0.1464 -0.1026
 4147SOL    HW123903   2.405   3.645   2.432 -1.6954 -0.0327 -0.6326
 4147SOL    HW223904   2.293   3.554   2.481 -0.2122  1.5538 -2.7278
 4148SOL     OW23905   1.398   4.362   5.574 -0.1334  0.7226  0.4971
 4148SOL    HW123906   1.343   4.406   5.509  0.0307 -0.3469 -0.3612
 4148SOL    HW223907   1.479   4.413   5.562 -0.4135  0.3199 -3.1280
 4149SOL     OW23908   1.463   0.654   2.854 -0.2246 -0.1138  0.3335
 4149SOL    HW123909   1.472   0.571   2.807 -0.0307 -0.4017  0.8818
 4149SOL    HW223910   1.549   0.652   2.895 -0.1815  1.6156  0.3338
 4150SOL     OW23911   2.710   2.058   2.295  0.1462 -0.3517  0.8368
 4150SOL    HW123912   2.770   2.089   2.363  0.1751  2.0684 -0.3067
 4150SOL    HW223913   2.630   2.074   2.345 -0.4946  2.3428 -1.0646
 4151SOL     OW23914   0.681   1.688   8.275 -0.0900 -0.0737 -0.4765
 4151SOL    HW123915   0.598   1.696   8.228  0.7309  0.3330 -1.8718
 4151SOL    HW223916   0.715   1.762   8.224  0.7201 -0.6525 -0.7755
 4152SOL     OW23917   1.990   0.601   7.767 -0.2818  0.0840  0.1623
 4152SOL    HW123918   1.930   0.626   7.837  1.1459  1.1083  1.0218
 4152SOL    HW223919   2.072   0.605   7.816 -0.4154 -3.4040  0.6623
 4153SOL     OW23920   0.066   4.564   7.228  0.1716  0.1403  0.9351
 4153SOL    HW123921   0.112   4.567   7.144 -3.5809 -0.1009 -1.1016
 4153SOL    HW223922   0.000   4.496   7.212  0.5792 -0.0102 -0.0784
 4154SOL     OW23923   2.435   1.221   3.057  0.1557 -0.2855 -0.0555
 4154SOL    HW123924   2.425   1.172   3.138 -2.8425 -0.6528 -0.6305
 4154SOL    HW223925   2.530   1.209   3.052  0.4987  2.8074 -1.0169
 4155SOL     OW23926   2.108   1.389   9.651  0.1735 -0.3327 -0.0129
 4155SOL    HW123927   2.191   1.390   9.698  0.6651 -0.4452 -0.8851
 4155SOL    HW223928   2.138   1.342   9.573  3.5358  0.9525  0.5352
 4156SOL     OW23929   4.580   1.788   8.675 -0.0983 -0.1290  0.3790
 4156SOL    HW123930   4.505   1.749   8.630 -1.1819  2.4681 -0.0388
 4156SOL    HW223931   4.537   1.809   8.758 -0.2044 -0.4349  0.4032
 4157SOL     OW23932   4.262   2.994   8.722 -0.0839 -0.2710  0.3402
 4157SOL    HW123933   4.339   2.979   8.776  0.6944 -0.2490 -0.7664
 4157SOL    HW223934   4.195   2.993   8.790  0.0532  1.7631  0.5113
 4158SOL     OW23935   3.456   3.440   9.019  0.2633 -0.2547 -0.1740
 4158SOL    HW123936   3.505   3.522   9.031 -1.0251  0.2102  1.8630
 4158SOL    HW223937   3.418   3.444   8.931  2.0691  1.5473 -0.8955
 4159SOL     OW23938   3.561   2.312   2.781  0.0977 -0.0894  0.1087
 4159SOL    HW123939   3.638   2.367   2.798  0.7337 -0.5535 -1.2583
 4159SOL    HW223940   3.537   2.343   2.694  1.7619  3.6103  0.9692
 4160SOL     OW23941   0.276   1.328  15.067 -0.4458 -0.4950 -0.1700
 4160SOL    HW123942   0.330   1.402  15.092  0.1386 -1.0268  0.1337
 4160SOL    HW223943   0.300   1.265  15.135  2.0512  0.0679 -0.5242
 4161SOL     OW23944   2.093   0.064   8.930 -1.1701 -0.1739 -0.2081
 4161SOL    HW123945   1.999   0.079   8.923 -1.2845 -0.7333  0.1576
 4161SOL    HW223946   2.111   0.078   9.023  1.4688 -0.1097 -0.7313
 4162SOL     OW23947   4.629   0.895   8.327 -0.1087  0.2596 -1.1949
 4162SOL    HW123948   4.652   0.973   8.276  0.8949  1.4378  1.0498
 4162SOL    HW223949   4.685   0.905   8.404 -1.1473  1.3040 -0.5598
 4163SOL     OW23950   2.737   1.228   8.852 -0.2744  0.6275  0.4307
 4163SOL    HW123951   2.761   1.150   8.801  0.8978  1.6369 -0.5283
 4163SOL    HW223952   2.670   1.264   8.794 -0.7733 -0.7704  0.1135
 4164SOL     OW23953   1.575   3.310   0.260 -0.4290 -0.8426 -0.1690
 4164SOL    HW123954   1.620   3.360   0.192 -1.8269 -0.3516 -0.7408
 4164SOL    HW223955   1.610   3.342   0.343  1.2119 -0.7059 -0.9223
 4165SOL     OW23956   4.349   3.898   7.842  0.2521 -0.1662 -0.3030
 4165SOL    HW123957   4.436   3.861   7.859 -0.5691 -0.5711  3.1235
 4165SOL    HW223958   4.371   3.987   7.872 -0.0765 -0.9061  2.1497
 4166SOL     OW23959   3.765   1.821   9.240 -0.1450 -0.3476  0.0940
 4166SOL    HW123960   3.681   1.817   9.285  0.3435 -0.5210  1.0165
 4166SOL    HW223961   3.753   1.891   9.177 -0.0990  0.9857  1.5618
 4167SOL     OW23962   1.127   2.797   5.958  0.1776  0.0530 -0.5887
 4167SOL    HW123963   1.032   2.806   5.960  0.2887  1.1974 -0.9814
 4167SOL    HW223964   1.160   2.880   5.926  0.6492 -0.6024 -1.7879
 4168SOL     OW23965   3.400   2.437   6.130 -0.1992  0.0171  0.5442
 4168SOL    HW123966   3.405   2.353   6.083  0.9781  0.5783 -0.3081
 4168SOL    HW223967   3.383   2.408   6.220  1.3998  1.4466  1.3087
 4169SOL     OW23968   1.663   0.750   4.897  0.1922  0.4698  0.5445
 4169SOL    HW123969   1.756   0.742   4.875  0.3687  1.0012  1.0806
 4169SOL    HW223970   1.667   0.727   4.990  0.3526 -0.7676  0.2224
 4170SOL     OW23971   2.736   0.708   7.370 -0.2430 -0.2741  0.0008
 4170SOL    HW123972   2.735   0.710   7.274  0.2564 -0.7373 -0.0147
 4170SOL    HW223973   2.830   0.693   7.382 -0.2605 -0.9837 -0.7324
 4171SOL     OW23974   4.559   3.179  11.098 -0.0331  0.6067  0.1264
 4171SOL    HW123975   4.643   3.144  11.070  0.1809  0.1873  1.2841
 4171SOL    HW223976   4.511   3.213  11.023  0.4907  0.0496 -0.4527
 4172SOL     OW23977   0.506   4.533  10.739  0.5571 -0.1833 -1.0611
 4172SOL    HW123978   0.460   4.459  10.778 -0.5035  0.4296 -1.1184
 4172SOL    HW223979   0.596   4.524  10.768  0.0348 -0.6278  0.3716
 4173SOL     OW23980   0.650   2.930  16.051  0.1565 -0.1287  0.1797
 4173SOL    HW123981   0.696   2.859  16.007 -0.7652 -0.4924 -0.1879
 4173SOL    HW223982   0.708   2.939  16.127  1.9097  2.3948 -1.4210
 4174SOL     OW23983   3.020   4.690  17.107 -0.2294 -0.2508  0.3626
 4174SOL    HW123984   2.926   4.709  17.108  0.2777  2.1182  0.6101
 4174SOL    HW223985   3.034   0.045  17.052 -0.3714 -1.0754 -0.8311
 4175SOL     OW23986   0.788   0.366  15.212  0.6374  0.0884 -0.1463
 4175SOL    HW123987   0.813   0.426  15.283 -1.4494  3.8301 -2.6001
 4175SOL    HW223988   0.808   0.416  15.133  0.8708 -0.0996 -0.2055
 4176SOL     OW23989   3.350   3.466   8.791 -0.3233 -0.3180 -0.2557
 4176SOL    HW123990   3.319   3.443   8.703 -1.5557 -1.2300  0.4144
 4176SOL    HW223991   3.300   3.548   8.797 -0.2982 -0.1992 -1.5738
 4177SOL     OW23992   1.062   3.355  11.714  0.8159  0.0359  0.0480
 4177SOL    HW123993   1.134   3.310  11.669 -0.0384 -1.2503 -0.0242
 4177SOL    HW223994   0.993   3.363  11.648  1.9809  0.3388 -1.1564
 4178SOL     OW23995   2.955   4.394   6.355  0.0950  0.1038  0.5348
 4178SOL    HW123996   2.963   4.326   6.422  1.0693 -1.4734 -1.1809
 4178SOL    HW223997   3.043   4.432   6.349  0.0074  0.4596  1.5095
 4179SOL     OW23998   0.715   4.313   4.095 -0.6762 -0.1162  0.3665
 4179SOL    HW123999   0.677   4.396   4.065  1.3291  1.1613  1.3569
 4179SOL    HW224000   0.662   4.295   4.173  0.6936 -1.7844  0.8909
 4180SOL     OW24001   2.365   3.596   4.251 -0.3188 -0.6427  0.0093
 4180SOL    HW124002   2.388   3.532   4.183 -2.0391 -1.3309  0.0772
 4180SOL    HW224003   2.270   3.596   4.241 -0.3317 -0.6409  0.1400
 4181SOL     OW24004   1.686   3.704  13.802  0.0124  0.0217  0.5490
 4181SOL    HW124005   1.603   3.751  13.797  0.1349  0.3962  2.0160
 4181SOL    HW224006   1.737   3.758  13.862  1.0444 -0.8398  0.4603
 4182SOL     OW24007   2.119   0.397  13.824  0.4494  0.1118  0.2306
 4182SOL    HW124008   2.028   0.371  13.808 -0.6319  1.7403  3.6487
 4182SOL    HW224009   2.166   0.317  13.802  0.8699  1.1310 -2.5543
 4183SOL     OW24010   1.084   1.340   3.868 -0.2725 -0.0244  0.1022
 4183SOL    HW124011   1.117   1.261   3.909 -0.5944 -0.6926 -0.9250
 4183SOL    HW224012   1.159   1.381   3.824 -0.9419  1.1135  0.0031
 4184SOL     OW24013   3.410   3.606  16.196 -0.3955 -0.2801  0.3818
 4184SOL    HW124014   3.413   3.660  16.275  1.4228 -2.9142  2.1412
 4184SOL    HW224015   3.316   3.599  16.179 -0.1350  1.3811 -1.6327
 4185SOL     OW24016   0.808   4.613  17.530 -0.1700  0.1660  0.6148
 4185SOL    HW124017   0.715   4.613  17.553 -0.7321  0.4383 -1.6496
 4185SOL    HW224018   0.841   4.689  17.579  0.1868  0.0941  0.4782
 4186SOL     OW24019   1.404   2.862   6.195 -0.2272 -0.3794 -0.0664
 4186SOL    HW124020   1.340   2.801   6.158  0.8020 -0.0352 -2.3878
 4186SOL    HW224021   1.478   2.822   6.150 -0.9754 -0.7468 -0.9821
 4187SOL     OW24022   0.492   1.529   6.891 -0.2310 -0.1779 -0.1052
 4187SOL    HW124023   0.512   1.596   6.956 -1.2939  1.0559 -1.0589
 4187SOL    HW224024   0.550   1.554   6.820 -1.3280  0.6973 -0.6926
 4188SOL     OW24025   2.046   0.442  16.113  0.7960 -0.2739 -0.6596
 4188SOL    HW124026   2.047   0.528  16.070  0.7378 -0.0991 -0.3115
 4188SOL    HW224027   2.076   0.482  16.194  0.5045 -0.5013 -0.4406
 4189SOL     OW24028   3.859   4.260   0.839 -0.4388  0.3557 -0.2247
 4189SOL    HW124029   3.830   4.196   0.905 -0.0199 -0.1073 -0.4857
 4189SOL    HW224030   3.784   4.320   0.834 -0.2319  0.7683  1.8226
 4190SOL     OW24031   0.992   1.361   8.723  0.0237  0.5300  0.1500
 4190SOL    HW124032   0.976   1.375   8.816  0.4488  1.8411  0.0131
 4190SOL    HW224033   1.086   1.375   8.721  0.2360 -1.0836 -1.3393
 4191SOL     OW24034   4.274   2.027   1.847  0.7622  0.1055  0.1765
 4191SOL    HW124035   4.271   2.047   1.940  1.8987 -1.0267  0.4609
 4191SOL    HW224036   4.263   1.932   1.841  0.7127  0.1419 -0.3062
 4192SOL     OW24037   1.754   4.552  11.729  0.0697 -0.0768 -0.5332
 4192SOL    HW124038   1.823   4.503  11.684 -0.9104 -0.5686 -1.5313
 4192SOL    HW224039   1.748   4.508  11.813  1.6428  1.3482  0.3264
 4193SOL     OW24040   3.804   2.158   2.690 -0.4491 -0.5895 -0.0792
 4193SOL    HW124041   3.850   2.107   2.756 -1.8236 -0.6672  0.8237
 4193SOL    HW224042   3.798   2.243   2.735  0.5211  0.9439 -2.8508
 4194SOL     OW24043   1.711   1.580   8.246  0.0390 -0.2939 -0.0396
 4194SOL    HW124044   1.795   1.624   8.261  1.0117 -2.8758  2.2301
 4194SOL    HW224045   1.748   1.510   8.192 -0.0439  0.1043 -0.6052
 4195SOL     OW24046   2.957   3.848  14.215  0.3960 -0.6422  0.3205
 4195SOL    HW124047   2.903   3.841  14.294 -0.5260  0.3556 -0.2280
 4195SOL    HW224048   2.910   3.917  14.167  0.4653 -0.2507  0.8174
 4196SOL     OW24049   0.412   0.481  10.440 -0.6867  0.2195  0.5223
 4196SOL    HW124050   0.419   0.539  10.364 -2.3233  0.6992  0.7385
 4196SOL    HW224051   0.483   0.422  10.415 -2.2417 -0.1680 -2.9907
 4197SOL     OW24052   4.649   4.364   7.008  0.3030 -0.2631  0.3379
 4197SOL    HW124053   4.571   4.355   7.061 -0.0527  1.0582  0.0313
 4197SOL    HW224054   4.701   4.290   7.040  1.0445  0.4475  0.7902
 4198SOL     OW24055   3.630   3.984  16.494 -0.1978 -0.2578  0.4579
 4198SOL    HW124056   3.718   4.000  16.527  0.7697 -1.2231 -1.6543
 4198SOL    HW224057   3.603   3.929  16.568 -3.0926 -0.7531 -0.9631
 4199SOL     OW24058   1.498   2.248   1.605  0.4750  0.3715  0.2256
 4199SOL    HW124059   1.529   2.295   1.528  0.3677  1.7909  1.0647
 4199SOL    HW224060   1.561   2.176   1.615  0.9673  0.5861 -1.3595
 4200SOL     OW24061   3.003   4.004  10.611 -0.4386 -0.1219 -0.1872
 4200SOL    HW124062   2.992   3.982  10.518  1.9866 -2.4854  0.0835
 4200SOL    HW224063   2.991   4.099  10.608 -0.4489 -0.1422 -0.7727
 4201SOL     OW24064   0.099   1.312   6.524 -0.3123 -0.4364  0.0915
 4201SOL    HW124065   0.018   1.362   6.532  0.8357  1.1485  1.7427
 4201SOL    HW224066   0.156   1.353   6.589 -2.3401 -0.7319  2.0486
 4202SOL     OW24067   1.573   2.832   2.730 -0.6923  0.7227 -0.4182
 4202SOL    HW124068   1.607   2.759   2.678  2.6323  0.9280  1.5093
 4202SOL    HW224069   1.548   2.784   2.810 -1.5429  2.1520  0.1696
 4203SOL     OW24070   4.670   4.335  14.117 -0.2640 -0.2275 -0.0327
 4203SOL    HW124071   4.677   4.275  14.191  1.5036  2.4409  1.9724
 4203SOL    HW224072   0.003   4.281  14.060 -0.0011  3.3786 -3.2271
 4204SOL     OW24073   3.637   1.281   9.427 -0.0670  0.7679 -0.0365
 4204SOL    HW124074   3.608   1.203   9.379 -0.2867  0.0574  1.2442
 4204SOL    HW224075   3.695   1.242   9.492  1.1632  0.1147 -1.5398
 4205SOL     OW24076   3.469   3.401   4.422 -0.1656  0.0349  0.3427
 4205SOL    HW124077   3.457   3.311   4.392 -0.8578  0.4654 -0.6551
 4205SOL    HW224078   3.513   3.442   4.347 -0.2485  1.2318  0.9551
 4206SOL     OW24079   3.676   3.222  15.624  0.2994 -0.0947 -0.3257
 4206SOL    HW124080   3.695   3.135  15.590 -1.3370  0.0531 -1.5927
 4206SOL    HW224081   3.762   3.263  15.623 -0.3179  1.2250  0.3850
 4207SOL     OW24082   3.849   3.591   5.897  0.7045 -0.1533  0.2712
 4207SOL    HW124083   3.790   3.630   5.833  1.4205 -0.5839 -0.6708
 4207SOL    HW224084   3.930   3.641   5.890  0.5421 -0.2761 -2.3492
 4208SOL     OW24085   1.674   0.878  14.794  0.1739 -0.6752 -0.2815
 4208SOL    HW124086   1.652   0.924  14.713 -2.5545  0.6388  1.2066
 4208SOL    HW224087   1.589   0.849  14.825  0.7129 -0.9895  0.9036
 4209SOL     OW24088   2.429   1.530   6.666  0.3361 -0.1720  0.0842
 4209SOL    HW124089   2.365   1.585   6.711 -0.7728 -0.1270 -1.5329
 4209SOL    HW224090   2.495   1.522   6.735 -0.2688 -0.1904  0.6556
 4210SOL     OW24091   4.486   4.461   2.823 -0.4216  0.2299  0.2329
 4210SOL    HW124092   4.463   4.369   2.835  0.4079 -0.0091 -0.0215
 4210SOL    HW224093   4.446   4.467   2.736  2.5580 -0.2952 -1.1692
 4211SOL     OW24094   2.273   1.331   2.863 -0.0095  0.1991 -0.2654
 4211SOL    HW124095   2.339   1.315   2.795  0.2124 -1.6090  0.3872
 4211SOL    HW224096   2.327   1.287   2.928  0.4907  2.1529  0.6544
 4212SOL     OW24097   1.703   1.237  17.063  0.1056 -0.8212  0.5517
 4212SOL    HW124098   1.695   1.274  16.974 -1.5147 -0.6983  0.7618
 4212SOL    HW224099   1.798   1.229  17.070  0.2391 -0.3699 -0.6843
 4213SOL     OW24100   3.589   0.699   8.246 -0.3281 -0.7127  0.0130
 4213SOL    HW124101   3.622   0.777   8.290  0.5504 -1.8214  1.3202
 4213SOL    HW224102   3.535   0.666   8.317 -1.6179  1.3263 -0.0307
 4214SOL     OW24103   2.883   4.160   1.690  0.0734 -0.2558  0.1642
 4214SOL    HW124104   2.963   4.178   1.739 -1.6384 -0.4642  3.0044
 4214SOL    HW224105   2.885   4.226   1.621 -3.1684  0.8964  1.1546
 4215SOL     OW24106   1.739   3.882   5.927 -0.5878  0.4345 -0.1317
 4215SOL    HW124107   1.776   3.795   5.944 -3.6144 -0.6198  1.0846
 4215SOL    HW224108   1.688   3.888   6.008  1.2966 -0.2474  1.1066
 4216SOL     OW24109   0.884   1.174   8.184 -0.0754  0.0150  0.3458
 4216SOL    HW124110   0.792   1.176   8.157 -0.2153  0.4159  0.8358
 4216SOL    HW224111   0.910   1.262   8.211  0.5939 -0.6031  1.7589
 4217SOL     OW24112   3.196   3.328   3.263 -0.5305  0.0722  0.3566
 4217SOL    HW124113   3.197   3.270   3.339  0.6940  0.9656  1.0116
 4217SOL    HW224114   3.139   3.275   3.207 -0.1238 -0.0325  0.0405
 4218SOL     OW24115   0.599   1.968  16.808  0.1756  0.3089  0.1094
 4218SOL    HW124116   0.649   1.896  16.768 -0.1885  0.8047 -1.2480
 4218SOL    HW224117   0.527   1.915  16.843 -1.5782  0.4269 -3.2205
 4219SOL     OW24118   3.642   0.508  16.517  0.4624  0.4030  0.1295
 4219SOL    HW124119   3.704   0.498  16.590  0.1745 -0.0227  0.3166
 4219SOL    HW224120   3.681   0.428  16.481  2.1343  0.2935  2.0926
 4220SOL     OW24121   3.363   3.885   2.952 -0.0538  0.5498  0.1984
 4220SOL    HW124122   3.369   3.793   2.977  2.9123  1.1271  1.6727
 4220SOL    HW224123   3.441   3.930   2.986 -0.0543  0.4310  0.3552
 4221SOL     OW24124   0.723   1.962   7.285  0.3793 -0.6082  0.3096
 4221SOL    HW124125   0.690   2.051   7.296  1.6438 -0.0040 -0.7738
 4221SOL    HW224126   0.793   1.968   7.350  0.8009  1.2462 -0.3254
 4222SOL     OW24127   1.132   4.598   4.197 -0.2072  0.6466  0.1152
 4222SOL    HW124128   1.115   4.532   4.130  0.1862 -0.0668  0.7160
 4222SOL    HW224129   1.109   4.548   4.275  0.0786  0.4831  0.0951
 4223SOL     OW24130   3.473   3.014  10.047 -0.2519  0.0643 -0.9723
 4223SOL    HW124131   3.519   2.938  10.080  2.0964  0.7797 -2.6217
 4223SOL    HW224132   3.459   3.062  10.129  1.2721  0.2534 -0.8309
 4224SOL     OW24133   0.080   1.808   5.321 -0.1106  0.8701  0.2978
 4224SOL    HW124134   0.103   1.746   5.252  1.2679 -0.0447  1.5908
 4224SOL    HW224135   0.035   1.749   5.381 -2.0220  1.1092 -0.9180
 4225SOL     OW24136   4.193   0.736  17.654 -0.0743  0.5542  0.5143
 4225SOL    HW124137   4.146   0.662  17.616 -0.0674  0.2101  1.1623
 4225SOL    HW224138   4.279   0.713  17.620 -0.8222 -0.5085 -0.6572
 4226SOL     OW24139   2.454   4.299   7.055  0.1091 -0.2440 -0.0371
 4226SOL    HW124140   2.377   4.352   7.074 -1.4285 -2.2047 -0.7543
 4226SOL    HW224141   2.416   4.222   7.013 -2.1161  1.2100 -0.6869
 4227SOL     OW24142   0.723   2.242   1.409 -0.1456 -0.2702  0.2208
 4227SOL    HW124143   0.702   2.230   1.316  0.7572 -2.3627  0.3058
 4227SOL    HW224144   0.656   2.190   1.454 -0.0194  0.3143  1.0908
 4228SOL     OW24145   4.173   1.594  15.616 -0.9516  0.4660  0.1370
 4228SOL    HW124146   4.078   1.597  15.606 -0.9923 -0.7743  0.2268
 4228SOL    HW224147   4.187   1.687  15.637  0.3704  0.4299 -0.6278
 4229SOL     OW24148   2.517   3.787  17.238  0.1160 -0.2373  0.5294
 4229SOL    HW124149   2.535   3.881  17.244 -0.7281 -0.0499  0.1914
 4229SOL    HW224150   2.535   3.763  17.329  0.0985 -2.0422  0.0572
 4230SOL     OW24151   0.382   4.224   7.390  0.3834  0.5359  0.0877
 4230SOL    HW124152   0.348   4.282   7.322  0.1634 -1.3940 -1.4273
 4230SOL    HW224153   0.372   4.139   7.348  1.6598  0.4438 -0.0488
 4231SOL     OW24154   3.420   1.185   3.801  0.2717 -0.0186  0.3650
 4231SOL    HW124155   3.391   1.209   3.712  2.1081 -0.2113 -0.2878
 4231SOL    HW224156   3.343   1.200   3.856  1.1957 -0.8512  1.8693
 4232SOL     OW24157   1.130   0.529   6.277 -0.3015  0.6247  0.3863
 4232SOL    HW124158   1.193   0.573   6.334  1.4226 -2.2442  0.6630
 4232SOL    HW224159   1.056   0.583   6.305 -0.1511  0.5001  1.0070
 4233SOL     OW24160   0.899   3.032   2.375  0.2887  0.0499 -0.5459
 4233SOL    HW124161   0.974   2.999   2.424 -0.1652 -3.2309 -2.0625
 4233SOL    HW224162   0.899   3.121   2.410  3.7345  0.1830 -0.8878
 4234SOL     OW24163   1.645   4.584   7.841 -0.4220 -0.4028 -0.1455
 4234SOL    HW124164   1.679   4.666   7.806  0.8885 -1.5668 -1.6032
 4234SOL    HW224165   1.555   4.615   7.830 -0.6192 -1.1525 -0.6631
 4235SOL     OW24166   2.359   2.585  16.199  0.0222 -0.2661 -0.3367
 4235SOL    HW124167   2.304   2.508  16.184  2.8076 -2.2858 -0.1421
 4235SOL    HW224168   2.445   2.556  16.169  0.3238  0.5166 -0.2333
 4236SOL     OW24169   0.626   0.224   3.565  0.1978 -0.4966 -0.0446
 4236SOL    HW124170   0.674   0.193   3.488  0.5065  0.1974 -0.1316
 4236SOL    HW224171   0.689   0.210   3.636  0.3006  0.3857  0.0370
 4237SOL     OW24172   4.354   0.671  17.291  0.5663  0.1781  0.0255
 4237SOL    HW124173   4.360   0.670  17.386 -0.7928  0.1597  0.1173
 4237SOL    HW224174   4.290   0.601  17.272 -1.2495  1.5624  1.0062
 4238SOL     OW24175   2.911   1.820  16.364  0.0641 -0.9901  0.3094
 4238SOL    HW124176   2.968   1.748  16.391  1.1859 -0.6505 -1.2204
 4238SOL    HW224177   2.934   1.892  16.423  2.1560  0.5142 -2.3515
 4239SOL     OW24178   0.989   1.613  17.221  0.1505  0.6275  0.1513
 4239SOL    HW124179   0.964   1.548  17.287  0.8858 -0.4257 -0.6173
 4239SOL    HW224180   0.969   1.573  17.137 -2.6385 -1.0759  1.6162
 4240SOL     OW24181   1.603   2.357   6.739 -0.1377 -0.4589  0.7994
 4240SOL    HW124182   1.540   2.412   6.693  0.9941  2.2100  2.4489
 4240SOL    HW224183   1.576   2.266   6.729 -0.9830  0.2470 -3.2036
 4241SOL     OW24184   3.216   2.664   3.151 -0.6661  0.2237 -0.1117
 4241SOL    HW124185   3.152   2.662   3.080 -2.1723 -0.8761  1.2523
 4241SOL    HW224186   3.268   2.737   3.120 -0.4651 -0.9477 -2.5335
 4242SOL     OW24187   3.634   1.151   6.527  0.3751  0.4887 -0.1236
 4242SOL    HW124188   3.597   1.147   6.615 -1.2807  1.2831 -0.7649
 4242SOL    HW224189   3.720   1.190   6.539  0.9698 -0.1145 -2.4150
 4243SOL     OW24190   0.935   0.945   7.521  0.2531 -0.4021 -0.0216
 4243SOL    HW124191   0.875   0.884   7.477 -2.1014  1.2996  0.8285
 4243SOL    HW224192   0.871   1.015   7.534 -0.4713 -0.7166 -1.8422
 4244SOL     OW24193   0.183   3.800   6.705 -0.5112  0.1901 -0.0451
 4244SOL    HW124194   0.112   3.843   6.752 -2.6818 -1.7617 -1.4422
 4244SOL    HW224195   0.251   3.814   6.770  0.0982  0.4681 -0.7432
 4245SOL     OW24196   3.196   2.158   0.978 -0.0305 -0.4466  0.5316
 4245SOL    HW124197   3.163   2.166   0.889  1.1641  0.4163  0.1570
 4245SOL    HW224198   3.119   2.148   1.034 -0.4313 -0.1207  0.0309
 4246SOL     OW24199   2.287   4.489   9.086 -0.1998  0.2667  0.0453
 4246SOL    HW124200   2.346   4.442   9.145 -0.3287 -0.1271 -0.1411
 4246SOL    HW224201   2.216   4.496   9.150  0.3262  0.0017  0.6602
 4247SOL     OW24202   2.243   0.455   9.853 -0.0683 -0.5075 -0.3107
 4247SOL    HW124203   2.205   0.371   9.879 -3.1819  1.3968  1.3068
 4247SOL    HW224204   2.250   0.509   9.931 -3.1511  0.0331 -0.3909
 4248SOL     OW24205   3.432   1.384   9.797  0.1386  0.5612 -0.0571
 4248SOL    HW124206   3.468   1.296   9.789  1.6256  0.9699  2.0764
 4248SOL    HW224207   3.488   1.434   9.857 -2.2883  1.1113  1.7491
 4249SOL     OW24208   2.134   3.239  10.233 -0.3792 -0.1119 -0.3135
 4249SOL    HW124209   2.156   3.327  10.200  1.4400 -0.3034  0.3775
 4249SOL    HW224210   2.138   3.245  10.328 -0.1591 -1.8095 -0.2265
 4250SOL     OW24211   0.488   4.671  11.569 -0.6608 -0.3026  0.0933
 4250SOL    HW124212   0.503   0.040  11.541  2.8073 -0.3890  1.7854
 4250SOL    HW224213   0.392   4.672  11.572 -0.6631 -1.9513  0.4779
 4251SOL     OW24214   3.978   0.112   4.204  0.2752  0.3282  0.0857
 4251SOL    HW124215   4.025   0.192   4.183  0.3422  0.9441  2.6874
 4251SOL    HW224216   3.994   0.067   4.121  2.4589  1.1571  0.0605
 4252SOL     OW24217   2.735   3.077   8.406  0.2115  0.1893  0.2513
 4252SOL    HW124218   2.649   3.092   8.444 -0.4429 -0.6891 -0.8802
 4252SOL    HW224219   2.789   3.076   8.485  1.8786 -1.8800 -0.9182
 4253SOL     OW24220   4.675   3.802   9.471  0.1145  0.2390 -0.3360
 4253SOL    HW124221   4.623   3.733   9.511  2.1909 -0.6482  0.8831
 4253SOL    HW224222   0.025   3.818   9.532  0.4666 -1.2447 -0.3456
 4254SOL     OW24223   4.648   4.631   0.491 -0.4588  0.0502 -0.3994
 4254SOL    HW124224   4.577   4.661   0.434 -1.3276  1.1169  1.2491
 4254SOL    HW224225   4.720   4.679   0.450  0.7730  1.0606  2.9446
 4255SOL     OW24226   1.284   1.715  11.859  1.0824 -0.4668 -0.0252
 4255SOL    HW124227   1.208   1.738  11.806  1.0267 -0.2454  0.1523
 4255SOL    HW224228   1.249   1.631  11.888  3.5685 -1.1714  0.9639
 4256SOL     OW24229   4.587   2.258   6.266 -0.1614 -0.6670  0.0267
 4256SOL    HW124230   4.550   2.323   6.325 -0.3739  0.8987 -1.8217
 4256SOL    HW224231   4.566   2.175   6.308 -0.4191 -0.6123  0.0056
 4257SOL     OW24232   1.493   0.769  13.049 -0.1847  0.3546  0.5772
 4257SOL    HW124233   1.518   0.682  13.018  2.7618  1.1854  0.6653
 4257SOL    HW224234   1.476   0.758  13.143 -3.1165 -1.9989 -0.2250
 4258SOL     OW24235   4.113   1.772   7.363 -0.2602  0.7051 -0.3266
 4258SOL    HW124236   4.078   1.841   7.306  0.9802  0.7850 -0.9867
 4258SOL    HW224237   4.034   1.723   7.386  0.1510  0.4469  0.5612
 4259SOL     OW24238   4.642   0.068   3.693 -0.4098  0.1744 -0.2116
 4259SOL    HW124239   4.617   4.698   3.702  0.1447  0.0510  0.0621
 4259SOL    HW224240   4.661   0.070   3.599  1.7139 -0.4074  0.2227
 4260SOL     OW24241   0.790   4.422  14.305  0.0178 -0.6322  0.4673
 4260SOL    HW124242   0.822   4.372  14.381  1.0907  1.6133  1.4894
 4260SOL    HW224243   0.706   4.383  14.282 -0.2481 -0.0848  0.5174
 4261SOL     OW24244   2.911   2.796   1.531  0.2398 -0.0195  0.0823
 4261SOL    HW124245   2.850   2.750   1.473 -0.0844  1.3117 -0.6330
 4261SOL    HW224246   2.990   2.746   1.511 -0.0499 -0.2704 -0.4550
 4262SOL     OW24247   2.543   4.548  10.006 -0.3347  0.7259 -0.1771
 4262SOL    HW124248   2.500   4.625  10.043  0.0238  0.8533 -0.0279
 4262SOL    HW224249   2.581   4.585   9.926  0.4054  0.7467  0.1817
 4263SOL     OW24250   4.532   2.419  15.215 -0.4821 -0.0614 -0.1007
 4263SOL    HW124251   4.455   2.366  15.194  0.0350  0.2387 -2.8168
 4263SOL    HW224252   4.578   2.382  15.140  0.8101 -0.2046  0.7639
 4264SOL     OW24253   4.089   3.402   2.318  0.4143 -0.2817  0.2088
 4264SOL    HW124254   4.095   3.447   2.403  1.5583  1.7578 -0.9411
 4264SOL    HW224255   3.999   3.422   2.293  0.4682 -0.8933 -0.4346
 4265SOL     OW24256   1.573   4.670   3.807 -0.4375 -0.2393  0.2739
 4265SOL    HW124257   1.566   0.029   3.757 -1.1985  1.3375  2.9421
 4265SOL    HW224258   1.611   4.610   3.743 -0.6491 -0.3690  0.2710
 4266SOL     OW24259   1.480   3.361   1.395  0.0470  0.5638  0.3136
 4266SOL    HW124260   1.558   3.319   1.357  0.4290  0.2813  1.4133
 4266SOL    HW224261   1.441   3.295   1.452  1.5293  0.1158  0.8103
 4267SOL     OW24262   3.956   4.249   8.742 -0.0339  0.2118 -0.2300
 4267SOL    HW124263   3.996   4.250   8.656 -0.6038 -2.5820 -0.5323
 4267SOL    HW224264   3.899   4.172   8.747  0.8304 -0.3595  0.9138
 4268SOL     OW24265   0.946   3.612   8.794 -0.2690  0.1356 -0.2624
 4268SOL    HW124266   0.944   3.531   8.742  0.0702  0.6445 -1.0618
 4268SOL    HW224267   1.041   3.625   8.795 -0.1745 -0.5551 -0.3956
 4269SOL     OW24268   3.707   4.457   3.946  0.6674  0.2435  0.1185
 4269SOL    HW124269   3.649   4.403   3.893 -0.5876  0.2546  1.4489
 4269SOL    HW224270   3.672   4.541   3.917 -0.4068  0.3040  1.5493
 4270SOL     OW24271   3.019   3.234   4.266  0.1656  0.1248  0.2576
 4270SOL    HW124272   2.962   3.296   4.220 -0.3514 -1.7815 -1.6511
 4270SOL    HW224273   3.002   3.255   4.358  2.1381 -4.2802  1.6439
 4271SOL     OW24274   3.244   2.193   4.573  0.3399  0.2858  0.5553
 4271SOL    HW124275   3.316   2.150   4.526  0.8800 -1.8429  3.3776
 4271SOL    HW224276   3.187   2.214   4.499  0.5131  1.0193  0.6303
 4272SOL     OW24277   2.677   0.830   3.394 -0.0444  0.0928  0.2265
 4272SOL    HW124278   2.617   0.778   3.447 -0.4857  0.1965 -0.1729
 4272SOL    HW224279   2.750   0.770   3.380 -0.6908 -0.8528  0.8890
 4273SOL     OW24280   3.957   3.621   5.260  0.2540  0.5581  0.4912
 4273SOL    HW124281   4.043   3.658   5.280  0.3989  1.3102 -1.5693
 4273SOL    HW224282   3.925   3.596   5.347  0.2846  0.8432  0.5827
 4274SOL     OW24283   4.208   1.408   7.338 -0.3757 -0.6389 -0.1099
 4274SOL    HW124284   4.207   1.487   7.391  2.3294 -0.2075 -0.7014
 4274SOL    HW224285   4.206   1.338   7.403 -0.4984 -0.5949 -0.0667
 4275SOL     OW24286   4.483   2.710  17.354 -0.0900  0.2559  0.2167
 4275SOL    HW124287   4.555   2.771  17.336  0.4142  0.1481  1.8575
 4275SOL    HW224288   4.506   2.646  17.287 -0.7092 -2.4576  2.5962
 4276SOL     OW24289   2.366   1.019   2.517 -0.3830  0.1689  0.0333
 4276SOL    HW124290   2.357   1.025   2.422  1.6525  2.0026 -0.0563
 4276SOL    HW224291   2.279   0.987   2.542 -0.3712 -0.6932 -1.0317
 4277SOL     OW24292   2.491   0.803   3.611 -0.0982  0.3574 -0.2216
 4277SOL    HW124293   2.506   0.734   3.676  1.7393  0.0962 -0.9150
 4277SOL    HW224294   2.413   0.837   3.655  0.4041 -1.6138  2.2254
 4278SOL     OW24295   2.441   1.766   0.608  0.1084 -0.6188 -0.0049
 4278SOL    HW124296   2.419   1.836   0.669 -1.8575  0.4122 -1.9051
 4278SOL    HW224297   2.351   1.743   0.588  1.3386 -4.0793 -1.6274
 4279SOL     OW24298   4.149   0.731  11.298 -0.1874  0.0013 -0.3766
 4279SOL    HW124299   4.065   0.778  11.300 -0.5404 -0.6587  0.2660
 4279SOL    HW224300   4.128   0.638  11.304  1.2523 -0.3153 -0.2468
 4280SOL     OW24301   2.746   0.870   6.613  0.6095 -0.9723 -0.0192
 4280SOL    HW124302   2.782   0.824   6.689 -1.0100 -1.6548  0.3514
 4280SOL    HW224303   2.811   0.939   6.620  0.5930 -1.0313  0.7465
 4281SOL     OW24304   2.709   4.025   4.471 -0.1952  0.2131 -0.0974
 4281SOL    HW124305   2.772   4.039   4.399 -0.2587 -0.1744 -0.2332
 4281SOL    HW224306   2.724   3.933   4.495  0.4183  0.5748  0.8696
 4282SOL     OW24307   2.411   4.109   1.028  0.1780 -0.6041 -0.0155
 4282SOL    HW124308   2.427   4.155   0.946 -1.0003  0.7612  0.5096
 4282SOL    HW224309   2.485   4.048   1.027 -0.6782 -1.7131  3.0474
 4283SOL     OW24310   0.800   2.865   1.633  0.0093 -0.3836  0.4580
 4283SOL    HW124311   0.811   2.810   1.555 -3.4795 -3.0433  1.8171
 4283SOL    HW224312   0.780   2.798   1.699  0.2622 -1.8873 -0.9842
 4284SOL     OW24313   0.678   3.022   5.256  0.2255 -0.3332  0.5383
 4284SOL    HW124314   0.650   3.030   5.165 -0.4484 -0.4077  0.7337
 4284SOL    HW224315   0.600   3.029   5.312 -0.9400 -1.6167 -0.9194
 4285SOL     OW24316   3.459   0.414   6.033 -0.2580 -0.0404  0.0329
 4285SOL    HW124317   3.526   0.463   5.985 -0.1609 -0.6548 -0.4658
 4285SOL    HW224318   3.379   0.462   6.013  0.3245  0.8631 -0.1075
 4286SOL     OW24319   3.193   2.505   5.319  0.1515  0.0160 -0.3211
 4286SOL    HW124320   3.198   2.433   5.381 -0.2294  1.4079  1.3414
 4286SOL    HW224321   3.275   2.552   5.333  0.3667  0.3309 -2.6536
 4287SOL     OW24322   4.190   3.570   2.853 -0.1384 -0.0612 -0.0622
 4287SOL    HW124323   4.285   3.579   2.848 -0.1377  1.4159  2.8597
 4287SOL    HW224324   4.169   3.657   2.821  0.0956 -0.9048 -2.5746
 4288SOL     OW24325   1.335   0.266   6.800 -0.0974 -0.0426 -0.1478
 4288SOL    HW124326   1.266   0.328   6.825 -2.0321 -2.0600 -0.4897
 4288SOL    HW224327   1.400   0.266   6.871 -0.5601  0.8213  0.2762
 4289SOL     OW24328   0.788   1.276   7.005  0.4498  0.8630  0.2663
 4289SOL    HW124329   0.729   1.201   7.011  0.0588  1.2520  1.3048
 4289SOL    HW224330   0.730   1.335   6.958  2.1685 -0.7777 -3.9517
 4290SOL     OW24331   3.802   0.798   4.993 -0.6054  0.3658 -0.8426
 4290SOL    HW124332   3.730   0.791   4.930 -0.3167 -3.3632 -0.7643
 4290SOL    HW224333   3.774   0.866   5.055 -3.3902 -2.0913  0.5691
 4291SOL     OW24334   3.514   0.844   7.966  0.4229  0.1372 -0.6438
 4291SOL    HW124335   3.560   0.844   8.050  0.0497 -0.6901 -0.4426
 4291SOL    HW224336   3.564   0.919   7.934  2.6615 -0.9875  0.2197
 4292SOL     OW24337   2.652   3.435  15.291 -0.1197 -0.8768 -0.0245
 4292SOL    HW124338   2.658   3.392  15.376  1.4885  0.6203  0.6137
 4292SOL    HW224339   2.704   3.377  15.236  1.4625  1.5391 -1.0993
 4293SOL     OW24340   0.090   2.040  10.090  0.1591  0.0472 -0.3521
 4293SOL    HW124341   0.133   2.014  10.171 -3.3492  0.4946  1.6378
 4293SOL    HW224342   0.061   2.129  10.112  0.0071 -0.8596  3.0485
 4294SOL     OW24343   4.283   3.681   6.092 -0.1585 -0.7692  0.2063
 4294SOL    HW124344   4.309   3.604   6.041 -0.1116 -0.2929 -0.4888
 4294SOL    HW224345   4.364   3.729   6.106 -2.6178  2.9037  1.7154
 4295SOL     OW24346   3.798   4.681   0.976 -0.6643  0.4486 -0.3108
 4295SOL    HW124347   3.717   4.711   0.936 -0.7306  1.5677  0.6586
 4295SOL    HW224348   3.769   4.609   1.033 -3.8964  0.1606 -2.3271
 4296SOL     OW24349   1.253   2.163  12.257 -0.2768  0.1494  0.0978
 4296SOL    HW124350   1.180   2.161  12.319 -1.0120  1.9674 -0.7331
 4296SOL    HW224351   1.238   2.247  12.214 -0.2565 -1.1622 -2.4139
 4297SOL     OW24352   1.340   0.645   6.387  0.8644  0.7829 -0.4401
 4297SOL    HW124353   1.407   0.598   6.337  1.3041 -0.8759  1.7204
 4297SOL    HW224354   1.395   0.723   6.395  2.0399 -0.4362  3.4008
 4298SOL     OW24355   4.417   1.765  16.213  0.2186 -0.2746 -0.2762
 4298SOL    HW124356   4.329   1.729  16.210 -0.1401  0.6409 -0.8381
 4298SOL    HW224357   4.457   1.712  16.144 -2.2698 -1.7952 -0.5303
 4299SOL     OW24358   2.413   2.619   3.509 -0.5244  0.1854 -0.9366
 4299SOL    HW124359   2.441   2.582   3.593 -0.5186  1.7490 -0.2577
 4299SOL    HW224360   2.421   2.711   3.534 -0.0340  0.1723 -1.0447
 4300SOL     OW24361   1.213   4.302   6.140  0.1767 -0.4237  0.5715
 4300SOL    HW124362   1.211   4.303   6.044  1.4818  2.0738  0.5788
 4300SOL    HW224363   1.131   4.340   6.172  0.6621 -1.0179  2.4977
 4301SOL     OW24364   2.430   2.665   1.145 -0.0710 -0.0389  0.6196
 4301SOL    HW124365   2.524   2.678   1.160  0.0352  0.9688 -0.8482
 4301SOL    HW224366   2.414   2.584   1.193 -0.3219  0.0754  0.7256
 4302SOL     OW24367   4.425   1.018   1.586  0.3205 -0.5938  0.4976
 4302SOL    HW124368   4.498   0.962   1.560  0.5250 -0.0185 -0.1815
 4302SOL    HW224369   4.378   1.029   1.503  1.3713 -1.6738 -0.2330
 4303SOL     OW24370   3.329   0.910   4.208  0.0456 -0.2446  0.1006
 4303SOL    HW124371   3.314   0.830   4.157  0.9864 -1.0170  1.0357
 4303SOL    HW224372   3.347   0.974   4.139 -1.3265 -1.1694 -1.1144
 4304SOL     OW24373   1.974   1.071   7.677 -0.0324 -0.0453  0.2899
 4304SOL    HW124374   1.975   0.996   7.736 -2.7176 -0.7885 -0.5894
 4304SOL    HW224375   2.062   1.102   7.699  0.4916  0.0978 -1.9736
 4305SOL     OW24376   0.515   2.040   5.483 -0.0790  0.2950  0.4332
 4305SOL    HW124377   0.530   2.092   5.562  2.9223  2.0527 -1.2565
 4305SOL    HW224378   0.424   2.019   5.502 -0.1501 -0.0667 -0.2974
 4306SOL     OW24379   4.343   3.738  16.489  0.2663  0.3969 -0.2432
 4306SOL    HW124380   4.325   3.820  16.535  1.5178 -0.4660  1.7831
 4306SOL    HW224381   4.424   3.707  16.530 -0.1646 -0.4360 -0.0319
 4307SOL     OW24382   1.389   4.650   4.291 -0.4612  0.2343 -0.6718
 4307SOL    HW124383   1.433   4.640   4.207  0.3987 -2.3918  0.0878
 4307SOL    HW224384   1.298   4.624   4.273 -1.1131  1.8914  0.2271
 4308SOL     OW24385   2.434   3.387   8.392 -0.1408  0.4592  0.2502
 4308SOL    HW124386   2.371   3.456   8.412  1.5417  1.7654  1.0850
 4308SOL    HW224387   2.378   3.314   8.367  1.4496 -1.1081  1.2851
 4309SOL     OW24388   1.299   0.628   2.403  0.0406 -0.2355  0.4416
 4309SOL    HW124389   1.204   0.627   2.411  0.1478 -1.0655  1.6698
 4309SOL    HW224390   1.318   0.692   2.472 -2.9776 -1.8263  2.7263
 4310SOL     OW24391   1.247   0.087   5.587 -0.0354  0.3640 -0.5967
 4310SOL    HW124392   1.298   0.043   5.519  0.5644 -1.2770  0.9478
 4310SOL    HW224393   1.299   0.077   5.667  0.1246  0.8914 -0.6320
 4311SOL     OW24394   3.046   0.448  14.989 -0.2851  0.6120 -0.0832
 4311SOL    HW124395   3.121   0.442  14.930 -2.4183  1.7951 -2.8678
 4311SOL    HW224396   3.009   0.359  14.992 -0.8539  0.7902 -2.1394
 4312SOL     OW24397   2.123   1.188   7.981  0.6306  0.3643 -0.1119
 4312SOL    HW124398   2.218   1.201   7.976  0.3873  2.3853  0.5988
 4312SOL    HW224399   2.116   1.104   7.935 -1.9770  0.8623 -0.5992
 4313SOL     OW24400   4.000   2.922  17.375  0.1924 -0.6690 -0.2814
 4313SOL    HW124401   3.927   2.961  17.327  0.1608  0.2551  0.5019
 4313SOL    HW224402   3.974   2.921  17.468 -1.1896 -0.5872 -0.6696
 4314SOL     OW24403   0.909   0.134  10.119 -0.2294 -0.3812  0.7766
 4314SOL    HW124404   0.968   0.063  10.095 -0.2505  0.4835 -1.7371
 4314SOL    HW224405   0.829   0.081  10.112  1.0033 -2.0903 -0.3324
 4315SOL     OW24406   4.639   2.298   8.893  0.0812 -0.3146  0.4506
 4315SOL    HW124407   4.568   2.316   8.955 -1.5556  0.4495 -1.6465
 4315SOL    HW224408   4.648   2.207   8.920  2.4357 -0.4426 -0.7646
 4316SOL     OW24409   0.465   1.020  10.893 -0.3050  0.0510  0.0261
 4316SOL    HW124410   0.434   1.073  10.967  0.5680  0.1434  0.3162
 4316SOL    HW224411   0.549   0.982  10.917  0.0346  0.0777 -1.1711
 4317SOL     OW24412   0.548   2.219   4.195 -0.1104  0.0690  0.4246
 4317SOL    HW124413   0.644   2.212   4.199  0.0558  1.0872 -1.6541
 4317SOL    HW224414   0.535   2.313   4.180  0.5473 -0.0769 -1.1119
 4318SOL     OW24415   0.789   3.875   8.293  0.1911  0.0797 -0.2858
 4318SOL    HW124416   0.766   3.891   8.202 -0.7291  2.1028  0.2957
 4318SOL    HW224417   0.780   3.780   8.286 -2.2202  0.0583  2.9277
 4319SOL     OW24418   0.771   4.187   8.129  0.3896 -0.3932 -0.5325
 4319SOL    HW124419   0.742   4.257   8.187  0.9687 -1.4145  0.9784
 4319SOL    HW224420   0.856   4.221   8.102 -0.0280  1.0392 -0.0295
 4320SOL     OW24421   0.517   2.491   4.235 -0.5356 -0.4886 -0.6488
 4320SOL    HW124422   0.453   2.504   4.165 -1.5070  0.1267  0.3546
 4320SOL    HW224423   0.461   2.501   4.312  0.7980  2.0438  0.0052
 4321SOL     OW24424   0.397   2.534   8.135 -0.2466 -0.0785 -0.2584
 4321SOL    HW124425   0.466   2.601   8.137  1.4578 -1.8593  0.2940
 4321SOL    HW224426   0.430   2.468   8.196  1.3932  1.8761  0.9787
 4322SOL     OW24427   0.076   2.660   8.521 -0.5038  0.1525  0.7448
 4322SOL    HW124428   0.032   2.625   8.598  0.7526  3.3666  2.9502
 4322SOL    HW224429   4.721   2.649   8.465  0.6907 -0.2155 -0.8016
 4323SOL     OW24430   3.463   1.397  11.141 -0.3565 -0.6167 -0.2755
 4323SOL    HW124431   3.548   1.438  11.123  0.3232 -1.6045  0.7493
 4323SOL    HW224432   3.477   1.367  11.230  1.0369  0.4031 -0.1477
 4324SOL     OW24433   0.171   3.450   8.513 -0.5079 -0.6853  0.0569
 4324SOL    HW124434   0.136   3.533   8.479  1.2412  0.6368  1.4966
 4324SOL    HW224435   0.118   3.430   8.590 -0.3529  0.4273  0.4667
 4325SOL     OW24436   1.550   0.901   2.187 -0.2617  0.0580  0.3027
 4325SOL    HW124437   1.630   0.953   2.190 -0.1616 -0.0949  0.3170
 4325SOL    HW224438   1.511   0.926   2.103 -0.7753  1.0261  0.8365
 4326SOL     OW24439   1.911   4.103   9.346  0.2843  0.5917 -0.4541
 4326SOL    HW124440   1.911   4.009   9.362 -0.2681  0.4382 -1.3244
 4326SOL    HW224441   1.824   4.126   9.312 -0.2519 -0.8368 -0.0353
 4327SOL     OW24442   2.465   3.337  16.499 -0.2150  0.5022 -0.2654
 4327SOL    HW124443   2.380   3.322  16.459 -0.4220  1.3270 -0.1509
 4327SOL    HW224444   2.533   3.298  16.444  0.1789  0.5114  0.2110
 4328SOL     OW24445   2.026   1.955  12.239  0.3294 -0.2083  0.5629
 4328SOL    HW124446   1.998   2.041  12.271 -1.4482 -0.7852  0.5590
 4328SOL    HW224447   1.966   1.897  12.287 -0.9630 -0.2853 -1.1336
 4329SOL     OW24448   0.095   1.008   5.951  0.1864 -0.5809 -0.0638
 4329SOL    HW124449   0.049   0.949   6.011  0.5179  0.0246  0.7922
 4329SOL    HW224450   0.146   1.063   6.011 -0.8919  2.5721 -2.0226
 4330SOL     OW24451   4.483   2.263   7.881  0.7008  0.2012  0.4901
 4330SOL    HW124452   4.472   2.169   7.887 -1.9632  0.4682 -0.3537
 4330SOL    HW224453   4.576   2.265   7.903  1.0427  2.9963 -1.1843
 4331SOL     OW24454   0.245   3.978   7.330 -0.0080 -0.7041  0.1142
 4331SOL    HW124455   0.163   3.948   7.370 -1.1254 -0.2517 -1.7930
 4331SOL    HW224456   0.301   3.901   7.326  0.4603 -0.4026  0.8528
 4332SOL     OW24457   4.715   2.595  15.333  0.2005 -0.8274 -0.1714
 4332SOL    HW124458   0.051   2.528  15.370 -0.1026 -0.5032  0.8817
 4332SOL    HW224459   4.673   2.540  15.266 -1.6838  0.6007 -0.1393
 4333SOL     OW24460   2.455   0.591  10.797  0.2645 -0.0958  0.6072
 4333SOL    HW124461   2.504   0.564  10.875 -0.7802 -0.7238  1.0661
 4333SOL    HW224462   2.389   0.652  10.831  0.8615  0.1655  1.3023
 4334SOL     OW24463   0.708   3.659   6.484  0.3972 -0.1543 -0.0572
 4334SOL    HW124464   0.633   3.679   6.427  0.4898  0.8975  0.1878
 4334SOL    HW224465   0.777   3.719   6.456  0.3096 -0.4680 -0.9628
 4335SOL     OW24466   4.603   1.450   0.950 -0.1432  0.5527  0.2191
 4335SOL    HW124467   4.567   1.531   0.986 -1.3129  0.0802  0.1225
 4335SOL    HW224468   4.634   1.398   1.024 -0.0898  0.7786  0.3583
 4336SOL     OW24469   2.773   2.392   6.231  0.6772 -0.2574 -0.1582
 4336SOL    HW124470   2.706   2.343   6.278  0.4472 -0.6962 -0.9345
 4336SOL    HW224471   2.791   2.462   6.293 -1.3333 -1.9148  2.2627
 4337SOL     OW24472   2.395   3.158   1.551  0.6807  0.3327  0.5019
 4337SOL    HW124473   2.310   3.187   1.584  0.8535  1.2744  0.1084
 4337SOL    HW224474   2.371   3.156   1.458 -0.5256  0.0212  0.8166
 4338SOL     OW24475   3.164   2.432   2.322 -0.4211 -0.2975  0.0743
 4338SOL    HW124476   3.069   2.432   2.335 -0.3956 -0.0904  0.2756
 4338SOL    HW224477   3.165   2.382   2.241 -0.1316  0.9736 -0.7191
 4339SOL     OW24478   1.230   2.378  14.681  0.3353 -0.7225  0.3164
 4339SOL    HW124479   1.244   2.290  14.646  1.2915 -0.7541  0.7836
 4339SOL    HW224480   1.162   2.425  14.632  0.9350 -1.3967 -1.1538
 4340SOL     OW24481   4.383   2.041   5.730 -0.0278  0.1698  0.0423
 4340SOL    HW124482   4.308   2.042   5.790 -0.0814 -1.0824  0.0058
 4340SOL    HW224483   4.422   2.125   5.754  0.4017 -0.0478  0.1190
 4341SOL     OW24484   2.297   3.888   0.717  0.3289 -0.0604  0.2789
 4341SOL    HW124485   2.231   3.819   0.725  1.1634 -0.9740 -0.6234
 4341SOL    HW224486   2.373   3.847   0.758  1.2813  1.6682  0.2508
 4342SOL     OW24487   3.305   2.978   4.145  0.2132  0.2338 -0.3262
 4342SOL    HW124488   3.335   2.996   4.234 -0.5458 -0.8675  0.1579
 4342SOL    HW224489   3.314   3.058   4.094  2.6740  0.6524  0.7581
 4343SOL     OW24490   0.269   3.592  10.092  0.2248 -0.2089 -0.0552
 4343SOL    HW124491   0.261   3.684  10.067  0.8508 -0.0268  0.4104
 4343SOL    HW224492   0.179   3.563  10.075 -0.4423  0.6697  2.0005
 4344SOL     OW24493   3.988   0.857  10.036 -0.0840 -0.0722  0.2392
 4344SOL    HW124494   4.079   0.883  10.026 -0.3158  0.9681  0.8437
 4344SOL    HW224495   3.994   0.775   9.988 -2.2333 -0.1053  0.0427
 4345SOL     OW24496   2.956   1.353   8.277  0.7578  0.3304 -0.2923
 4345SOL    HW124497   3.050   1.346   8.297  0.7323  1.3579  0.1800
 4345SOL    HW224498   2.914   1.331   8.360  0.2928 -0.8545 -0.8361
 4346SOL     OW24499   3.016   2.892   1.777  0.3380 -0.3974 -0.1104
 4346SOL    HW124500   2.982   2.845   1.701 -0.6540  0.2011 -0.0458
 4346SOL    HW224501   2.943   2.953   1.792  1.7065  1.4067 -0.9044
 4347SOL     OW24502   4.020   2.552   5.038 -0.1509 -0.5602 -0.2286
 4347SOL    HW124503   3.926   2.547   5.018  0.2642  1.6639 -2.7455
 4347SOL    HW224504   4.053   2.552   4.948  0.4445 -1.0671 -0.0091
 4348SOL     OW24505   0.565   4.576  14.496  0.2438 -0.6594  0.1381
 4348SOL    HW124506   0.618   4.538  14.567  0.2670 -0.0153  0.4598
 4348SOL    HW224507   0.633   4.617  14.443 -0.5642  0.2610 -0.1902
 4349SOL     OW24508   0.041   0.259  17.363 -0.3758 -0.1338  0.1903
 4349SOL    HW124509   0.021   0.166  17.348  0.5976 -0.0977 -1.3699
 4349SOL    HW224510   0.092   0.248  17.443  0.3909 -0.6850 -0.3666
 4350SOL     OW24511   3.423   3.599   7.542 -0.4195  0.5429 -0.5665
 4350SOL    HW124512   3.340   3.555   7.562 -1.1659  2.0943 -0.2425
 4350SOL    HW224513   3.471   3.587   7.624 -0.2508 -1.5250 -0.9628
 4351SOL     OW24514   1.375   0.338   8.589 -0.3583  0.1606  0.4511
 4351SOL    HW124515   1.427   0.367   8.664  0.8126  1.4064 -0.8449
 4351SOL    HW224516   1.403   0.247   8.582 -0.1257  0.4129 -1.9018
 4352SOL     OW24517   2.206   2.948   7.656  0.1246 -0.0319 -0.7820
 4352SOL    HW124518   2.283   2.955   7.600  0.3092  0.4681 -0.4643
 4352SOL    HW224519   2.139   2.905   7.603 -0.0576 -1.3693  0.5365
 4353SOL     OW24520   2.738   1.680  16.072 -0.3054  0.5608 -0.3415
 4353SOL    HW124521   2.827   1.711  16.057  0.2320  0.0581  1.8198
 4353SOL    HW224522   2.711   1.673  15.981  0.9030 -0.5842 -0.6008
 4354SOL     OW24523   1.928   3.329   4.398 -0.2378  0.0623 -0.0725
 4354SOL    HW124524   1.975   3.360   4.475 -0.8124  0.7947 -0.0230
 4354SOL    HW224525   1.956   3.237   4.393 -0.4672  0.0414 -0.9845
 4355SOL     OW24526   4.401   0.391  10.177  0.0096  0.2590  0.1488
 4355SOL    HW124527   4.356   0.475  10.171 -0.0768  0.3630  2.1918
 4355SOL    HW224528   4.405   0.383  10.272 -0.9905 -0.8698  0.1013
 4356SOL     OW24529   4.369   0.350   6.104  0.3487 -0.0134  0.5876
 4356SOL    HW124530   4.375   0.254   6.106 -1.5989 -0.1058  2.6938
 4356SOL    HW224531   4.382   0.368   6.197  1.8311  0.4467  0.3010
 4357SOL     OW24532   3.849   0.627   6.957  0.4696  0.3695 -0.3814
 4357SOL    HW124533   3.834   0.590   7.044 -0.4772  1.5375 -0.0573
 4357SOL    HW224534   3.822   0.718   6.972 -1.2242 -0.4377  1.3887
 4358SOL     OW24535   1.060   3.540  14.403 -0.3824 -0.5780  0.1555
 4358SOL    HW124536   1.133   3.509  14.348  1.3982  2.3022  0.9168
 4358SOL    HW224537   1.072   3.488  14.482 -0.2618 -0.7812  0.0038
 4359SOL     OW24538   2.649   0.313   8.346 -0.1264  0.2758 -0.0149
 4359SOL    HW124539   2.737   0.279   8.327 -0.0913 -0.4391  1.4417
 4359SOL    HW224540   2.618   0.270   8.425 -0.7248  2.1133  0.7608
 4360SOL     OW24541   2.113   2.656   6.500 -0.8576  0.1111  0.5666
 4360SOL    HW124542   2.019   2.648   6.485 -1.0434  1.6933  0.7989
 4360SOL    HW224543   2.149   2.642   6.412 -1.6680  0.7399  0.1376
 4361SOL     OW24544   1.382   4.148   6.477  0.7849 -0.3425 -0.3475
 4361SOL    HW124545   1.376   4.157   6.572  0.7813 -0.6459 -0.3202
 4361SOL    HW224546   1.339   4.063   6.476  1.1251 -0.5077 -0.9043
 4362SOL     OW24547   0.470   0.294  17.318  0.7358  0.2084  0.1109
 4362SOL    HW124548   0.511   0.316  17.401  0.1991 -1.5704  0.8516
 4362SOL    HW224549   0.511   0.352  17.254 -2.2768  2.0553 -0.1705
 4363SOL     OW24550   4.609   2.339  15.469 -0.2186  0.0606 -0.0555
 4363SOL    HW124551   4.696   2.338  15.429 -1.0949  0.6967 -1.9802
 4363SOL    HW224552   4.563   2.399  15.410  0.4963 -0.4879 -1.1801
 4364SOL     OW24553   2.782   0.268   7.483  0.1292  0.5122 -0.0226
 4364SOL    HW124554   2.878   0.265   7.488 -0.0012 -1.3242  1.8725
 4364SOL    HW224555   2.785   0.270   7.388  0.2448 -1.0494 -0.0544
 4365SOL     OW24556   0.785   0.516  11.399  0.5689 -0.1613 -0.3922
 4365SOL    HW124557   0.700   0.545  11.433 -0.5976 -1.7569 -2.0117
 4365SOL    HW224558   0.775   0.424  11.423 -1.2191 -0.2152 -1.3343
 4366SOL     OW24559   3.408   0.535   8.064  0.2399  0.1769  0.0821
 4366SOL    HW124560   3.468   0.609   8.054 -1.3263  1.1358 -2.3422
 4366SOL    HW224561   3.350   0.564   8.135  3.5128  0.0433  2.8173
 4367SOL     OW24562   1.951   3.365   7.473  0.4596  0.1465  0.0995
 4367SOL    HW124563   2.036   3.358   7.518 -0.0514  1.8820  1.3400
 4367SOL    HW224564   1.904   3.295   7.517  1.6788 -0.7193  0.0287
 4368SOL     OW24565   1.145   4.239  12.167 -0.2690 -0.6314 -0.1634
 4368SOL    HW124566   1.140   4.309  12.101 -0.3450 -2.4442 -2.0733
 4368SOL    HW224567   1.239   4.242  12.185 -0.3271  0.7582 -0.0884
 4369SOL     OW24568   4.096   4.343   9.367 -0.2658  0.5945 -0.2351
 4369SOL    HW124569   4.111   4.389   9.450 -0.2269  1.9343 -0.9774
 4369SOL    HW224570   4.024   4.284   9.390 -0.8685  1.2133 -0.5108
 4370SOL     OW24571   3.979   2.059   8.261 -0.2473  0.4124  0.0269
 4370SOL    HW124572   3.901   2.113   8.269  0.4574  1.0062  2.8408
 4370SOL    HW224573   3.944   1.976   8.228  0.5715  0.7246 -1.6515
 4371SOL     OW24574   2.586   2.208   3.644  0.0321  0.1034 -0.5127
 4371SOL    HW124575   2.613   2.230   3.554 -1.2703 -0.0377 -0.9361
 4371SOL    HW224576   2.656   2.247   3.696  0.4049 -1.0991 -0.1180
 4372SOL     OW24577   4.327   2.666   8.008  0.0448  0.3452  0.3302
 4372SOL    HW124578   4.336   2.573   8.029  1.9848  0.9150  1.9947
 4372SOL    HW224579   4.413   2.705   8.018  1.0009 -1.0798 -2.2674
 4373SOL     OW24580   4.400   1.515  10.284  0.0093  0.1978 -0.0935
 4373SOL    HW124581   4.371   1.595  10.328 -0.8138 -1.2851  2.0825
 4373SOL    HW224582   4.484   1.546  10.252  0.8499 -1.9392  0.0476
 4374SOL     OW24583   2.924   0.924   1.896  0.1318 -0.0110  0.7403
 4374SOL    HW124584   2.894   1.012   1.873 -0.5277 -0.3528  0.2596
 4374SOL    HW224585   2.857   0.907   1.962 -0.5597 -0.5772 -0.1077
 4375SOL     OW24586   2.828   2.389   4.692  0.0864 -0.6394 -0.1550
 4375SOL    HW124587   2.834   2.380   4.787  0.0652  3.6522  0.2248
 4375SOL    HW224588   2.741   2.428   4.687  1.0891  1.5153 -1.0598
 4376SOL     OW24589   3.841   1.137  15.276 -0.1005 -0.1692  0.4769
 4376SOL    HW124590   3.769   1.101  15.225 -0.0199 -1.9817  1.6368
 4376SOL    HW224591   3.811   1.222  15.309  0.5703  0.5929 -0.8837
 4377SOL     OW24592   4.488   1.555   4.824 -0.4226 -0.2029 -0.1784
 4377SOL    HW124593   4.528   1.615   4.760  0.3404  1.1180  1.5474
 4377SOL    HW224594   4.426   1.611   4.870  2.5079  4.0306 -1.3685
 4378SOL     OW24595   2.013   0.252   7.893  0.1365  0.3013  0.3985
 4378SOL    HW124596   1.991   0.273   7.803  0.2413 -0.9087  0.0848
 4378SOL    HW224597   2.015   0.157   7.878  0.5945  0.4704 -0.6074
 4379SOL     OW24598   3.360   3.023   5.531 -0.1544 -0.1265 -0.4622
 4379SOL    HW124599   3.313   3.048   5.451 -2.6522 -0.5825  0.8485
 4379SOL    HW224600   3.297   2.989   5.595 -0.1670 -0.5802 -0.7168
 4380SOL     OW24601   2.177   2.319   2.872 -0.3031  0.1023  0.0979
 4380SOL    HW124602   2.114   2.369   2.821 -0.7511  1.2164  1.7341
 4380SOL    HW224603   2.167   2.228   2.846  0.4898  0.7110 -2.3531
 4381SOL     OW24604   3.588   0.615   4.635  0.1844 -0.1344  0.5539
 4381SOL    HW124605   3.515   0.577   4.586  0.7048 -0.7961  0.3006
 4381SOL    HW224606   3.645   0.639   4.562 -1.7972  1.9922 -0.3009
 4382SOL     OW24607   4.618   1.111   2.446 -0.4392  0.2541  0.0436
 4382SOL    HW124608   4.636   1.025   2.410  0.5388  0.8609 -0.9011
 4382SOL    HW224609   4.707   1.145   2.453  0.4500 -2.1845  0.4205
 4383SOL     OW24610   0.084   0.213  15.238  0.0661  0.3586 -0.8975
 4383SOL    HW124611   0.046   0.180  15.157 -2.5798  1.6915 -0.1928
 4383SOL    HW224612   0.129   0.292  15.208  0.4421  0.5861  0.2619
 4384SOL     OW24613   2.461   2.344  10.817  0.0287  0.1838  0.6430
 4384SOL    HW124614   2.551   2.357  10.786  0.7058  1.6094  3.2589
 4384SOL    HW224615   2.470   2.251  10.836  2.9050  0.1000 -1.0286
 4385SOL     OW24616   0.909   2.715   7.489  0.2977 -0.5110  0.2418
 4385SOL    HW124617   0.940   2.800   7.519  1.7619 -1.3238  1.0337
 4385SOL    HW224618   0.894   2.683   7.578 -1.4774 -0.1943  0.0760
 4386SOL     OW24619   4.242   1.266   5.617  0.0796 -0.1999 -0.0144
 4386SOL    HW124620   4.250   1.187   5.671 -4.4294 -1.0939 -0.6665
 4386SOL    HW224621   4.154   1.255   5.579  0.4323  0.8785 -1.1431
 4387SOL     OW24622   2.234   4.525   6.165  0.7292  0.1330 -0.9988
 4387SOL    HW124623   2.179   4.603   6.172  0.2429 -0.2355 -0.6876
 4387SOL    HW224624   2.286   4.538   6.085  0.9668  0.7604 -0.7475
 4388SOL     OW24625   3.198   0.439   1.890  0.7883 -0.0363  0.3003
 4388SOL    HW124626   3.152   0.355   1.883  1.7756 -0.7052  1.6126
 4388SOL    HW224627   3.202   0.470   1.800  1.8606  2.0477  1.0833
 4389SOL     OW24628   2.112   0.631   6.852  0.2813  0.4812 -0.0722
 4389SOL    HW124629   2.149   0.653   6.937 -1.5227 -0.2698  0.8853
 4389SOL    HW224630   2.096   0.716   6.811 -3.3390 -1.3655 -2.4747
 4390SOL     OW24631   0.807   3.749   5.206 -0.0181  0.0917  0.8568
 4390SOL    HW124632   0.822   3.778   5.296  1.2512  0.5806  0.4891
 4390SOL    HW224633   0.862   3.672   5.197 -0.2847 -0.3227  2.9197
 4391SOL     OW24634   4.197   4.566   6.125 -0.1132 -0.5735 -0.2315
 4391SOL    HW124635   4.259   4.552   6.196 -0.4895 -0.0394  0.2022
 4391SOL    HW224636   4.260   4.549   6.055  0.7584  2.3628 -0.1423
 4392SOL     OW24637   4.101   2.623   6.878 -0.0226 -0.4521  0.3479
 4392SOL    HW124638   4.137   2.550   6.828 -0.8798 -0.6237 -0.0218
 4392SOL    HW224639   4.014   2.622   6.837  0.1625 -0.3562 -0.0504
 4393SOL     OW24640   3.390   2.060  11.697 -0.2897 -0.0943 -0.2277
 4393SOL    HW124641   3.461   2.095  11.644  0.5323  0.6741  1.3548
 4393SOL    HW224642   3.341   1.999  11.643  0.9812 -1.4979  0.2192
 4394SOL     OW24643   1.067   3.324   4.316 -0.5499  0.5845 -0.2604
 4394SOL    HW124644   1.060   3.331   4.412 -1.1010 -0.6270 -0.2113
 4394SOL    HW224645   0.975   3.340   4.294 -1.3820 -0.2661  2.5895
 4395SOL     OW24646   4.385   3.634   7.323  0.2627 -0.3137  0.6027
 4395SOL    HW124647   4.293   3.610   7.313  0.3564 -0.9034  1.1968
 4395SOL    HW224648   4.407   3.660   7.233  0.1411 -0.5500  0.5044
 4396SOL     OW24649   1.984   1.323  15.491  0.2230 -0.0794 -0.4142
 4396SOL    HW124650   1.950   1.282  15.570  0.5107 -0.7190 -0.6258
 4396SOL    HW224651   1.896   1.355  15.469  0.3643 -0.0922 -1.0030
 4397SOL     OW24652   3.848   0.626   3.982  0.3718 -0.2380  0.0932
 4397SOL    HW124653   3.837   0.713   4.021 -1.0937 -0.3231 -0.1268
 4397SOL    HW224654   3.916   0.582   4.034 -0.1167 -3.2511 -1.8466
 4398SOL     OW24655   1.727   1.049  10.691 -0.6151 -0.1651  0.2158
 4398SOL    HW124656   1.653   1.099  10.659 -0.3983  0.0485  0.0453
 4398SOL    HW224657   1.802   1.088  10.647 -0.3688 -0.1277  0.6629
 4399SOL     OW24658   1.666   0.734   5.167 -0.2979  0.1685  0.4965
 4399SOL    HW124659   1.745   0.702   5.210 -0.1732  0.3938  0.4360
 4399SOL    HW224660   1.599   0.673   5.200 -0.5586 -0.2521 -0.8296
 4400SOL     OW24661   3.561   1.049  15.164 -0.3379  0.3104 -0.8817
 4400SOL    HW124662   3.570   1.143  15.178  2.8851 -0.4110  1.9202
 4400SOL    HW224663   3.467   1.042  15.173 -0.2187 -0.6912 -0.4647
 4401SOL     OW24664   0.534   4.266   2.933  0.3184 -0.8082  0.3164
 4401SOL    HW124665   0.519   4.172   2.940  0.5550 -1.1139 -3.2906
 4401SOL    HW224666   0.460   4.308   2.889  0.7418 -0.8652 -0.4393
 4402SOL     OW24667   2.805   0.240   4.923  0.8410 -0.2145 -0.0499
 4402SOL    HW124668   2.841   0.238   4.834 -1.5884 -1.2586 -1.0202
 4402SOL    HW224669   2.891   0.232   4.964  1.2759  2.5165 -0.4069
 4403SOL     OW24670   0.221   2.039   2.985  0.2644  0.0584 -0.8864
 4403SOL    HW124671   0.140   2.004   2.946  1.0432 -1.7224 -0.8997
 4403SOL    HW224672   0.199   2.074   3.071 -0.1427 -1.4470 -0.3734
 4404SOL     OW24673   2.160   2.114  16.070  0.6477 -0.3488  0.4845
 4404SOL    HW124674   2.115   2.036  16.101 -1.7151  0.9008  0.1558
 4404SOL    HW224675   2.155   2.092  15.977 -1.0847  1.2830  0.1915
 4405SOL     OW24676   3.668   4.160  12.098  0.0030 -0.3083  0.4231
 4405SOL    HW124677   3.747   4.133  12.144  2.4388  0.8825 -3.0784
 4405SOL    HW224678   3.703   4.219  12.031 -0.6739  0.2179  0.5380
 4406SOL     OW24679   0.908   1.395  12.466 -0.1265 -0.2621  0.0658
 4406SOL    HW124680   0.994   1.379  12.504 -0.4115  1.0635  1.2617
 4406SOL    HW224681   0.924   1.435  12.381  0.6139  2.6060  1.5738
 4407SOL     OW24682   2.808   3.913   2.915 -0.4154 -0.5293  0.0423
 4407SOL    HW124683   2.790   3.861   2.836  1.6423 -0.5741 -0.4174
 4407SOL    HW224684   2.721   3.951   2.926 -0.2021  0.0010 -0.0913
 4408SOL     OW24685   1.195   3.368   3.859  0.2526 -0.0138  0.1551
 4408SOL    HW124686   1.182   3.356   3.765 -0.5806  2.1643 -0.0014
 4408SOL    HW224687   1.232   3.457   3.855 -0.0679  0.2050  1.8391
 4409SOL     OW24688   1.345   4.668   2.612  0.6427 -0.2351  0.0416
 4409SOL    HW124689   1.290   4.697   2.540 -0.2603 -0.1923  0.7541
 4409SOL    HW224690   1.321   4.575   2.617  2.5465 -0.7458  0.0214
 4410SOL     OW24691   3.118   1.111  16.266 -0.1517  0.2426  0.0380
 4410SOL    HW124692   3.045   1.141  16.212 -0.6612  0.9241  1.1113
 4410SOL    HW224693   3.071   1.055  16.328  1.0556 -0.3817  0.3943
 4411SOL     OW24694   2.550   3.399  17.149  0.4012 -0.0559 -0.3059
 4411SOL    HW124695   2.542   3.357  17.235  0.1806 -2.5033 -1.5277
 4411SOL    HW224696   2.458   3.419  17.132  0.8687  2.3726 -0.0894
 4412SOL     OW24697   1.052   3.364  15.966  0.0436  0.2174 -0.4240
 4412SOL    HW124698   0.974   3.312  15.948  0.8935 -0.8742 -0.9051
 4412SOL    HW224699   1.001   3.438  16.000 -1.0086  0.1901 -1.9796
 4413SOL     OW24700   0.562   4.576   5.016  0.2453  0.1640 -0.7564
 4413SOL    HW124701   0.584   4.617   5.100  0.9126  1.8089 -1.7398
 4413SOL    HW224702   0.617   4.628   4.957  0.2025  0.5284 -0.4814
 4414SOL     OW24703   1.175   0.382   5.633  0.1122 -0.0023  0.4987
 4414SOL    HW124704   1.242   0.319   5.607  0.2918  0.6442 -0.5534
 4414SOL    HW224705   1.097   0.330   5.611 -0.7461  2.8204 -3.1645
 4415SOL     OW24706   3.257   1.089   7.979  0.8305 -0.2736 -0.0389
 4415SOL    HW124707   3.339   1.117   8.020 -0.3192 -0.7773  2.5676
 4415SOL    HW224708   3.233   1.173   7.938 -1.9901 -0.5496  1.0853
 4416SOL     OW24709   3.500   3.534   6.724 -0.3117 -0.1016 -0.0345
 4416SOL    HW124710   3.544   3.452   6.748  0.6531  0.7089  0.9700
 4416SOL    HW224711   3.577   3.586   6.703 -1.1957  2.2439  2.6374
 4417SOL     OW24712   3.622   2.675  11.689 -0.0749  0.0712  0.3843
 4417SOL    HW124713   3.578   2.755  11.660 -2.1308 -0.3747  2.2040
 4417SOL    HW224714   3.686   2.652  11.622  0.3628  1.3710  0.3537
 4418SOL     OW24715   4.265   0.529   4.554 -0.1953  0.3616  0.1979
 4418SOL    HW124716   4.280   0.599   4.491 -1.1408 -0.0159 -0.4359
 4418SOL    HW224717   4.228   0.465   4.494  0.8599 -0.4901  0.4596
 4419SOL     OW24718   1.493   1.879  16.011  0.4784  0.0361  0.0553
 4419SOL    HW124719   1.543   1.898  16.091  0.4002  0.0103  0.1109
 4419SOL    HW224720   1.415   1.923  16.046  0.3771 -1.2826  1.4910
 4420SOL     OW24721   2.215   1.479   3.540  0.1172  0.5838  0.2094
 4420SOL    HW124722   2.238   1.446   3.627 -0.7152  0.0849  0.2350
 4420SOL    HW224723   2.211   1.571   3.567  1.7883  0.5338  0.6213
 4421SOL     OW24724   1.655   0.011  11.105 -0.4870 -0.0945 -0.3986
 4421SOL    HW124725   1.742   0.027  11.069  0.7034 -0.7390  2.2011
 4421SOL    HW224726   1.655   0.048  11.193 -0.7769 -0.1460 -0.3770
 4422SOL     OW24727   0.594   3.576  17.163 -0.7217 -0.3095 -0.2451
 4422SOL    HW124728   0.646   3.629  17.223  0.3177  0.1414 -1.5370
 4422SOL    HW224729   0.624   3.604  17.077  1.0429  0.4863  0.6304
 4423SOL     OW24730   4.167   2.652   5.233 -0.0622  0.5069  0.2005
 4423SOL    HW124731   4.226   2.702   5.177  0.5091  0.8554  1.1178
 4423SOL    HW224732   4.120   2.596   5.172 -0.8387 -1.8986  2.9822
 4424SOL     OW24733   2.195   0.138  13.758 -0.6943 -0.2377 -0.1505
 4424SOL    HW124734   2.165   0.087  13.683  0.8019 -0.5026 -0.5645
 4424SOL    HW224735   2.221   0.067  13.817  3.4304  0.3294 -1.2629
 4425SOL     OW24736   0.100   1.012  14.297 -0.2043  0.0171  0.6383
 4425SOL    HW124737   0.038   0.990  14.228 -0.6085  2.1808  0.2885
 4425SOL    HW224738   0.049   1.062  14.361 -0.5732  1.8075 -1.0347
 4426SOL     OW24739   3.537   0.449   8.510  0.1244 -0.0430 -0.1066
 4426SOL    HW124740   3.609   0.432   8.449 -0.2113  2.1434 -1.1012
 4426SOL    HW224741   3.579   0.458   8.596 -2.1070 -1.5146  1.1200
 4427SOL     OW24742   2.503   1.263   7.300 -0.8654 -0.3348 -0.2939
 4427SOL    HW124743   2.454   1.198   7.250 -1.5988  0.8804 -1.1360
 4427SOL    HW224744   2.440   1.329   7.328  0.7373  0.0407  2.4648
 4428SOL     OW24745   1.259   4.530  10.222 -0.1594  0.2055  0.4609
 4428SOL    HW124746   1.285   4.568  10.306 -0.8531  1.3170  0.1704
 4428SOL    HW224747   1.237   4.602  10.162 -0.1953 -0.0997  0.1046
 4429SOL     OW24748   2.292   3.981   3.504 -0.1439 -0.1274 -0.8481
 4429SOL    HW124749   2.221   4.046   3.502 -3.1387 -3.3699  0.1936
 4429SOL    HW224750   2.246   3.904   3.538  0.4046 -0.9556 -1.9961
 4430SOL     OW24751   2.150   0.849   1.537  0.6243  0.0776  0.4815
 4430SOL    HW124752   2.142   0.872   1.629 -1.6005 -1.0813  0.5803
 4430SOL    HW224753   2.132   0.930   1.489  1.9576  0.4014  0.5409
 4431SOL     OW24754   2.067   2.707  16.295  0.0506  0.7545  0.3508
 4431SOL    HW124755   2.125   2.747  16.231 -1.8759  2.1436 -0.5044
 4431SOL    HW224756   1.980   2.737  16.271  0.3294  1.6003  0.4102
 4432SOL     OW24757   0.428   1.052   9.025 -0.6945  0.4751 -0.4369
 4432SOL    HW124758   0.334   1.067   9.020 -0.6809 -0.3574 -3.0657
 4432SOL    HW224759   0.450   1.066   8.933 -3.0082 -0.6746 -1.1675
 4433SOL     OW24760   4.613   1.134  16.210  0.3176 -1.0407  0.1522
 4433SOL    HW124761   4.598   1.217  16.255 -1.2729 -0.3186 -1.6879
 4433SOL    HW224762   4.617   1.185  16.129  2.1752  0.6899  1.3480
 4434SOL     OW24763   0.088   1.389   8.767 -0.4267  0.6681  0.2026
 4434SOL    HW124764   0.155   1.434   8.716 -1.8001  2.6551  0.1144
 4434SOL    HW224765   0.109   1.412   8.857  2.7408  0.7633 -0.5741
 4435SOL     OW24766   0.716   4.152  11.344  0.5458 -0.0051 -0.0547
 4435SOL    HW124767   0.757   4.184  11.425  0.0379  0.4773  0.0087
 4435SOL    HW224768   0.790   4.161  11.284  0.8819 -1.2986  0.1556
 4436SOL     OW24769   0.211   2.754   3.914 -0.6998 -0.3955 -0.1890
 4436SOL    HW124770   0.156   2.783   3.987 -1.6714  0.8010 -1.3794
 4436SOL    HW224771   0.148   2.719   3.851 -1.5772  0.8260  0.0126
 4437SOL     OW24772   0.270   0.718   8.650 -0.1981  0.1850  0.2283
 4437SOL    HW124773   0.364   0.701   8.647 -0.6282 -2.0668 -0.0044
 4437SOL    HW224774   0.247   0.686   8.737 -2.1873 -1.1472 -0.7994
 4438SOL     OW24775   0.660   3.676  14.898 -0.0989 -0.7374 -0.3383
 4438SOL    HW124776   0.679   3.618  14.972  0.9516 -0.4429 -0.3738
 4438SOL    HW224777   0.696   3.756  14.936  1.1749 -0.8048 -1.4116
 4439SOL     OW24778   3.749   4.285   5.246  0.1351 -0.6451  0.0013
 4439SOL    HW124779   3.671   4.271   5.301 -1.6912  3.3258 -1.6097
 4439SOL    HW224780   3.727   4.215   5.185 -1.2445 -0.4742  0.2879
 4440SOL     OW24781   1.851   3.987   0.947  0.2887  0.1746  0.0114
 4440SOL    HW124782   1.946   3.979   0.933  0.1730 -0.1536 -0.5721
 4440SOL    HW224783   1.850   4.045   1.023 -2.3841 -1.8781  1.4932
 4441SOL     OW24784   4.348   4.172   4.446 -0.2763  0.3710 -0.1594
 4441SOL    HW124785   4.332   4.266   4.433  2.2603  0.6408 -1.3957
 4441SOL    HW224786   4.444   4.179   4.453 -0.3457  2.6239 -1.3902
 4442SOL     OW24787   2.541   2.459   6.833 -0.1264  0.0575  0.0803
 4442SOL    HW124788   2.501   2.509   6.904  1.4772  1.6994 -0.1815
 4442SOL    HW224789   2.506   2.505   6.757 -0.7792  0.8162  0.8391
 4443SOL     OW24790   0.945   0.937   4.514 -0.0738  0.5071 -0.4020
 4443SOL    HW124791   0.906   0.859   4.554  1.2216  0.3330  0.5282
 4443SOL    HW224792   1.014   0.963   4.576  0.2199 -2.7398  0.6462
 4444SOL     OW24793   0.262   1.740  12.466  0.1879  0.0701 -0.5966
 4444SOL    HW124794   0.256   1.689  12.547  0.5281 -1.0133 -1.2509
 4444SOL    HW224795   0.274   1.663  12.410 -0.6189 -1.2894  1.1009
 4445SOL     OW24796   1.827   1.355  15.196 -0.1347 -0.1209 -0.1735
 4445SOL    HW124797   1.899   1.403  15.154  1.2201 -2.7119 -0.8608
 4445SOL    HW224798   1.876   1.277  15.222 -1.5758 -0.6807  0.8215
 4446SOL     OW24799   0.717   2.611  13.601  0.2598  0.4983  0.3391
 4446SOL    HW124800   0.681   2.612  13.513  1.9595 -2.1273 -0.3730
 4446SOL    HW224801   0.644   2.566  13.644  0.3375 -1.7953 -1.9336
 4447SOL     OW24802   1.302   1.942  10.408  0.0598  0.0827 -0.0270
 4447SOL    HW124803   1.257   2.002  10.349  1.3276  1.5484  0.4771
 4447SOL    HW224804   1.391   1.974  10.393 -0.2833  1.2540  0.4308
 4448SOL     OW24805   3.451   4.531   1.823 -0.1334 -0.6356  0.3366
 4448SOL    HW124806   3.432   4.556   1.913 -0.4603 -0.6846  0.2827
 4448SOL    HW224807   3.406   4.447   1.810 -0.6085 -0.4945  1.0828
 4449SOL     OW24808   1.964   1.804   7.835  0.2219 -0.0887  0.5435
 4449SOL    HW124809   2.030   1.865   7.867 -0.0841  1.3861 -1.6080
 4449SOL    HW224810   1.887   1.858   7.825 -0.4082 -1.1807 -0.5478
 4450SOL     OW24811   1.203   3.097   7.219  0.5716  0.2089 -0.2407
 4450SOL    HW124812   1.226   3.176   7.170 -1.4605 -0.1453 -1.7898
 4450SOL    HW224813   1.273   3.036   7.199  0.3278 -0.1823  0.1014
 4451SOL     OW24814   2.100   4.519   2.801 -0.2539  0.4616 -0.5035
 4451SOL    HW124815   2.101   4.469   2.883  1.0478  3.1279  1.1379
 4451SOL    HW224816   2.025   4.482   2.754 -0.4885  0.2785  0.0139
 4452SOL     OW24817   0.630   3.303   9.417 -0.0290  0.1625 -0.0096
 4452SOL    HW124818   0.659   3.387   9.382 -0.0226 -0.3789 -1.3232
 4452SOL    HW224819   0.654   3.316   9.508 -2.5039  1.3685  0.4602
 4453SOL     OW24820   3.776   4.102   5.855 -0.1163 -0.1109 -0.5042
 4453SOL    HW124821   3.837   4.028   5.865 -1.1261 -0.9986 -0.9922
 4453SOL    HW224822   3.793   4.146   5.939 -0.8475 -0.4275 -0.1901
 4454SOL     OW24823   0.940   2.774  15.449 -0.0459  0.1300 -0.3323
 4454SOL    HW124824   0.988   2.824  15.383 -0.6138  0.2998 -0.6254
 4454SOL    HW224825   0.855   2.773  15.405 -0.0528 -0.0891 -0.3099
 4455SOL     OW24826   1.850   2.220   3.351  0.0516  0.4352 -0.3346
 4455SOL    HW124827   1.879   2.222   3.442 -1.1902  2.1471  0.0188
 4455SOL    HW224828   1.892   2.140   3.319 -0.3290  0.0579  0.1143
 4456SOL     OW24829   0.630   2.323   3.367  0.1521 -0.3348 -0.1552
 4456SOL    HW124830   0.718   2.328   3.405 -0.7813 -1.2849  2.1494
 4456SOL    HW224831   0.576   2.323   3.446  1.6838  0.5828  0.9006
 4457SOL     OW24832   1.119   4.381   3.620 -0.3207  0.3713 -0.1102
 4457SOL    HW124833   1.193   4.412   3.672  0.5983 -1.6641 -0.1688
 4457SOL    HW224834   1.156   4.299   3.587  0.2759 -0.1398  1.7812
 4458SOL     OW24835   2.869   0.195   6.926  0.2539 -0.0475  0.2020
 4458SOL    HW124836   2.950   0.245   6.914  1.2537 -1.9157 -0.7214
 4458SOL    HW224837   2.886   0.119   6.871  1.0597  0.2895 -0.0143
 4459SOL     OW24838   2.686   1.866   6.814 -0.2094  0.0928  0.1597
 4459SOL    HW124839   2.757   1.805   6.836  0.8266  0.2909 -2.6308
 4459SOL    HW224840   2.701   1.934   6.879 -1.5242 -0.3807  0.9640
 4460SOL     OW24841   4.132   4.638   2.735  0.0833 -0.0765  0.7776
 4460SOL    HW124842   4.104   4.607   2.649  0.6534  0.4456  0.4015
 4460SOL    HW224843   4.051   4.630   2.785  1.0786  0.7884  2.5588
 4461SOL     OW24844   1.513   1.376   4.748 -0.4857 -0.1411 -0.4724
 4461SOL    HW124845   1.556   1.291   4.737  1.0658  0.5943 -0.1447
 4461SOL    HW224846   1.475   1.363   4.835 -1.0038  1.2537 -0.4981
 4462SOL     OW24847   2.696   1.737   1.099  0.2978 -0.7392 -0.0940
 4462SOL    HW124848   2.645   1.713   1.021  1.1759  1.3088 -1.2972
 4462SOL    HW224849   2.614   1.761   1.141  0.6497 -1.0006  0.7419
 4463SOL     OW24850   1.539   1.663   4.608 -0.3688 -0.1174  0.0186
 4463SOL    HW124851   1.455   1.651   4.564  0.6715  0.7364 -2.1696
 4463SOL    HW224852   1.529   1.596   4.676 -1.1946 -2.4266 -2.3983
 4464SOL     OW24853   4.291   4.017  12.545  0.0929  0.3322 -0.1270
 4464SOL    HW124854   4.215   3.960  12.535  2.6107 -2.8701 -1.2156
 4464SOL    HW224855   4.366   3.964  12.517  0.4524  0.2933  0.9278
 4465SOL     OW24856   0.914   3.485   5.344 -0.1826  0.1044  0.1412
 4465SOL    HW124857   0.841   3.536   5.379  0.3682  0.0851  1.2897
 4465SOL    HW224858   0.988   3.516   5.396 -0.3928  0.6914  0.0900
 4466SOL     OW24859   3.000   1.632   4.698 -0.4158  0.7501 -0.0923
 4466SOL    HW124860   3.053   1.558   4.669  1.7336  3.0354 -2.0325
 4466SOL    HW224861   3.060   1.680   4.755  0.2101  0.9858 -0.9439
 4467SOL     OW24862   4.083   1.952  13.476 -0.2725 -0.1249  0.5017
 4467SOL    HW124863   4.132   1.977  13.398  0.4416 -2.2824  0.2463
 4467SOL    HW224864   4.038   1.873  13.445  1.0412 -0.2513 -1.0745
 4468SOL     OW24865   2.110   0.100   7.257  0.1366 -0.0499  0.2247
 4468SOL    HW124866   2.172   0.060   7.196  1.3661  2.2160  0.0062
 4468SOL    HW224867   2.077   0.171   7.202  1.0217 -0.0515 -0.3071
 4469SOL     OW24868   3.745   4.496   0.002 -0.5259  0.1867 -0.2636
 4469SOL    HW124869   3.755   4.416  17.639 -1.5236  1.2670 -2.0968
 4469SOL    HW224870   3.804   4.489   0.077 -1.3379  0.3406  0.3895
 4470SOL     OW24871   3.505   1.114   8.144  0.1175  0.2301 -0.4002
 4470SOL    HW124872   3.594   1.142   8.124  0.7471 -1.2777  0.2744
 4470SOL    HW224873   3.476   1.156   8.225  0.2152 -1.6269  0.6103
 4471SOL     OW24874   3.091   1.755   1.274 -0.4015  0.3904 -0.0108
 4471SOL    HW124875   3.077   1.761   1.180  0.8802  0.1321 -0.2291
 4471SOL    HW224876   3.157   1.823   1.291 -0.3884  0.7364 -1.4474
 4472SOL     OW24877   2.930   1.409  10.149  0.1598 -0.1537  0.2157
 4472SOL    HW124878   2.910   1.433  10.239 -0.2526 -0.2961  0.1614
 4472SOL    HW224879   2.870   1.335  10.139  0.0698 -0.1314  0.6114
 4473SOL     OW24880   0.094   1.345   2.360 -0.1763  0.0845 -0.7293
 4473SOL    HW124881   0.108   1.337   2.455  2.0841  1.6186 -0.9302
 4473SOL    HW224882   0.187   1.349   2.335 -0.4442 -0.9750 -1.8704
 4474SOL     OW24883   2.136   2.978   5.969 -0.1673 -0.6159 -0.1937
 4474SOL    HW124884   2.176   3.037   5.905 -1.3925  0.1131 -0.2812
 4474SOL    HW224885   2.175   2.892   5.952 -0.9355 -1.3010  1.5307
 4475SOL     OW24886   4.699   0.858   6.162  0.3172  0.1614  0.5849
 4475SOL    HW124887   4.651   0.807   6.227  0.4603 -1.8344 -0.8773
 4475SOL    HW224888   4.687   0.942   6.208  0.9770 -0.0045  1.0498
 4476SOL     OW24889   0.038   2.017   4.511  0.2046 -0.1449 -0.1300
 4476SOL    HW124890   4.703   2.046   4.582 -0.2958  0.5849 -0.8195
 4476SOL    HW224891   0.101   2.089   4.517  0.5313 -0.2772 -1.9355
 4477SOL     OW24892   2.153   0.790   6.446 -0.1664  0.2488  1.1930
 4477SOL    HW124893   2.122   0.827   6.363 -1.4071 -2.8330  0.2578
 4477SOL    HW224894   2.223   0.850   6.471 -0.3286  0.0036  2.2464
 4478SOL     OW24895   0.963   1.285   6.745  0.1422  0.2680  0.1802
 4478SOL    HW124896   0.927   1.214   6.798 -1.8959  0.3508 -1.1109
 4478SOL    HW224897   0.977   1.249   6.657 -2.7129 -1.3481  0.4044
 4479SOL     OW24898   4.382   4.306   8.359  0.5502 -0.1496 -0.2301
 4479SOL    HW124899   4.310   4.306   8.423  0.5322 -1.5870 -0.2546
 4479SOL    HW224900   4.374   4.392   8.318 -1.4632 -0.0891  0.2875
 4480SOL     OW24901   0.871   3.542  16.092 -0.0757 -0.1659 -0.0348
 4480SOL    HW124902   0.925   3.621  16.081  0.4276 -0.3300  1.2723
 4480SOL    HW224903   0.787   3.587  16.093 -0.6701 -1.2634 -0.9496
 4481SOL     OW24904   4.630   1.886   6.690 -0.0304  0.0584  0.1534
 4481SOL    HW124905   4.642   1.978   6.665 -1.0782  0.1942  0.1437
 4481SOL    HW224906   4.640   1.871   6.784  0.7887  1.5937  0.3127
 4482SOL     OW24907   4.598   3.993   6.313  0.0636  0.3396 -0.2294
 4482SOL    HW124908   4.581   4.076   6.269 -0.9954  0.3787  0.2537
 4482SOL    HW224909   4.641   3.950   6.239 -0.4239 -1.4474  0.5421
 4483SOL     OW24910   1.173   3.099   1.936  0.5518  0.0738  0.4795
 4483SOL    HW124911   1.183   3.040   2.011 -2.6573 -2.5887 -1.2127
 4483SOL    HW224912   1.261   3.106   1.900  0.1085  1.2052 -0.3733
 4484SOL     OW24913   0.980   4.428   8.635 -0.1572 -0.3670 -0.1940
 4484SOL    HW124914   0.970   4.333   8.632  0.9486 -0.5098  1.0064
 4484SOL    HW224915   1.005   4.447   8.725  0.2149  0.3256 -0.4387
 4485SOL     OW24916   0.229   0.908   8.229 -0.7808 -0.3595  0.5468
 4485SOL    HW124917   0.203   0.974   8.293  0.1107 -0.0464  0.5864
 4485SOL    HW224918   0.314   0.880   8.264 -0.3942 -0.5907 -0.5766
 4486SOL     OW24919   1.318   0.478   1.431 -0.5449  0.1746  0.3537
 4486SOL    HW124920   1.230   0.484   1.468 -0.8632  0.3855 -0.4259
 4486SOL    HW224921   1.311   0.541   1.358  0.1519  1.2428  1.2092
 4487SOL     OW24922   3.073   0.001   7.067  0.2095  0.2009 -0.1352
 4487SOL    HW124923   3.120   4.670   7.003 -0.6213 -0.5367 -0.1383
 4487SOL    HW224924   3.044   0.069   7.007  1.6008 -0.6255 -1.7515
 4488SOL     OW24925   1.796   4.197   4.920  0.2735 -0.0099 -0.1398
 4488SOL    HW124926   1.832   4.261   4.981 -2.3239  1.4205 -0.1119
 4488SOL    HW224927   1.702   4.208   4.937 -0.1805 -2.8949 -0.7697
 4489SOL     OW24928   3.797   0.588   5.472  1.2247  0.0467 -0.2080
 4489SOL    HW124929   3.837   0.620   5.390 -0.1459  2.0009 -0.1254
 4489SOL    HW224930   3.811   0.494   5.463  0.3131 -0.0859 -0.1857
 4490SOL     OW24931   0.977   3.273   3.994  0.3756 -0.5470 -0.3201
 4490SOL    HW124932   0.943   3.212   3.929 -0.1270  0.3465 -0.9051
 4490SOL    HW224933   1.056   3.293   3.945 -0.6191  1.3820 -1.1583
 4491SOL     OW24934   1.733   0.016   5.188 -0.2089  0.3104  0.6510
 4491SOL    HW124935   1.797   4.676   5.152 -1.9247 -1.2126  0.2194
 4491SOL    HW224936   1.754   0.098   5.143  0.3881  0.2089  0.7444
 4492SOL     OW24937   2.740   1.666   6.032  0.3389 -0.0210 -0.2569
 4492SOL    HW124938   2.755   1.593   5.971 -0.1146 -1.8610  1.8108
 4492SOL    HW224939   2.644   1.668   6.029  0.2591  0.7761  2.5352
 4493SOL     OW24940   4.318   3.713   2.571  0.2087 -0.2169  0.2267
 4493SOL    HW124941   4.330   3.626   2.610  0.0760 -0.7441 -0.9153
 4493SOL    HW224942   4.382   3.702   2.501 -1.0318 -2.0221 -0.6061
 4494SOL     OW24943   2.204   2.068   4.535  0.3972 -0.0720 -0.6789
 4494SOL    HW124944   2.274   2.118   4.492 -1.2573  1.6344 -1.3807
 4494SOL    HW224945   2.174   2.010   4.466  2.2637 -2.2280  0.3198
 4495SOL     OW24946   3.554   0.140   4.234 -0.2099 -0.2900  0.1686
 4495SOL    HW124947   3.629   0.185   4.196 -1.3862  2.1117  0.6552
 4495SOL    HW224948   3.536   0.198   4.308 -0.3198 -0.3355  0.1771
 4496SOL     OW24949   3.494   1.100   4.349 -0.2691 -0.4760  0.6770
 4496SOL    HW124950   3.414   1.055   4.319 -0.2842  0.9526 -1.4581
 4496SOL    HW224951   3.553   1.025   4.350  0.5594  0.1334 -2.3216
 4497SOL     OW24952   0.437   4.576   0.614  0.3268  0.4329  0.4226
 4497SOL    HW124953   0.455   4.554   0.523  0.0674  0.1771  0.4332
 4497SOL    HW224954   0.518   4.626   0.622  0.1078  0.8838 -0.1388
 4498SOL     OW24955   2.076   0.532   4.400 -0.1304 -0.3663 -0.4127
 4498SOL    HW124956   2.127   0.551   4.478 -0.6518  2.3442 -0.7460
 4498SOL    HW224957   2.029   0.455   4.432 -0.6405 -0.9990 -2.6375
 4499SOL     OW24958   2.140   0.426  11.498  0.2280 -0.1614  0.2047
 4499SOL    HW124959   2.081   0.354  11.478 -0.5514 -0.1243  2.3883
 4499SOL    HW224960   2.094   0.479  11.564 -0.1168  3.1179 -2.6409
 4500SOL     OW24961   3.430   0.469   7.188 -0.1816  0.0373  0.0587
 4500SOL    HW124962   3.464   0.410   7.256  0.1009 -1.2046 -1.1533
 4500SOL    HW224963   3.516   0.497   7.158  0.9420 -1.3412  1.9533
 4501SOL     OW24964   4.160   0.246   4.837  0.0284  0.0309 -0.2223
 4501SOL    HW124965   4.201   0.163   4.861  1.6184  1.2664  1.2595
 4501SOL    HW224966   4.236   0.289   4.798  0.6604 -2.3383 -1.6399
 4502SOL     OW24967   4.719   3.628   9.781  0.1813  0.0497  0.3730
 4502SOL    HW124968   4.627   3.600   9.785  0.7649 -1.8414  0.9580
 4502SOL    HW224969   0.045   3.547   9.762  2.0077  0.1986  4.2720
 4503SOL     OW24970   0.651   3.055   3.279 -0.4478  0.0051  0.5032
 4503SOL    HW124971   0.655   2.980   3.220 -1.1772  0.9919 -0.7862
 4503SOL    HW224972   0.717   3.114   3.243 -1.2935  1.0358  0.6676
 4504SOL     OW24973   2.650   1.766  16.333  0.4417  0.6340 -0.2090
 4504SOL    HW124974   2.655   1.768  16.238  0.8924  1.9863 -0.1458
 4504SOL    HW224975   2.740   1.776  16.364 -0.4249  1.7677  1.9507
 4505SOL     OW24976   3.208   2.976   5.979  0.3355 -0.2347  0.0519
 4505SOL    HW124977   3.301   2.996   5.990  0.0130  1.0009  0.5279
 4505SOL    HW224978   3.168   3.062   5.965  1.5739 -0.0522 -2.3618
 4506SOL     OW24979   0.126   4.213   7.587 -0.2557 -0.2813 -0.2062
 4506SOL    HW124980   0.044   4.163   7.593 -2.3234  3.1882  0.3754
 4506SOL    HW224981   0.193   4.145   7.594 -0.3009 -0.2512  0.5333
 4507SOL     OW24982   1.002   0.137   5.530  0.4411  0.2343 -0.0729
 4507SOL    HW124983   0.960   0.053   5.551 -0.3052 -0.2834 -3.5891
 4507SOL    HW224984   1.087   0.114   5.567 -0.5632 -1.2279  1.3739
 4508SOL     OW24985   1.588   3.388   6.585  0.0396 -0.5898  0.3834
 4508SOL    HW124986   1.559   3.362   6.672 -0.5794 -0.7213  0.1421
 4508SOL    HW224987   1.678   3.361   6.599 -0.3014 -1.6147  0.5928
 4509SOL     OW24988   0.828   0.634   3.592  0.6911  0.2526  0.0116
 4509SOL    HW124989   0.802   0.724   3.576 -1.5185 -0.9238 -3.1268
 4509SOL    HW224990   0.813   0.619   3.685  0.4927  1.5306  0.1779
 4510SOL     OW24991   0.908   0.162  13.194  0.1606 -0.4920  0.2172
 4510SOL    HW124992   0.813   0.172  13.188  0.2389  0.9533  1.3403
 4510SOL    HW224993   0.914   0.069  13.174  0.0744 -0.0555 -1.8189
 4511SOL     OW24994   2.720   3.793   5.552 -0.1175  0.0150  0.0921
 4511SOL    HW124995   2.773   3.714   5.564 -0.3881 -0.5008 -2.2148
 4511SOL    HW224996   2.742   3.841   5.632 -2.2062  1.1255 -0.0024
 4512SOL     OW24997   0.545   3.386   8.003  0.4783 -0.1422 -0.8317
 4512SOL    HW124998   0.604   3.453   7.968  0.9175 -0.8861 -1.5296
 4512SOL    HW224999   0.461   3.427   7.985  1.4017  0.3452 -4.0610
 4513SOL     OW25000   2.959   0.935   9.560  0.2018  0.2291  0.4144
 4513SOL    HW125001   2.931   0.954   9.470  0.2318  1.1205  0.5896
 4513SOL    HW225002   2.879   0.941   9.612 -0.3500 -2.1437 -0.1647
 4514SOL     OW25003   4.707   1.928   2.873  0.0375 -0.5755 -0.7308
 4514SOL    HW125004   4.620   1.932   2.911  0.8959  1.2936  1.0455
 4514SOL    HW225005   4.701   1.853   2.814  0.4540 -1.7805  0.7586
 4515SOL     OW25006   4.668   0.056   7.787  0.8287 -0.5204 -0.4847
 4515SOL    HW125007   0.026   0.104   7.766  0.6128  0.0278 -0.0484
 4515SOL    HW225008   4.658   0.069   7.881 -1.8072  3.0807 -1.2405
 4516SOL     OW25009   3.675   2.203  16.434 -0.3425  0.2214  0.3570
 4516SOL    HW125010   3.703   2.231  16.347 -0.0084  0.8933  0.6818
 4516SOL    HW225011   3.749   2.174  16.486 -0.7578  1.5761  1.7128
 4517SOL     OW25012   3.392   2.858  12.183  0.3594  0.1871 -0.1857
 4517SOL    HW125013   3.475   2.867  12.230  0.9116  1.4532 -1.4186
 4517SOL    HW225014   3.412   2.775  12.139 -0.4968 -1.1138  1.8799
 4518SOL     OW25015   3.509   0.219   7.359  0.4213  0.0786 -0.1705
 4518SOL    HW125016   3.598   0.187   7.343  0.7355  0.4858  0.7832
 4518SOL    HW225017   3.462   0.140   7.386  0.1545  0.4055  0.3075
 4519SOL     OW25018   4.539   1.907   2.348  0.3399  0.2223  0.0812
 4519SOL    HW125019   4.591   1.963   2.290 -0.5492  0.6141 -0.3314
 4519SOL    HW225020   4.568   1.821   2.318 -1.5678 -0.6305  0.6960
 4520SOL     OW25021   0.232   2.174  15.620  0.2591  0.2990 -0.3188
 4520SOL    HW125022   0.304   2.233  15.645  0.1984  0.7606 -1.2293
 4520SOL    HW225023   0.235   2.118  15.698  1.4554  0.6252 -0.1295
 4521SOL     OW25024   3.221   2.338   4.812 -0.8510 -0.0420 -0.1326
 4521SOL    HW125025   3.213   2.425   4.773  2.7935  0.3771  0.0504
 4521SOL    HW225026   3.236   2.288   4.732 -1.7718 -2.9867  1.5324
 4522SOL     OW25027   2.219   1.560   4.354  0.7614 -0.1457 -0.0292
 4522SOL    HW125028   2.201   1.556   4.260  2.2504  1.9132 -0.4165
 4522SOL    HW225029   2.232   1.467   4.371 -0.9999 -0.6429 -1.4120
 4523SOL     OW25030   2.258   0.194   8.546 -0.1080  0.0449 -0.1479
 4523SOL    HW125031   2.302   0.264   8.594 -1.6272 -1.4427  3.4400
 4523SOL    HW225032   2.273   0.122   8.608  1.1704 -0.1175 -0.6564
 4524SOL     OW25033   2.493   4.011   8.719  0.5616 -0.5415  0.5486
 4524SOL    HW125034   2.411   3.992   8.674  0.9081 -1.3203  0.2520
 4524SOL    HW225035   2.463   4.000   8.810  0.1016  0.2409  0.4907
 4525SOL     OW25036   1.879   4.006  15.610  0.3006  0.5579  0.2412
 4525SOL    HW125037   1.934   3.978  15.537  1.6430 -0.8903  1.8127
 4525SOL    HW225038   1.796   3.972  15.576  1.4814  0.6076 -2.6820
 4526SOL     OW25039   0.378   3.838   2.340 -0.2384  0.6452 -0.4208
 4526SOL    HW125040   0.393   3.933   2.337  0.7554  0.4444 -1.7110
 4526SOL    HW225041   0.336   3.838   2.426  0.2347 -2.1178 -0.1876
 4527SOL     OW25042   2.451   4.413   8.400  0.1244 -0.2939 -0.1103
 4527SOL    HW125043   2.526   4.419   8.459  2.0575 -1.9549 -2.3909
 4527SOL    HW225044   2.381   4.375   8.452  0.2156  2.9359  2.3549
 4528SOL     OW25045   3.633   3.410   7.918 -0.2066  0.2748 -0.1482
 4528SOL    HW125046   3.708   3.455   7.881  0.1979 -1.3350 -1.2781
 4528SOL    HW225047   3.567   3.474   7.892  0.7295  1.2754 -0.0222
 4529SOL     OW25048   3.318   0.125   8.090 -0.2268 -0.2652 -0.2240
 4529SOL    HW125049   3.381   0.197   8.094 -0.3895 -0.2090  1.3553
 4529SOL    HW225050   3.373   0.052   8.062  0.7860  1.1800 -1.9978
 4530SOL     OW25051   2.707   2.117   9.003  0.1248 -0.1517  0.7609
 4530SOL    HW125052   2.649   2.060   8.952  2.7024 -1.9306 -0.1741
 4530SOL    HW225053   2.776   2.056   9.028 -0.0385 -0.5970  0.1229
 4531SOL     OW25054   1.536   4.308  12.865 -0.1246  0.1446  0.3820
 4531SOL    HW125055   1.607   4.296  12.801 -1.7913 -0.1738 -1.4192
 4531SOL    HW225056   1.557   4.395  12.898 -1.6197  0.9721 -0.8152
 4532SOL     OW25057   2.334   3.736  14.681  0.0192  0.1425 -0.1322
 4532SOL    HW125058   2.379   3.652  14.672  1.1094  0.7131 -0.0039
 4532SOL    HW225059   2.243   3.711  14.698  1.1138 -4.0464 -0.5579
 4533SOL     OW25060   0.266   1.175   4.936  0.0545 -0.4295  0.0716
 4533SOL    HW125061   0.264   1.083   4.961 -0.6295 -0.8852 -1.6509
 4533SOL    HW225062   0.237   1.219   5.015  0.0251  0.5992 -0.5146
 4534SOL     OW25063   3.689   2.822   2.105  0.2125  0.3962  0.0155
 4534SOL    HW125064   3.781   2.829   2.080  0.7426 -1.9435  1.2957
 4534SOL    HW225065   3.701   2.819   2.200  0.5624  1.2444 -0.0026
 4535SOL     OW25066   1.939   3.081   7.854 -0.4197 -0.0152  0.2536
 4535SOL    HW125067   1.887   3.103   7.932 -2.0115 -0.6867 -0.6301
 4535SOL    HW225068   2.021   3.065   7.901  0.2619 -1.0154 -1.2876
 4536SOL     OW25069   1.693   3.631  11.465 -0.0323  0.8187  0.2558
 4536SOL    HW125070   1.773   3.658  11.509 -0.9647  0.0063  2.4747
 4536SOL    HW225071   1.658   3.716  11.436 -0.5193  0.2764 -0.7670
 4537SOL     OW25072   2.341   2.413   5.751  0.1609 -0.0357 -0.4414
 4537SOL    HW125073   2.290   2.404   5.671  0.1030 -0.3379 -0.3708
 4537SOL    HW225074   2.386   2.497   5.745 -0.4799  0.1904 -2.0473
 4538SOL     OW25075   4.025   1.856   9.318  0.1093  0.4686 -0.0672
 4538SOL    HW125076   3.933   1.831   9.306  0.3540  1.0458 -3.1304
 4538SOL    HW225077   4.040   1.866   9.224  3.4796 -1.4800  0.2903
 4539SOL     OW25078   2.327   1.855   4.338  0.0157  0.4058  0.4752
 4539SOL    HW125079   2.385   1.877   4.411  0.6731 -0.0642  0.0934
 4539SOL    HW225080   2.331   1.759   4.338  0.1042  0.4073  1.3398
 4540SOL     OW25081   3.894   4.586   9.185  0.3796  0.4712 -0.3258
 4540SOL    HW125082   3.989   4.580   9.196  0.2624 -1.7725 -0.5667
 4540SOL    HW225083   3.861   4.497   9.198 -0.1184  0.7262  0.1832
 4541SOL     OW25084   3.152   3.070   9.382 -0.4572 -0.1407 -0.1242
 4541SOL    HW125085   3.080   3.132   9.394  0.4579  1.0172 -0.6562
 4541SOL    HW225086   3.157   3.053   9.288  0.7537  1.0506 -0.2841
 4542SOL     OW25087   0.829   2.281   3.716 -0.3245 -0.2759  0.4605
 4542SOL    HW125088   0.734   2.270   3.723 -0.4923  1.1327  0.3225
 4542SOL    HW225089   0.862   2.365   3.748  0.4474 -0.5750  0.4610
 4543SOL     OW25090   3.497   4.662   6.205 -0.0820  0.1020  0.3027
 4543SOL    HW125091   3.493   4.589   6.144  1.8397  1.4918 -1.5121
 4543SOL    HW225092   3.495   0.016   6.146  1.1330 -0.5540 -0.5925
 4544SOL     OW25093   0.329   0.422   1.216 -0.4093 -0.0124  0.2287
 4544SOL    HW125094   0.253   0.472   1.244 -0.1101  0.8861 -0.5773
 4544SOL    HW225095   0.295   0.333   1.209 -1.7307  0.5268 -0.1141
 4545SOL     OW25096   1.847   0.603   6.780  0.7673 -0.1157 -0.3767
 4545SOL    HW125097   1.940   0.603   6.803  0.4703 -0.8452  0.8101
 4545SOL    HW225098   1.823   0.511   6.782 -0.9995  0.3433 -0.7772
 4546SOL     OW25099   2.734   3.026  11.599 -0.0080  0.1062 -0.0725
 4546SOL    HW125100   2.681   3.088  11.548 -0.3674 -0.4538 -0.3871
 4546SOL    HW225101   2.811   3.071  11.634  0.3898  0.8034 -1.8049
 4547SOL     OW25102   4.442   2.980  14.581  0.2303  0.4161 -0.3567
 4547SOL    HW125103   4.431   3.073  14.601 -0.0777  0.0802  1.0395
 4547SOL    HW225104   4.471   2.980  14.490  3.8362 -1.3537  0.7713
 4548SOL     OW25105   2.409   2.234   5.127  0.2020 -0.0026  0.2630
 4548SOL    HW125106   2.328   2.196   5.159  0.9111 -1.3727  0.4044
 4548SOL    HW225107   2.405   2.328   5.147  1.0285  0.2455 -0.6893
 4549SOL     OW25108   0.846   2.967  11.951  0.0091 -0.1302 -0.2010
 4549SOL    HW125109   0.762   2.966  11.998 -0.0258 -1.1762 -0.2936
 4549SOL    HW225110   0.833   2.885  11.904  1.9523 -0.3624 -0.3411
 4550SOL     OW25111   0.164   2.189  16.874  0.3775 -0.6002  0.6721
 4550SOL    HW125112   0.137   2.101  16.849  0.4300  0.2698 -2.4297
 4550SOL    HW225113   0.189   2.171  16.965  3.0156  0.0022  0.0663
 4551SOL     OW25114   1.390   3.618  12.741  0.3083 -0.1838 -0.3448
 4551SOL    HW125115   1.349   3.596  12.824  0.0734 -0.1270 -0.4451
 4551SOL    HW225116   1.442   3.540  12.724  1.4781  0.7016 -0.8373
 4552SOL     OW25117   2.190   3.045   1.984  0.1824  0.0329 -0.1803
 4552SOL    HW125118   2.165   3.021   1.895 -0.3845  0.4923 -0.1389
 4552SOL    HW225119   2.266   3.095   1.954  2.0093 -1.4301  2.0176
 4553SOL     OW25120   1.725   1.185  14.583  0.3177 -0.1849  0.3479
 4553SOL    HW125121   1.660   1.219  14.522  2.5572  1.9488 -0.8754
 4553SOL    HW225122   1.704   1.092  14.578 -0.3607 -0.0466  0.6776
 4554SOL     OW25123   3.883   1.495   4.670  0.2962 -0.8041 -0.1185
 4554SOL    HW125124   3.872   1.561   4.739  2.7190 -1.1495  0.6099
 4554SOL    HW225125   3.912   1.418   4.719 -1.7696 -1.7118 -0.3211
 4555SOL     OW25126   2.264   3.368   1.764 -0.0718  0.3223 -0.3451
 4555SOL    HW125127   2.314   3.313   1.824  0.9555  2.5494  0.8570
 4555SOL    HW225128   2.217   3.297   1.721  0.9715  0.3511 -1.5427
 4556SOL     OW25129   3.231   3.314   4.769 -0.1143 -0.3275  0.2098
 4556SOL    HW125130   3.307   3.260   4.792 -0.1259  0.1530  1.3653
 4556SOL    HW225131   3.210   3.353   4.854  2.1288  0.3029  0.4793
 4557SOL     OW25132   0.701   4.504  11.527  0.3874  0.1083 -0.1144
 4557SOL    HW125133   0.616   4.548  11.535  0.4849  0.3683 -0.4862
 4557SOL    HW225134   0.729   4.485  11.616 -0.7121  0.9513  0.4084
 4558SOL     OW25135   3.783   1.458   9.748  0.0680 -0.2612 -0.2596
 4558SOL    HW125136   3.827   1.384   9.706  3.1993  1.1381  0.5548
 4558SOL    HW225137   3.787   1.523   9.677 -2.0302 -0.5744 -0.6689
 4559SOL     OW25138   1.619   4.337  11.433  0.1555  0.5647 -0.5707
 4559SOL    HW125139   1.665   4.344  11.517  0.0249 -0.8283 -0.3875
 4559SOL    HW225140   1.695   4.345  11.376 -0.2104 -0.0496 -1.1433
 4560SOL     OW25141   1.231   0.388   1.017  0.5041  0.3442  0.1271
 4560SOL    HW125142   1.158   0.326   1.006  1.2286 -0.7350  1.3660
 4560SOL    HW225143   1.229   0.394   1.112 -0.5156 -0.6673  0.1689
 4561SOL     OW25144   4.342   3.545  15.126  0.9320 -0.5625  0.3581
 4561SOL    HW125145   4.357   3.491  15.049 -0.3833  0.0209 -0.3153
 4561SOL    HW225146   4.423   3.525  15.174 -0.6339 -2.1634  2.3560
 4562SOL     OW25147   2.085   4.307   0.941  0.7888  0.4051 -0.2615
 4562SOL    HW125148   2.086   4.229   0.885  0.3081  0.8833 -0.9373
 4562SOL    HW225149   1.995   4.310   0.975  0.6770  2.4230 -0.7310
 4563SOL     OW25150   3.597   2.540   6.675 -0.1657  0.0913  0.2369
 4563SOL    HW125151   3.543   2.498   6.742 -0.1009  1.3743  1.1118
 4563SOL    HW225152   3.537   2.557   6.603  1.9021  1.0963 -1.2625
 4564SOL     OW25153   1.624   4.679   6.417  0.0060  0.0750 -0.1212
 4564SOL    HW125154   1.710   4.705   6.382  0.5241 -2.3350 -0.6044
 4564SOL    HW225155   1.637   4.649   6.507 -1.1813  0.8460  0.3026
 4565SOL     OW25156   2.674   4.295   6.793  0.1855  0.4214  0.1023
 4565SOL    HW125157   2.625   4.343   6.859  0.5456 -0.9197  1.3577
 4565SOL    HW225158   2.661   4.208   6.831 -1.1826  0.4465 -0.3341
 4566SOL     OW25159   1.214   1.198   8.301 -0.5178 -0.4614  0.0242
 4566SOL    HW125160   1.239   1.266   8.239  0.7842 -1.9499 -1.0576
 4566SOL    HW225161   1.130   1.233   8.333  0.8359  1.5277  1.3741
 4567SOL     OW25162   1.330   0.554   3.498  0.3274  0.3518  0.0224
 4567SOL    HW125163   1.257   0.601   3.457  1.4777  3.1166  1.1367
 4567SOL    HW225164   1.301   0.468   3.529 -0.6613 -0.0365 -2.0374
 4568SOL     OW25165   3.407   0.872   5.350  0.0904 -0.1203 -0.0142
 4568SOL    HW125166   3.372   0.789   5.316  1.2567 -0.2035 -1.0082
 4568SOL    HW225167   3.434   0.903   5.263 -0.4679  0.4826  0.0291
 4569SOL     OW25168   1.786   0.760   0.452  0.2393 -0.6641  0.0206
 4569SOL    HW125169   1.734   0.736   0.375  0.1658 -1.2794  0.2596
 4569SOL    HW225170   1.875   0.743   0.422  1.3430  3.7587  0.6692
 4570SOL     OW25171   1.854   2.764   0.112 -0.2631 -0.3818  0.5917
 4570SOL    HW125172   1.826   2.753   0.203 -0.8810  0.8798  0.5559
 4570SOL    HW225173   1.876   2.673   0.093  0.4673  0.4390 -2.5275
 4571SOL     OW25174   1.124   3.872   7.150 -0.0056  0.2641 -0.1363
 4571SOL    HW125175   1.199   3.815   7.136  0.3656  1.5082 -3.2418
 4571SOL    HW225176   1.090   3.888   7.062  0.0303  3.2305  0.3624
 4572SOL     OW25177   3.010   1.754   3.894 -0.4152  0.0656  0.0079
 4572SOL    HW125178   2.937   1.813   3.908  0.5444  1.6978 -1.7787
 4572SOL    HW225179   3.072   1.794   3.955 -0.5702  1.1582 -0.5490
 4573SOL     OW25180   0.418   0.954   3.230 -0.2642 -0.6143 -0.1287
 4573SOL    HW125181   0.327   0.941   3.201 -0.2769 -2.0044  0.5226
 4573SOL    HW225182   0.436   1.045   3.207 -0.0588 -0.7364 -0.4493
 4574SOL     OW25183   2.763   2.194   1.557 -0.0969 -0.0781 -0.4753
 4574SOL    HW125184   2.705   2.180   1.631  1.3769  0.2692  0.7300
 4574SOL    HW225185   2.717   2.158   1.480 -3.3788  0.2418  1.3284
 4575SOL     OW25186   3.984   4.711   5.195  0.2818 -0.0527  0.4524
 4575SOL    HW125187   3.958   0.080   5.184 -1.1200 -0.4022  0.9693
 4575SOL    HW225188   4.025   4.701   5.281 -0.6211 -2.2649  0.6297
 4576SOL     OW25189   4.457   1.348  10.794  0.1953  0.2626 -0.0455
 4576SOL    HW125190   4.395   1.294  10.747  0.1495 -0.7512  1.1916
 4576SOL    HW225191   4.423   1.437  10.782 -0.6685 -0.0916 -0.2041
 4577SOL     OW25192   0.398   2.261   3.204  0.1825  0.1039 -0.3273
 4577SOL    HW125193   0.474   2.211   3.233  0.1399 -0.2321 -0.7971
 4577SOL    HW225194   0.440   2.318   3.139  0.2816 -0.9244 -1.1709
 4578SOL     OW25195   2.065   0.831   6.695 -0.5177  0.8332 -0.3092
 4578SOL    HW125196   2.082   0.925   6.684 -0.1629  0.9624  1.3433
 4578SOL    HW225197   2.095   0.804   6.608 -2.0715  0.9273 -0.8737
 4579SOL     OW25198   3.480   1.822   7.783 -0.1198  0.8151  0.4556
 4579SOL    HW125199   3.393   1.851   7.756 -0.8908 -2.6653 -0.8835
 4579SOL    HW225200   3.481   1.734   7.743 -1.6173 -0.6122  3.5426
 4580SOL     OW25201   2.673   2.846  15.684  0.0871 -0.0438 -0.6048
 4580SOL    HW125202   2.598   2.904  15.668  1.3286  1.4271 -1.1279
 4580SOL    HW225203   2.735   2.913  15.654  1.1278 -1.0880 -0.7967
 4581SOL     OW25204   3.158   2.761   9.104  0.4740  0.3072 -0.4369
 4581SOL    HW125205   3.237   2.706   9.108  1.1587  1.4032  0.9946
 4581SOL    HW225206   3.091   2.726   9.164 -1.0035  1.9970 -1.1108
 4582SOL     OW25207   3.102   0.696   3.874 -0.1751  0.1172 -0.3309
 4582SOL    HW125208   3.023   0.664   3.917 -1.3865  3.6005  0.0372
 4582SOL    HW225209   3.083   0.667   3.784  0.3947 -1.5690  0.0916
 4583SOL     OW25210   2.146   3.191   9.635 -0.2319  0.5811 -0.3637
 4583SOL    HW125211   2.109   3.273   9.669 -0.2092  0.2441  0.4523
 4583SOL    HW225212   2.184   3.153   9.713  1.3357 -0.4892 -1.6560
 4584SOL     OW25213   2.153   3.267   6.551  0.2299  0.2539  0.2724
 4584SOL    HW125214   2.220   3.335   6.542  0.8769 -0.4893 -0.5545
 4584SOL    HW225215   2.190   3.213   6.621 -0.2160  0.8493  0.9590
 4585SOL     OW25216   1.505   3.093   2.670 -0.1530  0.0567 -0.4996
 4585SOL    HW125217   1.511   3.008   2.713 -0.2375  1.5573  2.4655
 4585SOL    HW225218   1.496   3.073   2.577  0.9977 -0.2935 -0.5300
 4586SOL     OW25219   0.604   0.040   3.279  0.2860  0.8137  0.0131
 4586SOL    HW125220   0.564   0.076   3.200  0.2520 -2.1441 -1.3525
 4586SOL    HW225221   0.682   4.721   3.240 -0.9861 -1.8876  0.2741
 4587SOL     OW25222   3.058   4.161   7.013  0.0415  0.0709 -0.3862
 4587SOL    HW125223   3.100   4.092   7.066 -2.3291 -1.0616  0.0144
 4587SOL    HW225224   3.115   4.233   7.038 -2.1499  1.7731 -0.3135
 4588SOL     OW25225   1.926   3.393   5.151 -0.2515 -0.7335  0.0144
 4588SOL    HW125226   1.867   3.330   5.108  0.9991 -1.4703 -0.6140
 4588SOL    HW225227   1.987   3.326   5.180 -1.0320 -1.1775  0.6341
 4589SOL     OW25228   4.313   4.034   8.483  0.4732  0.3365 -0.6915
 4589SOL    HW125229   4.282   4.114   8.440 -2.1468 -0.8207 -0.9933
 4589SOL    HW225230   4.407   4.040   8.495  0.6232 -0.7983 -1.3227
 4590SOL     OW25231   3.288   0.913  16.193 -0.1949 -0.2849 -0.4165
 4590SOL    HW125232   3.254   0.974  16.259 -0.5843 -0.3049 -0.5974
 4590SOL    HW225233   3.261   0.957  16.113  0.3510  1.2785  0.2663
 4591SOL     OW25234   3.670   1.394   5.281 -0.5712 -0.0281  0.0148
 4591SOL    HW125235   3.585   1.365   5.249 -1.0618  0.9774  0.4126
 4591SOL    HW225236   3.655   1.399   5.375  0.0722  2.7135 -0.0184
 4592SOL     OW25237   4.481   2.767   9.084  0.1062 -0.4094  0.2299
 4592SOL    HW125238   4.397   2.812   9.074 -0.9675 -2.3402  0.3807
 4592SOL    HW225239   4.486   2.784   9.178 -0.1220  1.8430 -0.1805
 4593SOL     OW25240   3.123   3.616  15.404 -0.1745  0.1714 -0.1978
 4593SOL    HW125241   3.193   3.578  15.457 -0.0604  0.6393 -0.0132
 4593SOL    HW225242   3.175   3.678  15.354  1.2258  0.0174  1.0690
 4594SOL     OW25243   4.592   0.166   1.403 -0.0828 -0.8592  0.0653
 4594SOL    HW125244   4.515   0.211   1.367  1.3087  0.5996 -1.1109
 4594SOL    HW225245   4.667   0.218   1.375  0.7258 -1.4860  1.1153
 4595SOL     OW25246   4.341   0.021   8.645  0.1557 -0.2408  0.1500
 4595SOL    HW125247   4.392   4.675   8.601  1.3733 -0.2365  1.5550
 4595SOL    HW225248   4.375   0.037   8.733  1.2420  1.9632 -0.7032
 4596SOL     OW25249   2.926   1.668   4.454  0.1862 -0.3913 -0.1091
 4596SOL    HW125250   2.832   1.686   4.449  0.1295 -0.9177 -0.9398
 4596SOL    HW225251   2.940   1.644   4.546 -1.0683 -0.0782  0.1706
 4597SOL     OW25252   0.802   4.239  14.517  0.4704  0.0445  0.0103
 4597SOL    HW125253   0.796   4.294  14.595  0.2906 -0.4369  0.3326
 4597SOL    HW225254   0.793   4.147  14.539  0.4312  0.0304 -0.0659
 4598SOL     OW25255   4.153   0.502   9.729  0.0819  0.3326 -0.1916
 4598SOL    HW125256   4.232   0.554   9.725 -0.5381  1.4081  1.3703
 4598SOL    HW225257   4.188   0.420   9.695 -0.6581  0.0938 -0.3814
 4599SOL     OW25258   3.337   0.416   8.878 -0.2529  0.0934 -0.0017
 4599SOL    HW125259   3.287   0.483   8.925  0.2553  0.1474  0.4649
 4599SOL    HW225260   3.312   0.347   8.940  0.1015 -0.5028 -0.5249
 4600SOL     OW25261   3.368   2.234  12.025  0.0645  0.3977 -0.1540
 4600SOL    HW125262   3.322   2.178  11.964  0.3400  1.2228 -1.1174
 4600SOL    HW225263   3.331   2.229  12.113 -0.3343 -2.2350 -0.4792
 4601SOL     OW25264   4.641   0.369   7.852 -0.6581 -0.6211  0.2757
 4601SOL    HW125265   4.555   0.338   7.881 -1.1128  0.6311  0.2740
 4601SOL    HW225266   4.636   0.346   7.760 -0.2334  1.0857 -0.1661
 4602SOL     OW25267   0.730   3.285   2.846 -0.2920  0.0447 -0.3199
 4602SOL    HW125268   0.673   3.361   2.835 -0.7144 -0.2861 -0.4151
 4602SOL    HW225269   0.667   3.213   2.844  1.6007 -1.6484  0.9895
 4603SOL     OW25270   1.215   4.462   5.392 -0.0301  0.1330 -0.6197
 4603SOL    HW125271   1.154   4.396   5.425 -0.4544  0.2193 -1.2409
 4603SOL    HW225272   1.187   4.469   5.301 -0.8386  0.1646 -0.3702
 4604SOL     OW25273   3.439   0.475   2.896  0.3601  0.1222  0.2863
 4604SOL    HW125274   3.499   0.406   2.867  1.0178  1.2128 -0.9008
 4604SOL    HW225275   3.500   0.540   2.862  1.5447  1.0834  4.1555
 4605SOL     OW25276   2.071   2.946   7.235  0.3073  0.1296 -0.2091
 4605SOL    HW125277   2.123   3.011   7.282 -3.3325  1.3418  2.2154
 4605SOL    HW225278   1.979   2.968   7.252  0.3145  0.7328 -0.9549
 4606SOL     OW25279   0.134   4.294   6.768 -0.5350 -0.2470  0.6421
 4606SOL    HW125280   0.220   4.307   6.808 -1.1750  1.4044  1.5021
 4606SOL    HW225281   0.068   4.314   6.835 -0.7080 -1.7510  0.9055
 4607SOL     OW25282   0.898   0.841   4.035 -0.0157  0.3391 -0.0970
 4607SOL    HW125283   0.815   0.886   4.019 -0.6860 -0.7525  0.2959
 4607SOL    HW225284   0.895   0.771   3.969 -0.3632 -0.7677  1.0955
 4608SOL     OW25285   1.523   3.826   4.808 -0.1788  0.5538 -0.3187
 4608SOL    HW125286   1.460   3.816   4.736  1.2949 -0.5568 -1.4674
 4608SOL    HW225287   1.486   3.910   4.834  0.4688  0.9682 -0.7342
 4609SOL     OW25288   3.495   2.134   6.730 -0.3750 -0.1998  0.9363
 4609SOL    HW125289   3.570   2.081   6.755  0.6137  1.4734  1.4483
 4609SOL    HW225290   3.466   2.183   6.807  2.5218  0.6437  1.4895
 4610SOL     OW25291   3.250   1.783  15.177 -0.1642 -0.1628 -0.1820
 4610SOL    HW125292   3.333   1.831  15.184 -1.4570  2.1522 -0.6558
 4610SOL    HW225293   3.196   1.806  15.252  0.1043 -1.7940  0.5067
 4611SOL     OW25294   0.825   3.754   2.261  0.6589 -0.7387  0.2347
 4611SOL    HW125295   0.730   3.737   2.256  0.5827 -0.0326 -0.6712
 4611SOL    HW225296   0.855   3.665   2.279 -2.3770 -1.4896  1.6324
 4612SOL     OW25297   0.940   2.759   9.182 -0.1644 -0.1323  0.3411
 4612SOL    HW125298   0.926   2.853   9.194  1.1042  0.2940 -1.4545
 4612SOL    HW225299   0.869   2.739   9.120  0.5748  0.9008 -0.8490
 4613SOL     OW25300   1.726   1.533  17.086 -0.2012 -0.4292  0.2093
 4613SOL    HW125301   1.734   1.482  17.005  0.8091  0.3650 -0.1865
 4613SOL    HW225302   1.700   1.458  17.141  2.5472 -2.4257 -1.2370
 4614SOL     OW25303   0.901   3.294   2.552 -0.7035 -0.0158  0.1437
 4614SOL    HW125304   0.863   3.382   2.551 -2.4312 -0.7563  1.7292
 4614SOL    HW225305   0.838   3.240   2.599 -1.8526  1.1253 -0.0762
 4615SOL     OW25306   3.245   0.716   8.502  0.5811 -0.0511  0.0423
 4615SOL    HW125307   3.315   0.763   8.548 -1.3948  2.6279  0.3645
 4615SOL    HW225308   3.238   0.632   8.546  0.4193  1.1759  2.3798
 4616SOL     OW25309   0.039   1.560   4.746 -0.8634  0.0531 -0.0979
 4616SOL    HW125310   0.116   1.512   4.715 -0.8462 -1.6872  2.5861
 4616SOL    HW225311   4.712   1.485   4.780  1.2366 -1.3523 -0.1465
 4617SOL     OW25312   0.136   4.713   2.134 -0.0596 -0.1548 -0.5142
 4617SOL    HW125313   0.095   4.712   2.220  2.0910  1.0839  0.5150
 4617SOL    HW225314   0.086   0.059   2.088 -0.0694  1.1902  1.4957
 4618SOL     OW25315   1.451   0.589   6.925  0.4028 -0.2340  0.1007
 4618SOL    HW125316   1.518   0.535   6.966  1.6662  0.9740 -0.3599
 4618SOL    HW225317   1.364   0.551   6.936  0.8101 -1.3274 -0.5252
 4619SOL     OW25318   2.974   0.464   1.641  0.2967  0.0827 -0.3042
 4619SOL    HW125319   2.931   0.527   1.583 -1.9846 -1.6256 -0.4418
 4619SOL    HW225320   2.977   0.518   1.720 -1.4365  1.4844 -1.2073
 4620SOL     OW25321   2.476   2.576   6.316  0.1032 -0.0017 -0.1857
 4620SOL    HW125322   2.423   2.507   6.276 -0.0594 -0.5016  0.9074
 4620SOL    HW225323   2.491   2.553   6.407 -1.3751 -0.9897 -0.1928
 4621SOL     OW25324   1.173   2.437   5.921  0.2087  0.2179  0.1954
 4621SOL    HW125325   1.159   2.479   5.837 -1.4337 -1.6001 -0.4466
 4621SOL    HW225326   1.261   2.399   5.922 -0.3719 -1.0612  2.4191
 4622SOL     OW25327   3.308   4.155   0.145 -0.0310  0.2159  0.1520
 4622SOL    HW125328   3.312   4.088   0.077 -0.9183 -0.7086  1.0082
 4622SOL    HW225329   3.400   4.180   0.153  0.2670 -0.6255 -0.6513
 4623SOL     OW25330   1.390   3.369  12.883  0.1486 -0.6233 -0.5176
 4623SOL    HW125331   1.484   3.381  12.899  0.0482 -0.6894  0.1363
 4623SOL    HW225332   1.386   3.359  12.788  0.3830 -2.4378 -0.3287
 4624SOL     OW25333   1.198   4.310   0.268  0.0170  0.0700  0.4840
 4624SOL    HW125334   1.248   4.278   0.344  0.5731  0.2544  0.1989
 4624SOL    HW225335   1.251   4.381   0.230  0.9045 -0.0507  1.4850
 4625SOL     OW25336   2.828   3.633   5.018 -0.0145 -0.5048 -0.4581
 4625SOL    HW125337   2.918   3.609   5.039 -0.6041 -3.1704 -1.0092
 4625SOL    HW225338   2.818   3.721   5.054  0.0546  0.0266 -1.7460
 4626SOL     OW25339   3.180   1.657  13.009  0.2825 -0.3044  0.7031
 4626SOL    HW125340   3.251   1.682  13.068 -0.6021  1.8413  0.8504
 4626SOL    HW225341   3.109   1.717  13.031 -2.6779 -2.7423 -2.2975
 4627SOL     OW25342   2.066   2.828   2.071 -0.5254 -0.0170 -0.1182
 4627SOL    HW125343   2.119   2.906   2.053 -1.2613  1.3049  3.5425
 4627SOL    HW225344   2.027   2.812   1.984 -0.2347 -1.3253 -0.0135
 4628SOL     OW25345   0.444   3.617   8.247  0.7312  0.1515  0.2333
 4628SOL    HW125346   0.518   3.641   8.191 -0.8468  3.2597 -0.4969
 4628SOL    HW225347   0.465   3.695   8.298 -1.4827 -0.2660  1.7890
 4629SOL     OW25348   1.101   4.158   6.357 -0.5641 -0.1054 -0.1758
 4629SOL    HW125349   1.124   4.068   6.380 -1.0407 -0.2374 -0.2061
 4629SOL    HW225350   1.188   4.198   6.351 -0.7334  0.5694  1.7353
 4630SOL     OW25351   3.640   0.874   4.359  0.1449  0.0643 -0.1390
 4630SOL    HW125352   3.582   0.815   4.310  0.0780 -0.5963  0.7496
 4630SOL    HW225353   3.708   0.810   4.380  1.6736  1.7209 -0.0177
 4631SOL     OW25354   3.147   3.395   8.593 -0.4581  0.1518 -0.4321
 4631SOL    HW125355   3.183   3.366   8.509 -1.6948  0.6318 -1.1258
 4631SOL    HW225356   3.055   3.412   8.575 -0.2472 -1.7748 -3.2799
 4632SOL     OW25357   3.035   1.694   6.060 -0.0968 -0.2105  0.1339
 4632SOL    HW125358   2.948   1.671   6.028 -0.0171  0.0608 -0.2730
 4632SOL    HW225359   3.030   1.789   6.058  1.2178 -0.1693 -1.3464
 4633SOL     OW25360   0.231   2.270   7.420 -0.7846 -0.4069  0.2704
 4633SOL    HW125361   0.161   2.316   7.466 -1.6941  0.5383 -2.0190
 4633SOL    HW225362   0.288   2.259   7.496  1.7106 -1.2317 -1.7203
 4634SOL     OW25363   1.269   0.000   6.831  0.2117 -0.0370  0.8774
 4634SOL    HW125364   1.315   4.668   6.766 -0.0736  0.6896  0.0742
 4634SOL    HW225365   1.294   0.091   6.814 -0.0595  0.0666  1.0411
 4635SOL     OW25366   1.097   3.291   9.947 -0.0339  0.2748  0.1086
 4635SOL    HW125367   1.076   3.255   9.861  0.3796 -1.4239  0.7311
 4635SOL    HW225368   1.011   3.296   9.990  0.0400  0.7352  0.2073
 4636SOL     OW25369   3.872   4.254  14.438  0.1200  0.5691  0.6190
 4636SOL    HW125370   3.931   4.320  14.474  1.9137 -0.5668 -0.1835
 4636SOL    HW225371   3.826   4.234  14.519 -0.1706 -0.6191  0.1673
 4637SOL     OW25372   2.128   0.297  16.394  0.6639 -0.0483  0.1874
 4637SOL    HW125373   2.181   0.283  16.473  0.6524 -1.3410 -0.0192
 4637SOL    HW225374   2.114   0.391  16.393  0.2054 -0.0975  2.2610
 4638SOL     OW25375   0.862   1.416   5.016  0.3022 -0.6543 -0.0755
 4638SOL    HW125376   0.814   1.456   4.943  0.2706  0.3719  0.5037
 4638SOL    HW225377   0.798   1.357   5.057  1.8135 -1.4028  1.1765
 4639SOL     OW25378   1.932   0.395   3.271  0.1010  0.0501 -0.2582
 4639SOL    HW125379   1.926   0.429   3.181 -0.3345 -0.0854 -0.2818
 4639SOL    HW225380   2.014   0.437   3.295  0.7063 -0.8170 -0.7821
 4640SOL     OW25381   2.585   0.811   8.531 -0.8642 -0.0547  0.5013
 4640SOL    HW125382   2.612   0.893   8.489  2.9225  0.0680  3.1869
 4640SOL    HW225383   2.492   0.815   8.551 -1.1339  1.9981 -1.1975
 4641SOL     OW25384   1.309   4.277  14.858  0.0315  0.1734 -0.4014
 4641SOL    HW125385   1.267   4.195  14.884  0.9178  0.1929  1.0759
 4641SOL    HW225386   1.232   4.323  14.824  1.0519  0.6495 -2.0591
 4642SOL     OW25387   4.525   2.649   8.432  0.5292 -0.1437 -0.1962
 4642SOL    HW125388   4.500   2.561   8.403 -0.3039  0.4166 -1.2034
 4642SOL    HW225389   4.438   2.685   8.449  0.8421 -0.0752  1.2068
 4643SOL     OW25390   2.666   3.351  10.480 -0.2970 -0.0359  0.3262
 4643SOL    HW125391   2.582   3.311  10.459  0.7356 -1.0566 -1.7893
 4643SOL    HW225392   2.655   3.390  10.567 -0.0163 -1.7517  1.1456
 4644SOL     OW25393   2.478   1.142   1.705  0.4367 -0.7225  0.3752
 4644SOL    HW125394   2.536   1.209   1.667 -2.5469 -0.4262 -3.6769
 4644SOL    HW225395   2.480   1.162   1.799  1.5357 -1.2874  0.4789
 4645SOL     OW25396   1.537   0.485   0.230 -0.3968  0.2926  1.0830
 4645SOL    HW125397   1.577   0.572   0.225 -0.6766  0.3844  0.4847
 4645SOL    HW225398   1.602   0.431   0.274  1.4782  1.4485 -0.2267
 4646SOL     OW25399   3.029   2.306   3.067 -0.1268 -0.0281  0.6428
 4646SOL    HW125400   3.088   2.242   3.028 -1.2367 -1.1875  0.8781
 4646SOL    HW225401   2.949   2.254   3.057 -1.2928  1.9724 -0.7213
 4647SOL     OW25402   1.345   4.684   7.584 -0.0549  0.0174 -0.1763
 4647SOL    HW125403   1.304   0.020   7.519 -0.8468  0.8846  1.0795
 4647SOL    HW225404   1.427   4.665   7.539  0.2823 -0.7394  0.7713
 4648SOL     OW25405   2.627   0.340   4.536 -0.3554  0.0189  0.2505
 4648SOL    HW125406   2.537   0.319   4.562 -0.3247 -1.1340 -0.5507
 4648SOL    HW225407   2.625   0.373   4.446  1.3040  0.2812  0.3103
 4649SOL     OW25408   4.000   1.507   9.377  0.1330  0.2307  0.1390
 4649SOL    HW125409   4.034   1.597   9.385 -1.0643  0.8938 -2.1998
 4649SOL    HW225410   4.072   1.467   9.426  1.2455  0.5987 -1.1831
 4650SOL     OW25411   2.671   3.548   9.558  0.2355 -0.0650 -0.0676
 4650SOL    HW125412   2.753   3.498   9.567  0.7011  0.7983  0.5202
 4650SOL    HW225413   2.658   3.577   9.649 -0.5384  1.6969 -0.7334
 4651SOL     OW25414   4.409   4.104  13.370  0.0393 -0.1400  0.7383
 4651SOL    HW125415   4.403   4.200  13.373  2.4785  0.0465 -0.1411
 4651SOL    HW225416   4.324   4.084  13.409 -1.0972 -0.6757 -2.0182
 4652SOL     OW25417   4.589   4.097  12.019  0.3379  0.1577  0.4915
 4652SOL    HW125418   4.573   4.051  12.101 -1.7672  1.0183  0.5517
 4652SOL    HW225419   4.520   4.162  12.032 -0.9713 -1.0208 -0.4981
 4653SOL     OW25420   2.322   0.703   1.010  0.4092  0.2009  0.2032
 4653SOL    HW125421   2.340   0.761   0.937  0.8212 -0.8463 -0.5343
 4653SOL    HW225422   2.414   0.686   1.030  0.6619  0.4422 -0.7562
 4654SOL     OW25423   1.595   0.726  11.051  0.0523 -0.4795  0.7933
 4654SOL    HW125424   1.503   0.712  11.073 -0.0811 -0.2986  0.3305
 4654SOL    HW225425   1.634   0.638  11.054  1.1684  0.0169  0.8569
 4655SOL     OW25426   2.907   1.511   3.959  0.3349  0.4297 -0.5691
 4655SOL    HW125427   2.950   1.594   3.935 -2.6065  1.7974 -1.1533
 4655SOL    HW225428   2.816   1.539   3.960  0.1774 -0.1662  1.5687
 4656SOL     OW25429   2.412   2.009   7.311 -0.1300  0.4606 -0.0121
 4656SOL    HW125430   2.429   1.924   7.351  6.0286  1.4546 -0.5685
 4656SOL    HW225431   2.357   2.047   7.379 -0.4508 -3.0995  1.7050
 4657SOL     OW25432   0.073   0.849  16.372 -0.2638 -0.0742  0.6484
 4657SOL    HW125433   0.056   0.915  16.440  1.5332  0.7929  0.2391
 4657SOL    HW225434   0.096   0.775  16.428  0.9277  2.2737  3.2464
 4658SOL     OW25435   0.439   2.294   5.870 -0.2527 -0.7053  0.4420
 4658SOL    HW125436   0.358   2.264   5.828 -1.3956 -0.8145  2.7380
 4658SOL    HW225437   0.401   2.324   5.952 -0.2259 -0.3343  0.3193
 4659SOL     OW25438   4.539   4.201  13.678 -0.3384  0.1466  0.3442
 4659SOL    HW125439   4.571   4.242  13.759 -1.1512  0.7102  0.3836
 4659SOL    HW225440   4.582   4.234  13.600  0.2083 -0.8481  0.2217
 4660SOL     OW25441   1.332   4.111  15.893  0.1700  0.2928 -0.0479
 4660SOL    HW125442   1.334   4.188  15.837 -1.4190 -0.1907 -0.7770
 4660SOL    HW225443   1.239   4.099  15.911 -0.0748  0.5939 -1.0943
 4661SOL     OW25444   4.361   4.656  16.971 -0.1732  0.2220 -0.5290
 4661SOL    HW125445   4.308   4.658  16.891 -0.9223  2.2441 -0.0029
 4661SOL    HW225446   4.328   4.579  17.017  0.7866  1.0842  1.5836
 4662SOL     OW25447   3.192   1.505   1.350 -0.2333  0.4102 -0.2464
 4662SOL    HW125448   3.164   1.591   1.317 -0.3207  0.2262 -0.6478
 4662SOL    HW225449   3.108   1.461   1.357  0.8744 -1.5312  0.7526
 4663SOL     OW25450   0.876   1.773  11.747 -0.0615 -0.9064 -0.0458
 4663SOL    HW125451   0.854   1.818  11.666 -0.8376 -0.0674  0.6349
 4663SOL    HW225452   0.900   1.848  11.801 -0.2728 -1.4185  0.7626
 4664SOL     OW25453   4.431   1.764   6.109  0.2686 -0.8668  0.2476
 4664SOL    HW125454   4.460   1.730   6.194 -1.5831 -1.3914  0.6694
 4664SOL    HW225455   4.496   1.830   6.089 -0.1718 -0.6528 -0.4747
 4665SOL     OW25456   1.527   3.873  12.860 -0.1600 -0.2871 -0.4077
 4665SOL    HW125457   1.501   3.869  12.952 -3.7398  2.0236 -1.3360
 4665SOL    HW225458   1.494   3.786  12.837  0.4597  0.0732 -2.6644
 4666SOL     OW25459   1.718   2.912   4.056  0.2499  0.4277  0.1329
 4666SOL    HW125460   1.813   2.918   4.044  0.3248  0.3596  0.6805
 4666SOL    HW225461   1.689   3.002   4.075 -0.3241  0.4618 -0.8878
 4667SOL     OW25462   0.091   2.409  10.647  0.0977  0.3101 -0.2184
 4667SOL    HW125463   0.032   2.436  10.717  0.9557 -0.9958  1.0227
 4667SOL    HW225464   0.063   2.318  10.637 -0.8239  0.6679 -0.8746
 4668SOL     OW25465   1.611   1.841   7.818 -0.9029  0.0247  0.3996
 4668SOL    HW125466   1.597   1.842   7.912  2.8425  1.9558  0.9728
 4668SOL    HW225467   1.624   1.933   7.793 -1.6800  0.2323  0.7702
 4669SOL     OW25468   2.695   1.112  11.611 -0.7789  0.4637 -0.1566
 4669SOL    HW125469   2.754   1.183  11.586 -0.8375  1.3999  2.3877
 4669SOL    HW225470   2.656   1.141  11.694 -2.7775 -0.3758 -0.8045
 4670SOL     OW25471   4.387   3.239   8.045 -0.1121 -0.2942 -0.3863
 4670SOL    HW125472   4.316   3.228   7.982  0.4714 -0.2720 -1.0551
 4670SOL    HW225473   4.409   3.150   8.074  0.8611  0.3858  0.9810
 4671SOL     OW25474   3.775   3.375   4.846  0.5441 -0.1170  0.5041
 4671SOL    HW125475   3.779   3.471   4.852  0.5313 -0.0278 -0.9872
 4671SOL    HW225476   3.863   3.354   4.877  0.0637 -1.6085  0.8228
 4672SOL     OW25477   4.621   4.060   9.406 -0.0250  0.1315 -0.1766
 4672SOL    HW125478   4.653   3.969   9.403 -0.0428  0.1484 -0.8381
 4672SOL    HW225479   4.541   4.056   9.458 -0.2015  3.1012 -0.2454
 4673SOL     OW25480   2.772   1.971   8.007 -0.1424 -0.5061 -0.0881
 4673SOL    HW125481   2.814   1.900   7.959 -2.4785 -0.6505 -1.8581
 4673SOL    HW225482   2.848   2.008   8.054 -0.6718  2.7945 -1.8660
 4674SOL     OW25483   4.310   1.684   4.970  0.4060 -0.1571 -0.4180
 4674SOL    HW125484   4.217   1.687   4.944 -0.1476 -0.6709  1.5210
 4674SOL    HW225485   4.312   1.651   5.059  1.4972  2.0020  0.3692
 4675SOL     OW25486   2.011   0.398   2.581 -0.4690  0.2516 -0.1790
 4675SOL    HW125487   2.058   0.435   2.506  0.8865 -1.6532 -0.2558
 4675SOL    HW225488   2.067   0.323   2.599 -0.8906 -1.0415 -4.3543
 4676SOL     OW25489   1.799   1.119   4.316 -0.0518 -0.0624  0.1078
 4676SOL    HW125490   1.810   1.063   4.393  2.7602  1.7097  0.9963
 4676SOL    HW225491   1.748   1.188   4.357 -1.1939 -1.1632  0.5280
 4677SOL     OW25492   3.481   0.554  12.910  0.1009 -0.1569  0.3727
 4677SOL    HW125493   3.575   0.554  12.889 -0.3848  0.8698 -1.8484
 4677SOL    HW225494   3.477   0.615  12.983 -0.8089 -0.9629  0.9962
 4678SOL     OW25495   2.397   2.551   8.561 -0.1052  0.1230 -0.0466
 4678SOL    HW125496   2.372   2.468   8.602  0.2359  1.2969  2.5438
 4678SOL    HW225497   2.319   2.570   8.509  0.7679  1.5559 -0.8205
 4679SOL     OW25498   4.549   2.191   2.790  0.0032  0.6940  0.0778
 4679SOL    HW125499   4.593   2.110   2.765 -2.4234 -0.7593  0.4423
 4679SOL    HW225500   4.531   2.228   2.703 -2.2041  1.7606  0.9784
 4680SOL     OW25501   4.248   3.225   7.795  0.0166  0.4071 -0.5956
 4680SOL    HW125502   4.172   3.280   7.774 -0.4337 -0.8105 -2.2073
 4680SOL    HW225503   4.311   3.257   7.731  1.9204 -1.2054  0.5118
 4681SOL     OW25504   1.646   3.164   4.691  0.5536  0.0778  0.6915
 4681SOL    HW125505   1.573   3.102   4.687  0.6146 -0.0155  1.0357
 4681SOL    HW225506   1.720   3.103   4.698 -1.2442 -2.6420 -3.7723
 4682SOL     OW25507   0.070   1.566   5.163 -0.2915  0.0196 -0.2854
 4682SOL    HW125508   0.020   1.501   5.213 -0.5116  0.3242 -0.1140
 4682SOL    HW225509   0.136   1.510   5.121  1.1166  1.0793  0.5007
 4683SOL     OW25510   4.193   1.611  16.231  0.3129 -0.0684 -0.0332
 4683SOL    HW125511   4.141   1.691  16.217  1.1376 -0.0478 -3.0459
 4683SOL    HW225512   4.191   1.572  16.143  3.1084 -0.9802  0.3045
 4684SOL     OW25513   2.933   0.208  14.830 -0.1271 -0.6950 -0.2342
 4684SOL    HW125514   2.871   0.214  14.903  0.2274  3.6016 -0.2965
 4684SOL    HW225515   3.002   0.148  14.854  0.1998  0.0804  0.7712
 4685SOL     OW25516   4.387   0.594   6.395 -0.2392 -0.3917  0.3860
 4685SOL    HW125517   4.462   0.653   6.394 -2.0724  1.8409 -3.8167
 4685SOL    HW225518   4.431   0.509   6.389  0.3818  0.0394 -1.1017
 4686SOL     OW25519   2.903   3.766   9.608  0.1163  0.3516  0.5694
 4686SOL    HW125520   2.877   3.856   9.588 -0.3111  0.0946 -0.0425
 4686SOL    HW225521   2.825   3.744   9.659 -0.3016 -0.4959 -0.4289
 4687SOL     OW25522   2.176   2.381   8.884  0.0080  0.6502 -0.0660
 4687SOL    HW125523   2.205   2.459   8.931 -0.3238  0.2720  0.7685
 4687SOL    HW225524   2.203   2.317   8.949  1.1713 -0.3229 -1.5160
 4688SOL     OW25525   2.338   2.069   3.835 -0.1264  0.0031 -0.4978
 4688SOL    HW125526   2.419   2.049   3.787 -0.2268 -0.4519 -0.4801
 4688SOL    HW225527   2.334   2.021   3.917 -0.6729 -0.8021 -0.9878
 4689SOL     OW25528   1.684   4.414   5.297  0.3391 -0.0978 -0.2116
 4689SOL    HW125529   1.609   4.455   5.253  0.0480 -0.1489  0.2408
 4689SOL    HW225530   1.668   4.439   5.388  1.6115 -2.8004  0.7368
 4690SOL     OW25531   4.280   1.267   3.510 -0.3260 -0.2484  0.1956
 4690SOL    HW125532   4.309   1.219   3.588 -0.2052  0.3833  0.5392
 4690SOL    HW225533   4.352   1.329   3.499 -1.0766  0.1696 -2.3829
 4691SOL     OW25534   2.934   2.368   5.496  0.3549  0.4028 -0.0602
 4691SOL    HW125535   3.024   2.351   5.525  0.2503  0.4337  0.2804
 4691SOL    HW225536   2.941   2.313   5.418  0.8015 -1.9538  1.6273
 4692SOL     OW25537   4.432   2.243   6.027  0.2204 -0.6890 -0.8615
 4692SOL    HW125538   4.508   2.238   6.085 -0.6435 -0.7202  0.2720
 4692SOL    HW225539   4.451   2.330   5.992 -2.7006 -0.4402 -1.8303
 4693SOL     OW25540   2.723   2.634   9.081 -0.1305  0.0797 -0.1750
 4693SOL    HW125541   2.689   2.545   9.083 -2.7611  1.1053  0.6792
 4693SOL    HW225542   2.749   2.641   8.989  2.9511 -1.0435  0.5946
 4694SOL     OW25543   3.939   2.529   3.007 -0.4336 -0.0580 -0.0863
 4694SOL    HW125544   3.924   2.616   3.044  1.5318  0.1378  0.2492
 4694SOL    HW225545   3.966   2.482   3.086  0.4733  1.8268  0.7167
 4695SOL     OW25546   2.306   2.015  12.201  0.3373 -0.8804  0.7114
 4695SOL    HW125547   2.299   2.110  12.211  0.6077 -0.6813 -0.8790
 4695SOL    HW225548   2.213   1.995  12.213  0.0438  0.8833  1.4540
 4696SOL     OW25549   4.180   1.190   4.583  0.3122 -0.0180 -0.2599
 4696SOL    HW125550   4.225   1.237   4.653 -0.0674 -1.6827  1.0908
 4696SOL    HW225551   4.107   1.248   4.562  0.0086 -0.1542  0.4173
 4697SOL     OW25552   3.706   0.938   7.195  0.1995 -0.3523 -0.2088
 4697SOL    HW125553   3.738   0.956   7.107  0.0864 -2.2314 -0.6160
 4697SOL    HW225554   3.614   0.916   7.178  0.2734  0.1929 -1.2678
 4698SOL     OW25555   3.064   0.844   2.199 -0.1262  0.3713 -0.2050
 4698SOL    HW125556   3.109   0.851   2.283 -0.6408  2.1017 -0.0722
 4698SOL    HW225557   3.092   0.758   2.168 -1.6868  0.5117 -1.9982
 4699SOL     OW25558   4.165   2.664   2.814  0.2888 -0.0738  0.2556
 4699SOL    HW125559   4.211   2.684   2.896  3.0604  1.1601 -1.5960
 4699SOL    HW225560   4.085   2.631   2.854  0.0783 -1.1827 -1.0643
 4700SOL     OW25561   4.667   1.374   4.346  0.3349 -0.2484  0.3618
 4700SOL    HW125562   4.682   1.298   4.290 -0.1480 -1.6254  2.0671
 4700SOL    HW225563   0.029   1.375   4.394 -0.2797  0.5842  1.4139
 4701SOL     OW25564   1.845   2.682   5.981 -0.1151 -0.4805 -0.3284
 4701SOL    HW125565   1.780   2.685   6.051 -0.1017  2.2102 -0.4423
 4701SOL    HW225566   1.857   2.775   5.962 -2.1004 -0.2274 -0.2746
 4702SOL     OW25567   1.439   1.677  15.447 -0.2882  0.0305 -0.0867
 4702SOL    HW125568   1.512   1.726  15.409  0.4383  0.0692  1.3616
 4702SOL    HW225569   1.405   1.624  15.374  1.6414 -0.6276 -0.5062
 4703SOL     OW25570   2.119   1.744  13.280 -0.0957 -0.5263  0.5243
 4703SOL    HW125571   2.091   1.667  13.330  1.3491 -2.6938 -2.0585
 4703SOL    HW225572   2.206   1.754  13.318  0.8653 -0.7725 -1.6326
 4704SOL     OW25573   1.250   0.217  17.162 -0.0776 -0.3662  0.0515
 4704SOL    HW125574   1.310   0.232  17.235  0.0004  1.0911 -0.3075
 4704SOL    HW225575   1.307   0.228  17.086  1.4395 -3.0125  0.8267
 4705SOL     OW25576   1.946   4.683  17.174  0.0821  0.1307 -0.7226
 4705SOL    HW125577   2.014   4.622  17.201  0.0619  0.0717 -0.8048
 4705SOL    HW225578   1.997   0.041  17.192  1.1680 -0.6980 -0.1404
 4706SOL     OW25579   4.371   4.140   9.563 -0.1558 -0.2312  0.3479
 4706SOL    HW125580   4.320   4.130   9.644 -3.2324  0.0196 -1.5729
 4706SOL    HW225581   4.440   4.194   9.601 -1.4295  0.8421  1.1247
 4707SOL     OW25582   1.214   1.185   6.643  0.1404 -0.0182  0.4571
 4707SOL    HW125583   1.228   1.124   6.571  1.2928  1.0685 -0.2294
 4707SOL    HW225584   1.304   1.184   6.674  1.1937 -3.2125 -2.6168
 4708SOL     OW25585   0.870   1.999   4.689  0.1426  0.7001  0.2204
 4708SOL    HW125586   0.950   2.034   4.649 -0.0699  1.0835  0.1302
 4708SOL    HW225587   0.864   2.065   4.758 -0.6272  0.9528 -0.0934
 4709SOL     OW25588   2.611   2.011   0.874  0.1056  0.0236 -0.0194
 4709SOL    HW125589   2.533   1.971   0.911 -0.2572  1.5986  0.9040
 4709SOL    HW225590   2.670   2.010   0.950  0.6972 -1.2333 -0.4947
 4710SOL     OW25591   1.499   2.311  16.461 -0.0844  0.0546 -0.0188
 4710SOL    HW125592   1.408   2.302  16.435  0.4449 -1.9445 -1.1481
 4710SOL    HW225593   1.535   2.230  16.425  2.1688  0.3756  1.5200
 4711SOL     OW25594   2.251   4.649  15.436  0.0235 -0.0887  0.4451
 4711SOL    HW125595   2.180   4.597  15.399  1.8638 -1.9423 -0.5054
 4711SOL    HW225596   2.205   4.688  15.510  1.3567 -1.3899  1.9514
 4712SOL     OW25597   4.082   1.899  11.055 -0.0049 -0.4624  0.2843
 4712SOL    HW125598   4.149   1.852  11.006  0.9632  1.8678 -0.6091
 4712SOL    HW225599   4.026   1.935  10.987  1.1394  1.8901  0.5741
 4713SOL     OW25600   0.903   0.496  15.430 -0.4866  0.3121  0.0199
 4713SOL    HW125601   0.988   0.513  15.390 -1.2332 -0.8680 -2.0211
 4713SOL    HW225602   0.867   0.582  15.450 -1.3412 -0.0617  0.0928
 4714SOL     OW25603   0.895   2.605  17.404  0.1569 -0.0111  0.3102
 4714SOL    HW125604   0.898   2.699  17.384 -1.7139  0.3987  1.9231
 4714SOL    HW225605   0.955   2.566  17.341 -1.4771  2.6241 -2.8906
 4715SOL     OW25606   1.200   2.401  12.142  0.0775  0.3726 -0.4478
 4715SOL    HW125607   1.128   2.425  12.084  1.9233  1.2503 -2.4150
 4715SOL    HW225608   1.255   2.479  12.132 -2.6827  2.2909 -0.4789
 4716SOL     OW25609   2.060   0.365   7.065 -0.2066 -0.2750  0.4889
 4716SOL    HW125610   2.081   0.420   7.140  1.4754  0.5244 -0.5672
 4716SOL    HW225611   2.105   0.407   6.991 -1.3478  1.6068  0.8490
 4717SOL     OW25612   3.883   1.065  15.525  0.0704 -0.0559 -0.3743
 4717SOL    HW125613   3.884   1.086  15.431  2.2806  0.3612 -0.2610
 4717SOL    HW225614   3.879   0.971  15.509  0.3488  0.1684 -1.7335
 4718SOL     OW25615   0.706   2.870  13.742  0.2966 -0.2667  0.3921
 4718SOL    HW125616   0.770   2.803  13.719  0.8681  1.6242 -3.3659
 4718SOL    HW225617   0.687   2.850  13.834 -0.6894 -2.3634 -0.2691
 4719SOL     OW25618   4.232   3.312  15.382  0.4993 -0.6522 -0.3207
 4719SOL    HW125619   4.244   3.274  15.295 -2.0329 -2.2401  0.0415
 4719SOL    HW225620   4.320   3.308  15.420 -0.1536 -0.9180  1.1846
 4720SOL     OW25621   0.343   2.834   3.052 -0.1500 -0.1476 -0.0401
 4720SOL    HW125622   0.306   2.905   2.999 -0.9686 -0.8748 -0.4528
 4720SOL    HW225623   0.387   2.777   2.990  1.4220  0.9036  0.1140
 4721SOL     OW25624   2.104   2.422   1.703 -0.3388  0.0773 -0.6019
 4721SOL    HW125625   2.159   2.497   1.685  0.3261 -0.7260 -1.9134
 4721SOL    HW225626   2.168   2.351   1.698  1.2215  1.4157  0.3121
 4722SOL     OW25627   3.322   3.433  15.490 -0.3594 -0.5630 -0.1041
 4722SOL    HW125628   3.397   3.410  15.436  0.2815  0.9220  0.1525
 4722SOL    HW225629   3.323   3.363  15.556 -0.0684 -0.5682 -0.1136
 4723SOL     OW25630   1.474   2.707   5.550  0.4770 -0.0682  0.5180
 4723SOL    HW125631   1.412   2.658   5.496  0.6669  0.9855 -0.6495
 4723SOL    HW225632   1.427   2.788   5.569 -1.0781 -0.5616 -1.1785
 4724SOL     OW25633   0.328   4.125  12.099  0.5047  0.2458  0.7258
 4724SOL    HW125634   0.388   4.199  12.095  1.4506 -0.6225 -0.9746
 4724SOL    HW225635   0.255   4.179  12.129 -0.2884 -0.9825  1.0236
 4725SOL     OW25636   0.407   2.338   6.906 -0.2410  0.0669 -0.1881
 4725SOL    HW125637   0.453   2.309   6.984  1.0768 -0.3017 -1.1035
 4725SOL    HW225638   0.417   2.259   6.853  1.1799 -0.4509  0.8570
 4726SOL     OW25639   3.487   4.065   1.039  0.1568 -1.1438  0.3098
 4726SOL    HW125640   3.412   4.120   1.062 -0.1464 -1.7212  0.6883
 4726SOL    HW225641   3.489   3.988   1.095  1.4265 -0.8736  0.6471
 4727SOL     OW25642   3.829   4.675   3.623 -0.6835  0.1137  0.4613
 4727SOL    HW125643   3.895   4.689   3.555 -0.9232 -0.9576  0.0195
 4727SOL    HW225644   3.838   0.034   3.674  1.6839  1.5074 -2.1871
 4728SOL     OW25645   4.481   1.269   7.487 -0.7919  0.2800 -0.3805
 4728SOL    HW125646   4.450   1.229   7.568  1.5477 -0.5977  0.0726
 4728SOL    HW225647   4.574   1.256   7.505 -1.0124 -0.6176  0.1073
 4729SOL     OW25648   2.703   4.468   8.260 -0.3318 -0.5014 -0.0118
 4729SOL    HW125649   2.716   4.438   8.350  3.5114 -0.6732 -0.6031
 4729SOL    HW225650   2.613   4.442   8.242 -1.5585  2.7104  1.3339
 4730SOL     OW25651   3.331   1.998  13.925 -0.3555  0.3677  0.5287
 4730SOL    HW125652   3.325   2.093  13.924 -3.9932  0.1587  2.5732
 4730SOL    HW225653   3.275   1.975  13.851  1.5496  0.5908 -0.9858
 4731SOL     OW25654   0.511   3.780   2.821  0.2995 -0.2639  0.0350
 4731SOL    HW125655   0.511   3.818   2.734 -2.3169  2.0430  1.0593
 4731SOL    HW225656   0.560   3.850   2.864 -0.6798 -0.6222  1.7637
 4732SOL     OW25657   4.632   3.761   9.171  0.1308  0.7309  0.4439
 4732SOL    HW125658   4.540   3.785   9.164  0.2075  1.3150  1.5496
 4732SOL    HW225659   4.648   3.770   9.264  2.0206  2.2795 -0.0335
 4733SOL     OW25660   2.622   3.946   0.962  0.1529  0.0375  0.4305
 4733SOL    HW125661   2.704   3.983   0.996  0.1740  0.7633 -0.4084
 4733SOL    HW225662   2.629   3.864   1.011 -2.4926 -0.1402  0.5034
 4734SOL     OW25663   0.891   3.408   8.035 -0.3090  0.1535  0.2809
 4734SOL    HW125664   0.846   3.450   8.108  0.9371  1.5537  0.2358
 4734SOL    HW225665   0.974   3.384   8.076 -0.0710  3.5886  1.8026
 4735SOL     OW25666   3.192   1.601  12.758 -0.5011 -0.7839  0.1417
 4735SOL    HW125667   3.168   1.626  12.847  0.8957  0.8615  0.0592
 4735SOL    HW225668   3.284   1.630  12.753  0.1702 -2.8620  0.4197
 4736SOL     OW25669   0.742   0.750   5.394 -0.2790  0.2255  0.1695
 4736SOL    HW125670   0.732   0.844   5.383  1.1435  0.3016 -0.5661
 4736SOL    HW225671   0.824   0.759   5.444  2.6174  0.6976 -4.7095
 4737SOL     OW25672   2.288   1.514   7.165 -0.3451 -0.7679 -0.2464
 4737SOL    HW125673   2.378   1.492   7.141  0.6100  0.9795  1.6557
 4737SOL    HW225674   2.244   1.494   7.083 -1.6479  1.1515 -0.0333
 4738SOL     OW25675   4.263   2.937   5.370  0.2430 -0.3253  1.0126
 4738SOL    HW125676   4.303   2.993   5.437  0.8701  0.8231 -0.3033
 4738SOL    HW225677   4.172   2.954   5.391  0.6236  3.2571 -0.0564
 4739SOL     OW25678   2.610   3.821   7.546  0.1095 -0.7791 -0.0682
 4739SOL    HW125679   2.589   3.887   7.612  1.2358  1.6848 -2.1597
 4739SOL    HW225680   2.700   3.845   7.523  0.6064 -2.1863  0.4264
 4740SOL     OW25681   0.862   1.769   4.853  0.0492 -0.6967 -0.3007
 4740SOL    HW125682   0.955   1.766   4.878 -0.1752 -1.5436  0.4282
 4740SOL    HW225683   0.870   1.856   4.814 -0.0673 -0.3600  0.4315
 4741SOL     OW25684   1.130   4.234   7.819 -0.0503 -0.1651  0.3734
 4741SOL    HW125685   1.181   4.280   7.886  0.4662  0.5900 -0.5329
 4741SOL    HW225686   1.189   4.256   7.747  1.7256  1.1218  2.2299
 4742SOL     OW25687   2.039   3.479   9.636  0.8363 -0.5177  0.1668
 4742SOL    HW125688   2.025   3.570   9.608  2.1672 -0.1964  0.5193
 4742SOL    HW225689   2.071   3.493   9.725  1.2291 -0.6782  0.0505
 4743SOL     OW25690   2.809   2.600  16.769  0.0702  0.3107 -0.2198
 4743SOL    HW125691   2.866   2.537  16.814  0.5098  0.9248  0.0786
 4743SOL    HW225692   2.882   2.650  16.734  1.3986 -0.2777  1.6600
 4744SOL     OW25693   1.257   2.368   8.344 -0.0332 -0.1348  0.4412
 4744SOL    HW125694   1.194   2.436   8.365 -0.7203 -0.9574  1.0731
 4744SOL    HW225695   1.224   2.283   8.374  1.1345 -0.6800  0.1864
 4745SOL     OW25696   4.312   1.747   5.675  0.3960  0.3103 -1.0152
 4745SOL    HW125697   4.289   1.798   5.753 -1.0103  0.6908 -1.6688
 4745SOL    HW225698   4.304   1.657   5.708  0.5267  1.0161  0.9405
 4746SOL     OW25699   3.935   0.538   7.887  0.3317  0.1830 -0.3347
 4746SOL    HW125700   3.866   0.472   7.888 -0.6472  1.1951 -0.4040
 4746SOL    HW225701   3.900   0.583   7.964  0.0336 -1.4554  0.4830
 4747SOL     OW25702   4.572   3.911   7.268 -0.1538 -0.2518 -0.0097
 4747SOL    HW125703   4.488   3.865   7.269  1.4574 -3.2157  0.0606
 4747SOL    HW225704   4.581   3.952   7.182 -0.8263  0.8345  0.4487
 4748SOL     OW25705   2.722   3.942   1.730  0.3526 -0.0861  0.2479
 4748SOL    HW125706   2.674   4.009   1.779 -0.0744  0.1788 -0.5360
 4748SOL    HW225707   2.802   3.991   1.712 -0.4036  0.3327 -1.9688
 4749SOL     OW25708   1.658   3.035   1.113 -0.4656 -0.2984  0.3616
 4749SOL    HW125709   1.584   3.059   1.169 -1.6137  1.6806 -2.0060
 4749SOL    HW225710   1.613   3.024   1.029 -0.4953  0.7037  0.2545
 4750SOL     OW25711   1.574   0.536  12.904 -0.2891 -0.1895  0.2504
 4750SOL    HW125712   1.551   0.536  12.811  0.7111 -2.0434  0.0136
 4750SOL    HW225713   1.545   0.455  12.947  0.1973 -1.2637 -1.4777
 4751SOL     OW25714   1.429   2.879  12.841  1.2598  0.0278 -0.2381
 4751SOL    HW125715   1.501   2.819  12.822  0.9030 -0.0519 -1.3297
 4751SOL    HW225716   1.469   2.964  12.861  0.8490 -0.3742  2.2512
 4752SOL     OW25717   4.448   4.660  15.503 -0.9663 -0.1000  0.3957
 4752SOL    HW125718   4.539   4.632  15.513 -0.1481  1.5609 -2.5078
 4752SOL    HW225719   4.402   4.646  15.586 -0.6009 -1.4446  0.3664
 4753SOL     OW25720   1.496   2.566   2.039  0.2067  0.4961 -0.0969
 4753SOL    HW125721   1.574   2.597   1.992  0.3289  0.2306 -0.0715
 4753SOL    HW225722   1.495   2.472   2.020  2.3980  0.4560 -0.0226
 4754SOL     OW25723   3.597   0.464   3.994  0.2127 -0.3524 -0.5781
 4754SOL    HW125724   3.644   0.546   3.978  0.0523 -0.3013 -0.7798
 4754SOL    HW225725   3.668   0.403   4.013 -0.2548  0.3250  3.3624
 4755SOL     OW25726   3.318   2.017   2.473 -0.1296 -0.7946 -0.0786
 4755SOL    HW125727   3.376   2.057   2.408 -0.3265  1.0906  0.9076
 4755SOL    HW225728   3.297   2.091   2.531 -1.0715 -0.0473 -1.3713
 4756SOL     OW25729   1.676   2.013   2.359 -0.2253 -0.4349  0.6212
 4756SOL    HW125730   1.672   2.106   2.339  0.7750 -0.3057  1.0380
 4756SOL    HW225731   1.770   1.998   2.363  0.1826  1.6863 -1.2441
 4757SOL     OW25732   4.391   0.681   2.980 -0.4082  0.1846 -0.0975
 4757SOL    HW125733   4.369   0.763   2.935 -1.2428 -1.3776 -2.5116
 4757SOL    HW225734   4.311   0.635   2.954  0.7818 -1.1602 -1.3543
 4758SOL     OW25735   4.655   2.693   9.611 -0.0714 -0.3626  0.0826
 4758SOL    HW125736   4.606   2.743   9.546  0.4908 -0.3193 -0.3014
 4758SOL    HW225737   4.580   2.658   9.660 -1.1256  0.7112 -0.7558
 4759SOL     OW25738   2.584   2.674   4.429 -0.4468 -0.5226  0.2997
 4759SOL    HW125739   2.605   2.765   4.450  1.4201 -0.9467  0.2453
 4759SOL    HW225740   2.513   2.685   4.365 -1.6454 -2.8266  1.2301
 4760SOL     OW25741   3.824   3.937  11.771  0.0342  0.2009 -0.1299
 4760SOL    HW125742   3.795   3.997  11.702 -2.4392 -0.8111  0.0071
 4760SOL    HW225743   3.743   3.938  11.823  0.3439 -0.4908  0.3653
 4761SOL     OW25744   3.467   4.435   6.061 -0.5796  0.2118 -0.4149
 4761SOL    HW125745   3.541   4.428   6.001 -0.1560 -0.8783  0.2278
 4761SOL    HW225746   3.470   4.349   6.104 -0.2192  0.2065 -0.4477
 4762SOL     OW25747   0.715   0.109   2.525  0.7584 -0.1335 -0.2693
 4762SOL    HW125748   0.721   0.024   2.568  0.2283  0.9287  1.9709
 4762SOL    HW225749   0.702   0.157   2.607  0.5090  0.4600 -0.6566
 4763SOL     OW25750   4.236   3.989   9.369  0.0998 -0.1845 -0.0954
 4763SOL    HW125751   4.293   3.945   9.307 -0.2742  1.1517 -1.4044
 4763SOL    HW225752   4.280   4.071   9.393  0.3729 -0.8520  1.7145
 4764SOL     OW25753   1.845   0.666   6.330 -0.2662 -0.0402 -0.2384
 4764SOL    HW125754   1.813   0.660   6.240 -3.1075  1.0091  0.7041
 4764SOL    HW225755   1.927   0.708   6.306 -1.0464  1.0685 -0.9439
 4765SOL     OW25756   2.430   2.890   2.013  0.7491  0.0436  0.0963
 4765SOL    HW125757   2.454   2.900   1.920 -0.2567 -1.7312 -0.3659
 4765SOL    HW225758   2.340   2.921   2.005  0.2069 -1.3927  0.7426
 4766SOL     OW25759   0.319   4.712   5.176  0.4612  0.4262  0.4025
 4766SOL    HW125760   0.381   4.641   5.156 -1.3199 -1.3122  1.1311
 4766SOL    HW225761   0.235   4.668   5.180  0.4004  0.6422  1.5167
 4767SOL     OW25762   4.542   1.287  15.992 -0.4463  0.5213  0.2587
 4767SOL    HW125763   4.455   1.249  15.981 -0.3860  0.1379  1.1473
 4767SOL    HW225764   4.557   1.303  15.899 -2.3139 -1.9628 -0.4704
 4768SOL     OW25765   4.320   0.818  11.099  0.1527 -0.3922 -0.2860
 4768SOL    HW125766   4.393   0.758  11.087 -1.6933 -3.3412  3.1090
 4768SOL    HW225767   4.255   0.769  11.149 -0.1118 -0.6826 -0.9109
 4769SOL     OW25768   3.826   4.570   0.595 -0.5410  0.0880 -0.1247
 4769SOL    HW125769   3.791   4.600   0.679 -3.4753  0.1113 -1.3376
 4769SOL    HW225770   3.753   4.513   0.570 -0.8466 -0.8768  3.0198
 4770SOL     OW25771   1.292   4.260   7.333 -0.2263  0.5850 -0.4632
 4770SOL    HW125772   1.341   4.183   7.362 -1.5309 -0.1279 -0.1652
 4770SOL    HW225773   1.264   4.296   7.417 -1.6729 -1.4300 -0.0767
 4771SOL     OW25774   3.999   0.486   0.186 -0.1299  0.2588 -0.1879
 4771SOL    HW125775   3.997   0.580   0.170 -0.3874  0.6382  2.0403
 4771SOL    HW225776   3.930   0.492   0.252 -1.3755  1.4128 -1.5699
 4772SOL     OW25777   1.557   3.322   6.086  0.2422 -0.3017  0.2379
 4772SOL    HW125778   1.534   3.259   6.153 -3.0346  1.3942  0.6786
 4772SOL    HW225779   1.556   3.286   5.997 -0.9910 -0.9960  0.5427
 4773SOL     OW25780   4.064   1.406   7.706  0.1727  0.3489 -0.2159
 4773SOL    HW125781   4.046   1.315   7.730 -2.1744  1.2487  1.4230
 4773SOL    HW225782   3.976   1.442   7.694 -0.5539 -1.1128  0.6608
 4774SOL     OW25783   1.117   2.703  14.753 -0.5765  0.1434  0.3808
 4774SOL    HW125784   1.088   2.625  14.706 -1.3099  1.1888 -0.8749
 4774SOL    HW225785   1.033   2.749  14.745  0.5735  2.3764  1.1102
 4775SOL     OW25786   4.256   2.067   8.949 -0.3815 -0.3626 -0.0220
 4775SOL    HW125787   4.203   2.008   9.003 -0.6184 -1.1516 -1.1084
 4775SOL    HW225788   4.194   2.076   8.876 -0.1159  0.6962 -0.1153
 4776SOL     OW25789   2.822   3.979  16.340 -0.3771 -0.3495 -0.6137
 4776SOL    HW125790   2.887   3.986  16.270  0.7186 -1.0974  0.3317
 4776SOL    HW225791   2.762   3.918  16.296 -0.5617 -1.8928  1.7566
 4777SOL     OW25792   1.285   2.678   9.333 -0.9262  0.2197  0.3027
 4777SOL    HW125793   1.371   2.645   9.360 -1.1513 -0.1094  0.6370
 4777SOL    HW225794   1.281   2.748   9.399 -0.0504  1.5729 -1.0861
 4778SOL     OW25795   4.682   3.421   6.704  0.0011 -0.0737 -0.1306
 4778SOL    HW125796   4.597   3.432   6.662 -1.6472 -0.0367  3.1878
 4778SOL    HW225797   0.006   3.478   6.642 -0.0087  1.4128  1.2399
 4779SOL     OW25798   4.086   0.059   7.961 -0.1675 -0.1643 -0.1088
 4779SOL    HW125799   4.079   0.124   8.031 -2.5364 -0.6195  0.0711
 4779SOL    HW225800   4.181   0.044   7.960 -0.2464 -0.5673 -1.3491
 4780SOL     OW25801   1.121   1.638   5.776  0.1148  0.5672  0.0094
 4780SOL    HW125802   1.195   1.645   5.835 -1.0224 -0.0553  1.5123
 4780SOL    HW225803   1.074   1.713   5.812  0.8667  1.1868 -0.3026
 4781SOL     OW25804   4.526   1.501  14.977 -0.2337  0.8998 -0.0120
 4781SOL    HW125805   4.541   1.413  15.013 -0.3619  0.7687 -0.2757
 4781SOL    HW225806   4.618   1.507  14.949  0.0934  0.9572  1.0734
 4782SOL     OW25807   1.633   3.302   7.974  0.2769 -0.0450  0.5411
 4782SOL    HW125808   1.560   3.311   7.913 -0.7522  1.0541  1.9485
 4782SOL    HW225809   1.640   3.387   8.018  0.0863  0.3618 -0.2111
 4783SOL     OW25810   1.972   2.320  13.891 -0.2213 -0.1744  0.5757
 4783SOL    HW125811   1.888   2.310  13.935 -0.5813 -1.2037 -0.3325
 4783SOL    HW225812   1.986   2.414  13.905  0.7539 -0.2010 -0.1608
 4784SOL     OW25813   3.034   0.945   7.721 -0.5802  0.4506  0.1696
 4784SOL    HW125814   3.008   0.858   7.692 -0.1030 -0.6898  3.1036
 4784SOL    HW225815   3.088   0.912   7.793 -1.2679  2.0371  1.4054
 4785SOL     OW25816   2.398   0.622   2.844 -0.6814 -0.4777 -0.2965
 4785SOL    HW125817   2.369   0.713   2.858 -0.0444 -0.3948  0.4405
 4785SOL    HW225818   2.477   0.640   2.793 -1.6283  0.6213 -1.3922
 4786SOL     OW25819   1.871   0.351   0.805 -0.3679 -0.0207 -0.3524
 4786SOL    HW125820   1.910   0.439   0.802 -0.2282 -0.0750 -0.1606
 4786SOL    HW225821   1.900   0.319   0.720  0.8087 -2.6625  1.0592
 4787SOL     OW25822   2.987   4.546   4.496 -0.4763  0.9112 -0.1644
 4787SOL    HW125823   3.067   4.512   4.535  0.5342 -0.0381 -3.1003
 4787SOL    HW225824   2.991   4.514   4.406  0.6348 -1.1737  0.6233
 4788SOL     OW25825   0.892   0.863   5.973  0.0963  0.6230  0.3033
 4788SOL    HW125826   0.976   0.856   6.019 -0.1528  0.2674  0.7114
 4788SOL    HW225827   0.900   0.949   5.932 -1.0465  1.2758  1.4515
 4789SOL     OW25828   0.375   0.353   5.490  0.1819 -0.6680 -0.3907
 4789SOL    HW125829   0.279   0.360   5.490  0.1090 -1.7205 -0.8089
 4789SOL    HW225830   0.396   0.428   5.434 -0.2202  0.4544  0.9568
 4790SOL     OW25831   2.853   3.432   2.604 -0.3696  0.8089 -0.8685
 4790SOL    HW125832   2.893   3.360   2.556 -0.5626 -0.4191  0.7944
 4790SOL    HW225833   2.761   3.405   2.599 -0.1668 -0.1073  0.5097
 4791SOL     OW25834   1.248   3.403   5.306 -0.0191 -0.2323  0.3952
 4791SOL    HW125835   1.303   3.475   5.337  0.5355  0.0598 -1.2312
 4791SOL    HW225836   1.253   3.421   5.212  0.9758 -1.6048  0.1949
 4792SOL     OW25837   3.654   1.554   0.834  0.2708 -0.0861  0.2289
 4792SOL    HW125838   3.715   1.576   0.764  1.3063 -0.6186  0.9660
 4792SOL    HW225839   3.687   1.475   0.876 -1.4783 -1.3323 -0.7028
 4793SOL     OW25840   3.471   3.497  11.057  0.4394 -0.3008 -0.2522
 4793SOL    HW125841   3.389   3.541  11.036 -0.0590 -1.1737 -0.1162
 4793SOL    HW225842   3.536   3.566  11.072 -1.8907  1.9446 -0.4008
 4794SOL     OW25843   2.474   4.352   9.251 -0.1710  0.1780  0.1610
 4794SOL    HW125844   2.503   4.442   9.260  3.7229 -0.9150 -1.3651
 4794SOL    HW225845   2.548   4.310   9.206  1.8114  0.9442  2.7172
 4795SOL     OW25846   1.622   3.161   4.125  0.3205  0.0955  0.5752
 4795SOL    HW125847   1.676   3.240   4.121 -0.3245  0.5342  0.6676
 4795SOL    HW225848   1.570   3.180   4.048  0.5149 -0.6716  0.2543
 4796SOL     OW25849   0.289   3.501   3.014 -0.1623  0.0190  0.1516
 4796SOL    HW125850   0.306   3.491   2.920 -1.0126 -0.0732  0.0031
 4796SOL    HW225851   0.272   3.412   3.046  1.5993 -0.2785  0.2668
 4797SOL     OW25852   1.165   3.126   5.285  0.2116 -0.1948  0.3412
 4797SOL    HW125853   1.197   3.215   5.295  2.1837 -0.8344 -0.3015
 4797SOL    HW225854   1.161   3.121   5.190 -1.8136  0.5645  0.3739
 4798SOL     OW25855   4.088   1.534   2.338 -0.1671  0.4840 -0.4985
 4798SOL    HW125856   4.007   1.586   2.336  0.1136  0.9802  0.8501
 4798SOL    HW225857   4.068   1.469   2.405 -1.4890  2.8803  1.4437
 4799SOL     OW25858   3.347   2.477  11.880 -0.1719  0.0476  0.2757
 4799SOL    HW125859   3.333   2.434  11.795  1.7599 -1.5408  0.7521
 4799SOL    HW225860   3.307   2.411  11.937  0.0900  0.1922  0.6221
 4800SOL     OW25861   2.047   2.550   5.807  0.3167 -0.0304 -0.2946
 4800SOL    HW125862   2.012   2.572   5.721 -0.6122  3.6595  1.0520
 4800SOL    HW225863   1.979   2.586   5.864 -0.4252 -0.3359 -1.0048
 4801SOL     OW25864   3.331   3.329  16.251  0.0274  0.3991 -0.7051
 4801SOL    HW125865   3.327   3.248  16.201 -1.8314  0.2638 -0.3455
 4801SOL    HW225866   3.372   3.389  16.189 -3.1249  0.2790 -2.9032
 4802SOL     OW25867   0.378   0.108   3.543  0.0618 -0.2206 -0.4409
 4802SOL    HW125868   0.394   0.090   3.450  2.5396  0.9598 -0.2360
 4802SOL    HW225869   0.468   0.124   3.571 -0.4533 -0.5200  1.3521
 4803SOL     OW25870   3.898   0.120  12.009 -0.0100 -0.4606  0.2067
 4803SOL    HW125871   3.830   0.176  12.046  1.6686  2.2071 -0.6859
 4803SOL    HW225872   3.909   0.163  11.924 -2.2155  1.9618  1.1476
 4804SOL     OW25873   2.177   1.164  14.782  0.6718 -0.0316 -0.0773
 4804SOL    HW125874   2.113   1.146  14.713  1.6484 -2.9496 -0.2124
 4804SOL    HW225875   2.178   1.083  14.832  1.9070 -0.7158 -1.2045
 4805SOL     OW25876   2.495   1.257   8.364 -0.2330  0.0131 -0.2552
 4805SOL    HW125877   2.490   1.342   8.408  2.1450  0.1936 -0.3282
 4805SOL    HW225878   2.409   1.225   8.392 -0.1900 -0.5757 -0.7853
 4806SOL     OW25879   4.154   1.105  11.211  0.2989 -0.5321 -0.0097
 4806SOL    HW125880   4.068   1.092  11.172  0.1023  1.4364 -0.2259
 4806SOL    HW225881   4.126   1.111  11.302  0.5768 -1.3471  0.1305
 4807SOL     OW25882   0.038   0.733   8.035 -0.2181 -0.0132 -0.3945
 4807SOL    HW125883   0.090   0.762   8.110 -0.9215 -0.9195  0.4423
 4807SOL    HW225884   4.712   0.814   8.019 -0.4903  0.3513  2.3169
 4808SOL     OW25885   2.579   2.094   5.379 -0.2653 -0.2536 -0.4315
 4808SOL    HW125886   2.652   2.109   5.438  0.5340 -0.5842 -1.3324
 4808SOL    HW225887   2.503   2.094   5.437  0.1699  0.2737  0.1268
 4809SOL     OW25888   4.419   2.781   0.413 -0.0931  0.0213  0.0933
 4809SOL    HW125889   4.336   2.767   0.366  0.6368  0.7217 -1.4278
 4809SOL    HW225890   4.466   2.836   0.350  0.5539  0.4471  0.9540
 4810SOL     OW25891   0.782   3.227  12.296 -0.0672 -0.1038 -0.0637
 4810SOL    HW125892   0.794   3.240  12.391  3.2191  0.8219 -0.5866
 4810SOL    HW225893   0.813   3.139  12.279  1.7854  0.3087  1.1031
 4811SOL     OW25894   3.298   1.982  15.677 -0.1357 -0.3152  0.3183
 4811SOL    HW125895   3.222   1.999  15.621 -0.5872 -1.6475  0.5333
 4811SOL    HW225896   3.272   1.903  15.724  0.6649  0.0548  1.3627
 4812SOL     OW25897   0.058   3.061   5.557 -0.1495 -0.1708 -0.5173
 4812SOL    HW125898   0.044   3.118   5.632 -0.0613  0.5149 -1.0255
 4812SOL    HW225899   0.044   3.125   5.487  0.6110 -0.7633 -1.2270
 4813SOL     OW25900   1.583   0.436   9.741 -0.0606  0.1397 -0.2068
 4813SOL    HW125901   1.499   0.459   9.781  1.1841  1.9104  1.3950
 4813SOL    HW225902   1.618   0.381   9.811 -0.2223  0.1762 -0.0966
 4814SOL     OW25903   1.989   4.646  10.818  0.3901 -0.0684  0.1738
 4814SOL    HW125904   1.960   4.694  10.896 -1.0768 -3.0678  1.4562
 4814SOL    HW225905   2.078   4.680  10.803  1.1949 -0.9761  2.8436
 4815SOL     OW25906   2.517   0.295   5.013  0.0539 -0.0668  0.2808
 4815SOL    HW125907   2.612   0.311   5.014 -0.0417  0.3222  1.8923
 4815SOL    HW225908   2.506   0.297   5.108  0.7959  1.0913  0.3369
 4816SOL     OW25909   1.764   3.667   1.480 -0.0524 -0.6603 -0.2693
 4816SOL    HW125910   1.738   3.619   1.401 -1.6377 -0.2704  0.0132
 4816SOL    HW225911   1.837   3.716   1.443 -0.2380  1.2588  1.9428
 4817SOL     OW25912   2.706   3.328   3.787 -0.3541  0.3121 -0.1983
 4817SOL    HW125913   2.782   3.274   3.807  1.2095  1.7778 -2.1207
 4817SOL    HW225914   2.657   3.323   3.869 -0.3416  0.8886 -0.1537
 4818SOL     OW25915   3.681   4.597   7.992  0.0979 -0.0435 -0.1825
 4818SOL    HW125916   3.719   4.609   8.079  0.2694  2.1262 -0.5542
 4818SOL    HW225917   3.757   4.629   7.944  0.8625 -1.3740  0.1685
 4819SOL     OW25918   1.437   4.184  11.338  0.1671 -0.0883  0.6291
 4819SOL    HW125919   1.506   4.239  11.376 -1.0205  0.7559  1.5670
 4819SOL    HW225920   1.410   4.141  11.419 -0.2957 -2.5206 -0.8356
 4820SOL     OW25921   3.167   2.213   2.653  0.2412 -0.3802 -0.1778
 4820SOL    HW125922   3.135   2.139   2.705 -0.7290 -0.0491 -0.3031
 4820SOL    HW225923   3.093   2.267   2.626  1.1466  2.1876  2.5267
 4821SOL     OW25924   1.648   0.477  13.717 -0.7226  0.6299  0.8743
 4821SOL    HW125925   1.557   0.452  13.700 -0.5544 -0.4787  1.5767
 4821SOL    HW225926   1.678   0.449  13.630 -0.6239  1.9209  0.4948
 4822SOL     OW25927   3.839   3.026   5.970 -0.3801 -0.0493  0.0739
 4822SOL    HW125928   3.838   2.940   5.927 -2.5790 -0.7353  1.4898
 4822SOL    HW225929   3.773   3.054   5.907 -0.6930 -1.2548 -0.1504
 4823SOL     OW25930   0.958   3.024   4.398  0.6166  0.3907  0.2230
 4823SOL    HW125931   0.931   3.017   4.306 -0.7135 -2.6502  0.8664
 4823SOL    HW225932   1.054   3.031   4.390  0.6314 -0.4168 -0.2800
 4824SOL     OW25933   3.105   3.163   5.606 -0.9624 -0.5717  0.6549
 4824SOL    HW125934   3.027   3.203   5.566 -0.0563  0.2766 -0.2535
 4824SOL    HW225935   3.126   3.238   5.663  1.5019 -0.1083 -0.8689
 4825SOL     OW25936   2.369   0.900   4.043  0.6034 -0.4146  0.0682
 4825SOL    HW125937   2.384   0.807   4.031 -0.5338 -0.5655 -0.2032
 4825SOL    HW225938   2.446   0.932   4.091  1.5448 -2.2579 -0.2053
 4826SOL     OW25939   1.716   3.423   4.271  0.4448  0.2583 -0.0792
 4826SOL    HW125940   1.669   3.490   4.321 -0.7059 -1.0882  0.6292
 4826SOL    HW225941   1.794   3.400   4.321  0.2971 -1.1895 -0.5380
 4827SOL     OW25942   1.908   0.436   2.217  0.2593  0.1570  0.2902
 4827SOL    HW125943   1.894   0.352   2.172 -0.6551  1.3557 -1.6312
 4827SOL    HW225944   1.875   0.504   2.160 -1.8095 -0.7271  0.4191
 4828SOL     OW25945   4.598   0.937   7.397 -0.4400 -0.4710  0.4602
 4828SOL    HW125946   4.645   0.949   7.479  0.7267 -0.9417 -0.1411
 4828SOL    HW225947   4.505   0.956   7.408 -1.0934 -3.1957 -0.3650
 4829SOL     OW25948   0.111   4.659   9.812  0.3221 -0.4674 -0.4349
 4829SOL    HW125949   0.137   4.569   9.792 -0.9056 -0.7853 -0.6415
 4829SOL    HW225950   0.176   4.703   9.757  0.0554 -0.4495 -0.7415
 4830SOL     OW25951   4.223   0.040  14.851  0.1062  0.0007 -0.2076
 4830SOL    HW125952   4.266   4.699  14.909 -0.4260 -0.9431 -0.8374
 4830SOL    HW225953   4.226   4.713  14.769 -0.7064 -0.1020 -0.1699
 4831SOL     OW25954   2.428   4.457   5.232  0.3562  0.0650 -0.3677
 4831SOL    HW125955   2.350   4.451   5.286 -0.6116  0.4192 -1.7236
 4831SOL    HW225956   2.419   4.374   5.185  1.7163  0.4780 -1.3764
 4832SOL     OW25957   2.998   3.785   9.317  0.0511  0.1320  0.1484
 4832SOL    HW125958   3.042   3.870   9.325 -2.7691  1.2626  4.2601
 4832SOL    HW225959   2.996   3.768   9.412  2.5211 -1.1178 -0.0300
 4833SOL     OW25960   0.401   0.126   9.053 -0.3156 -0.4609 -0.3838
 4833SOL    HW125961   0.325   0.068   9.061  0.3847 -1.2705  0.4602
 4833SOL    HW225962   0.383   0.168   9.138 -3.5833 -1.7877 -0.4120
 4834SOL     OW25963   2.975   4.418  17.011 -0.1267 -0.0257  0.4530
 4834SOL    HW125964   2.972   4.509  17.041  0.2053  0.3573 -0.6530
 4834SOL    HW225965   2.935   4.432  16.925 -1.9923  1.4169  1.5584
 4835SOL     OW25966   0.103   4.315   0.961  0.5213  0.5056  0.1155
 4835SOL    HW125967   0.112   4.362   1.044  0.7105  0.9577 -0.1588
 4835SOL    HW225968   0.167   4.356   0.903  0.8503  1.2071  0.9723
 4836SOL     OW25969   1.285   0.234   3.522  0.3334  0.0996 -0.7950
 4836SOL    HW125970   1.211   0.267   3.472 -0.3668 -0.2507  0.0070
 4836SOL    HW225971   1.241   0.200   3.600  0.9258 -0.7988 -0.8535
 4837SOL     OW25972   1.287   3.662   3.806 -0.5436 -0.2497  0.6999
 4837SOL    HW125973   1.252   3.744   3.843 -1.7639 -1.5210  2.3756
 4837SOL    HW225974   1.380   3.665   3.825 -0.3460  1.5677 -0.5765
 4838SOL     OW25975   1.506   0.863   7.078  0.4366  0.2090 -0.4023
 4838SOL    HW125976   1.459   0.781   7.061  1.6748 -0.7713  0.9716
 4838SOL    HW225977   1.434   0.912   7.119  0.7135  0.1236  0.1735
 4839SOL     OW25978   1.843   3.754   2.069 -0.2677 -0.1474  0.4827
 4839SOL    HW125979   1.779   3.774   2.137  0.9759  2.9173  0.7361
 4839SOL    HW225980   1.914   3.811   2.097  0.7833 -0.9041 -0.6180
 4840SOL     OW25981   2.052   4.720   2.113 -0.4087  0.1163  0.1388
 4840SOL    HW125982   1.993   4.694   2.183 -0.9261  1.2043  0.1163
 4840SOL    HW225983   2.099   0.063   2.166 -0.9175 -1.0014  1.9718
 4841SOL     OW25984   2.134   0.418   5.516  0.4678  0.1812 -0.1002
 4841SOL    HW125985   2.109   0.477   5.587 -0.9099 -0.0890 -0.3532
 4841SOL    HW225986   2.172   0.478   5.452 -0.3137 -0.0922 -0.8243
 4842SOL     OW25987   3.240   1.194   6.354 -0.2378 -1.3304 -0.1789
 4842SOL    HW125988   3.193   1.121   6.392  0.5834 -2.6250 -1.6693
 4842SOL    HW225989   3.178   1.232   6.291  0.8510 -0.3891 -0.6870
 4843SOL     OW25990   3.112   3.790   6.996 -0.0287  0.4730 -0.3000
 4843SOL    HW125991   3.170   3.849   7.044 -0.4788  0.4340  0.3002
 4843SOL    HW225992   3.169   3.714   6.999  2.4559  2.3779  0.3540
 4844SOL     OW25993   4.547   4.708   5.938  0.1771 -0.5184  0.4022
 4844SOL    HW125994   4.466   4.657   5.932 -2.1268  3.3900 -1.2607
 4844SOL    HW225995   4.547   0.022   5.849 -1.9343 -0.3646  0.4748
 4845SOL     OW25996   3.095   2.610   5.080 -0.0706  0.4124  0.4864
 4845SOL    HW125997   3.014   2.620   5.130 -0.0723 -2.7556  1.1054
 4845SOL    HW225998   3.148   2.557   5.139  0.9034  0.7512 -0.0760
 4846SOL     OW25999   4.313   0.689   4.347 -0.5515 -0.3033 -0.2904
 4846SOL    HW126000   4.254   0.749   4.301 -0.7531  0.0856  0.4815
 4846SOL    HW226001   4.394   0.690   4.296  0.0273  0.7734  0.6560
 4847SOL     OW26002   1.457   2.439   2.707 -0.0427 -0.2228  0.4991
 4847SOL    HW126003   1.546   2.421   2.677 -1.0006 -0.3587 -2.2777
 4847SOL    HW226004   1.413   2.445   2.622  1.7189 -3.6416 -0.6354
 4848SOL     OW26005   4.680   0.921   4.146 -0.3854  0.8650  0.1023
 4848SOL    HW126006   4.681   0.939   4.052 -1.7289 -1.7976 -0.4074
 4848SOL    HW226007   0.037   0.969   4.171 -0.0223 -0.2387  1.0733
 4849SOL     OW26008   3.860   3.710   4.257 -0.2867 -0.5069  0.6866
 4849SOL    HW126009   3.935   3.700   4.316  1.6410 -2.1496 -2.0778
 4849SOL    HW226010   3.809   3.775   4.306  0.9319  0.8055  0.2146
 4850SOL     OW26011   3.021   1.661  13.786 -0.6301  0.1631  0.0842
 4850SOL    HW126012   2.926   1.646  13.779 -0.5595  0.2203 -1.1077
 4850SOL    HW226013   3.035   1.674  13.879  3.5992 -2.3759 -0.2301
 4851SOL     OW26014   4.597   1.790   7.329 -0.1561  0.0826 -0.1013
 4851SOL    HW126015   4.667   1.846   7.361  0.2858 -0.4208 -0.1933
 4851SOL    HW226016   4.571   1.729   7.398 -0.0095  0.8148  0.6042
 4852SOL     OW26017   0.976   1.667   2.962  0.4317 -0.4374 -0.6276
 4852SOL    HW126018   0.922   1.606   3.011 -0.4903  1.7144  1.0176
 4852SOL    HW226019   1.057   1.616   2.955  1.1794  0.6700 -0.0446
 4853SOL     OW26020   2.371   0.562  16.868 -0.4173 -0.1060 -0.2299
 4853SOL    HW126021   2.303   0.622  16.839  0.0452  0.3553 -0.3680
 4853SOL    HW226022   2.321   0.482  16.888 -0.3863 -0.4766 -1.6159
 4854SOL     OW26023   2.320   2.167   1.043  0.4055  0.3365 -0.0516
 4854SOL    HW126024   2.263   2.156   0.966  0.2765  1.8565 -0.1682
 4854SOL    HW226025   2.349   2.076   1.052 -0.8082  0.0549  0.9764
 4855SOL     OW26026   3.483   0.210   3.190 -0.1890 -0.0039 -0.5146
 4855SOL    HW126027   3.498   0.124   3.232 -2.3420 -0.5662 -0.9311
 4855SOL    HW226028   3.540   0.210   3.113  0.3758  0.3208 -0.0919
 4856SOL     OW26029   1.773   2.230  17.542 -0.4787  0.0165 -0.2035
 4856SOL    HW126030   1.852   2.268  17.504  0.2407 -2.6700 -1.3619
 4856SOL    HW226031   1.734   2.312  17.572 -1.2817  0.3385 -2.1531
 4857SOL     OW26032   0.183   2.011   8.548  0.2255 -0.4395  0.1938
 4857SOL    HW126033   0.217   2.010   8.638  1.3658  1.8852 -0.2006
 4857SOL    HW226034   0.092   2.038   8.566  0.0761 -1.2943  0.7176
 4858SOL     OW26035   4.508   4.564   1.910  0.5885 -0.6297  0.2291
 4858SOL    HW126036   4.522   4.581   2.003  0.5523  2.0704 -0.2595
 4858SOL    HW226037   4.499   4.469   1.902 -0.5865 -0.5034  0.1043
 4859SOL     OW26038   3.523   0.070  10.771 -0.1064 -0.3124  0.3533
 4859SOL    HW126039   3.575   4.720  10.733  0.8790  0.8771 -0.5263
 4859SOL    HW226040   3.501   0.113  10.689  0.3850 -0.8003 -0.0417
 4860SOL     OW26041   0.260   4.555  15.927 -0.1062 -0.2169 -0.1115
 4860SOL    HW126042   0.270   4.617  15.856  0.7835 -0.2008  0.0321
 4860SOL    HW226043   0.280   4.600  16.010  0.5280 -1.6871  0.5450
 4861SOL     OW26044   4.141   1.275  16.650 -0.1915 -0.2248  0.2867
 4861SOL    HW126045   4.142   1.332  16.726 -0.7436 -3.1466  2.4658
 4861SOL    HW226046   4.101   1.332  16.584 -1.2916 -3.2328 -1.6680
 4862SOL     OW26047   3.114   1.721  14.040  0.2033  0.5170 -0.3693
 4862SOL    HW126048   3.154   1.790  14.092  0.9979  0.3716 -0.7879
 4862SOL    HW226049   3.042   1.697  14.098  0.8315 -2.3088 -0.7213
 4863SOL     OW26050   2.790   4.430   8.521 -0.1492  0.3168  0.7790
 4863SOL    HW126051   2.748   4.345   8.506  0.1896  0.0238  1.4674
 4863SOL    HW226052   2.779   4.449   8.615  0.5123 -0.3610  1.0001
 4864SOL     OW26053   1.388   2.559   6.694  0.1654  0.4074  0.1229
 4864SOL    HW126054   1.358   2.523   6.611 -0.5920  3.5119 -0.9363
 4864SOL    HW226055   1.322   2.534   6.759  0.6419 -0.1879  0.3768
 4865SOL     OW26056   1.338   0.948  13.276  0.6486  0.1965  0.4646
 4865SOL    HW126057   1.432   0.946  13.294  1.3353  1.0670 -2.8642
 4865SOL    HW226058   1.340   1.017  13.210  2.0950  0.1037  0.3989
 4866SOL     OW26059   1.756   2.793   0.366  0.2204 -0.6713  0.0832
 4866SOL    HW126060   1.730   2.787   0.457  2.0018  0.9632  0.6999
 4866SOL    HW226061   1.772   2.887   0.362  1.4793 -0.8765  0.3693
 4867SOL     OW26062   0.759   0.663   2.716  0.7202  0.1913 -0.3243
 4867SOL    HW126063   0.742   0.581   2.670  0.3681  0.7823 -1.2434
 4867SOL    HW226064   0.842   0.637   2.757  1.1302  1.1464 -0.5476
 4868SOL     OW26065   4.017   0.933   5.853  0.2873 -0.0462  0.4190
 4868SOL    HW126066   4.056   0.863   5.904 -0.8277  0.7010  2.3257
 4868SOL    HW226067   3.984   0.988   5.924 -0.5347 -1.0498  0.8165
 4869SOL     OW26068   4.571   4.480  12.332  0.4696  0.3676 -0.4282
 4869SOL    HW126069   4.656   4.453  12.298 -0.9743 -1.4993 -2.5386
 4869SOL    HW226070   4.601   4.496  12.421  1.8320 -2.8870 -0.2964
 4870SOL     OW26071   3.092   2.531   8.696 -0.3072  0.0225 -0.1207
 4870SOL    HW126072   3.114   2.447   8.736  0.8365  0.4689  0.1777
 4870SOL    HW226073   3.164   2.576   8.739  0.4778 -0.0097 -1.4068
 4871SOL     OW26074   3.725   1.050   5.352  0.6651 -0.9827  0.5379
 4871SOL    HW126075   3.689   0.997   5.423  1.0260  1.1243  2.2877
 4871SOL    HW226076   3.646   1.092   5.318  0.9396 -2.1379 -1.5180
 4872SOL     OW26077   1.230   3.871   2.140 -0.1763  0.0492  0.8911
 4872SOL    HW126078   1.230   3.809   2.066  1.9604  1.2108 -0.0696
 4872SOL    HW226079   1.245   3.821   2.220 -1.1960  1.0487  1.7042
 4873SOL     OW26080   3.703   2.874  10.580  0.0705 -0.1113 -0.2773
 4873SOL    HW126081   3.786   2.838  10.547  0.2561  0.0008  0.0720
 4873SOL    HW226082   3.662   2.809  10.636 -1.1139 -0.1129 -1.1293
 4874SOL     OW26083   0.379   3.055   1.664  0.1390 -0.2504  0.4989
 4874SOL    HW126084   0.335   2.992   1.720  1.5164 -0.4539  1.3408
 4874SOL    HW226085   0.353   3.135   1.708  0.6963 -0.3661  1.0346
 4875SOL     OW26086   3.872   1.087   0.195  0.0648 -0.2894  0.0731
 4875SOL    HW126087   3.906   1.176   0.185  1.9907 -1.2139 -1.5063
 4875SOL    HW226088   3.918   1.037   0.128 -0.8256 -0.8155 -0.1533
 4876SOL     OW26089   1.624   2.128   7.712 -0.2845 -0.0663 -0.1278
 4876SOL    HW126090   1.700   2.154   7.661 -0.3448  0.5035  0.0763
 4876SOL    HW226091   1.619   2.188   7.786 -1.4122  0.6222 -0.7739
 4877SOL     OW26092   2.192   1.954   4.127 -0.3616 -0.3245  0.4039
 4877SOL    HW126093   2.218   1.901   4.203 -1.0913 -1.5731 -0.2167
 4877SOL    HW226094   2.145   1.887   4.077 -1.3919  0.5850  0.1601
 4878SOL     OW26095   2.710   3.883  14.454  0.3963 -0.5263 -0.0029
 4878SOL    HW126096   2.781   3.850  14.509 -1.0540 -0.9063  1.6516
 4878SOL    HW226097   2.715   3.978  14.456 -0.9194 -0.4818  1.2512
 4879SOL     OW26098   0.109   2.790   7.943  0.1034 -0.8657 -0.6402
 4879SOL    HW126099   0.190   2.831   7.913  0.3866 -1.2392 -0.3812
 4879SOL    HW226100   0.119   2.781   8.037 -3.1755  1.1311 -0.0975
 4880SOL     OW26101   0.343   3.507   6.821 -0.0484 -0.6551 -0.2743
 4880SOL    HW126102   0.355   3.443   6.752  0.1882 -2.2198  1.2057
 4880SOL    HW226103   0.368   3.589   6.778 -1.9524  0.5722  0.9409
 4881SOL     OW26104   3.153   1.367   6.015 -0.3336  0.2970  0.2403
 4881SOL    HW126105   3.245   1.343   6.029 -0.8458 -0.6749  1.9577
 4881SOL    HW226106   3.102   1.313   6.074  1.5704 -0.6831  0.9922
 4882SOL     OW26107   3.791   1.723   6.981  0.1078  0.3767 -0.0484
 4882SOL    HW126108   3.726   1.743   6.914 -1.3512  2.2334  1.9260
 4882SOL    HW226109   3.860   1.691   6.922  1.7464 -0.3607  2.2785
 4883SOL     OW26110   2.746   4.288   7.843 -0.2659 -0.0145 -0.6882
 4883SOL    HW126111   2.723   4.350   7.912 -2.2487 -1.1699 -0.2923
 4883SOL    HW226112   2.826   4.249   7.878  0.5241 -0.3444 -2.8526
 4884SOL     OW26113   4.453   0.955   3.270 -0.2095  0.0242 -0.0933
 4884SOL    HW126114   4.484   0.986   3.355 -2.3680 -2.2211  1.5104
 4884SOL    HW226115   4.468   1.029   3.212 -0.8999 -1.3519 -2.0181
 4885SOL     OW26116   4.039   0.898   9.244 -0.5089 -0.8734  0.0852
 4885SOL    HW126117   3.987   0.942   9.311 -2.4043 -2.5687 -0.2686
 4885SOL    HW226118   4.047   0.811   9.285 -1.9432 -1.3765 -0.7255
 4886SOL     OW26119   1.719   3.440  13.738  0.5667  0.2879  0.1046
 4886SOL    HW126120   1.776   3.423  13.813 -1.2718 -0.3230  1.3690
 4886SOL    HW226121   1.689   3.530  13.754  0.0560  0.2137 -0.4364
 4887SOL     OW26122   3.089   3.954   5.460 -0.2719 -0.3412 -0.4410
 4887SOL    HW126123   3.085   3.949   5.555 -0.4734 -3.2037 -0.5919
 4887SOL    HW226124   3.101   4.048   5.445  1.3051 -0.4121  0.3909
 4888SOL     OW26125   0.978   4.156   8.596 -0.9734  0.1343  0.6065
 4888SOL    HW126126   1.016   4.167   8.509  0.1563  0.1601  1.0920
 4888SOL    HW226127   0.896   4.108   8.583 -0.8511  0.2352 -0.5019
 4889SOL     OW26128   1.889   3.985   4.232 -0.3022  0.7779 -0.3581
 4889SOL    HW126129   1.920   3.983   4.322  2.0368  2.0128 -1.1468
 4889SOL    HW226130   1.934   3.904   4.205  1.3809  2.2289 -1.9021
 4890SOL     OW26131   2.066   3.268   4.139 -0.1253 -0.4765  0.1763
 4890SOL    HW126132   2.137   3.207   4.120  1.8762  1.6082  0.9925
 4890SOL    HW226133   1.991   3.211   4.121  0.0565 -0.7841  0.3788
 4891SOL     OW26134   0.001   0.024  16.719 -0.8622  0.2983  0.4234
 4891SOL    HW126135   0.070   4.682  16.737 -0.1049  0.8573 -0.4426
 4891SOL    HW226136   0.011   0.026  16.623  0.4611 -0.1528  0.5440
 4892SOL     OW26137   3.643   4.394   7.002 -0.1408  0.0750 -0.5857
 4892SOL    HW126138   3.618   4.327   7.065 -0.5985  0.0698 -0.7714
 4892SOL    HW226139   3.599   4.471   7.039 -0.2548  0.8077 -2.2138
 4893SOL     OW26140   3.704   3.326   6.569 -0.1296  0.3800  0.3828
 4893SOL    HW126141   3.722   3.348   6.661  0.7103  2.3651 -0.2592
 4893SOL    HW226142   3.612   3.300   6.572 -0.3435  1.2566  1.3686
 4894SOL     OW26143   1.004   2.253  15.153 -0.0668 -0.2105 -0.3645
 4894SOL    HW126144   1.044   2.282  15.070  0.2665  2.3374  0.6848
 4894SOL    HW226145   1.021   2.327  15.211  0.7555 -1.2812  0.7424
 4895SOL     OW26146   0.960   2.493   2.895  0.2088  0.1546  0.1526
 4895SOL    HW126147   1.039   2.460   2.938 -1.0338 -1.1828  1.4370
 4895SOL    HW226148   0.924   2.413   2.855  0.1768  0.7583 -1.0236
 4896SOL     OW26149   4.328   0.083  12.580 -0.1195 -1.0132  0.5060
 4896SOL    HW126150   4.307   0.007  12.635  0.5634 -0.8989  0.9261
 4896SOL    HW226151   4.345   0.050  12.492 -1.9533  1.4427 -0.7731
 4897SOL     OW26152   4.165   0.658   9.308 -0.3000 -0.1643 -0.0366
 4897SOL    HW126153   4.255   0.688   9.310 -0.7465  1.2068 -0.4429
 4897SOL    HW226154   4.167   0.576   9.259  1.2531 -0.6493  0.8330
 4898SOL     OW26155   4.584   1.456   5.671  0.2222 -0.5263  0.1764
 4898SOL    HW126156   4.618   1.367   5.673  3.8892  0.8381 -1.5626
 4898SOL    HW226157   4.553   1.470   5.761 -1.1315 -1.7818 -0.0897
 4899SOL     OW26158   3.246   4.183   9.280 -0.0921  0.6558  0.8137
 4899SOL    HW126159   3.184   4.140   9.340  1.2141  1.8095  3.0039
 4899SOL    HW226160   3.214   4.164   9.192  0.4417 -0.7196  0.9262
 4900SOL     OW26161   2.118   2.464   7.625  0.0741 -0.4445 -0.1583
 4900SOL    HW126162   2.120   2.532   7.558  2.7033 -0.5344 -0.1711
 4900SOL    HW226163   2.198   2.486   7.673  0.2581 -0.3370 -0.5199
 4901SOL     OW26164   4.598   2.013  11.897  0.5466 -0.0942  0.6019
 4901SOL    HW126165   4.517   1.964  11.908 -0.6674  0.9939 -3.7271
 4901SOL    HW226166   4.646   1.957  11.835  0.8953 -1.3298  1.9853
 4902SOL     OW26167   2.396   0.934  10.727  0.1372 -0.2263 -0.1913
 4902SOL    HW126168   2.312   0.963  10.691  0.1978  0.3256  0.1204
 4902SOL    HW226169   2.372   0.873  10.797  0.6837 -1.6341 -1.2248
 4903SOL     OW26170   2.151   2.806   5.310  0.0130  0.2862  0.1789
 4903SOL    HW126171   2.089   2.734   5.303  1.1739 -0.7895  1.1263
 4903SOL    HW226172   2.130   2.839   5.397 -0.1326 -1.4452  0.7964
 4904SOL     OW26173   2.098   0.025   6.102  0.5365 -0.0912  0.4980
 4904SOL    HW126174   2.110   0.101   6.158  0.5447  0.5035 -0.3099
 4904SOL    HW226175   2.136   0.055   6.020  1.8883  0.5764  1.3823
 4905SOL     OW26176   1.070   1.568   7.240  0.0656  1.1651 -0.2493
 4905SOL    HW126177   1.065   1.596   7.148  0.7639  0.2622 -0.5610
 4905SOL    HW226178   1.083   1.476   7.217  1.2060  1.3741 -0.4458
 4906SOL     OW26179   1.347   2.166   3.588 -0.0845  0.4177 -0.1250
 4906SOL    HW126180   1.405   2.104   3.545  0.3784  0.6087  0.2314
 4906SOL    HW226181   1.404   2.242   3.595  2.9785 -1.8743 -0.4635
 4907SOL     OW26182   3.150   1.359   4.438  0.3512  0.0216  0.3222
 4907SOL    HW126183   3.196   1.440   4.459  2.1060 -0.0040 -3.2893
 4907SOL    HW226184   3.093   1.387   4.366  0.9018  1.2843  0.3820
 4908SOL     OW26185   1.524   3.344   8.518  0.2071 -0.2725 -0.2785
 4908SOL    HW126186   1.501   3.410   8.453 -0.7067 -2.0193 -1.7332
 4908SOL    HW226187   1.436   3.310   8.530  0.3709 -1.1112 -1.4241
 4909SOL     OW26188   3.616   0.077  14.782  0.1859  0.1897 -0.0510
 4909SOL    HW126189   3.615   0.168  14.813 -1.8992  0.1091  0.1136
 4909SOL    HW226190   3.590   0.088  14.690 -0.7524 -1.7011 -0.0066
 4910SOL     OW26191   0.661   0.321   3.087  0.4855 -0.1538  0.7746
 4910SOL    HW126192   0.614   0.383   3.143 -1.3618 -0.3899 -0.5066
 4910SOL    HW226193   0.597   0.250   3.083 -1.8327  1.9134  1.4712
 4911SOL     OW26194   1.419   0.388  10.583  0.6577  0.0352 -0.5435
 4911SOL    HW126195   1.390   0.385  10.492 -1.0238  0.6606 -0.0204
 4911SOL    HW226196   1.340   0.423  10.623  0.6268 -0.2376 -0.3665
 4912SOL     OW26197   4.164   1.121  13.337 -0.4428 -0.2828 -0.3688
 4912SOL    HW126198   4.147   1.037  13.294 -2.2285 -0.2197  0.1846
 4912SOL    HW226199   4.162   1.185  13.266 -0.5573 -2.1491 -2.0295
 4913SOL     OW26200   1.509   2.634  15.476  0.4170  0.4420 -0.3652
 4913SOL    HW126201   1.481   2.694  15.546  0.7106 -0.4712  0.5297
 4913SOL    HW226202   1.515   2.553  15.526 -2.6009  0.4905  0.0474
 4914SOL     OW26203   3.460   0.156   2.664  0.0666  0.0781  0.1508
 4914SOL    HW126204   3.511   0.233   2.689  1.5273 -0.7048 -0.4426
 4914SOL    HW226205   3.419   0.188   2.583  0.2055  0.4023  0.2063
 4915SOL     OW26206   0.196   4.292   4.473  0.8165 -0.0560 -0.6059
 4915SOL    HW126207   0.252   4.320   4.545  2.2050 -0.6957 -1.4312
 4915SOL    HW226208   0.147   4.227   4.524 -0.8557  1.0730 -0.7930
 4916SOL     OW26209   0.200   1.421   5.846 -0.2089  0.0684 -0.1033
 4916SOL    HW126210   0.181   1.392   5.757  0.1230 -1.4012  0.3109
 4916SOL    HW226211   0.118   1.412   5.895  0.9664  0.4102  1.9533
 4917SOL     OW26212   1.209   1.672  10.640 -0.1807 -0.2456  1.1925
 4917SOL    HW126213   1.115   1.660  10.622  0.3322 -0.3111 -1.4582
 4917SOL    HW226214   1.210   1.698  10.732  0.7514  3.6373  0.0948
 4918SOL     OW26215   1.330   0.005   6.161 -0.1669 -0.3865 -0.4997
 4918SOL    HW126216   1.335   4.644   6.209 -0.2375 -0.2680 -0.2897
 4918SOL    HW226217   1.392   0.060   6.208 -1.1065  1.2451 -1.1667
 4919SOL     OW26218   3.252   2.802   3.705 -0.3143 -0.7193  0.0560
 4919SOL    HW126219   3.203   2.868   3.657 -0.6505 -0.1735  1.1472
 4919SOL    HW226220   3.325   2.853   3.741  0.6388 -2.1927  0.2179
 4920SOL     OW26221   0.242   0.968  11.274  0.1292 -0.0705  0.0223
 4920SOL    HW126222   0.226   0.882  11.236 -0.0996 -0.0513  0.0752
 4920SOL    HW226223   0.266   1.020  11.198  0.7471 -1.1834 -0.5440
 4921SOL     OW26224   3.377   4.475   0.871  0.4547 -0.2083 -0.2536
 4921SOL    HW126225   3.357   4.501   0.961 -1.1628 -1.0145 -0.3668
 4921SOL    HW226226   3.310   4.408   0.858  1.8937 -1.2570 -2.3479
 4922SOL     OW26227   1.851   0.147   8.197 -0.4927  0.1979  0.1965
 4922SOL    HW126228   1.762   0.113   8.195 -1.6610  3.1939  1.0953
 4922SOL    HW226229   1.846   0.242   8.203 -0.2453  0.1368  1.4010
 4923SOL     OW26230   1.957   0.663   1.584  0.0421 -0.0387 -0.0615
 4923SOL    HW126231   1.888   0.714   1.625 -0.3030  0.0802 -0.7840
 4923SOL    HW226232   2.036   0.717   1.578 -0.9725  1.7925  3.5660
 4924SOL     OW26233   1.311   2.699   3.848  0.1877  0.1245 -0.3921
 4924SOL    HW126234   1.357   2.774   3.886 -0.8811 -0.3068  1.7602
 4924SOL    HW226235   1.226   2.730   3.879  0.3531 -2.3950  2.6081
 4925SOL     OW26236   2.921   4.382   5.739 -0.5445  0.0576 -0.2032
 4925SOL    HW126237   2.913   4.394   5.645 -0.4039 -1.0960 -0.3583
 4925SOL    HW226238   2.996   4.323   5.749 -0.7785 -0.2176 -0.0675
 4926SOL     OW26239   0.247   0.230   8.455  0.2251 -0.1972 -0.3811
 4926SOL    HW126240   0.246   0.138   8.429 -0.6061 -0.0618 -0.8128
 4926SOL    HW226241   0.192   0.228   8.533  0.0633  2.5222 -0.4110
 4927SOL     OW26242   0.011   1.801  10.048 -0.0009  0.2927 -0.0425
 4927SOL    HW126243   0.089   1.792   9.993  1.2585 -0.2059  1.8247
 4927SOL    HW226244   0.016   1.894  10.070 -0.2055 -0.1698  1.9475
 4928SOL     OW26245   4.518   2.142   9.495  0.1141  0.2688 -0.2429
 4928SOL    HW126246   4.577   2.194   9.550 -1.5908 -0.6527  2.4457
 4928SOL    HW226247   4.539   2.189   9.414  0.9494 -0.7993 -0.6458
 4929SOL     OW26248   1.762   3.586  17.597  0.2405  0.1043  0.2762
 4929SOL    HW126249   1.732   3.568  17.508 -2.0651  0.4636  0.9782
 4929SOL    HW226250   1.854   3.568  17.576 -0.4755 -2.2733 -0.8458
 4930SOL     OW26251   1.959   3.549   7.282  0.1615 -0.3678  0.1330
 4930SOL    HW126252   2.047   3.579   7.305 -1.0840  1.2522  2.8090
 4930SOL    HW226253   1.951   3.476   7.343 -1.5303  0.0488  0.4200
 4931SOL     OW26254   4.556   3.819   8.202  0.4192 -0.0807 -0.0269
 4931SOL    HW126255   4.480   3.763   8.186 -0.9015  1.0334  2.2084
 4931SOL    HW226256   4.613   3.760   8.250 -0.0619  0.4475  1.2125
 4932SOL     OW26257   0.640   2.105   7.562 -0.3404 -0.2259 -0.1905
 4932SOL    HW126258   0.703   2.034   7.552  0.5136  0.2936  1.6170
 4932SOL    HW226259   0.590   2.097   7.643 -2.0072  3.2161 -0.8706
 4933SOL     OW26260   4.232   0.286  16.780  0.8367 -0.2196  0.3300
 4933SOL    HW126261   4.296   0.356  16.765  0.1418 -0.1697 -2.4668
 4933SOL    HW226262   4.282   0.216  16.739  0.8785  0.2776 -0.4692
 4934SOL     OW26263   0.812   4.463   7.552 -0.0469 -0.5291 -0.1413
 4934SOL    HW126264   0.734   4.419   7.518 -1.6549  1.3250  1.1651
 4934SOL    HW226265   0.852   4.473   7.465 -1.8209 -0.6812 -0.9563
 4935SOL     OW26266   4.700   3.542   4.010 -0.1446 -0.2001  0.2282
 4935SOL    HW126267   0.049   3.605   3.996 -3.1560  2.9416 -0.8015
 4935SOL    HW226268   0.023   3.484   4.072  0.1150 -0.7456 -0.4593
 4936SOL     OW26269   3.011   1.998   4.827  0.3931 -0.1281  0.0175
 4936SOL    HW126270   3.048   2.038   4.906 -1.5196  0.5627  0.5606
 4936SOL    HW226271   2.932   2.051   4.812  0.4487 -0.2026 -0.5370
 4937SOL     OW26272   4.231   0.010   0.790  0.4912  0.4937 -0.2145
 4937SOL    HW126273   4.149   0.034   0.834  1.5980  3.4118  0.2671
 4937SOL    HW226274   4.239   4.641   0.818  0.1805  0.4995 -0.1081
 4938SOL     OW26275   0.900   0.421   3.165 -0.6293  0.0852 -0.0467
 4938SOL    HW126276   0.842   0.385   3.098 -3.9450  3.2876  1.1184
 4938SOL    HW226277   0.858   0.413   3.251 -2.8108  1.6842 -0.9704
 4939SOL     OW26278   0.605   0.409  17.527 -0.0983  0.1830  0.0498
 4939SOL    HW126279   0.687   0.400  17.575  0.2626 -0.6443 -0.6993
 4939SOL    HW226280   0.546   0.419  17.601  1.6936  1.6618  1.2659
 4940SOL     OW26281   0.502   2.577   3.290  0.2130 -0.7547 -0.0677
 4940SOL    HW126282   0.463   2.612   3.370 -1.9734 -1.3674 -0.8637
 4940SOL    HW226283   0.548   2.501   3.326 -0.0458 -1.6633 -1.6473
 4941SOL     OW26284   2.817   1.746   2.038  0.5730  0.3752 -0.5396
 4941SOL    HW126285   2.904   1.784   2.025 -0.1231  1.6362 -1.4491
 4941SOL    HW226286   2.810   1.762   2.132 -0.5524 -0.3062 -0.5133
 4942SOL     OW26287   3.570   4.537   9.067  0.1008 -0.3505  0.2016
 4942SOL    HW126288   3.550   4.445   9.083  1.6755 -0.8761 -0.8628
 4942SOL    HW226289   3.492   4.578   9.030  0.7892  0.6378 -0.1647
 4943SOL     OW26290   0.023   1.800  12.219  0.3245 -0.2988  0.1464
 4943SOL    HW126291   4.667   1.747  12.234 -0.8592  1.7711  1.2863
 4943SOL    HW226292   0.014   1.872  12.282 -1.1141  0.0842 -0.5062
 4944SOL     OW26293   3.222   1.529   3.643  0.2346  0.1009 -0.0221
 4944SOL    HW126294   3.269   1.516   3.725  0.5909  0.9639 -0.0967
 4944SOL    HW226295   3.141   1.490   3.678  0.7964  0.7304  1.9756
 4945SOL     OW26296   3.266   3.438   5.404  0.1096  0.2988 -0.8051
 4945SOL    HW126297   3.305   3.524   5.417 -1.3246  0.6320  1.1514
 4945SOL    HW226298   3.351   3.393   5.392  0.2424  0.4589 -0.4664
 4946SOL     OW26299   2.477   1.619   6.060  0.1177 -0.2651  0.6491
 4946SOL    HW126300   2.457   1.692   6.118  0.3736  0.4123 -0.1082
 4946SOL    HW226301   2.404   1.620   5.998  0.9966  0.8957 -0.3825
 4947SOL     OW26302   0.493   0.333   4.315  0.5186 -0.2943  0.7965
 4947SOL    HW126303   0.425   0.286   4.364 -1.1305 -0.6562 -1.8328
 4947SOL    HW226304   0.537   0.257   4.277  2.1934  0.1998  1.7239
 4948SOL     OW26305   4.416   3.350   6.859  0.4998  0.1723 -0.3281
 4948SOL    HW126306   4.500   3.312   6.886 -0.0767  0.3864  1.7950
 4948SOL    HW226307   4.370   3.290   6.801  0.2539  0.5521 -0.5298
 4949SOL     OW26308   0.795   2.283   5.686  0.2851 -0.3749 -0.3482
 4949SOL    HW126309   0.850   2.234   5.625  1.3169 -1.7879  1.6890
 4949SOL    HW226310   0.811   2.369   5.648 -3.3896  0.3846 -0.1312
 4950SOL     OW26311   3.168   0.605  11.045  0.4698 -0.6062  0.1647
 4950SOL    HW126312   3.171   0.674  10.979  1.1446  1.0355  1.8916
 4950SOL    HW226313   3.130   0.647  11.122 -0.6745  0.1046 -0.7998
 4951SOL     OW26314   0.767   1.810   1.834  0.1130 -0.0680  0.0122
 4951SOL    HW126315   0.839   1.756   1.800 -0.1246 -1.3880  1.5603
 4951SOL    HW226316   0.709   1.800   1.759  0.9237 -1.0387 -0.4906
 4952SOL     OW26317   4.696   1.898  17.148 -0.9553 -0.0461  0.1703
 4952SOL    HW126318   4.646   1.835  17.199 -0.4970 -0.0148  0.6659
 4952SOL    HW226319   4.642   1.975  17.165  0.6279  1.1742 -0.2871
 4953SOL     OW26320   0.623   1.725  12.839 -0.2233 -0.2959  0.0703
 4953SOL    HW126321   0.564   1.694  12.770  0.0145 -0.5725 -0.0072
 4953SOL    HW226322   0.696   1.663  12.834  0.5896  0.3825  3.1806
 4954SOL     OW26323   1.860   2.475   3.587 -0.0568  0.0224  0.2224
 4954SOL    HW126324   1.896   2.395   3.626 -1.3061  0.1671  1.6649
 4954SOL    HW226325   1.890   2.470   3.496 -1.5177 -0.8783 -0.2128
 4955SOL     OW26326   0.920   3.133  10.813  0.1546  0.1235 -0.0096
 4955SOL    HW126327   0.916   3.223  10.845  0.0175  1.2987 -3.2978
 4955SOL    HW226328   0.956   3.156  10.727 -0.5973  3.0355  0.4622
 4956SOL     OW26329   1.253   2.279  16.361 -0.0312  0.1119 -0.0004
 4956SOL    HW126330   1.205   2.207  16.321  0.4493 -0.9252  1.2835
 4956SOL    HW226331   1.198   2.351  16.331  0.9183  1.1574  0.7572
 4957SOL     OW26332   0.772   4.136   1.394 -0.4476  0.7651 -0.6185
 4957SOL    HW126333   0.711   4.146   1.467 -2.1651  2.1823 -2.2549
 4957SOL    HW226334   0.796   4.044   1.396 -2.0926  0.3682  0.2568
 4958SOL     OW26335   0.659   2.495   2.966 -0.0853  0.2947 -0.1938
 4958SOL    HW126336   0.648   2.401   2.955 -1.1224  0.6107 -1.7531
 4958SOL    HW226337   0.734   2.494   3.026 -0.9071 -1.8969  0.8172
 4959SOL     OW26338   4.305   0.087   5.480  0.0399  0.6623  0.0005
 4959SOL    HW126339   4.245   0.162   5.473  0.3961  1.1416  2.0132
 4959SOL    HW226340   4.283   0.047   5.564  0.9294  2.2679  1.0014
 4960SOL     OW26341   3.253   0.234   7.663  0.7292  0.5887  0.3562
 4960SOL    HW126342   3.343   0.226   7.631  0.3698  0.7475 -0.7263
 4960SOL    HW226343   3.266   0.311   7.718  1.8953 -1.2289  2.5682
 4961SOL     OW26344   4.624   3.426   5.230 -0.4183  0.2045 -0.3431
 4961SOL    HW126345   4.693   3.370   5.193 -1.4804 -0.7894 -0.8227
 4961SOL    HW226346   4.562   3.413   5.158 -0.1598  1.9128 -0.8785
 4962SOL     OW26347   0.736   1.737   6.260 -0.1080 -0.4910 -0.4655
 4962SOL    HW126348   0.802   1.786   6.211 -0.5079 -0.2607 -0.7682
 4962SOL    HW226349   0.685   1.702   6.188  1.5202 -1.7973 -0.9899
 4963SOL     OW26350   4.070   0.040  10.369  0.1472  0.0136 -0.1219
 4963SOL    HW126351   4.148   0.079  10.409 -0.1749  1.7763 -1.2165
 4963SOL    HW226352   4.000   0.061  10.431 -0.5528 -0.9283 -0.6083
 4964SOL     OW26353   3.011   3.733   4.018  0.1730 -0.1788 -0.3913
 4964SOL    HW126354   3.025   3.638   4.021 -3.1003 -0.5818  1.9675
 4964SOL    HW226355   2.943   3.733   4.085  2.0548 -0.5270  1.5211
 4965SOL     OW26356   1.632   4.316  12.182  0.3711  0.3549  0.4389
 4965SOL    HW126357   1.549   4.270  12.181  0.6054 -0.0747  0.7631
 4965SOL    HW226358   1.684   4.243  12.216  0.1409 -0.3542 -0.7162
 4966SOL     OW26359   2.396   1.491   5.340 -0.1446  0.0905 -0.1079
 4966SOL    HW126360   2.321   1.550   5.331 -1.1513 -1.2362 -0.3384
 4966SOL    HW226361   2.462   1.542   5.294  0.3956  0.0673  0.6370
 4967SOL     OW26362   2.203   1.839  11.722  0.1438 -0.6031  0.2309
 4967SOL    HW126363   2.112   1.867  11.711  0.4560  0.8614  1.3267
 4967SOL    HW226364   2.231   1.886  11.801  2.7869 -1.1640 -0.3448
 4968SOL     OW26365   4.006   4.441   3.042 -0.0086  0.1227 -0.7121
 4968SOL    HW126366   4.095   4.417   3.013  0.4232  0.4592  0.3405
 4968SOL    HW226367   3.982   4.504   2.974  0.8759 -1.3685 -2.4181
 4969SOL     OW26368   2.050   0.055   9.186 -0.1821 -0.0297 -0.1832
 4969SOL    HW126369   1.962   0.086   9.209 -1.1688 -1.7007 -1.6452
 4969SOL    HW226370   2.044   4.691   9.229  0.8021  0.1754  0.3528
 4970SOL     OW26371   1.491   1.694  15.138  0.1649 -0.5083 -0.1837
 4970SOL    HW126372   1.545   1.741  15.201 -1.2694 -0.1407  0.7752
 4970SOL    HW226373   1.425   1.761  15.118 -1.0407 -0.8068  2.8441
 4971SOL     OW26374   2.772   3.895   6.573  0.3317  0.1227 -0.3522
 4971SOL    HW126375   2.832   3.860   6.639  0.5894  0.1456 -0.5757
 4971SOL    HW226376   2.833   3.954   6.529  0.7424 -0.1720 -0.1745
 4972SOL     OW26377   2.230   2.949   3.942  0.7181  0.2431 -0.0372
 4972SOL    HW126378   2.232   2.990   3.856 -0.9513 -1.0254 -0.6595
 4972SOL    HW226379   2.268   2.862   3.930 -0.7431 -0.3836 -0.0792
 4973SOL     OW26380   1.988   3.160  11.306  0.1474  0.1895  0.4507
 4973SOL    HW126381   1.938   3.131  11.382 -0.9015 -0.9286 -0.6606
 4973SOL    HW226382   2.041   3.080  11.298  0.2036  0.4153 -1.4419
 4974SOL     OW26383   1.403   3.244  15.578  0.2598  0.0063 -0.2017
 4974SOL    HW126384   1.471   3.311  15.574  0.9965 -0.8274 -1.6349
 4974SOL    HW226385   1.327   3.283  15.621 -0.6293 -3.4319  1.3471
 4975SOL     OW26386   4.294   3.325  13.026 -0.6043  0.2058 -0.2103
 4975SOL    HW126387   4.274   3.360  12.939  0.3269  1.7823  0.1930
 4975SOL    HW226388   4.209   3.334  13.070 -0.8303  0.6302 -0.7300
 4976SOL     OW26389   1.300   1.014   6.384 -0.0872 -0.0866 -0.2259
 4976SOL    HW126390   1.362   0.942   6.396 -2.8158 -2.5204 -0.8040
 4976SOL    HW226391   1.356   1.087   6.357 -0.5335  0.1587 -0.4821
 4977SOL     OW26392   3.989   1.354   2.583 -0.6399  0.0660  0.6078
 4977SOL    HW126393   4.065   1.298   2.563 -1.4094 -1.3114  1.5101
 4977SOL    HW226394   3.985   1.340   2.678 -1.0416  2.2127  0.9133
 4978SOL     OW26395   1.020   4.606   7.896  0.1381 -0.1438  0.5949
 4978SOL    HW126396   0.946   4.646   7.851  0.1785  0.7814  1.3285
 4978SOL    HW226397   0.969   4.586   7.974 -1.0232  1.4984  0.2615
 4979SOL     OW26398   4.626   4.018  17.528 -0.1493 -0.3575 -0.0585
 4979SOL    HW126399   4.601   3.970  17.449  0.5848 -0.0067 -0.5007
 4979SOL    HW226400   4.555   4.006  17.591  0.2230  1.0807  0.6142
 4980SOL     OW26401   2.466   3.940   9.618  0.1994  0.1381  0.4551
 4980SOL    HW126402   2.503   4.028   9.624  1.5606 -0.3092 -1.5550
 4980SOL    HW226403   2.511   3.896   9.689 -0.9971 -2.4705 -0.4280
 4981SOL     OW26404   1.835   3.050   8.630  0.2947 -0.3425  0.0077
 4981SOL    HW126405   1.831   3.093   8.544  0.9562  1.5655  0.9285
 4981SOL    HW226406   1.914   3.096   8.658  1.0994 -2.3212  1.0144
 4982SOL     OW26407   1.720   2.374   2.566  0.5177  0.2420  0.1320
 4982SOL    HW126408   1.707   2.289   2.609 -1.0738  0.9648  1.0622
 4982SOL    HW226409   1.774   2.346   2.492 -0.2465  0.7425 -0.5967
 4983SOL     OW26410   1.177   3.412   3.207  0.7782 -0.2015 -0.4340
 4983SOL    HW126411   1.147   3.321   3.211  0.5936 -0.1866 -1.5426
 4983SOL    HW226412   1.122   3.456   3.273 -2.4702 -1.6452 -2.1949
 4984SOL     OW26413   2.250   2.907  15.532  0.0423 -0.5014  0.2950
 4984SOL    HW126414   2.247   2.877  15.441 -1.1196  2.3249 -0.5731
 4984SOL    HW226415   2.192   2.982  15.527 -0.1263 -0.6715 -0.2598
 4985SOL     OW26416   3.694   4.150   2.022 -0.3971 -0.0846 -0.4750
 4985SOL    HW126417   3.600   4.157   2.011 -0.5792 -1.9837 -0.0958
 4985SOL    HW226418   3.701   4.068   2.071  2.3378  0.9207  0.8654
 4986SOL     OW26419   4.342   4.109   7.397 -0.1480 -0.1753  0.6804
 4986SOL    HW126420   4.272   4.119   7.461 -0.2458  0.3508  0.4917
 4986SOL    HW226421   4.366   4.019   7.420  0.9464  0.3794  1.6901
 4987SOL     OW26422   4.367   2.017   4.933 -0.1892  0.0684  0.5112
 4987SOL    HW126423   4.404   2.078   4.998 -0.1519 -0.2042  0.7496
 4987SOL    HW226424   4.282   1.993   4.970 -0.0325  0.5138  1.1653
 4988SOL     OW26425   1.313   0.882   3.223  0.2717 -0.4442 -0.1047
 4988SOL    HW126426   1.285   0.884   3.315  0.0808  0.2362 -0.1729
 4988SOL    HW226427   1.244   0.943   3.196 -1.1661 -1.4399  1.2813
 4989SOL     OW26428   1.076   1.817   2.647  0.3194  0.4702 -0.2059
 4989SOL    HW126429   1.025   1.898   2.646  0.8206  0.7716 -1.1747
 4989SOL    HW226430   1.134   1.836   2.722  0.0366 -1.9926  0.6166
 4990SOL     OW26431   3.821   4.031  13.214 -0.6886 -0.4221 -0.2695
 4990SOL    HW126432   3.903   4.059  13.174 -0.5931  2.3575  1.8926
 4990SOL    HW226433   3.837   4.075  13.297  0.5210  0.0585 -0.7662
 4991SOL     OW26434   0.684   3.565   0.156 -0.2076 -0.1910 -0.0658
 4991SOL    HW126435   0.686   3.563   0.251  0.7721 -0.0717 -0.0829
 4991SOL    HW226436   0.598   3.526   0.144 -0.2253 -0.2417  0.2454
 4992SOL     OW26437   1.019   1.543  16.972 -0.3015  0.4428 -0.0341
 4992SOL    HW126438   0.998   1.542  16.878  0.5045  2.7262 -0.2315
 4992SOL    HW226439   1.092   1.483  16.987 -0.8058 -0.2286 -0.2135
 4993SOL     OW26440   4.425   3.499   8.136  0.1792  0.3889  0.1838
 4993SOL    HW126441   4.413   3.420   8.083  1.3715 -0.4781  1.2142
 4993SOL    HW226442   4.503   3.476   8.185  0.7255 -0.9733 -1.3087
 4994SOL     OW26443   1.562   3.681   6.648  0.6843 -0.2259  0.4039
 4994SOL    HW126444   1.625   3.738   6.692  1.8871  0.5849 -2.3661
 4994SOL    HW226445   1.592   3.595   6.680  1.0602 -0.9410 -1.8534
 4995SOL     OW26446   1.180   0.531   4.628  0.4052 -0.3958  0.5201
 4995SOL    HW126447   1.179   0.563   4.538 -0.3507 -0.3010  0.5568
 4995SOL    HW226448   1.096   0.486   4.627  1.3267 -2.0973 -0.0828
 4996SOL     OW26449   3.463   0.014  12.770  0.7544  0.3979  0.1107
 4996SOL    HW126450   3.478   0.102  12.804  0.5891  0.9321 -1.1714
 4996SOL    HW226451   3.528   4.677  12.808 -1.7281 -0.4235  3.1014
 4997SOL     OW26452   4.636   0.713   6.427  0.3843 -0.3513 -0.2163
 4997SOL    HW126453   4.646   0.719   6.522  0.1767 -0.6025 -0.1767
 4997SOL    HW226454   4.693   0.638   6.411  0.4816 -0.5018  0.8449
 4998SOL     OW26455   1.573   0.467   4.806  0.5510  0.4348  0.1443
 4998SOL    HW126456   1.608   0.442   4.892 -0.1407  1.2531  0.6727
 4998SOL    HW226457   1.587   0.562   4.805 -0.5232  0.5748 -1.7254
 4999SOL     OW26458   0.309   1.464   4.706  0.2409 -0.1336 -0.5086
 4999SOL    HW126459   0.388   1.423   4.673  0.2813  0.0793 -0.6803
 4999SOL    HW226460   0.339   1.468   4.797 -1.3007 -1.3731  0.0491
 5000SOL     OW26461   2.369   4.117   7.504  0.3818 -0.2154  0.4068
 5000SOL    HW126462   2.278   4.123   7.533  0.9368 -0.9785  2.3077
 5000SOL    HW226463   2.365   4.022   7.490  1.1727 -0.3259  0.8897
 5001SOL     OW26464   4.091   2.118   8.754  0.2100 -0.3446  0.6045
 5001SOL    HW126465   4.089   2.106   8.659 -3.9647  1.3387  0.5105
 5001SOL    HW226466   4.029   2.050   8.779  0.0826 -1.2475 -2.1038
 5002SOL     OW26467   4.519   1.079   2.696  0.3734  0.1909  0.7267
 5002SOL    HW126468   4.462   1.013   2.657  0.4139  0.5754  0.0121
 5002SOL    HW226469   4.556   1.113   2.615  0.5560 -0.7486  0.4238
 5003SOL     OW26470   2.367   0.977   7.243  0.3773 -0.8202  0.3017
 5003SOL    HW126471   2.297   0.999   7.304  0.8036  2.5953 -0.4314
 5003SOL    HW226472   2.391   0.890   7.272  1.1340 -1.5109 -2.3719
 5004SOL     OW26473   3.494   2.200   8.585 -0.1583  0.0206  0.1953
 5004SOL    HW126474   3.582   2.163   8.582 -0.0098  0.5818 -2.2366
 5004SOL    HW226475   3.489   2.244   8.669 -2.3827 -0.6698  0.4271
 5005SOL     OW26476   4.670   1.726   2.702  0.2658 -0.0346  0.5434
 5005SOL    HW126477   0.023   1.670   2.722  2.3956  2.2784 -1.0410
 5005SOL    HW226478   4.593   1.670   2.702 -0.4442  0.9482  0.0885
 5006SOL     OW26479   1.978   0.008  16.745  0.7535  0.3717 -0.7176
 5006SOL    HW126480   1.911   0.046  16.688  0.9729  1.6316 -0.1528
 5006SOL    HW226481   1.944   4.646  16.776 -2.6171  3.0665  2.8476
 5007SOL     OW26482   3.473   2.890   5.880 -0.6411  0.3442 -0.6272
 5007SOL    HW126483   3.483   2.907   5.786  0.5488  0.3232 -0.5132
 5007SOL    HW226484   3.549   2.932   5.921 -0.7971  1.1379 -1.1417
 5008SOL     OW26485   0.821   4.035   4.449  0.2351  0.0726 -0.3098
 5008SOL    HW126486   0.746   4.055   4.506  0.8605  2.2019 -0.2441
 5008SOL    HW226487   0.774   3.981   4.386  0.8561  0.3915 -1.0397
 5009SOL     OW26488   3.981   3.122   1.426  0.1644  0.4273  0.1513
 5009SOL    HW126489   3.944   3.034   1.437 -1.0351  1.1002  1.4198
 5009SOL    HW226490   3.917   3.183   1.463 -0.4584  0.4932 -1.0345
 5010SOL     OW26491   4.103   2.304   5.507  0.1208 -0.1163  0.4061
 5010SOL    HW126492   4.144   2.252   5.438 -1.0028  0.9316 -1.0491
 5010SOL    HW226493   4.010   2.287   5.496 -0.0220  0.5224  0.6228
 5011SOL     OW26494   4.630   3.107   8.267  0.0581 -0.5215 -0.0332
 5011SOL    HW126495   4.616   3.026   8.316 -0.3749  0.7175  1.9162
 5011SOL    HW226496   4.711   3.137   8.307 -1.3205  0.7789  1.7708
 5012SOL     OW26497   1.692   1.306  11.032 -0.3024 -0.2277 -1.0065
 5012SOL    HW126498   1.738   1.351  10.961  0.0305 -0.6196 -1.0393
 5012SOL    HW226499   1.638   1.254  10.972 -0.6077 -1.2177  0.1340
 5013SOL     OW26500   3.831   1.922   3.095 -0.6034  0.0240 -0.0082
 5013SOL    HW126501   3.860   1.837   3.129  3.0193  0.2629 -2.4600
 5013SOL    HW226502   3.741   1.893   3.083 -0.7848  0.4368  0.3599
 5014SOL     OW26503   3.294   2.286   7.168  0.7923  0.4962  0.1894
 5014SOL    HW126504   3.309   2.353   7.235  2.3958  1.6155 -1.3037
 5014SOL    HW226505   3.217   2.248   7.210 -1.7545  2.7817 -2.4797
 5015SOL     OW26506   1.610   2.330   2.314 -0.4969  0.3986 -0.0971
 5015SOL    HW126507   1.633   2.422   2.301 -1.6299  0.8446  1.0378
 5015SOL    HW226508   1.530   2.342   2.365 -1.2954  1.1373 -1.5479
 5016SOL     OW26509   1.787   4.053  16.545 -0.5505  0.3879 -0.1804
 5016SOL    HW126510   1.717   4.108  16.510 -0.5607 -0.2249 -1.1240
 5016SOL    HW226511   1.861   4.113  16.536 -0.2501 -0.0457 -0.5877
 5017SOL     OW26512   3.147   0.431   6.260 -0.0544 -0.2816 -0.2389
 5017SOL    HW126513   3.175   0.364   6.322 -1.1340  0.6215  1.2243
 5017SOL    HW226514   3.152   0.388   6.175  1.3836 -1.3269  0.3669
 5018SOL     OW26515   1.133   3.409   1.004  0.5086  0.0588 -0.3493
 5018SOL    HW126516   1.162   3.429   1.092 -1.0377 -0.4995  0.3011
 5018SOL    HW226517   1.094   3.322   1.014 -1.4409  1.1933  1.9097
 5019SOL     OW26518   0.627   0.866  12.948  0.3493  0.1583 -0.7894
 5019SOL    HW126519   0.670   0.854  13.032 -1.7570  0.0948  0.2675
 5019SOL    HW226520   0.664   0.791  12.901 -0.3899 -0.6508 -0.0847
 5020SOL     OW26521   0.789   3.139   8.603 -0.1847  0.4249 -0.3606
 5020SOL    HW126522   0.790   3.112   8.695  2.3982  4.4555  0.8116
 5020SOL    HW226523   0.721   3.083   8.565  0.1277 -0.7032  0.7551
 5021SOL     OW26524   2.925   0.941   0.734 -0.2200  0.5427  0.1496
 5021SOL    HW126525   2.951   0.998   0.662 -0.4839 -1.1942 -1.3233
 5021SOL    HW226526   2.842   0.973   0.768  1.5223  1.2770  3.7346
 5022SOL     OW26527   2.964   2.707   9.272 -0.1562  0.5420  0.0725
 5022SOL    HW126528   2.895   2.671   9.217  0.6926  0.5304 -0.9737
 5022SOL    HW226529   2.915   2.786   9.295 -3.6787 -1.1770 -1.4976
 5023SOL     OW26530   0.984   0.713  11.075  0.5759  0.3558  0.3309
 5023SOL    HW126531   1.026   0.798  11.086  0.4469  0.2976  1.2557
 5023SOL    HW226532   1.025   0.669  11.000  1.5697  1.6916  0.1017
 5024SOL     OW26533   4.522   0.398  17.133  0.2635 -0.1061 -0.5663
 5024SOL    HW126534   4.505   0.306  17.152 -0.1968  0.3051  1.0155
 5024SOL    HW226535   4.574   0.439  17.202  2.0797 -1.1738 -1.3067
 5025SOL     OW26536   0.737   0.572   8.419 -0.1855 -0.2816  0.0689
 5025SOL    HW126537   0.823   0.589   8.380 -1.3621  0.4349 -2.2217
 5025SOL    HW226538   0.745   0.479   8.437 -0.9026  0.2780  3.2345
 5026SOL     OW26539   1.670   4.294   2.905 -0.5190  0.3266  0.6956
 5026SOL    HW126540   1.590   4.334   2.871  0.8060  3.6781  1.5088
 5026SOL    HW226541   1.680   4.209   2.861 -2.1103  0.7002 -0.3920
 5027SOL     OW26542   3.755   0.211  12.492 -0.1895 -0.1117 -0.2564
 5027SOL    HW126543   3.745   0.296  12.534  0.4760  0.3859 -1.1133
 5027SOL    HW226544   3.665   0.194  12.467  0.3352 -1.2732 -1.3588
 5028SOL     OW26545   3.419   2.228   5.013 -0.3241  0.4195 -0.5457
 5028SOL    HW126546   3.342   2.235   4.956  0.2906  1.8074 -1.1962
 5028SOL    HW226547   3.377   2.187   5.089 -1.2581  0.7054 -0.9070
 5029SOL     OW26548   2.695   0.414   9.621 -0.0665 -0.5245 -0.6930
 5029SOL    HW126549   2.753   0.489   9.635  0.2817 -0.7251 -1.0406
 5029SOL    HW226550   2.606   0.446   9.634 -0.2646 -1.2464 -0.2531
 5030SOL     OW26551   4.570   0.719   8.782  0.2185 -0.0242  0.0749
 5030SOL    HW126552   4.488   0.738   8.828 -0.5829  1.7798 -2.0867
 5030SOL    HW226553   4.539   0.717   8.691 -0.2747  2.7485  0.1910
 5031SOL     OW26554   0.216   2.919  16.189 -0.8083  0.1768 -0.3702
 5031SOL    HW126555   0.237   2.916  16.282  1.5171  0.2048 -0.8742
 5031SOL    HW226556   0.274   2.849  16.157 -0.3935  0.5912 -0.5193
 5032SOL     OW26557   2.624   3.296   6.044  0.5451 -0.2942 -0.4296
 5032SOL    HW126558   2.614   3.201   6.048 -0.6293 -0.0581  1.9301
 5032SOL    HW226559   2.613   3.327   6.134  2.1250  0.5614 -0.5221
 5033SOL     OW26560   2.507   0.733   8.904  0.3737  0.0943  0.1730
 5033SOL    HW126561   2.559   0.813   8.900  0.4051  0.1123  0.8480
 5033SOL    HW226562   2.564   0.677   8.957 -0.8307 -0.6792  0.6422
 5034SOL     OW26563   4.200   1.218   2.473  0.3671  0.0908  0.8435
 5034SOL    HW126564   4.149   1.146   2.509  1.7016 -1.5940 -0.6488
 5034SOL    HW226565   4.269   1.226   2.538  0.8087 -2.1789  0.6227
 5035SOL     OW26566   0.463   3.809   8.417 -0.5853 -0.0062 -0.0829
 5035SOL    HW126567   0.444   3.901   8.436  0.5867  0.0278  0.9350
 5035SOL    HW226568   0.396   3.771   8.473 -1.5011  1.1920 -0.3557
 5036SOL     OW26569   0.468   2.637  14.337  0.3450  0.2124 -0.3380
 5036SOL    HW126570   0.412   2.711  14.360 -0.9752 -1.0614  0.4962
 5036SOL    HW226571   0.551   2.682  14.356 -1.3133  2.6676  1.0986
 5037SOL     OW26572   1.491   3.657  17.111 -0.4512 -0.0531 -0.1159
 5037SOL    HW126573   1.476   3.744  17.147 -0.8328 -0.4823  0.7636
 5037SOL    HW226574   1.484   3.686  17.020 -0.2192 -0.8714 -0.3948
 5038SOL     OW26575   1.432   3.540   6.410 -0.5399  0.4610 -0.5554
 5038SOL    HW126576   1.504   3.587   6.451  0.3814 -3.2044  2.0405
 5038SOL    HW226577   1.445   3.449   6.437 -0.2021  0.7865  0.3988
 5039SOL     OW26578   2.326   2.635   8.983  0.0308 -0.2758  0.0132
 5039SOL    HW126579   2.385   2.708   8.965 -0.5775 -0.0047 -0.9124
 5039SOL    HW226580   2.348   2.610   9.073  2.7547  1.7512 -0.0910
 5040SOL     OW26581   0.803   4.579   3.163  0.0658  0.4604 -0.1439
 5040SOL    HW126582   0.850   4.662   3.172 -0.2746  0.4903  1.2986
 5040SOL    HW226583   0.863   4.516   3.124 -0.2193 -1.1446  2.0377
 5041SOL     OW26584   2.769   3.384   9.166  0.0162 -0.1897 -0.1738
 5041SOL    HW126585   2.688   3.431   9.146  1.2566  2.0566  0.1423
 5041SOL    HW226586   2.831   3.454   9.186  1.1980 -0.9012 -1.3814
 5042SOL     OW26587   2.334   1.270   5.543  0.3294 -0.0254  0.4642
 5042SOL    HW126588   2.358   1.341   5.483  2.7915 -2.7947 -1.8358
 5042SOL    HW226589   2.279   1.214   5.488 -1.3074  2.8904 -0.8636
 5043SOL     OW26590   2.683   3.676   4.784 -0.3109 -0.2150 -0.0117
 5043SOL    HW126591   2.742   3.612   4.745  0.1417  0.9961 -1.3040
 5043SOL    HW226592   2.713   3.670   4.875  0.0113 -0.0872 -0.1088
 5044SOL     OW26593   3.817   3.655  17.346 -0.7125  0.3202  0.2676
 5044SOL    HW126594   3.891   3.595  17.341 -0.3237  0.8313 -0.1101
 5044SOL    HW226595   3.818   3.698  17.260 -0.4481 -1.1752 -0.4723
 5045SOL     OW26596   4.603   2.519   5.944 -0.1538 -0.3246 -0.3549
 5045SOL    HW126597   4.546   2.579   5.991 -1.8983 -1.5320 -0.9538
 5045SOL    HW226598   4.576   2.523   5.852  1.8998  0.1678 -0.9297
 5046SOL     OW26599   0.908   1.090   5.838 -0.3118 -0.2655  0.8626
 5046SOL    HW126600   1.001   1.074   5.822  0.1102  0.7965  2.3071
 5046SOL    HW226601   0.900   1.184   5.822 -0.4977  0.0456  2.7978
 5047SOL     OW26602   3.781   0.880   4.064  0.1292  0.4130 -0.1278
 5047SOL    HW126603   3.731   0.961   4.069  1.9892  1.4408  1.5856
 5047SOL    HW226604   3.852   0.873   4.128 -1.0527 -0.3033  1.1219
 5048SOL     OW26605   3.527   0.085   6.783  0.6385 -0.0323 -0.1934
 5048SOL    HW126606   3.539   0.163   6.837  0.9261  0.9801 -1.7419
 5048SOL    HW226607   3.596   0.111   6.722  1.0877 -0.0778  0.2887
 5049SOL     OW26608   2.327   3.746  13.513 -0.4002  0.5368 -1.1884
 5049SOL    HW126609   2.353   3.695  13.436 -0.3275 -2.5099  0.8550
 5049SOL    HW226610   2.241   3.782  13.494 -1.4593  0.6093  3.8811
 5050SOL     OW26611   1.798   3.841  17.070  0.3775  0.3612 -0.5977
 5050SOL    HW126612   1.857   3.771  17.042 -1.6176 -0.3897 -2.9598
 5050SOL    HW226613   1.731   3.822  17.004  0.2300 -1.9091  0.2072
 5051SOL     OW26614   0.085   3.760   0.174 -0.0046 -0.0072  0.5638
 5051SOL    HW126615   0.120   3.838   0.218 -1.2593  2.0530 -2.1178
 5051SOL    HW226616   4.711   3.762   0.176 -0.0201  0.8983 -1.0062
 5052SOL     OW26617   1.484   3.154   7.280  0.1326 -0.3115  0.0371
 5052SOL    HW126618   1.537   3.120   7.353  0.3682  2.1957  1.0416
 5052SOL    HW226619   1.453   3.073   7.241  1.1739 -0.5705 -0.2649
 5053SOL     OW26620   1.058   2.502  11.901  0.5038 -0.0106 -0.7672
 5053SOL    HW126621   0.983   2.474  11.850  1.8707 -1.4030 -2.0118
 5053SOL    HW226622   1.104   2.543  11.827 -1.3591  0.9029 -1.4118
 5054SOL     OW26623   3.381   4.206   9.659 -0.0603 -0.1413 -0.7812
 5054SOL    HW126624   3.414   4.229   9.572  1.9466  0.4047  0.1358
 5054SOL    HW226625   3.420   4.274   9.714 -0.4610  0.2435 -0.9737
 5055SOL     OW26626   4.288   2.557  15.500  0.0144  0.1308  0.0537
 5055SOL    HW126627   4.308   2.649  15.486 -0.0299  0.4533  2.0845
 5055SOL    HW226628   4.231   2.565  15.576  2.1885 -1.3234  1.8595
 5056SOL     OW26629   0.567   3.476   4.811  0.6418 -0.2259 -1.1040
 5056SOL    HW126630   0.561   3.559   4.763  0.8680 -0.9408 -2.3650
 5056SOL    HW226631   0.589   3.412   4.743 -0.9652  0.3250 -2.1492
 5057SOL     OW26632   4.221   0.188   2.894  0.0633  0.3051 -0.4971
 5057SOL    HW126633   4.265   0.105   2.910  0.8142  0.9925  1.0181
 5057SOL    HW226634   4.133   0.159   2.919  0.4602 -0.9644 -0.5777
 5058SOL     OW26635   2.896   2.755   8.257 -0.0648 -0.0010 -0.2134
 5058SOL    HW126636   2.913   2.746   8.351 -0.9326  0.4154 -0.0187
 5058SOL    HW226637   2.804   2.736   8.239  0.0685 -0.8389 -0.0293
 5059SOL     OW26638   1.000   3.160   9.424  0.6039 -0.7360 -0.2770
 5059SOL    HW126639   1.094   3.169   9.436  0.6677 -1.3301 -0.3162
 5059SOL    HW226640   0.959   3.247   9.427  0.5026 -0.8473  1.5778
 5060SOL     OW26641   2.349   0.305  11.622  0.0639 -0.4472 -0.2024
 5060SOL    HW126642   2.270   0.353  11.598  0.8160  0.5425 -0.6673
 5060SOL    HW226643   2.316   0.265  11.702  0.3487 -0.6730 -0.1953
 5061SOL     OW26644   0.344   1.983  13.930 -0.3969 -0.0746  0.2809
 5061SOL    HW126645   0.278   1.930  13.974  0.5723  0.1329  1.9655
 5061SOL    HW226646   0.357   2.052  13.994 -2.4195 -0.0087  0.6047
 5062SOL     OW26647   2.708   2.146   1.813  0.1385  0.2730 -0.1081
 5062SOL    HW126648   2.777   2.081   1.805  0.9808  1.0855  0.5333
 5062SOL    HW226649   2.768   2.214   1.844 -0.6585  1.3172 -0.8387
 5063SOL     OW26650   3.908   0.795  15.475 -0.4167  0.4632 -0.4373
 5063SOL    HW126651   3.906   0.731  15.546  0.9300  2.6260  1.5584
 5063SOL    HW226652   3.897   0.732  15.404  0.1175  0.2553 -0.3379
 5064SOL     OW26653   0.129   1.421  12.726  0.2624 -0.2913  0.5660
 5064SOL    HW126654   0.067   1.391  12.660  1.8480 -0.5526 -0.8147
 5064SOL    HW226655   0.147   1.336  12.767 -0.9389 -0.6937  0.2713
 5065SOL     OW26656   2.448   3.294   7.301 -0.1460 -0.1097 -0.3499
 5065SOL    HW126657   2.520   3.356   7.287  0.3112 -0.5108  0.2197
 5065SOL    HW226658   2.486   3.256   7.380  2.5960  2.4372 -0.4094
 5066SOL     OW26659   2.274   4.299   1.398 -0.4738  0.3465 -0.4214
 5066SOL    HW126660   2.315   4.380   1.369  0.8221 -0.6164 -1.2977
 5066SOL    HW226661   2.318   4.292   1.483  0.1437  0.3486 -0.7402
 5067SOL     OW26662   2.849   4.016   7.580  0.1065 -0.5669  0.8579
 5067SOL    HW126663   2.763   4.027   7.621 -0.1732 -0.4130  0.2334
 5067SOL    HW226664   2.878   4.106   7.564  0.5548 -0.8863 -0.1441
 5068SOL     OW26665   0.783   2.172   1.713  0.3391  0.4199  0.1109
 5068SOL    HW126666   0.872   2.137   1.710  0.2690  0.1901  0.7092
 5068SOL    HW226667   0.730   2.094   1.727 -1.2888  0.9334 -3.2611
 5069SOL     OW26668   4.538   2.628   5.685 -0.1900 -0.1686  0.3087
 5069SOL    HW126669   4.601   2.694   5.657 -1.0812 -0.4286 -2.3199
 5069SOL    HW226670   4.483   2.626   5.606 -0.5037 -1.3506  0.5511
 5070SOL     OW26671   2.473   0.306   6.581  0.5494  0.3928  0.0816
 5070SOL    HW126672   2.496   0.249   6.654 -2.3686 -1.3977 -0.3782
 5070SOL    HW226673   2.397   0.356   6.611 -0.8687 -0.2529 -2.3496
 5071SOL     OW26674   2.686   3.635  12.838  0.1143  0.3750  0.3131
 5071SOL    HW126675   2.716   3.724  12.820 -1.1600  0.9821  1.1680
 5071SOL    HW226676   2.688   3.600  12.749 -0.8667  1.2139 -0.0416
 5072SOL     OW26677   2.911   0.283   3.561  0.1313 -0.0604 -0.3004
 5072SOL    HW126678   2.962   0.249   3.488 -1.5491  0.5573 -1.7539
 5072SOL    HW226679   2.819   0.289   3.534  0.1000 -0.9389 -0.3985
 5073SOL     OW26680   1.451   3.805   5.700 -0.2717  0.2866 -0.3202
 5073SOL    HW126681   1.524   3.793   5.641  1.0307  0.5901  1.2249
 5073SOL    HW226682   1.496   3.863   5.761  1.3965 -2.2211  0.8293
 5074SOL     OW26683   2.856   4.584   7.717 -0.4082 -1.0357  0.0890
 5074SOL    HW126684   2.772   4.631   7.721  1.1094  1.8370 -1.3163
 5074SOL    HW226685   2.852   4.530   7.795  0.1502  0.8899  1.4616
 5075SOL     OW26686   2.812   3.424   4.158  0.1867  0.0702  0.0048
 5075SOL    HW126687   2.729   3.377   4.156 -0.6556  1.5934 -0.3959
 5075SOL    HW226688   2.790   3.510   4.193  1.2272  0.5572 -0.5351
 5076SOL     OW26689   0.744   1.129   7.495  0.5645 -0.4133 -0.4833
 5076SOL    HW126690   0.677   1.061   7.483  0.7308 -0.8654  1.0757
 5076SOL    HW226691   0.716   1.201   7.438 -0.8897 -1.3803 -0.9835
 5077SOL     OW26692   2.827   3.884   2.638 -0.7012  0.3621  0.0960
 5077SOL    HW126693   2.848   3.796   2.667  1.2501  1.7594  2.9217
 5077SOL    HW226694   2.871   3.882   2.553 -2.1895 -0.3382 -0.6559
 5078SOL     OW26695   2.000   1.320  13.872  0.4430  0.2173  0.5603
 5078SOL    HW126696   2.039   1.401  13.838  0.5457 -0.8322 -1.8239
 5078SOL    HW226697   1.909   1.348  13.880  0.1210 -0.1108 -1.8755
 5079SOL     OW26698   0.504   1.587   1.278 -0.3463  0.0476 -0.0751
 5079SOL    HW126699   0.498   1.513   1.339 -1.1211  0.2458  0.0914
 5079SOL    HW226700   0.597   1.581   1.256 -0.6143 -2.9974 -0.4416
 5080SOL     OW26701   4.358   4.528   7.938 -0.0924 -0.2828 -0.1677
 5080SOL    HW126702   4.351   4.623   7.949  0.7621 -0.0310 -1.8418
 5080SOL    HW226703   4.396   4.516   7.851 -0.3617 -0.0836 -0.3144
 5081SOL     OW26704   4.077   3.088   2.262  0.0207  0.2618 -0.0268
 5081SOL    HW126705   4.074   3.173   2.306 -0.5040  0.2425 -0.0333
 5081SOL    HW226706   4.120   3.100   2.177  0.9477 -1.5989  0.1861
 5082SOL     OW26707   2.457   3.863   4.782  0.7515  0.0456 -0.3450
 5082SOL    HW126708   2.514   3.793   4.816  0.1311 -0.1809  0.2203
 5082SOL    HW226709   2.383   3.802   4.780 -0.6514  1.7332  0.9164
 5083SOL     OW26710   4.512   0.758   5.065  0.2760 -0.1151  0.1325
 5083SOL    HW126711   4.426   0.716   5.061  0.5412 -1.0785  4.5875
 5083SOL    HW226712   4.561   0.721   4.992 -1.1136  1.1587 -1.4500
 5084SOL     OW26713   0.136   2.382   1.305  0.3219  0.1944  0.6203
 5084SOL    HW126714   0.114   2.468   1.341  0.9636  0.9507 -0.7756
 5084SOL    HW226715   0.225   2.392   1.271  0.3799 -2.8847 -0.1673
 5085SOL     OW26716   2.789   2.905  16.338 -0.3068 -0.2404 -0.2078
 5085SOL    HW126717   2.802   2.982  16.393 -0.5327  0.3279 -0.9524
 5085SOL    HW226718   2.829   2.940  16.258 -1.4669  0.0956 -0.6422
 5086SOL     OW26719   0.648   1.651   6.728 -0.4310  0.8656 -0.1229
 5086SOL    HW126720   0.634   1.699   6.646 -0.2046 -0.1201 -0.7351
 5086SOL    HW226721   0.741   1.632   6.729 -0.6912 -0.5408 -1.2277
 5087SOL     OW26722   1.537   0.351   3.856 -0.2546 -0.1239  0.7114
 5087SOL    HW126723   1.548   0.356   3.761 -1.0992  3.4833  0.8042
 5087SOL    HW226724   1.464   0.410   3.874 -2.3269 -2.0721 -1.3835
 5088SOL     OW26725   2.437   4.498   0.390 -0.3423  0.3022  0.0527
 5088SOL    HW126726   2.488   4.486   0.310  0.5494  0.5205  0.5915
 5088SOL    HW226727   2.503   4.539   0.445  0.1003 -0.5169  0.1362
 5089SOL     OW26728   2.168   1.069   7.414  0.2012  0.3971  0.0544
 5089SOL    HW126729   2.117   1.088   7.493 -1.0210 -1.4483 -0.2788
 5089SOL    HW226730   2.159   1.155   7.375 -2.5094  0.2338  0.2919
 5090SOL     OW26731   1.991   2.993   0.182 -0.1028  0.3149  0.2415
 5090SOL    HW126732   1.930   2.923   0.159  0.4670  0.1896 -0.8637
 5090SOL    HW226733   1.987   3.052   0.107 -1.0388 -0.8696 -0.6289
 5091SOL     OW26734   4.299   4.471   7.556  0.1962 -0.2698 -0.1507
 5091SOL    HW126735   4.352   4.418   7.496  1.4889  2.6250 -1.5405
 5091SOL    HW226736   4.378   4.498   7.603  0.3252 -0.9723  0.0350
 5092SOL     OW26737   2.166   1.295   0.342  0.6475 -0.6078 -0.0340
 5092SOL    HW126738   2.164   1.224   0.406 -0.3231  0.4553  1.0943
 5092SOL    HW226739   2.216   1.367   0.380 -1.5027  1.1639 -0.5656
 5093SOL     OW26740   1.894   3.081   7.014  0.0055 -0.7545  0.5486
 5093SOL    HW126741   1.861   3.026   7.085 -1.0201 -0.7916  0.0499
 5093SOL    HW226742   1.887   3.171   7.047 -0.3553  0.1206 -1.9280
 5094SOL     OW26743   3.424   3.716   5.868 -0.7359 -0.8829  0.1550
 5094SOL    HW126744   3.387   3.650   5.927  1.3604 -0.2459  2.1592
 5094SOL    HW226745   3.462   3.774   5.933  1.4563 -0.6752 -1.3090
 5095SOL     OW26746   4.558   3.153   6.366 -0.1310 -0.2179 -0.0483
 5095SOL    HW126747   4.528   3.067   6.339 -1.5193  0.8376 -1.8115
 5095SOL    HW226748   4.482   3.179   6.419 -0.5250 -0.6727 -0.3970
 5096SOL     OW26749   1.207   2.349   7.116 -0.0949 -0.1072 -0.3550
 5096SOL    HW126750   1.135   2.411   7.126 -1.1110 -1.1687 -0.9101
 5096SOL    HW226751   1.286   2.402   7.114 -1.2378  1.4895 -3.3568
 5097SOL     OW26752   3.101   3.800   3.736 -0.4721  0.1571  0.3297
 5097SOL    HW126753   3.055   3.749   3.803  1.3129  0.7253  1.9891
 5097SOL    HW226754   3.166   3.839   3.794 -1.2741 -1.9252  2.6684
 5098SOL     OW26755   3.650   3.427   2.906  0.1670  0.5290 -0.4588
 5098SOL    HW126756   3.730   3.375   2.916 -2.3543 -2.9267  1.3988
 5098SOL    HW226757   3.690   3.514   2.900 -0.9396  1.1680  1.6457
 5099SOL     OW26758   3.675   3.856   6.865  0.2873  0.5536  0.3944
 5099SOL    HW126759   3.722   3.881   6.785 -0.6401  1.6982  0.2096
 5099SOL    HW226760   3.717   3.923   6.918  0.6222  1.5722 -1.1499
 5100SOL     OW26761   0.113   4.453  12.254 -0.0296 -0.0427  0.2905
 5100SOL    HW126762   0.119   4.549  12.249 -1.2222  0.0297  0.4249
 5100SOL    HW226763   0.114   4.433  12.160  1.6919  0.1991  0.2572
 5101SOL     OW26764   1.985   2.982   9.578  0.2174  0.1879  0.2976
 5101SOL    HW126765   1.931   2.994   9.655  1.6189  2.3593  0.9375
 5101SOL    HW226766   2.047   3.055   9.575  0.6103 -0.0900  1.6481
 5102SOL     OW26767   0.460   1.468   3.547 -0.1412  0.8063  0.2673
 5102SOL    HW126768   0.456   1.519   3.465  2.4510 -0.8842 -0.8918
 5102SOL    HW226769   0.521   1.525   3.594  1.0241  1.5755 -2.1825
 5103SOL     OW26770   2.911   0.274   9.729 -0.3495  0.4204 -0.0430
 5103SOL    HW126771   2.841   0.286   9.666 -0.3939  0.0832 -0.0551
 5103SOL    HW226772   2.948   0.190   9.702  1.4109  1.1699  0.0137
 5104SOL     OW26773   2.571   0.426  10.312  0.7870  0.5741  1.0206
 5104SOL    HW126774   2.543   0.334  10.308 -0.6435  0.9758  1.5644
 5104SOL    HW226775   2.534   0.466  10.391 -2.1053 -1.6398  0.8018
 5105SOL     OW26776   3.530   4.334   3.035  0.4773  0.6307  0.0412
 5105SOL    HW126777   3.553   4.247   3.003  0.1286  0.1885  1.0004
 5105SOL    HW226778   3.466   4.360   2.969  1.0787  1.7981 -0.0816
 5106SOL     OW26779   4.037   3.579  16.905 -0.3088 -0.9079 -0.2120
 5106SOL    HW126780   4.060   3.671  16.909 -0.5082 -0.8937  0.7232
 5106SOL    HW226781   4.115   3.524  16.900  0.0660 -0.5182  1.2992
 5107SOL     OW26782   4.081   4.471   3.909 -0.1744  0.0619  0.1172
 5107SOL    HW126783   4.045   4.477   3.820 -1.1195 -0.4444  0.4629
 5107SOL    HW226784   4.002   4.468   3.964 -2.7480  2.0944 -3.4394
 5108SOL     OW26785   0.164   2.674  11.306  0.5221 -0.0692 -0.0420
 5108SOL    HW126786   0.248   2.648  11.344  0.6198 -1.4260 -1.2082
 5108SOL    HW226787   0.107   2.693  11.381  0.0850 -1.3268 -0.0569
 5109SOL     OW26788   0.221   3.489  11.525 -0.3938 -0.0075 -0.2526
 5109SOL    HW126789   0.222   3.475  11.430  1.1383  1.5904 -0.4570
 5109SOL    HW226790   0.309   3.470  11.557  0.5988  3.5832 -0.8626
 5110SOL     OW26791   2.905   1.042   6.755 -0.2253 -0.4035  0.1468
 5110SOL    HW126792   2.829   1.089   6.791  0.2311 -0.2736  0.9558
 5110SOL    HW226793   2.927   0.984   6.828 -0.2052  1.7702  1.9037
 5111SOL     OW26794   2.165   1.021  10.621  0.1140 -0.3076 -0.1273
 5111SOL    HW126795   2.128   0.933  10.629  1.3102 -0.8458 -0.5054
 5111SOL    HW226796   2.157   1.034  10.527 -0.5855 -0.0336 -0.0305
 5112SOL     OW26797   0.203   1.563  11.773  0.0216  0.2526  0.1036
 5112SOL    HW126798   0.266   1.534  11.840 -0.8027 -1.1988  0.2583
 5112SOL    HW226799   0.192   1.486  11.717 -0.7214 -0.3127  1.0168
 5113SOL     OW26800   1.610   4.440   7.589 -0.4924  0.0510 -0.3949
 5113SOL    HW126801   1.634   4.506   7.523 -0.6606 -2.5335 -3.0178
 5113SOL    HW226802   1.665   4.467   7.663 -0.0926 -1.8427 -0.0214
 5114SOL     OW26803   2.880   0.847  16.205 -0.5585 -0.9405 -0.3982
 5114SOL    HW126804   2.862   0.753  16.198 -1.2761 -0.9444  1.7115
 5114SOL    HW226805   2.941   0.847  16.278 -0.2867 -0.7891 -0.6270
 5115SOL     OW26806   4.058   3.661  12.117 -0.1629  0.2878 -0.1230
 5115SOL    HW126807   4.018   3.704  12.042 -1.4962 -1.8271 -0.6290
 5115SOL    HW226808   4.133   3.627  12.067  0.2252  0.9481  0.0157
 5116SOL     OW26809   3.039   1.998   4.553  0.0399  0.1968 -0.0758
 5116SOL    HW126810   3.086   2.074   4.587 -0.0548 -0.2637  1.0998
 5116SOL    HW226811   2.984   1.983   4.630  0.6415  0.1594  0.3438
 5117SOL     OW26812   0.409   4.570   1.463 -0.0016  0.4380 -0.2898
 5117SOL    HW126813   0.480   4.514   1.431  1.0502  1.4266  0.3406
 5117SOL    HW226814   0.331   4.514   1.458 -0.0748  0.3736  1.6046
 5118SOL     OW26815   3.885   3.569  11.036 -0.3989 -0.9873 -0.2777
 5118SOL    HW126816   3.829   3.492  11.026 -0.2104 -1.0340 -0.9326
 5118SOL    HW226817   3.953   3.536  11.095 -0.6190 -1.3703 -0.2382
 5119SOL     OW26818   2.098   3.467   6.898  0.4558 -0.6234  0.1925
 5119SOL    HW126819   2.031   3.433   6.957 -0.9205  0.6465 -0.6199
 5119SOL    HW226820   2.181   3.449   6.942 -1.2494 -0.4520  3.4708
 5120SOL     OW26821   1.495   2.697   3.634  0.3350  0.3779  0.1261
 5120SOL    HW126822   1.445   2.714   3.714  0.8369 -1.5501  0.8603
 5120SOL    HW226823   1.577   2.695   3.684  2.2425 -1.4099 -3.0352
 5121SOL     OW26824   3.167   3.840   6.529  0.1328 -0.4217  0.4015
 5121SOL    HW126825   3.194   3.884   6.448 -0.4863 -0.0270  0.4126
 5121SOL    HW226826   3.245   3.846   6.583 -1.1198  0.5936  2.0917
 5122SOL     OW26827   3.466   1.769   5.324 -0.4212 -0.1641  0.4945
 5122SOL    HW126828   3.545   1.715   5.321  0.3100  0.8632  1.4672
 5122SOL    HW226829   3.511   1.852   5.337  0.1545 -0.5605  1.0066
 5123SOL     OW26830   0.650   0.768   3.308 -0.6615  0.1800  0.0930
 5123SOL    HW126831   0.583   0.835   3.307 -0.6889  0.2081  2.7649
 5123SOL    HW226832   0.727   0.823   3.322 -0.1643 -0.5168  0.1376
 5124SOL     OW26833   3.069   3.635   3.333 -0.4442 -0.0524  0.1228
 5124SOL    HW126834   3.039   3.590   3.255 -2.2278 -3.7095  2.9221
 5124SOL    HW226835   3.035   3.724   3.320 -1.0345 -0.4748 -1.1370
 5125SOL     OW26836   1.069   3.559   6.045 -0.3451 -0.0161  0.6610
 5125SOL    HW126837   1.131   3.504   5.997 -0.6384  2.6115 -2.7681
 5125SOL    HW226838   1.134   3.611   6.092 -0.0113 -2.8399  3.3293
 5126SOL     OW26839   1.273   1.712   9.499  0.3782  0.4275  0.2244
 5126SOL    HW126840   1.313   1.798   9.488  2.6186 -0.7943 -1.1865
 5126SOL    HW226841   1.220   1.723   9.578 -0.5162  0.2339 -0.3457
 5127SOL     OW26842   0.777   1.848  11.258  0.5349 -0.2936 -0.2224
 5127SOL    HW126843   0.711   1.849  11.188  0.4358 -1.2723 -0.1311
 5127SOL    HW226844   0.823   1.930  11.239  1.6715 -1.0085 -0.5681
 5128SOL     OW26845   4.252   0.140   9.066  0.0853 -0.1817  0.0180
 5128SOL    HW126846   4.162   0.129   9.097  0.0284 -1.2733 -0.5131
 5128SOL    HW226847   4.278   0.209   9.127  0.6463  0.6107 -1.1161
 5129SOL     OW26848   2.996   2.701   4.849 -0.1198 -0.1947 -0.2487
 5129SOL    HW126849   2.901   2.710   4.859 -0.1191  0.4168 -0.7626
 5129SOL    HW226850   3.020   2.692   4.941  1.2279 -0.0499 -0.5903
 5130SOL     OW26851   1.721   3.470   5.688 -1.1329 -0.4180  0.1963
 5130SOL    HW126852   1.752   3.512   5.768 -2.0946 -0.9774  0.8650
 5130SOL    HW226853   1.638   3.436   5.720 -0.1465 -0.8053  2.3600
 5131SOL     OW26854   0.571   1.799   6.488 -0.2533 -0.3742  0.7349
 5131SOL    HW126855   0.482   1.765   6.478 -0.1798  0.1075 -1.6158
 5131SOL    HW226856   0.598   1.769   6.401 -0.7771  2.4449 -0.4025
 5132SOL     OW26857   0.424   0.689  17.543 -0.0116  0.8114  0.1414
 5132SOL    HW126858   0.504   0.730  17.574  0.2265  0.6014 -0.1902
 5132SOL    HW226859   0.420   0.613  17.601  2.1906  0.4038 -0.2173
 5133SOL     OW26860   0.396   4.279  16.208 -0.0721  0.4736  0.5518
 5133SOL    HW126861   0.358   4.297  16.122  1.2184  0.6336  0.0194
 5133SOL    HW226862   0.385   4.184  16.209 -0.8709  0.5412 -2.7894
 5134SOL     OW26863   0.756   1.108   4.962 -0.4608 -0.0468  0.4913
 5134SOL    HW126864   0.822   1.041   4.981 -1.2991 -0.8074  0.7064
 5134SOL    HW226865   0.741   1.098   4.868  0.6996 -0.1897  0.3194
 5135SOL     OW26866   4.270   4.050  11.020 -0.6829 -0.5816 -0.1211
 5135SOL    HW126867   4.295   4.125  11.075 -0.0860 -2.0157  1.5549
 5135SOL    HW226868   4.354   4.022  10.984 -0.1735  1.5218 -0.5750
 5136SOL     OW26869   2.125   0.503   7.283  0.6953  0.4237  0.0844
 5136SOL    HW126870   2.198   0.556   7.252  0.8536 -0.2864 -0.7432
 5136SOL    HW226871   2.088   0.564   7.347  0.4622  0.6563 -0.2758
 5137SOL     OW26872   4.599   1.877   9.445 -0.5108  0.4669 -0.5354
 5137SOL    HW126873   4.592   1.972   9.448  1.5381  0.6391 -1.1506
 5137SOL    HW226874   4.520   1.844   9.402 -2.4629  1.9828  1.9291
 5138SOL     OW26875   0.475   1.762  15.107  0.1467  0.4396  0.6019
 5138SOL    HW126876   0.403   1.707  15.137  0.4343 -1.0300 -1.4542
 5138SOL    HW226877   0.538   1.698  15.076 -0.7522 -0.6088  0.9515
 5139SOL     OW26878   1.488   0.573   4.382 -0.0783  0.0377  0.1926
 5139SOL    HW126879   1.442   0.657   4.374 -0.9510 -0.4752 -0.1708
 5139SOL    HW226880   1.578   0.591   4.355 -0.2935 -2.1814 -2.0792
 5140SOL     OW26881   2.859   3.894  13.027 -0.2700 -0.3324 -0.4388
 5140SOL    HW126882   2.897   3.890  12.939 -0.1933  1.6385 -0.4998
 5140SOL    HW226883   2.773   3.927  13.002 -0.1539  1.0676  0.9893
 5141SOL     OW26884   1.197   2.113   8.428 -0.6521  0.2457 -0.4722
 5141SOL    HW126885   1.275   2.060   8.446 -1.5613 -0.3505  1.6245
 5141SOL    HW226886   1.147   2.093   8.507 -0.0877 -2.8315 -0.8959
 5142SOL     OW26887   2.470   3.147   8.039  0.5168 -0.6938 -0.5883
 5142SOL    HW126888   2.460   3.071   8.097 -1.9434  1.1779  1.4132
 5142SOL    HW226889   2.506   3.218   8.091 -0.2128  1.3075 -2.8171
 5143SOL     OW26890   4.699   2.524   7.338 -0.2443 -0.8548  0.0694
 5143SOL    HW126891   0.059   2.520   7.288 -0.1954  1.4759 -0.0351
 5143SOL    HW226892   0.010   2.509   7.426  0.8832 -0.0711 -0.2105
 5144SOL     OW26893   2.724   1.480   5.807 -0.0779 -0.3394  0.6870
 5144SOL    HW126894   2.660   1.416   5.774 -0.8364  1.5907 -1.5698
 5144SOL    HW226895   2.796   1.417   5.807 -0.4640 -0.7642 -0.8101
 5145SOL     OW26896   2.282   4.273   0.399 -0.1831 -0.1785  0.2746
 5145SOL    HW126897   2.338   4.347   0.420 -1.2633 -0.1155  2.9166
 5145SOL    HW226898   2.251   4.257   0.488  1.1872 -1.0993  0.5857
 5146SOL     OW26899   4.691   1.620  12.849  0.5203 -0.3271  0.2264
 5146SOL    HW126900   0.060   1.649  12.856  0.5349 -0.4232  0.4323
 5146SOL    HW226901   4.696   1.544  12.792  2.4139 -1.0145  1.3044
 5147SOL     OW26902   1.859   0.278   3.555  0.1298 -0.4519 -0.7249
 5147SOL    HW126903   1.765   0.259   3.559  0.0053  0.8204  2.9451
 5147SOL    HW226904   1.866   0.319   3.469 -0.3229  1.7405  0.2698
 5148SOL     OW26905   2.872   0.241   4.661 -0.5923 -0.0798  0.3551
 5148SOL    HW126906   2.938   0.307   4.644 -1.4135  0.8153  0.6534
 5148SOL    HW226907   2.792   0.287   4.637  0.3726  0.8363 -1.0679
 5149SOL     OW26908   4.240   3.700   2.003  0.7559 -0.4689 -0.3381
 5149SOL    HW126909   4.275   3.787   2.021 -1.1167  0.3299 -0.6333
 5149SOL    HW226910   4.275   3.641   2.070 -1.3075 -1.5444 -0.2068
 5150SOL     OW26911   0.732   0.581   6.887 -0.0906 -0.0227  0.5430
 5150SOL    HW126912   0.718   0.647   6.955  0.4227  1.3045 -0.6229
 5150SOL    HW226913   0.692   0.629   6.814 -0.4088 -0.2539  0.5676
 5151SOL     OW26914   2.471   2.070  10.816 -0.1603  0.2745  0.3150
 5151SOL    HW126915   2.509   2.052  10.730  0.7572  0.4644  0.6930
 5151SOL    HW226916   2.379   2.059  10.789  0.0054 -0.7366  0.1274
 5152SOL     OW26917   2.087   1.337  15.064 -0.2451 -0.0595 -0.5374
 5152SOL    HW126918   2.059   1.275  14.996  1.8792 -0.8162 -0.7247
 5152SOL    HW226919   2.108   1.274  15.133 -1.6461 -0.1326 -0.1702
 5153SOL     OW26920   2.366   2.935   7.421 -0.4820 -0.1013 -0.5818
 5153SOL    HW126921   2.311   3.008   7.392 -0.3345 -0.0009 -0.6091
 5153SOL    HW226922   2.449   2.973   7.449  0.4354 -1.6899 -1.1296
 5154SOL     OW26923   3.119   2.803   3.948 -0.0648  0.3642 -0.1963
 5154SOL    HW126924   3.205   2.806   3.989 -0.3515 -0.5776  0.4871
 5154SOL    HW226925   3.140   2.795   3.855 -0.0623 -0.1974 -0.1484
 5155SOL     OW26926   1.695   3.247   1.314 -0.6424 -0.0554 -0.0947
 5155SOL    HW126927   1.720   3.198   1.235 -1.2620  1.1630 -1.0337
 5155SOL    HW226928   1.769   3.235   1.374  0.8894  2.1628 -1.5328
 5156SOL     OW26929   1.086   2.327   5.137 -0.1537  0.3585  0.0252
 5156SOL    HW126930   1.014   2.304   5.195  0.1339 -0.4358  0.0609
 5156SOL    HW226931   1.046   2.400   5.089 -1.2358 -0.6296 -0.5615
 5157SOL     OW26932   2.761   2.315  16.632 -0.1638 -0.2949 -0.1592
 5157SOL    HW126933   2.742   2.235  16.583 -1.2672  1.0465 -1.9207
 5157SOL    HW226934   2.857   2.305  16.631 -0.4383 -2.9700 -0.7786
 5158SOL     OW26935   0.119   1.635   7.592  0.4123 -0.4826  0.2340
 5158SOL    HW126936   0.208   1.598   7.595  0.3740 -0.6654 -0.8486
 5158SOL    HW226937   0.104   1.688   7.514  0.5490 -0.4056  0.2592
 5159SOL     OW26938   2.037   1.111  14.034 -0.4447 -0.5465  0.3091
 5159SOL    HW126939   2.014   1.159  14.114  2.6712 -1.5381  1.8089
 5159SOL    HW226940   2.016   1.173  13.964  0.9281 -0.7898 -0.3231
 5160SOL     OW26941   0.573   0.739   5.073 -0.0617 -0.4491  0.2826
 5160SOL    HW126942   0.537   0.789   5.145 -0.7174  1.6420 -1.4936
 5160SOL    HW226943   0.554   0.803   5.005  0.6641  0.1540  0.6479
 5161SOL     OW26944   4.378   3.611  15.891 -0.3198  0.2085  0.1190
 5161SOL    HW126945   4.348   3.552  15.822  0.6516 -0.0057 -0.1094
 5161SOL    HW226946   4.451   3.658  15.852  0.2988 -1.0947 -0.2926
 5162SOL     OW26947   3.938   0.884  11.319 -0.3246 -0.3530 -0.0248
 5162SOL    HW126948   3.924   0.947  11.249 -1.3372 -0.6416 -0.0795
 5162SOL    HW226949   3.852   0.861  11.356 -0.8185  0.7192 -0.5163
 5163SOL     OW26950   0.746   3.830   1.422  0.2439 -0.3088  0.7950
 5163SOL    HW126951   0.733   3.844   1.515  0.1208  0.6806  0.6279
 5163SOL    HW226952   0.805   3.754   1.424 -0.2950 -0.7341  0.6588
 5164SOL     OW26953   0.925   1.246  11.516 -0.4515  0.5572  0.3419
 5164SOL    HW126954   0.929   1.342  11.518 -1.8848  0.6590 -1.7871
 5164SOL    HW226955   0.937   1.208  11.603  3.2435  0.6402 -0.1277
 5165SOL     OW26956   2.842   1.522   8.029 -1.1790  0.4428  0.4655
 5165SOL    HW126957   2.917   1.469   8.057 -0.8593  1.1450  0.9355
 5165SOL    HW226958   2.780   1.537   8.100 -2.6953  0.7167 -0.9033
 5166SOL     OW26959   4.038   0.589   3.099 -0.3241 -0.1691 -0.2035
 5166SOL    HW126960   3.958   0.540   3.081  0.3297 -0.9820 -0.8639
 5166SOL    HW226961   4.091   0.555   3.028  1.3627  1.2176  0.3819
 5167SOL     OW26962   4.598   1.269  15.727 -0.0983 -0.4714  0.3014
 5167SOL    HW126963   4.644   1.320  15.661 -0.8975 -0.0195  0.0970
 5167SOL    HW226964   4.537   1.219  15.672 -0.5811  1.5833 -1.0010
 5168SOL     OW26965   2.415   3.293  16.767  0.2665 -0.4317 -0.3449
 5168SOL    HW126966   2.464   3.213  16.790  1.7527  0.5611 -0.0581
 5168SOL    HW226967   2.444   3.300  16.676 -0.1297  0.2584 -0.4106
 5169SOL     OW26968   2.365   0.057   0.403  0.1006  0.2925  0.1899
 5169SOL    HW126969   2.403   4.691   0.394 -0.0299 -0.0350  2.9270
 5169SOL    HW226970   2.358   0.070   0.497  3.1994  0.6211  0.3735
 5170SOL     OW26971   2.484   4.564   6.753 -0.1287 -0.0590  0.8511
 5170SOL    HW126972   2.404   4.520   6.723  1.3913 -2.1075 -0.1827
 5170SOL    HW226973   2.549   4.523   6.696  0.6784 -0.6894  2.2248
 5171SOL     OW26974   1.970   1.875   5.284 -0.0856  0.4187 -0.3964
 5171SOL    HW126975   2.015   1.954   5.255  2.4012 -0.3619  1.3275
 5171SOL    HW226976   1.928   1.841   5.205 -0.0641 -0.6746  0.0595
 5172SOL     OW26977   1.661   1.015  15.394 -0.3004  0.5162 -0.6291
 5172SOL    HW126978   1.718   1.025  15.470  0.7389  1.0404 -1.4704
 5172SOL    HW226979   1.576   0.988  15.430  1.0911 -1.1206  1.4048
 5173SOL     OW26980   1.984   0.699   4.216  0.1315  0.2484  0.2163
 5173SOL    HW126981   2.041   0.771   4.188 -0.9740  1.1115  0.1806
 5173SOL    HW226982   2.024   0.648   4.287 -0.1532 -0.2883 -0.0067
 5174SOL     OW26983   0.378   0.776   0.985 -0.1800  0.1699 -0.7635
 5174SOL    HW126984   0.318   0.772   1.059  1.4117  0.5980  0.5603
 5174SOL    HW226985   0.390   0.682   0.969 -0.2475  0.1541 -0.7197
 5175SOL     OW26986   3.343   4.450   6.936  0.3459  0.3531 -0.2639
 5175SOL    HW126987   3.372   4.370   6.893 -0.9794  0.6492 -1.7487
 5175SOL    HW226988   3.327   4.427   7.027  2.1854  2.7484  0.6592
 5176SOL     OW26989   2.431   2.947   2.942 -0.4106 -0.5513 -0.3496
 5176SOL    HW126990   2.483   2.877   2.902  1.7976  0.6237  0.4865
 5176SOL    HW226991   2.347   2.904   2.958 -0.5242  0.7055  2.5143
 5177SOL     OW26992   0.325   4.685  16.510 -0.5379 -0.3070  0.1973
 5177SOL    HW126993   0.286   0.034  16.562  0.9678  0.4653  0.2748
 5177SOL    HW226994   0.316   4.620  16.580 -1.8203  0.6236  0.8812
 5178SOL     OW26995   0.186   1.360   9.466 -0.1717  0.2922 -0.6971
 5178SOL    HW126996   0.167   1.350   9.559 -3.0121 -0.9144 -1.4118
 5178SOL    HW226997   0.280   1.377   9.468  0.0435 -1.2014  1.0968
 5179SOL     OW26998   1.069   0.417   4.204 -0.0775 -0.4408  0.2599
 5179SOL    HW126999   1.158   0.445   4.183  0.7613 -2.0254  1.7449
 5179SOL    HW227000   1.044   0.364   4.128 -1.9145 -2.8664  2.5484
 5180SOL     OW27001   4.694   0.215   8.306 -0.4782  0.4619  0.4756
 5180SOL    HW127002   0.051   0.265   8.326  1.6962 -2.7998  0.1221
 5180SOL    HW227003   4.676   0.172   8.390  0.2771 -0.0100  0.3925
 5181SOL     OW27004   3.992   3.532   8.506  0.0371  0.1523 -0.5518
 5181SOL    HW127005   4.055   3.515   8.436  1.0023 -3.1265  1.1022
 5181SOL    HW227006   4.053   3.564   8.573  0.3397 -1.2566 -0.1488
 5182SOL     OW27007   3.018   1.135   0.534 -0.1541  0.0849  0.1877
 5182SOL    HW127008   3.102   1.149   0.578  0.5900 -2.3254 -0.4082
 5182SOL    HW227009   3.039   1.099   0.447 -0.1089 -3.1761  1.5232
 5183SOL     OW27010   3.128   4.178   7.740  0.0723  0.0199  0.2518
 5183SOL    HW127011   3.123   4.273   7.735  3.0161  0.2224  1.4843
 5183SOL    HW227012   3.165   4.166   7.828  0.4366  0.0568  0.1043
 5184SOL     OW27013   2.626   2.025  16.898 -0.3221  0.5319 -0.1449
 5184SOL    HW127014   2.578   1.989  16.972 -0.8569 -0.5089 -1.0011
 5184SOL    HW227015   2.706   1.979  16.926 -1.1969 -1.6688 -1.2382
 5185SOL     OW27016   4.003   2.316  13.423  0.0639  0.5663  0.1005
 5185SOL    HW127017   4.014   2.304  13.329  1.5299  0.8495  0.2409
 5185SOL    HW227018   4.080   2.369  13.445 -0.4339  1.1999  0.3156
 5186SOL     OW27019   3.589   2.799   7.194  0.6283 -0.3184  0.0748
 5186SOL    HW127020   3.643   2.728   7.159 -0.3589 -0.5296 -0.9990
 5186SOL    HW227021   3.568   2.756   7.277  0.6929  2.5614  1.5671
 5187SOL     OW27022   3.615   2.461  10.222  0.1452  0.1244  0.1075
 5187SOL    HW127023   3.586   2.390  10.281 -1.7278  0.3711 -0.5112
 5187SOL    HW227024   3.630   2.533  10.283  0.1117  0.6327 -0.4968
 5188SOL     OW27025   3.782   0.363   6.103  0.2817  0.5278 -0.2705
 5188SOL    HW127026   3.811   0.443   6.058  0.9529  1.1242  1.2322
 5188SOL    HW227027   3.772   0.303   6.029 -2.8868  0.7736 -0.0312
 5189SOL     OW27028   4.276   1.683   8.248  0.0350  0.0609 -0.2625
 5189SOL    HW127029   4.212   1.724   8.306  3.5699  0.2904  3.4518
 5189SOL    HW227030   4.256   1.704   8.156  0.8842 -2.0789 -0.9321
 5190SOL     OW27031   0.846   3.574   3.630 -0.3569 -0.1468  0.0660
 5190SOL    HW127032   0.838   3.668   3.613 -1.8036 -0.0402  1.3710
 5190SOL    HW227033   0.754   3.550   3.624 -0.5392  0.4300  0.6061
 5191SOL     OW27034   1.593   2.471   5.053 -0.1787 -0.1861  0.0290
 5191SOL    HW127035   1.609   2.377   5.054 -1.2620 -0.3724 -0.0948
 5191SOL    HW227036   1.593   2.476   5.148 -0.2071  0.1830  0.0115
 5192SOL     OW27037   3.946   1.146   1.950 -0.0623  0.3774 -0.2880
 5192SOL    HW127038   3.965   1.233   1.985  0.5452  0.0882  0.0953
 5192SOL    HW227039   4.036   1.112   1.950  0.8859  2.8571  0.1315
 5193SOL     OW27040   2.900   2.540  16.097 -0.2068  0.5528 -0.1132
 5193SOL    HW127041   2.987   2.564  16.128  1.2783 -1.9602 -2.3896
 5193SOL    HW227042   2.897   2.445  16.099 -0.1096  0.5606  0.4120
 5194SOL     OW27043   1.600   1.137   4.663 -0.1754 -0.1198  0.2318
 5194SOL    HW127044   1.569   1.071   4.725 -0.0136 -0.4501 -0.0446
 5194SOL    HW227045   1.600   1.088   4.581 -2.3910  1.8304 -0.9535
 5195SOL     OW27046   3.615   1.831   4.820 -0.5127  0.1368  0.0643
 5195SOL    HW127047   3.702   1.799   4.843  1.5261  4.9505 -0.9069
 5195SOL    HW227048   3.571   1.835   4.905 -0.4216 -0.4385  0.1391
 5196SOL     OW27049   2.959   2.269   7.996  0.1152  0.0942  0.2973
 5196SOL    HW127050   2.966   2.197   8.059 -0.4409 -0.6061 -0.4505
 5196SOL    HW227051   2.895   2.317   8.048  2.3395  3.6559 -0.2722
 5197SOL     OW27052   2.323   1.931   6.510  0.4280  0.2059  0.0291
 5197SOL    HW127053   2.414   1.914   6.486  0.5740  0.9558  0.0512
 5197SOL    HW227054   2.321   2.026   6.514  1.8339  0.1280  2.2386
 5198SOL     OW27055   0.769   2.212  10.881  0.1352  0.2113  0.5592
 5198SOL    HW127056   0.846   2.234  10.934  0.7034 -1.2345  0.3553
 5198SOL    HW227057   0.696   2.246  10.932 -0.2733  0.5272 -0.2450
 5199SOL     OW27058   4.147   2.745  16.340 -0.3966  0.1924  0.0527
 5199SOL    HW127059   4.225   2.784  16.379 -0.7552 -0.0026  0.9651
 5199SOL    HW227060   4.084   2.799  16.387  0.9485 -0.4133  2.5232
 5200SOL     OW27061   2.382   2.702  15.857 -0.1288 -0.9607  0.1453
 5200SOL    HW127062   2.358   2.695  15.764 -0.5137 -0.6415  0.2210
 5200SOL    HW227063   2.466   2.656  15.864  1.3934  1.5609 -1.3906
 5201SOL     OW27064   2.283   3.156   1.317 -0.0366  0.0292  0.0852
 5201SOL    HW127065   2.227   3.230   1.292 -0.9833 -1.1707 -1.3350
 5201SOL    HW227066   2.240   3.080   1.278  0.4577  0.3440 -1.0637
 5202SOL     OW27067   1.551   0.612   9.262 -0.2970  0.0565  0.5610
 5202SOL    HW127068   1.552   0.708   9.271  1.6885 -0.0775  1.9745
 5202SOL    HW227069   1.459   0.595   9.279 -0.7786 -0.5050 -2.7712
 5203SOL     OW27070   2.102   0.828   5.438  0.3885 -0.1519 -0.6681
 5203SOL    HW127071   2.059   0.819   5.353 -0.4080  2.0552 -0.5029
 5203SOL    HW227072   2.044   0.774   5.492  0.3725  0.0980 -0.4364
 5204SOL     OW27073   3.214   3.759   8.384 -0.0099 -0.4309 -0.0387
 5204SOL    HW127074   3.261   3.805   8.454  1.0755 -1.9948  0.2522
 5204SOL    HW227075   3.157   3.698   8.432  0.6973 -2.1462 -1.4034
 5205SOL     OW27076   1.093   2.718   3.248  0.2257 -0.9180  0.3943
 5205SOL    HW127077   1.177   2.764   3.246 -1.5539  2.2693 -1.0120
 5205SOL    HW227078   1.122   2.642   3.198  0.3677 -2.3994  2.6849
 5206SOL     OW27079   1.604   4.178  15.005 -0.2443 -0.4643  0.1080
 5206SOL    HW127080   1.533   4.133  14.959 -0.1843 -0.9273  0.4742
 5206SOL    HW227081   1.604   4.145  15.095  0.8063 -0.9170 -0.0578
 5207SOL     OW27082   4.704   0.826  17.007 -0.3547  0.0220 -0.0272
 5207SOL    HW127083   0.017   0.759  17.066  0.0730  0.8574  0.6526
 5207SOL    HW227084   4.611   0.830  17.030 -0.9153 -1.6385 -1.9756
 5208SOL     OW27085   3.740   2.542   7.193 -0.5164 -0.1841  0.0201
 5208SOL    HW127086   3.680   2.521   7.121 -1.1034  0.5463  0.3056
 5208SOL    HW227087   3.817   2.582   7.151 -0.3522 -0.6832 -0.1633
 5209SOL     OW27088   3.629   3.815  13.160  0.1656  0.3733 -0.0806
 5209SOL    HW127089   3.687   3.887  13.187 -0.2188  0.3850  0.7038
 5209SOL    HW227090   3.544   3.856  13.178  0.0587  0.7624 -1.5170
 5210SOL     OW27091   4.436   4.010   0.306  0.1910  0.0385  0.1255
 5210SOL    HW127092   4.403   3.978   0.222  0.2600  0.7106 -0.1599
 5210SOL    HW227093   4.433   4.105   0.298  0.5487  0.0517  0.1391
 5211SOL     OW27094   1.925   2.138   7.651 -0.3014  0.1386 -0.0785
 5211SOL    HW127095   1.944   2.117   7.743 -1.9093 -2.1880 -0.2596
 5211SOL    HW227096   2.010   2.171   7.622  0.8652 -1.7408  1.1923
 5212SOL     OW27097   1.047   3.737   7.582  0.1002  0.1352 -0.0773
 5212SOL    HW127098   0.996   3.681   7.524  1.9865  0.0023 -1.6145
 5212SOL    HW227099   1.115   3.762   7.519  0.7047  3.0510  1.7578
 5213SOL     OW27100   3.759   1.433   9.268  0.3465  0.0775  0.4376
 5213SOL    HW127101   3.696   1.374   9.308  1.4879 -1.1001  0.5002
 5213SOL    HW227102   3.835   1.436   9.326 -0.7217 -0.9181  1.8694
 5214SOL     OW27103   4.530   4.103   0.602  0.0290 -0.0737 -0.0923
 5214SOL    HW127104   4.460   4.113   0.538 -0.3915  4.0072  1.0155
 5214SOL    HW227105   4.598   4.055   0.555  0.2938 -1.3708  1.6110
 5215SOL     OW27106   0.499   0.639   7.139 -0.2817 -0.3152 -0.0610
 5215SOL    HW127107   0.455   0.611   7.218  1.1839 -3.9646 -0.5493
 5215SOL    HW227108   0.442   0.591   7.078  0.7692 -2.1915  0.4504
 5216SOL     OW27109   0.804   0.468  14.904 -0.2115  0.0358  0.1071
 5216SOL    HW127110   0.887   0.427  14.883 -0.8576 -2.4026  2.2079
 5216SOL    HW227111   0.810   0.559  14.876 -2.9176  0.4460  0.7700
 5217SOL     OW27112   4.540   4.633  15.955  0.3618  0.4144  0.0226
 5217SOL    HW127113   4.567   4.556  16.005  1.2608  1.5451  1.3003
 5217SOL    HW227114   4.457   4.653  15.998  0.6413  1.5148  0.0511
 5218SOL     OW27115   1.786   0.998   7.034 -0.2953  0.2254  0.5654
 5218SOL    HW127116   1.834   0.930   7.081  0.8722  1.5128  1.2526
 5218SOL    HW227117   1.699   0.959   7.032  0.5910 -1.7679  0.7146
 5219SOL     OW27118   4.548   1.320  16.383  0.4129  0.1417 -0.3499
 5219SOL    HW127119   4.470   1.376  16.381 -0.3509 -0.9317 -0.4429
 5219SOL    HW227120   4.548   1.278  16.469  1.7127  0.9710  0.0613
 5220SOL     OW27121   2.206   1.988   5.973 -0.3012  0.3263  0.3167
 5220SOL    HW127122   2.219   1.908   5.923  0.7419  0.5840  0.1906
 5220SOL    HW227123   2.282   2.036   5.941 -2.4664  3.2690 -0.4818
 5221SOL     OW27124   3.151   3.778   9.723 -0.0723 -0.1520 -0.3189
 5221SOL    HW127125   3.068   3.817   9.694 -1.1547 -3.0087 -1.0480
 5221SOL    HW227126   3.140   3.688   9.693 -0.8804  0.0673 -0.7050
 5222SOL     OW27127   3.323   2.559  13.039 -0.3130 -0.0985  0.0974
 5222SOL    HW127128   3.350   2.468  13.039 -0.9140 -0.2683 -1.7427
 5222SOL    HW227129   3.341   2.585  13.130 -2.1151 -0.0038  0.4275
 5223SOL     OW27130   3.468   4.386   4.737 -0.1629 -0.1925 -0.4575
 5223SOL    HW127131   3.433   4.327   4.804  1.6655 -0.1974  0.4785
 5223SOL    HW227132   3.559   4.400   4.762 -0.7737  2.3961  0.2563
 5224SOL     OW27133   2.008   0.676  14.526  0.3880  0.2533 -0.3745
 5224SOL    HW127134   2.028   0.758  14.480 -1.4704  1.3640  0.7843
 5224SOL    HW227135   2.009   0.718  14.612 -0.3850 -2.4675  0.9591
 5225SOL     OW27136   4.154   0.838  15.631 -0.1828  0.2601  0.1092
 5225SOL    HW127137   4.134   0.924  15.668 -0.7128  0.2092 -0.0564
 5225SOL    HW227138   4.087   0.828  15.563 -0.4745 -2.6058  0.8440
 5226SOL     OW27139   1.291   4.299   7.621 -0.0602 -0.0421  0.1874
 5226SOL    HW127140   1.370   4.353   7.619  0.2527 -0.4620  1.5272
 5226SOL    HW227141   1.228   4.365   7.591 -0.3849 -0.2068  0.5177
 5227SOL     OW27142   2.118   2.468   9.313 -0.5706 -0.4733  0.1354
 5227SOL    HW127143   2.101   2.560   9.333  0.5447  0.3307 -2.6378
 5227SOL    HW227144   2.213   2.480   9.318 -0.3904 -1.8472 -0.0405
 5228SOL     OW27145   0.482   0.417   8.243  0.3720 -0.3699  0.2165
 5228SOL    HW127146   0.538   0.345   8.214 -1.6797 -1.4808 -0.9483
 5228SOL    HW227147   0.555   0.471   8.275  0.0901 -0.2560  0.6649
 5229SOL     OW27148   0.713   0.676  12.221  0.3298 -0.1243 -0.1906
 5229SOL    HW127149   0.742   0.715  12.138  0.9155 -2.1091 -0.9030
 5229SOL    HW227150   0.760   0.593  12.213  0.9375 -0.0139  2.2722
 5230SOL     OW27151   1.110   1.655  15.220 -0.3286 -0.2821  0.0639
 5230SOL    HW127152   1.084   1.725  15.279 -0.8215  2.1096 -2.9938
 5230SOL    HW227153   1.076   1.694  15.139 -0.9331 -0.1583  0.3769
 5231SOL     OW27154   3.731   2.085  12.879 -0.3822  0.5137  0.3918
 5231SOL    HW127155   3.684   2.029  12.940  2.6969 -2.8050 -0.2814
 5231SOL    HW227156   3.750   2.156  12.940  0.8368  0.5188  0.0013
 5232SOL     OW27157   2.548   1.846  14.027 -0.3427  0.4221 -0.2540
 5232SOL    HW127158   2.552   1.941  14.026  0.3768  0.3971  0.1353
 5232SOL    HW227159   2.589   1.834  14.113 -2.3457  0.6122  0.7211
 5233SOL     OW27160   4.092   3.538   3.097  0.1808  0.5545  0.0305
 5233SOL    HW127161   4.125   3.539   3.007 -1.9479 -0.3316 -0.7652
 5233SOL    HW227162   4.167   3.582   3.137  1.4264  0.7067 -2.4642
 5234SOL     OW27163   2.117   1.523   6.054 -0.3657 -0.0094  0.1148
 5234SOL    HW127164   2.155   1.607   6.079 -2.8624  0.3358  2.7090
 5234SOL    HW227165   2.191   1.485   6.007 -0.0803  0.8395 -0.1183
 5235SOL     OW27166   0.525   4.100   4.916 -0.1371  0.0190 -0.1832
 5235SOL    HW127167   0.582   4.045   4.970 -1.9998 -2.0972 -0.3588
 5235SOL    HW227168   0.528   4.188   4.952 -3.2618  0.0633  0.0158
 5236SOL     OW27169   1.100   2.683   6.393 -0.2166  0.1379  0.0584
 5236SOL    HW127170   1.022   2.645   6.353 -0.4269 -0.2046  0.7797
 5236SOL    HW227171   1.147   2.698   6.311 -0.5660  0.4364 -0.0865
 5237SOL     OW27172   4.331   4.366  14.407 -0.0226 -0.3602 -0.3822
 5237SOL    HW127173   4.273   4.382  14.482 -1.3668 -0.5134 -1.3747
 5237SOL    HW227174   4.418   4.373  14.445 -1.3912 -2.2009  3.0795
 5238SOL     OW27175   0.681   1.522   4.231 -0.5955  0.1009  0.0855
 5238SOL    HW127176   0.624   1.533   4.154 -1.7111  0.4091  0.9557
 5238SOL    HW227177   0.769   1.535   4.195 -1.6904  1.8341 -1.9789
 5239SOL     OW27178   4.317   2.245   1.713  0.1363  0.2822  0.3688
 5239SOL    HW127179   4.297   2.157   1.747  2.8037  0.7056  3.0018
 5239SOL    HW227180   4.265   2.288   1.781  1.0918  0.2374  1.1259
 5240SOL     OW27181   3.826   1.946   6.674 -0.3885  0.2829  0.0842
 5240SOL    HW127182   3.761   1.886   6.710  0.4439 -1.1194 -0.7631
 5240SOL    HW227183   3.851   1.987   6.757  0.0095  1.9547 -0.8513
 5241SOL     OW27184   0.171   3.111  15.955  0.2731 -0.0725  0.1862
 5241SOL    HW127185   0.162   3.063  16.037  0.5921 -1.5368 -0.6296
 5241SOL    HW227186   0.266   3.120  15.951  0.1572  1.2596  0.4666
 5242SOL     OW27187   0.568   0.858   6.878  0.4130 -0.0785 -0.2123
 5242SOL    HW127188   0.530   0.910   6.807  2.4025  2.9281  0.8806
 5242SOL    HW227189   0.493   0.803   6.901 -0.7034  1.5081  0.0081
 5243SOL     OW27190   3.436   2.834  16.606 -0.0604 -0.3267 -0.0446
 5243SOL    HW127191   3.421   2.773  16.533 -2.4336 -0.6290  0.6776
 5243SOL    HW227192   3.508   2.890  16.576 -1.2844  1.8327  1.0344
 5244SOL     OW27193   2.436   1.453   4.126 -0.2804  0.3246 -0.0808
 5244SOL    HW127194   2.341   1.438   4.126 -0.1546 -0.4337  1.6316
 5244SOL    HW227195   2.455   1.375   4.075 -0.3160  0.6368 -0.5746
 5245SOL     OW27196   4.099   4.319   6.188 -0.2969 -0.5325  0.0226
 5245SOL    HW127197   4.078   4.312   6.281 -0.2904 -0.2243  0.0473
 5245SOL    HW227198   4.130   4.409   6.178 -0.6833 -0.2026  1.8417
 5246SOL     OW27199   4.018   3.002  10.532 -0.2839  1.0172  0.4935
 5246SOL    HW127200   3.964   2.994  10.453 -1.6075  0.1910  1.4786
 5246SOL    HW227201   3.981   3.069  10.589  0.4681  1.6429  0.2494
 5247SOL     OW27202   0.096   2.360   8.624 -0.7377  0.0951  1.1963
 5247SOL    HW127203   0.052   2.421   8.684  1.3219  0.5155  2.2699
 5247SOL    HW227204   0.058   2.275   8.645 -0.9435  0.1285  0.9519
 5248SOL     OW27205   0.918   1.481  17.455  0.8981 -0.2944  0.4305
 5248SOL    HW127206   0.894   1.487  17.547  1.0997  0.1040  0.4547
 5248SOL    HW227207   0.924   1.388  17.433 -0.8255 -0.2963 -0.0780
 5249SOL     OW27208   2.187   1.010   5.841 -0.6658  0.0952  0.1351
 5249SOL    HW127209   2.201   1.028   5.934 -3.2399 -0.9763  0.7156
 5249SOL    HW227210   2.268   0.959   5.832  0.3002  1.8192 -1.0907
 5250SOL     OW27211   3.594   3.100   6.159  0.7660  0.0264  0.3129
 5250SOL    HW127212   3.679   3.092   6.116  0.1445  1.6289 -1.2350
 5250SOL    HW227213   3.611   3.086   6.252  0.8627  1.2644  0.4897
 5251SOL     OW27214   2.463   0.121   4.815  0.6015  0.2684 -0.1456
 5251SOL    HW127215   2.552   0.114   4.780  2.1314  0.6126  3.7190
 5251SOL    HW227216   2.474   0.186   4.884 -2.8656  0.0754  0.5787
 5252SOL     OW27217   0.803   4.022   1.678  0.1752  0.7248 -0.0122
 5252SOL    HW127218   0.892   4.042   1.707  1.0375 -2.9133 -0.1023
 5252SOL    HW227219   0.772   3.970   1.752  0.3297 -1.2882 -1.3612
 5253SOL     OW27220   3.624   4.633   4.669 -0.2462 -0.7292 -0.2684
 5253SOL    HW127221   3.529   4.626   4.673 -0.3724  0.1933 -1.7292
 5253SOL    HW227222   3.657   4.555   4.713 -0.5901 -0.0349  1.2095
 5254SOL     OW27223   1.115   4.290  10.976 -0.1589  0.2873 -0.3175
 5254SOL    HW127224   1.172   4.232  10.924 -1.3306 -0.8514 -0.3431
 5254SOL    HW227225   1.167   4.370  10.976  1.6292 -0.8947  0.0179
 5255SOL     OW27226   0.679   1.205   1.243  0.2172  0.5671 -0.4265
 5255SOL    HW127227   0.657   1.121   1.204 -0.1366  0.1806  0.6035
 5255SOL    HW227228   0.594   1.248   1.230  0.4304  0.1990 -2.9126
 5256SOL     OW27229   2.070   3.597  15.821  0.4635 -0.1702 -0.2050
 5256SOL    HW127230   2.067   3.639  15.907  1.6571  0.9595 -0.7058
 5256SOL    HW227231   1.996   3.537  15.818  0.7830 -0.6158  1.0664
 5257SOL     OW27232   0.017   1.479  13.824 -0.0511 -0.3701 -0.1643
 5257SOL    HW127233   4.667   1.417  13.810  1.0297 -1.1597 -2.1724
 5257SOL    HW227234   0.019   1.477  13.920 -1.1444  0.1088 -0.1259
 5258SOL     OW27235   3.735   3.164   1.560  0.2805 -0.8490  0.3522
 5258SOL    HW127236   3.733   3.242   1.615 -0.6504 -0.1994 -0.5972
 5258SOL    HW227237   3.760   3.095   1.621  0.2809 -0.3706  0.8813
 5259SOL     OW27238   2.237   3.326  17.168 -0.5699 -0.2832 -0.0970
 5259SOL    HW127239   2.267   3.288  17.251  2.0945  1.3197 -0.3075
 5259SOL    HW227240   2.257   3.419  17.178 -0.4010 -0.0471 -2.6318
 5260SOL     OW27241   2.993   0.697  16.973  0.1153  0.4134 -0.4834
 5260SOL    HW127242   2.970   0.632  17.039  0.0308  1.8781  0.9253
 5260SOL    HW227243   2.998   0.639  16.896  0.2207 -1.3213  0.8293
 5261SOL     OW27244   2.958   1.625  14.639 -0.4467 -0.2336  0.3758
 5261SOL    HW127245   2.864   1.643  14.648 -0.4324  0.5532 -1.0760
 5261SOL    HW227246   2.971   1.572  14.718  0.0223 -0.6628  0.0068
 5262SOL     OW27247   2.982   3.030   4.113  0.3966  0.2339  0.0205
 5262SOL    HW127248   3.058   2.975   4.096 -0.5080 -1.4743  1.4289
 5262SOL    HW227249   3.001   3.101   4.173 -1.7577 -2.9484  4.4825
 5263SOL     OW27250   1.965   1.272   6.860  0.5032 -0.5116 -0.0308
 5263SOL    HW127251   2.031   1.238   6.920  0.9671  0.4940  0.0263
 5263SOL    HW227252   1.976   1.218   6.781  0.8702 -1.7790  0.8840
 5264SOL     OW27253   0.314   2.585   8.826 -0.4602 -0.6126 -0.4636
 5264SOL    HW127254   0.261   2.662   8.808  2.2403  1.2443 -0.4003
 5264SOL    HW227255   0.312   2.535   8.744 -1.5658 -1.1917 -0.0865
 5265SOL     OW27256   1.109   4.511   5.139 -0.3154  0.0610 -0.0482
 5265SOL    HW127257   1.054   4.509   5.060  1.1462 -2.1734 -1.0186
 5265SOL    HW227258   1.080   4.598   5.165 -3.4390 -0.1100 -2.8783
 5266SOL     OW27259   2.674   0.920  13.552 -0.6920  0.3800  0.2770
 5266SOL    HW127260   2.610   0.947  13.486  0.5576 -0.2260 -1.1651
 5266SOL    HW227261   2.748   0.932  13.493 -0.4035  0.3370  0.6290
 5267SOL     OW27262   0.162   3.350  10.322  0.3753  0.3437 -0.1351
 5267SOL    HW127263   0.095   3.320  10.261 -0.0412 -0.1169  0.5467
 5267SOL    HW227264   0.244   3.308  10.293  2.6987  3.7612  1.4718
 5268SOL     OW27265   4.141   1.934   0.493 -0.0334  0.1750 -0.5171
 5268SOL    HW127266   4.047   1.950   0.492  0.1419  1.0677 -3.4325
 5268SOL    HW227267   4.162   1.928   0.586  1.9451  0.3140 -0.9558
 5269SOL     OW27268   0.489   1.932   1.135 -0.1176 -0.2186 -0.4322
 5269SOL    HW127269   0.444   2.016   1.131 -0.8128 -0.5130  1.1990
 5269SOL    HW227270   0.507   1.936   1.229  1.6213 -0.3651 -0.7516
 5270SOL     OW27271   3.886   4.660   7.820 -0.4875  0.0115  0.2637
 5270SOL    HW127272   3.943   4.585   7.838 -0.7680  0.0580  1.3069
 5270SOL    HW227273   3.950   0.003   7.850 -1.3143  1.2454 -0.6256
 5271SOL     OW27274   4.351   4.400   4.039 -0.7121 -0.3862 -0.0925
 5271SOL    HW127275   4.385   4.471   4.094  0.8009 -0.5748 -0.7998
 5271SOL    HW227276   4.264   4.434   4.020 -1.2661 -1.2001  0.9911
 5272SOL     OW27277   0.208   2.645  15.138  0.3687 -0.2386  0.4667
 5272SOL    HW127278   0.281   2.584  15.146  0.6263  0.1267  0.8959
 5272SOL    HW227279   0.156   2.626  15.216 -4.5851 -0.1202 -2.7555
 5273SOL     OW27280   0.956   2.681  17.668 -0.3910 -0.1525 -0.1144
 5273SOL    HW127281   0.863   2.694  17.686 -0.2334  2.1170 -0.9521
 5273SOL    HW227282   0.946   2.681  17.573  1.7876 -0.2014 -0.3616
 5274SOL     OW27283   1.637   1.255   6.047  0.3781  0.6809 -0.1273
 5274SOL    HW127284   1.575   1.220   5.983  0.0987 -0.3707  0.7172
 5274SOL    HW227285   1.716   1.278   5.999  0.7648 -1.5474 -0.5567
 5275SOL     OW27286   0.325   0.957  16.530  0.5351  0.2195  0.2063
 5275SOL    HW127287   0.279   0.873  16.537 -1.9629  1.5975  0.2535
 5275SOL    HW227288   0.362   0.943  16.443 -0.8846  2.3341 -0.7276
 5276SOL     OW27289   4.099   1.842   9.039 -0.5170 -0.2544  0.5797
 5276SOL    HW127290   4.026   1.819   8.982  0.9186 -1.1871 -0.8663
 5276SOL    HW227291   4.148   1.761   9.052 -0.9985 -0.9461 -1.8917
 5277SOL     OW27292   4.456   0.610   7.676  0.1646  0.1206  0.0457
 5277SOL    HW127293   4.434   0.522   7.645 -1.4691  0.4488  0.2784
 5277SOL    HW227294   4.542   0.591   7.713  0.8128 -0.9011 -1.9550
 5278SOL     OW27295   4.029   2.803   3.065 -0.2839 -0.1829 -0.0058
 5278SOL    HW127296   3.937   2.785   3.081 -1.0263  2.1989 -1.6252
 5278SOL    HW227297   4.068   2.827   3.149 -2.4617 -0.0515  0.9578
 5279SOL     OW27298   1.726   4.643  14.670  0.3416 -0.1503 -0.1173
 5279SOL    HW127299   1.685   4.561  14.642 -2.2835  1.0157  0.2469
 5279SOL    HW227300   1.738   4.689  14.587  1.8034  2.1645  1.3758
 5280SOL     OW27301   3.055   4.350   7.398 -0.1382 -0.2792 -0.5564
 5280SOL    HW127302   3.029   4.264   7.365  0.1296 -0.2872 -0.7435
 5280SOL    HW227303   2.985   4.372   7.459 -0.3825  0.2216 -1.0055
 5281SOL     OW27304   0.845   1.819   4.127 -0.0251  0.2281  0.1043
 5281SOL    HW127305   0.849   1.725   4.141  0.4762  0.1000 -0.8514
 5281SOL    HW227306   0.937   1.844   4.113 -0.0309 -0.4253 -1.1338
 5282SOL     OW27307   0.928   4.225   9.897  0.1725  0.3857 -0.2893
 5282SOL    HW127308   0.935   4.146   9.951 -1.4876 -1.2773 -2.4889
 5282SOL    HW227309   0.989   4.274   9.952  1.7224 -1.1625 -0.6179
 5283SOL     OW27310   0.196   1.696   5.636 -0.1856  0.6054  0.0346
 5283SOL    HW127311   0.232   1.736   5.715  2.8682 -1.6767 -0.2083
 5283SOL    HW227312   0.104   1.723   5.641  0.0405  0.8931  2.8449
 5284SOL     OW27313   0.299   3.920   5.128 -0.3407 -0.1300 -0.1756
 5284SOL    HW127314   0.236   3.918   5.200  0.9951 -2.2300  0.9281
 5284SOL    HW227315   0.281   3.835   5.088 -1.0061 -0.7931  1.5631
 5285SOL     OW27316   0.853   1.573   3.195 -0.0286 -0.0001 -0.3187
 5285SOL    HW127317   0.850   1.623   3.277  0.8335 -1.2778  0.4984
 5285SOL    HW227318   0.822   1.488   3.226 -1.9877  0.7808 -0.1508
 5286SOL     OW27319   0.344   0.130   4.036  0.1497  0.6073  0.1455
 5286SOL    HW127320   0.401   0.067   4.079 -0.6058 -1.1159 -1.3983
 5286SOL    HW227321   0.404   0.168   3.971  1.2656  0.2527  0.9798
 5287SOL     OW27322   4.502   2.499  17.185 -0.3436  0.5930 -0.1449
 5287SOL    HW127323   4.407   2.488  17.174  0.0361 -0.1525 -2.5666
 5287SOL    HW227324   4.539   2.455  17.109  1.3565 -1.1771  1.7031
 5288SOL     OW27325   0.223   3.125   8.907  0.2557  0.1576 -0.2250
 5288SOL    HW127326   0.230   3.038   8.868  0.2434 -1.5560  3.5759
 5288SOL    HW227327   0.311   3.162   8.911  1.6977 -2.9576 -3.0023
 5289SOL     OW27328   1.471   3.263   9.218 -0.1205  0.2303 -0.8789
 5289SOL    HW127329   1.428   3.182   9.193  1.0460 -0.6794  0.0438
 5289SOL    HW227330   1.506   3.240   9.304 -0.8996  1.0687 -0.3439
 5290SOL     OW27331   3.269   2.989  13.619  0.1564 -0.0134  0.0357
 5290SOL    HW127332   3.248   2.948  13.703  0.0788  3.4249  1.6895
 5290SOL    HW227333   3.333   3.055  13.646 -0.7546  0.7465  0.3716
 5291SOL     OW27334   4.615   0.837   5.606 -0.4238  0.0907  0.3424
 5291SOL    HW127335   4.684   0.902   5.608  1.1209 -1.5650  0.8877
 5291SOL    HW227336   4.608   0.825   5.511  2.6042  0.1493  0.1204
 5292SOL     OW27337   1.513   1.848  10.606 -0.2024  0.1286 -0.0002
 5292SOL    HW127338   1.441   1.870  10.665 -3.6737 -0.5986 -4.0278
 5292SOL    HW227339   1.523   1.922  10.547  1.4981  0.0936  0.2521
 5293SOL     OW27340   2.383   2.629   0.090 -0.2892  0.0968  0.3585
 5293SOL    HW127341   2.295   2.666   0.083 -0.4329 -0.0915  1.2344
 5293SOL    HW227342   2.369   2.539   0.117  0.4376  0.2368  1.1769
 5294SOL     OW27343   3.582   2.419   5.082  0.4850 -0.5779  0.0927
 5294SOL    HW127344   3.654   2.379   5.131 -0.3144 -1.2569  0.6963
 5294SOL    HW227345   3.528   2.341   5.070 -1.2227  0.7299 -0.6354
 5295SOL     OW27346   0.528   3.590  12.169 -0.5096 -0.3271  0.1091
 5295SOL    HW127347   0.580   3.625  12.242 -0.1471 -0.9902  0.1672
 5295SOL    HW227348   0.572   3.506  12.153 -0.6476  0.0043 -1.9672
 5296SOL     OW27349   4.637   3.385   8.265 -0.0163 -0.3348 -0.0088
 5296SOL    HW127350   0.008   3.404   8.274  0.4774 -3.3528  1.4400
 5296SOL    HW227351   4.631   3.292   8.243  0.2974 -0.6276  1.1568
 5297SOL     OW27352   4.611   0.573  17.676 -0.4263  0.0274  0.4980
 5297SOL    HW127353   4.699   0.609  17.679 -0.4356  0.0787  0.1537
 5297SOL    HW227354   4.595   0.578   0.081  1.1068 -0.4768  0.7833
 5298SOL     OW27355   2.999   2.644   2.810  0.2067  0.4485  0.3476
 5298SOL    HW127356   2.972   2.660   2.719 -0.1607  0.9789  0.5467
 5298SOL    HW227357   3.094   2.653   2.798  0.2090 -0.1358 -0.1023
 5299SOL     OW27358   1.769   2.740  15.482  0.1285  0.0582  0.4488
 5299SOL    HW127359   1.681   2.702  15.486 -0.7929  2.1763  0.5183
 5299SOL    HW227360   1.756   2.829  15.517  2.1768  0.8177 -0.7781
 5300SOL     OW27361   1.041   3.363   4.609 -0.3730 -0.6979  0.1693
 5300SOL    HW127362   0.974   3.325   4.666  0.8652 -0.7803  1.5742
 5300SOL    HW227363   1.063   3.447   4.649 -0.9566  0.4220 -1.8999
 5301SOL     OW27364   2.610   0.163   0.697  0.1267 -0.1840 -0.1607
 5301SOL    HW127365   2.518   0.173   0.719  0.1534 -0.0062 -0.1319
 5301SOL    HW227366   2.623   0.195   0.608  1.0839 -4.5333 -1.5690
 5302SOL     OW27367   2.824   1.508   6.268 -0.2791 -0.7534  0.2885
 5302SOL    HW127368   2.830   1.570   6.196 -0.2861 -0.9954  0.0790
 5302SOL    HW227369   2.736   1.529   6.300  0.6155 -0.4116  2.5291
 5303SOL     OW27370   1.764   3.281   4.935  0.5134 -0.2494 -0.0391
 5303SOL    HW127371   1.691   3.330   4.972  1.6881  0.2079  1.6596
 5303SOL    HW227372   1.726   3.254   4.851  0.2602 -0.6212  0.1901
 5304SOL     OW27373   2.398   0.388  12.295  0.2246 -0.6472 -0.0141
 5304SOL    HW127374   2.464   0.320  12.301  1.9094  0.7855 -2.1363
 5304SOL    HW227375   2.441   0.470  12.320 -1.3175  0.0860  0.2742
 5305SOL     OW27376   3.772   2.840  11.853 -0.5369 -0.9607  0.5573
 5305SOL    HW127377   3.817   2.776  11.908  0.6101 -0.7033 -0.0758
 5305SOL    HW227378   3.709   2.785  11.806 -0.3706  0.8367 -1.7647
 5306SOL     OW27379   2.459   0.143  11.859  0.3602 -0.2028 -0.5648
 5306SOL    HW127380   2.521   0.173  11.792  1.6454  1.4927  1.3624
 5306SOL    HW227381   2.502   0.180  11.936  1.9265  1.6607 -2.3297
 5307SOL     OW27382   1.038   3.585   1.693  0.0744 -0.0578  0.1398
 5307SOL    HW127383   1.021   3.500   1.733 -0.2088 -0.4963 -0.8968
 5307SOL    HW227384   1.126   3.579   1.656 -0.1454  0.7339 -0.5308
 5308SOL     OW27385   1.533   3.044   6.957  0.0603  0.2576 -0.0925
 5308SOL    HW127386   1.483   2.965   6.936 -0.3755  0.4437  0.2590
 5308SOL    HW227387   1.596   3.012   7.022  1.1751 -1.5426 -2.0513
 5309SOL     OW27388   1.651   2.424   6.995  0.2646 -0.6730 -0.2876
 5309SOL    HW127389   1.638   2.411   6.901 -1.4488  2.2606 -0.4336
 5309SOL    HW227390   1.743   2.401   7.012 -0.1165 -0.8959  1.4421
 5310SOL     OW27391   3.479   0.872   1.921 -0.5868 -0.1722  0.0716
 5310SOL    HW127392   3.505   0.861   1.830 -1.6882  1.2762 -0.4293
 5310SOL    HW227393   3.466   0.967   1.911 -0.3134 -0.1750 -0.3266
 5311SOL     OW27394   0.669   3.674   9.148 -0.0467  0.6103  0.4201
 5311SOL    HW127395   0.596   3.729   9.122 -1.4420 -1.1690  0.5640
 5311SOL    HW227396   0.681   3.702   9.239 -0.0395 -1.7026  1.1316
 5312SOL     OW27397   3.555   0.124   5.581 -0.1815 -0.1455  0.1220
 5312SOL    HW127398   3.495   0.195   5.606  0.6926 -0.2233  2.3759
 5312SOL    HW227399   3.501   0.066   5.527 -1.6534  1.4659 -0.1539
 5313SOL     OW27400   2.637   0.310   9.375 -0.3030 -0.3280  0.1454
 5313SOL    HW127401   2.659   0.330   9.466  0.6326 -0.8905  0.0520
 5313SOL    HW227402   2.644   0.390   9.323 -0.4526 -0.4959 -0.1330
 5314SOL     OW27403   0.948   2.828   1.183 -0.2790  0.1195 -0.2406
 5314SOL    HW127404   0.878   2.893   1.179  0.2933  0.5968 -1.9229
 5314SOL    HW227405   0.905   2.778   1.253  2.7946 -2.0284  0.0984
 5315SOL     OW27406   0.020   3.481   2.684  0.1874 -0.1744 -0.2857
 5315SOL    HW127407   0.090   3.425   2.720 -0.7776 -0.3151  1.3949
 5315SOL    HW227408   4.697   3.419   2.626 -1.7721  0.4736  0.5296
 5316SOL     OW27409   2.878   4.261  12.985  0.1464  0.5245  0.5922
 5316SOL    HW127410   2.938   4.204  12.935 -0.1307 -0.1633  1.0431
 5316SOL    HW227411   2.886   4.225  13.073 -2.3706 -1.0632  0.1791
 5317SOL     OW27412   3.614   0.300   3.598 -0.4056 -0.0373 -0.3587
 5317SOL    HW127413   3.569   0.323   3.679  1.8202  3.2465 -0.0797
 5317SOL    HW227414   3.538   0.252   3.565  0.6189 -2.8655  1.3243
 5318SOL     OW27415   3.958   0.748   8.510  0.0691  0.1116  0.7245
 5318SOL    HW127416   3.911   0.742   8.593  0.6803 -0.8240  1.0094
 5318SOL    HW227417   4.027   0.684   8.528 -0.2853 -0.7033 -0.8196
 5319SOL     OW27418   3.211   2.379  15.931  0.3104 -0.6677  0.3993
 5319SOL    HW127419   3.139   2.336  15.885 -0.8352  0.3911  1.1993
 5319SOL    HW227420   3.284   2.334  15.888  0.1509  0.7156 -1.3204
 5320SOL     OW27421   4.375   4.224  11.188  0.1888  0.0344  0.1316
 5320SOL    HW127422   4.332   4.260  11.266  2.8061  0.1371  1.5357
 5320SOL    HW227423   4.469   4.226  11.202  0.1702  0.6672  0.1652
 5321SOL     OW27424   1.485   1.321   7.616  0.0623 -0.2267  0.3397
 5321SOL    HW127425   1.576   1.291   7.626  0.5286  1.3213  0.8172
 5321SOL    HW227426   1.506   1.414   7.608 -1.4605  0.0096 -0.9250
 5322SOL     OW27427   2.895   0.930  17.087 -0.5325 -0.1969  0.1646
 5322SOL    HW127428   2.941   0.857  17.045  1.0936  0.0097  1.6080
 5322SOL    HW227429   2.823   0.938  17.025 -0.7073  1.8852  0.6458
 5323SOL     OW27430   4.542   4.451   3.171  0.2472 -0.6140 -0.2164
 5323SOL    HW127431   4.593   4.511   3.116 -1.4990 -0.8737 -2.0990
 5323SOL    HW227432   4.487   4.397   3.115  0.1303 -0.9195  0.1959
 5324SOL     OW27433   4.705   2.048   2.137  0.5855 -0.0638  0.4625
 5324SOL    HW127434   4.660   2.018   2.057  2.2575 -0.6544 -0.2569
 5324SOL    HW227435   4.677   2.140   2.143 -1.3812 -0.5336 -1.1953
 5325SOL     OW27436   3.775   1.438   6.101  0.3007  0.3517 -0.0385
 5325SOL    HW127437   3.752   1.389   6.022  0.2950  1.1676 -0.5454
 5325SOL    HW227438   3.750   1.384   6.176  0.7425 -1.1529 -0.9691
 5326SOL     OW27439   1.604   3.447  15.589 -0.0822 -0.8005 -0.1092
 5326SOL    HW127440   1.539   3.444  15.659  1.1531 -0.4187  1.0607
 5326SOL    HW227441   1.683   3.432  15.640  0.7706  0.2051 -1.1312
 5327SOL     OW27442   1.606   3.830  13.454 -0.2243 -0.6647 -0.1548
 5327SOL    HW127443   1.584   3.900  13.392 -0.1716  0.7065  1.3546
 5327SOL    HW227444   1.668   3.872  13.513 -0.7927  0.5706 -0.4284
 5328SOL     OW27445   1.576   1.434   6.533  0.0959  0.9422  0.8130
 5328SOL    HW127446   1.481   1.420   6.525  0.5803 -0.7374 -1.9669
 5328SOL    HW227447   1.602   1.478   6.452 -1.1870 -2.4652 -1.4715
 5329SOL     OW27448   1.123   1.932   8.098 -0.6356  0.1378 -0.1154
 5329SOL    HW127449   1.184   1.986   8.047  2.3345 -1.5963  1.5915
 5329SOL    HW227450   1.152   1.942   8.189 -2.4187  2.5347  0.1905
 5330SOL     OW27451   0.504   3.451   1.938  0.5417 -0.6396  0.0978
 5330SOL    HW127452   0.482   3.484   1.852  0.0971 -0.4305  0.2934
 5330SOL    HW227453   0.438   3.382   1.952 -0.2771 -0.3388 -2.4507
 5331SOL     OW27454   4.691   2.778   0.484 -0.0627 -0.9532 -0.0932
 5331SOL    HW127455   4.703   2.870   0.460 -1.3408 -0.3562  1.5812
 5331SOL    HW227456   4.596   2.764   0.479  0.1279 -2.3214  0.0605
 5332SOL     OW27457   2.460   2.917   5.640 -0.2007  0.2421  0.0834
 5332SOL    HW127458   2.483   2.948   5.552 -0.7683 -1.5654 -0.7032
 5332SOL    HW227459   2.499   2.989   5.690 -0.5455  1.6499 -1.6523
 5333SOL     OW27460   4.245   2.339   4.818  0.1335 -0.1938 -0.4976
 5333SOL    HW127461   4.223   2.290   4.897  0.6563 -0.9012 -0.7826
 5333SOL    HW227462   4.158   2.371   4.796 -1.1555 -1.4932  2.7406
 5334SOL     OW27463   0.023   0.470  15.102 -0.0488 -0.2354 -0.0698
 5334SOL    HW127464   0.048   0.408  15.033  0.7176  0.4303 -0.3881
 5334SOL    HW227465   0.103   0.469  15.154 -0.2865 -1.7258  0.2788
 5335SOL     OW27466   2.464   1.064  16.375  0.0793 -0.1041  0.2333
 5335SOL    HW127467   2.416   0.983  16.390 -0.9779  0.5666  0.4428
 5335SOL    HW227468   2.552   1.028  16.389 -0.0734 -1.1173 -1.4193
 5336SOL     OW27469   2.845   0.757   5.568  0.0894 -0.1339  0.1955
 5336SOL    HW127470   2.770   0.754   5.510 -1.1245  0.2122  1.7484
 5336SOL    HW227471   2.872   0.849   5.559 -0.9662  0.2490  0.9410
 5337SOL     OW27472   4.164   3.325   7.475 -0.5432 -0.0527 -0.2667
 5337SOL    HW127473   4.253   3.337   7.509 -0.9611 -0.4920  0.9805
 5337SOL    HW227474   4.170   3.231   7.455 -0.4319 -0.1322  0.1383
 5338SOL     OW27475   0.759   0.197   5.791 -0.1081 -0.2089  0.3123
 5338SOL    HW127476   0.804   0.185   5.708  0.8680  0.7947  0.6958
 5338SOL    HW227477   0.681   0.245   5.762 -0.8204 -2.1712 -0.9985
 5339SOL     OW27478   1.453   4.456  11.236 -0.1342 -0.0864  0.0152
 5339SOL    HW127479   1.536   4.482  11.276 -0.3296 -1.0393  1.0333
 5339SOL    HW227480   1.452   4.368  11.275 -1.6687 -0.0109  0.1666
 5340SOL     OW27481   3.326   1.929   1.268 -0.0215 -0.5359 -0.1472
 5340SOL    HW127482   3.273   2.003   1.295  0.2301 -0.0567 -0.9678
 5340SOL    HW227483   3.355   1.948   1.179 -1.2346 -1.2804 -0.7018
 5341SOL     OW27484   1.835   0.411   8.904  0.1906 -0.6677 -0.2193
 5341SOL    HW127485   1.808   0.335   8.852  0.1350  0.1615 -1.3849
 5341SOL    HW227486   1.883   0.457   8.836 -2.3162  1.0412 -0.7874
 5342SOL     OW27487   2.399   2.603   9.258  0.5498  0.0093 -0.1223
 5342SOL    HW127488   2.470   2.570   9.313 -0.7140  1.8394  2.6352
 5342SOL    HW227489   2.341   2.641   9.324  1.9839  2.5756 -0.3430
 5343SOL     OW27490   2.467   2.292   2.908  0.0935  0.1011  0.4353
 5343SOL    HW127491   2.467   2.317   2.816  0.5257 -0.4127  0.2916
 5343SOL    HW227492   2.408   2.217   2.901  0.1000 -0.0408  1.8768
 5344SOL     OW27493   0.089   1.842   6.187  0.1036  0.0728  0.1299
 5344SOL    HW127494   0.146   1.765   6.186 -3.0249 -2.2294 -2.6256
 5344SOL    HW227495   0.081   1.855   6.281 -0.0654  1.0626 -0.0268
 5345SOL     OW27496   1.837   0.616   9.705 -0.1405  0.0614  0.5338
 5345SOL    HW127497   1.821   0.628   9.612 -0.1421  0.8266  0.6292
 5345SOL    HW227498   1.769   0.550   9.721  1.9990 -2.4936 -0.9541
 5346SOL     OW27499   2.254   2.680  10.906  0.2142  0.6456 -0.2987
 5346SOL    HW127500   2.220   2.594  10.879  0.6028 -0.3295  2.3020
 5346SOL    HW227501   2.343   2.673  10.872 -0.2594  0.7733 -1.5877
 5347SOL     OW27502   2.813   1.452  12.298  0.7379  0.3892  0.3279
 5347SOL    HW127503   2.903   1.477  12.278 -0.0144  1.6687 -1.5109
 5347SOL    HW227504   2.782   1.538  12.329  1.9938  1.5084 -1.5309
 5348SOL     OW27505   2.974   3.834   4.647 -0.0845  0.3548 -0.0588
 5348SOL    HW127506   3.018   3.768   4.593  0.9571  0.7493  0.3057
 5348SOL    HW227507   2.993   3.908   4.590 -4.1871  0.5333 -1.1841
 5349SOL     OW27508   2.919   3.102   8.634 -0.7969  0.5174  0.0502
 5349SOL    HW127509   2.849   3.074   8.692 -0.9739  1.8487  0.4936
 5349SOL    HW227510   2.925   3.195   8.658  1.3095  0.2548  0.5577
 5350SOL     OW27511   0.687   1.159  12.439 -0.6435 -0.5847  0.3964
 5350SOL    HW127512   0.773   1.137  12.401 -0.5343  1.3471 -0.4881
 5350SOL    HW227513   0.624   1.129  12.373  0.7923 -0.8196 -0.8845
 5351SOL     OW27514   3.129   4.462   3.810  0.2189  0.5359 -0.1163
 5351SOL    HW127515   3.139   4.539   3.754 -0.0248 -0.1427 -1.0876
 5351SOL    HW227516   3.075   4.492   3.884  0.6515 -1.6330  1.0887
 5352SOL     OW27517   3.016   4.621   2.859 -0.4707  0.7862 -0.0331
 5352SOL    HW127518   3.016   4.534   2.821 -1.2374  0.0563  1.6498
 5352SOL    HW227519   2.960   4.662   2.793 -0.5899  0.4342 -0.1503
 5353SOL     OW27520   3.700   1.961  14.024  0.1357  0.8302  0.2007
 5353SOL    HW127521   3.788   1.924  14.020 -0.3188  0.0945 -3.0629
 5353SOL    HW227522   3.714   2.055  14.013  0.4728  0.7437 -0.1031
 5354SOL     OW27523   2.540   1.011   5.692  0.5682  0.3425  0.1612
 5354SOL    HW127524   2.580   0.945   5.749  0.9195 -0.2877 -0.7966
 5354SOL    HW227525   2.479   0.949   5.650 -0.3381  1.5644 -0.3128
 5355SOL     OW27526   2.286   3.054  16.947 -0.9338  0.6346 -0.1792
 5355SOL    HW127527   2.291   3.134  16.895  1.1969  0.3404 -0.4129
 5355SOL    HW227528   2.193   3.033  16.947 -1.4599  2.9386  2.8271
 5356SOL     OW27529   3.192   3.694  12.681  0.2898  0.0806  0.3822
 5356SOL    HW127530   3.256   3.754  12.643 -0.6727  1.8970  1.6544
 5356SOL    HW227531   3.217   3.608  12.646 -0.1863  0.7772 -1.6391
 5357SOL     OW27532   3.478   4.294  17.243 -0.2355  0.1454 -0.8074
 5357SOL    HW127533   3.506   4.380  17.213 -0.3064 -0.4927 -2.7435
 5357SOL    HW227534   3.496   4.288  17.337 -0.6331  1.8296 -0.6311
 5358SOL     OW27535   4.147   0.218  13.984  0.5402 -0.2502 -0.3355
 5358SOL    HW127536   4.133   0.123  13.989  0.1945 -0.1926 -0.2184
 5358SOL    HW227537   4.068   0.253  13.943 -0.0816  0.4204  1.4701
 5359SOL     OW27538   0.272   2.884   0.575  0.4607 -0.0839 -0.0749
 5359SOL    HW127539   0.194   2.936   0.552  1.0211 -0.1596 -2.1462
 5359SOL    HW227540   0.312   2.873   0.489 -1.2861 -1.1438 -0.7668
 5360SOL     OW27541   2.279   3.836   7.550 -0.1215  0.0018 -0.3666
 5360SOL    HW127542   2.261   3.808   7.460  0.5098  0.0712 -0.5172
 5360SOL    HW227543   2.193   3.815   7.584 -0.1226 -0.2475 -0.5231
 5361SOL     OW27544   4.029   3.091   9.559 -0.3774  0.0727 -0.0730
 5361SOL    HW127545   3.951   3.123   9.604 -1.8331 -0.4878 -2.1458
 5361SOL    HW227546   3.989   3.017   9.511  0.0284 -0.7422  0.8485
 5362SOL     OW27547   0.517   1.984   3.579  0.0178  0.0658 -0.0201
 5362SOL    HW127548   0.556   2.071   3.571 -0.6820  0.1496 -2.5046
 5362SOL    HW227549   0.592   1.936   3.614 -0.2672 -1.5751 -1.7306
 5363SOL     OW27550   3.996   3.703   1.878 -0.1578  0.1163  0.1768
 5363SOL    HW127551   4.001   3.777   1.818  0.4420  0.5440  0.7449
 5363SOL    HW227552   4.077   3.716   1.928  0.6526  0.1919 -1.1480
 5364SOL     OW27553   2.561   4.090   7.240  0.1423 -0.1654  0.4913
 5364SOL    HW127554   2.636   4.116   7.294 -0.1755 -1.3017  1.4655
 5364SOL    HW227555   2.540   4.171   7.192  2.8838 -1.5274 -3.0221
 5365SOL     OW27556   0.718   1.007   4.661 -0.8818  0.8648  0.5816
 5365SOL    HW127557   0.789   0.964   4.613 -0.8176 -0.4177  1.8156
 5365SOL    HW227558   0.653   1.001   4.591  0.9540  1.3848 -1.1613
 5366SOL     OW27559   3.465   2.736   2.991 -0.0837  0.1380 -0.2555
 5366SOL    HW127560   3.434   2.820   3.026  2.6444  1.6334 -1.5048
 5366SOL    HW227561   3.548   2.721   3.035 -1.2862  2.1396  2.7014
 5367SOL     OW27562   0.760   1.549   2.162  0.3940 -0.1636  0.1232
 5367SOL    HW127563   0.824   1.568   2.093 -0.2109 -1.1315 -0.6876
 5367SOL    HW227564   0.827   1.535   2.230 -0.4277 -2.6260  0.4173
 5368SOL     OW27565   1.161   4.014   7.473 -0.0952 -0.7609 -0.3406
 5368SOL    HW127566   1.248   4.010   7.435  0.0899  1.3789 -0.1599
 5368SOL    HW227567   1.182   4.007   7.565 -2.9928 -1.2155  0.2994
 5369SOL     OW27568   1.736   3.136   6.751 -0.3163  0.2447  0.3356
 5369SOL    HW127569   1.666   3.084   6.791 -0.9299  0.1154 -0.9220
 5369SOL    HW227570   1.814   3.089   6.780  0.9873  2.8518  1.0421
 5370SOL     OW27571   3.231   1.180   6.884 -0.1207 -0.4313 -0.4288
 5370SOL    HW127572   3.157   1.188   6.824 -0.0045  2.1639 -0.1931
 5370SOL    HW227573   3.248   1.273   6.898 -1.6843 -0.0259 -1.2698
 5371SOL     OW27574   4.710   2.506   4.885  0.0599 -0.5253  0.6620
 5371SOL    HW127575   4.680   2.444   4.819 -2.0232  0.7991  0.3704
 5371SOL    HW227576   4.701   2.588   4.837 -3.2386 -1.8941 -1.1241
 5372SOL     OW27577   1.238   0.468  10.406 -0.2899  0.2365  0.0554
 5372SOL    HW127578   1.152   0.503  10.429  1.0173  2.6005  1.3606
 5372SOL    HW227579   1.199   0.389  10.370 -0.6020 -0.1564  1.2470
 5373SOL     OW27580   0.941   4.328   6.213 -0.4466 -0.1923  0.1313
 5373SOL    HW127581   0.980   4.268   6.277 -1.5476  0.4467  1.3996
 5373SOL    HW227582   0.861   4.356   6.258 -0.9311 -0.1692 -0.7471
 5374SOL     OW27583   2.863   2.098   2.534  0.8273 -0.9199 -0.1702
 5374SOL    HW127584   2.869   2.054   2.619 -0.2002 -0.8668 -0.0667
 5374SOL    HW227585   2.861   2.189   2.564 -2.9396 -1.6936  1.8813
 5375SOL     OW27586   0.981   1.937  13.632  0.1671 -0.6442 -0.3725
 5375SOL    HW127587   0.896   1.909  13.600 -0.8848  0.7684  1.2399
 5375SOL    HW227588   1.023   1.957  13.548 -1.0169  1.6721 -0.3872
 5376SOL     OW27589   4.068   0.331   3.711  0.4711 -0.3540 -0.3355
 5376SOL    HW127590   4.061   0.392   3.785  4.7526  0.8375 -0.8998
 5376SOL    HW227591   4.159   0.302   3.717  0.9613  0.9809 -1.1739
 5377SOL     OW27592   3.233   2.780   8.057  0.2673 -0.1368  0.2023
 5377SOL    HW127593   3.293   2.855   8.059 -1.8356  1.6487 -2.6476
 5377SOL    HW227594   3.241   2.751   8.148 -1.5804 -0.6863  0.1802
 5378SOL     OW27595   2.196   1.992   1.614 -0.2742  0.2964 -0.1888
 5378SOL    HW127596   2.125   2.020   1.556 -0.5953 -0.3458 -0.1038
 5378SOL    HW227597   2.280   2.018   1.578 -0.3623 -0.6596 -1.0661
 5379SOL     OW27598   1.847   3.913   2.539  0.4014  0.1692 -0.6933
 5379SOL    HW127599   1.838   3.865   2.457 -0.3696 -1.0710  0.1222
 5379SOL    HW227600   1.851   3.998   2.495 -1.8162  0.1633 -0.8999
 5380SOL     OW27601   4.182   1.943  12.600  0.5126  0.0279 -0.1312
 5380SOL    HW127602   4.115   1.971  12.537  1.4317 -0.8988 -1.5269
 5380SOL    HW227603   4.244   2.016  12.597  1.7595 -1.0379 -0.3874
 5381SOL     OW27604   1.045   3.997  12.143 -0.0168  0.1128  0.1098
 5381SOL    HW127605   1.065   3.958  12.228 -0.2489  1.3035  0.7129
 5381SOL    HW227606   1.071   4.088  12.156 -1.1812  0.0614  2.7776
 5382SOL     OW27607   2.879   1.635   8.314 -0.1783  0.0411 -0.4039
 5382SOL    HW127608   2.916   1.547   8.313  0.4341  0.3028 -1.3580
 5382SOL    HW227609   2.788   1.630   8.285  0.1290 -0.6179 -1.2657
 5383SOL     OW27610   1.636   2.252   0.098 -0.1508  0.1439  0.3902
 5383SOL    HW127611   1.658   2.195   0.024 -0.5289 -0.0166  0.4044
 5383SOL    HW227612   1.603   2.326   0.047 -2.0295 -2.0913 -1.6466
 5384SOL     OW27613   2.814   3.717   4.198 -0.5982 -0.1709  0.8820
 5384SOL    HW127614   2.736   3.764   4.168  1.8001  2.2745 -1.4983
 5384SOL    HW227615   2.812   3.743   4.290  1.0096 -0.6659  1.0593
 5385SOL     OW27616   0.090   0.129   4.092 -0.0359  0.4051  0.0241
 5385SOL    HW127617   0.086   0.065   4.021 -2.6627  0.3425  0.2073
 5385SOL    HW227618   0.184   0.142   4.097 -0.0305 -0.5586  2.3091
 5386SOL     OW27619   4.457   0.014  15.249 -0.2705  0.3110 -0.5003
 5386SOL    HW127620   4.472   4.683  15.328  1.0518 -0.7851 -1.4766
 5386SOL    HW227621   4.395   0.079  15.282 -1.6694 -0.0954 -2.2958
 5387SOL     OW27622   2.164   1.178   7.074 -0.3136  0.3376  0.4170
 5387SOL    HW127623   2.227   1.125   7.026  0.1974  0.3567  1.0592
 5387SOL    HW227624   2.119   1.106   7.118  1.9458 -1.6616 -0.5625
 5388SOL     OW27625   1.242   3.142   2.327  0.0309  0.6432  0.0129
 5388SOL    HW127626   1.194   3.105   2.401 -2.5133  0.3152 -1.7907
 5388SOL    HW227627   1.202   3.091   2.256 -1.4964  1.0589  0.5626
 5389SOL     OW27628   0.295   1.804   8.793 -0.7390  0.4016 -0.6447
 5389SOL    HW127629   0.283   1.897   8.808 -1.6523  0.7228 -3.3445
 5389SOL    HW227630   0.347   1.808   8.713  0.4724 -0.5740  0.0790
 5390SOL     OW27631   2.188   2.683   7.443 -0.0151  0.3426  0.0576
 5390SOL    HW127632   2.273   2.727   7.443  0.5027 -0.6251  1.5942
 5390SOL    HW227633   2.132   2.759   7.428 -1.0718  0.4413  4.3240
 5391SOL     OW27634   3.443   1.210   7.828 -0.1097 -0.6436 -0.1161
 5391SOL    HW127635   3.495   1.139   7.789  0.5412 -1.0251  1.4561
 5391SOL    HW227636   3.398   1.236   7.748 -0.2498  0.1841  0.2401
 5392SOL     OW27637   2.746   1.188   1.191  0.5812 -0.3729  0.1159
 5392SOL    HW127638   2.671   1.236   1.156 -1.5276 -2.7499  1.3203
 5392SOL    HW227639   2.814   1.214   1.130  0.8000  0.2599  0.6315
 5393SOL     OW27640   2.185   1.324   5.785 -0.0798 -0.4324  0.1755
 5393SOL    HW127641   2.230   1.277   5.715 -0.6176  0.2873 -0.6586
 5393SOL    HW227642   2.105   1.346   5.737  1.0256 -0.6816 -1.7715
 5394SOL     OW27643   0.796   0.257  17.401  0.5782  0.0843 -0.4583
 5394SOL    HW127644   0.797   0.175  17.449 -0.1609 -0.3620 -1.2205
 5394SOL    HW227645   0.703   0.278  17.407  0.4482 -0.8036  0.5137
 5395SOL     OW27646   3.186   1.055   2.405  1.0455 -0.1632  0.1684
 5395SOL    HW127647   3.281   1.061   2.410  1.0416  0.7207 -0.7307
 5395SOL    HW227648   3.162   1.128   2.348 -1.6079 -0.7435  0.5499
 5396SOL     OW27649   0.331   1.575   7.271 -0.0747  0.1991  0.2276
 5396SOL    HW127650   0.352   1.614   7.355  1.0150  1.3360 -0.5680
 5396SOL    HW227651   0.417   1.580   7.228  0.2195 -0.5010  0.7517
 5397SOL     OW27652   2.808   3.724   8.189  0.1730  0.5596 -0.2180
 5397SOL    HW127653   2.871   3.758   8.125 -0.2345  2.0279  0.1574
 5397SOL    HW227654   2.853   3.642   8.205 -1.8430 -0.5736 -0.3482
 5398SOL     OW27655   2.346   0.546   6.146  0.5336  0.0172  0.4389
 5398SOL    HW127656   2.354   0.642   6.140 -0.6376 -0.0423 -1.8197
 5398SOL    HW227657   2.253   0.527   6.149  0.5640 -0.0448  1.1129
 5399SOL     OW27658   3.400   3.725   8.171 -0.1480  0.2505 -0.0055
 5399SOL    HW127659   3.441   3.658   8.225  0.9718 -1.0215 -2.4646
 5399SOL    HW227660   3.329   3.743   8.233 -1.3943 -0.6320 -1.1881
 5400SOL     OW27661   3.314   1.105   1.847  0.1128  0.3747  0.5930
 5400SOL    HW127662   3.338   1.162   1.775  1.2201 -0.1948  0.5157
 5400SOL    HW227663   3.242   1.058   1.805  2.2684  0.4932 -3.2490
 5401SOL     OW27664   4.207   1.897  12.269  0.0135 -0.0538 -0.0593
 5401SOL    HW127665   4.122   1.887  12.313 -0.2701  0.5094 -0.4807
 5401SOL    HW227666   4.238   1.811  12.242 -0.2951  0.3549 -1.7222
 5402SOL     OW27667   2.480   0.225   3.954 -0.9014 -0.4048  0.0438
 5402SOL    HW127668   2.399   0.248   3.907 -1.0544  0.9440  0.9378
 5402SOL    HW227669   2.516   0.172   3.884 -0.1890  0.4730 -0.2585
 5403SOL     OW27670   1.262   1.475  15.332  0.3740  0.8880 -0.1920
 5403SOL    HW127671   1.240   1.401  15.275  1.9119  0.2506  0.0630
 5403SOL    HW227672   1.207   1.537  15.284 -2.4128 -1.4276 -0.0350
 5404SOL     OW27673   4.589   2.986   4.582 -0.1309  0.1123 -0.3388
 5404SOL    HW127674   4.510   2.973   4.635 -0.3646  0.9499 -0.4874
 5404SOL    HW227675   4.568   3.078   4.565 -0.2244  0.5909  2.2286
 5405SOL     OW27676   0.275   1.406   1.766 -0.0327 -0.3505 -0.0246
 5405SOL    HW127677   0.196   1.366   1.802 -1.1595  3.4401  1.7130
 5405SOL    HW227678   0.248   1.411   1.675 -0.1587  2.0153  0.1556
 5406SOL     OW27679   3.876   0.902   7.915  0.4117  0.1910 -0.3044
 5406SOL    HW127680   3.853   0.849   7.839 -0.5972 -0.1172  0.2258
 5406SOL    HW227681   3.891   0.989   7.878  1.6575 -0.6000 -1.6535
 5407SOL     OW27682   2.200   4.026   9.112 -0.5193 -0.0214  0.0863
 5407SOL    HW127683   2.158   3.940   9.125  1.5907 -1.1120 -0.3929
 5407SOL    HW227684   2.203   4.066   9.199 -0.1688  1.5692 -0.6554
 5408SOL     OW27685   3.282   2.088   6.522 -0.1689  0.0239  0.4331
 5408SOL    HW127686   3.333   2.138   6.586  0.6545 -1.5008  0.9521
 5408SOL    HW227687   3.343   2.082   6.448  0.4375 -0.2884  0.9653
 5409SOL     OW27688   2.700   0.542  10.102  0.8299 -0.0132 -0.3681
 5409SOL    HW127689   2.668   0.483  10.170  1.5479 -0.2850 -0.2660
 5409SOL    HW227690   2.761   0.486  10.053  0.3402 -0.1978 -0.7775
 5410SOL     OW27691   4.472   3.365   4.271  0.2454 -0.0672 -0.5553
 5410SOL    HW127692   4.402   3.422   4.304  0.7472 -0.5711  1.3710
 5410SOL    HW227693   4.421   3.339   4.194 -0.6617 -0.2819  0.1149
 5411SOL     OW27694   1.321   1.829   7.282 -0.5233  0.2308 -0.0625
 5411SOL    HW127695   1.295   1.916   7.253  0.4217  0.1660 -1.1354
 5411SOL    HW227696   1.384   1.814   7.211 -2.1059  0.5424 -1.5379
 5412SOL     OW27697   4.299   2.692   3.045  0.1683 -0.4605  0.2178
 5412SOL    HW127698   4.242   2.690   3.121 -1.6095 -1.9863 -1.1448
 5412SOL    HW227699   4.358   2.765   3.064 -0.1728  0.3337 -1.7041
 5413SOL     OW27700   3.213   2.691   2.213  0.3291 -0.0535  0.3897
 5413SOL    HW127701   3.185   2.627   2.279 -1.4157  2.2046  1.8303
 5413SOL    HW227702   3.174   2.653   2.134 -1.7730 -1.4383  2.0962
 5414SOL     OW27703   4.223   1.993  16.517 -0.1017 -0.0737  0.0345
 5414SOL    HW127704   4.128   1.983  16.527 -0.0609 -0.6120 -0.0865
 5414SOL    HW227705   4.251   1.906  16.547  1.6522  0.3133 -0.4522
 5415SOL     OW27706   0.467   3.420   8.608  0.2493 -0.2310 -0.0834
 5415SOL    HW127707   0.402   3.488   8.588  0.4173  0.3478  1.3248
 5415SOL    HW227708   0.438   3.394   8.695 -0.1126  1.8872  0.4414
 5416SOL     OW27709   2.819   0.893   1.088  0.5792 -0.3833  0.2684
 5416SOL    HW127710   2.779   0.931   1.166  0.4223 -0.9684  0.4687
 5416SOL    HW227711   2.761   0.919   1.016  1.8005 -0.9266 -0.9317
 5417SOL     OW27712   0.671   0.726  16.221 -0.1339  0.1838  0.0476
 5417SOL    HW127713   0.615   0.756  16.149 -1.4145  4.1781  2.7067
 5417SOL    HW227714   0.723   0.654  16.185 -1.3411  0.2281 -1.7576
 5418SOL     OW27715   0.555   2.018   8.425 -0.1901 -0.3541  0.1065
 5418SOL    HW127716   0.563   2.036   8.331  0.6092 -0.1731  0.2128
 5418SOL    HW227717   0.649   2.004   8.436  0.0823  1.3113 -0.1317
 5419SOL     OW27718   1.643   3.074   7.487  0.1547  0.2734  0.6137
 5419SOL    HW127719   1.590   3.036   7.557 -1.5414  2.8392  0.7214
 5419SOL    HW227720   1.678   3.145   7.541  3.0047  0.8813 -2.0119
 5420SOL     OW27721   2.892   1.020   5.629 -0.2654  0.3182 -0.7189
 5420SOL    HW127722   2.861   1.110   5.625  1.5658  0.8280 -3.0773
 5420SOL    HW227723   2.980   1.041   5.660 -0.2036 -0.9591  0.0062
 5421SOL     OW27724   0.113   4.571   9.455  0.3056 -0.1510  0.6003
 5421SOL    HW127725   0.068   4.487   9.468 -2.4966  1.2360 -0.0597
 5421SOL    HW227726   0.077   4.607   9.374  0.6511 -2.4715 -0.5826
 5422SOL     OW27727   1.250   3.856  13.234 -0.3832 -0.4203  0.2634
 5422SOL    HW127728   1.306   3.915  13.283 -0.9341 -0.4670  0.9537
 5422SOL    HW227729   1.172   3.867  13.288  1.7203  0.5706  3.0888
 5423SOL     OW27730   4.124   3.517  14.000  0.4405 -0.1032  0.6963
 5423SOL    HW127731   4.176   3.463  13.940 -1.6532 -1.1240 -0.1835
 5423SOL    HW227732   4.075   3.564  13.933 -0.9188 -1.7500  0.5352
 5424SOL     OW27733   0.646   2.946   8.492 -0.1571  0.2253  0.0268
 5424SOL    HW127734   0.583   2.905   8.433 -0.3931 -0.0828  0.4867
 5424SOL    HW227735   0.698   2.869   8.514  1.7818  1.8840  1.3423
 5425SOL     OW27736   1.370   2.609  14.842 -0.3556 -0.6022  0.3430
 5425SOL    HW127737   1.419   2.614  14.761  0.4496 -0.6694  0.8283
 5425SOL    HW227738   1.287   2.645  14.810 -0.4548 -0.0575  1.2101
 5426SOL     OW27739   0.585   2.188  10.693 -0.3840  0.1268  0.2336
 5426SOL    HW127740   0.658   2.196  10.755  0.1791 -0.1532 -0.3851
 5426SOL    HW227741   0.550   2.275  10.676 -2.5707 -0.5648  1.2138
 5427SOL     OW27742   2.483   3.405   9.440  0.3507 -0.0358 -0.0194
 5427SOL    HW127743   2.529   3.457   9.506  2.9816 -0.5202 -1.4603
 5427SOL    HW227744   2.459   3.477   9.382 -1.3586 -1.2435 -0.8080
 5428SOL     OW27745   1.453   4.718   5.105 -0.4634 -0.6089  0.6913
 5428SOL    HW127746   1.453   4.635   5.056 -0.1617  1.3387 -2.6342
 5428SOL    HW227747   1.546   0.006   5.127  0.5635 -2.8783 -2.5678
 5429SOL     OW27748   0.726   1.258   2.883 -0.3230 -0.0194 -0.3422
 5429SOL    HW127749   0.640   1.242   2.924 -0.1003 -2.0250 -0.6569
 5429SOL    HW227750   0.763   1.170   2.892  0.6036  0.3178 -0.9515
 5430SOL     OW27751   0.079   3.421   0.800  0.6095 -0.1450  0.0679
 5430SOL    HW127752   4.718   3.406   0.846  1.6899  1.8426  2.6281
 5430SOL    HW227753   0.101   3.506   0.837 -1.5229  0.6049 -0.4069
 5431SOL     OW27754   1.494   0.226  16.664 -0.2900 -0.0577 -1.1321
 5431SOL    HW127755   1.401   0.235  16.686  0.3011  1.3420  0.7901
 5431SOL    HW227756   1.493   0.145  16.613  0.8577 -1.3285  0.9081
 5432SOL     OW27757   4.462   1.204   5.924  0.4274  0.0371  0.1299
 5432SOL    HW127758   4.525   1.259   5.971  0.7395 -0.7034  0.5816
 5432SOL    HW227759   4.500   1.198   5.836 -0.5712 -0.8627 -0.2392
 5433SOL     OW27760   1.511   0.798   3.567 -0.4205 -0.7709 -0.2219
 5433SOL    HW127761   1.426   0.773   3.603 -0.0929  1.7839  2.3511
 5433SOL    HW227762   1.533   0.729   3.505 -0.7548 -0.4971 -0.6352
 5434SOL     OW27763   2.824   0.204  17.660 -0.0767 -0.0552 -0.4303
 5434SOL    HW127764   2.889   0.246   0.027 -0.9827 -1.3398  1.5643
 5434SOL    HW227765   2.757   0.187   0.036 -1.8516 -0.8147 -2.4267
 5435SOL     OW27766   3.185   1.062   9.683  0.3742 -0.5064 -0.5803
 5435SOL    HW127767   3.113   1.005   9.658 -0.8945  1.0362 -0.4538
 5435SOL    HW227768   3.261   1.004   9.678  0.0421 -0.9733 -0.2542
 5436SOL     OW27769   4.684   2.808   5.541  0.1972  0.1729 -0.3053
 5436SOL    HW127770   4.711   2.900   5.541  0.9531 -0.0368 -1.9687
 5436SOL    HW227771   0.023   2.771   5.477  0.0464 -2.2874  0.9766
 5437SOL     OW27772   2.827   0.335  13.834  0.1491  0.2656  0.7729
 5437SOL    HW127773   2.798   0.402  13.896  0.8777  0.4437  0.9201
 5437SOL    HW227774   2.878   0.380  13.767 -1.4356  0.5075 -0.2720
 5438SOL     OW27775   1.170   4.529   3.320 -0.7598  0.2049  0.0051
 5438SOL    HW127776   1.105   4.511   3.252 -0.9979  1.6255 -0.1495
 5438SOL    HW227777   1.246   4.489   3.279  0.1417  0.6709  1.2178
 5439SOL     OW27778   4.505   1.172   1.843 -0.3286 -0.3250  0.4525
 5439SOL    HW127779   4.600   1.179   1.836 -0.6684  2.9271 -0.8167
 5439SOL    HW227780   4.477   1.160   1.752 -0.1856  0.4826  0.3054
 5440SOL     OW27781   4.100   3.070   9.241  0.2605  0.2558  0.0750
 5440SOL    HW127782   4.063   3.063   9.329  1.5232  1.1846  0.6802
 5440SOL    HW227783   4.023   3.099   9.191  0.8515 -1.5246 -1.8839
 5441SOL     OW27784   3.752   2.691   6.181  0.3161  0.3114 -0.2811
 5441SOL    HW127785   3.674   2.709   6.129 -0.4189 -0.8864  0.4073
 5441SOL    HW227786   3.733   2.718   6.271  0.9127 -1.1819  0.3062
 5442SOL     OW27787   1.130   2.149   6.569  0.2408  0.6357 -0.4141
 5442SOL    HW127788   1.188   2.182   6.500  0.2466  2.2201  0.3636
 5442SOL    HW227789   1.044   2.147   6.527  0.1459 -0.4530 -0.1809
 5443SOL     OW27790   2.168   2.223   6.118  0.0828  1.2685  0.5148
 5443SOL    HW127791   2.100   2.167   6.157  0.0430  1.2615  0.4360
 5443SOL    HW227792   2.185   2.175   6.037 -2.9865  1.6945 -0.4126
 5444SOL     OW27793   1.093   0.459   3.724 -0.2356  0.0121 -0.1153
 5444SOL    HW127794   1.169   0.504   3.760 -2.0095  2.4297  0.6044
 5444SOL    HW227795   1.103   0.365   3.738  1.1620 -0.0540 -1.5241
 5445SOL     OW27796   3.885   4.165   9.418  0.5316  0.0442 -0.2490
 5445SOL    HW127797   3.807   4.162   9.362 -1.1350 -0.8202  2.0977
 5445SOL    HW227798   3.850   4.147   9.506 -1.1705 -1.0162 -1.1461
 5446SOL     OW27799   4.613   3.465   5.506  0.2153  0.1223 -0.0423
 5446SOL    HW127800   4.699   3.425   5.522  1.6959  2.9307 -0.9603
 5446SOL    HW227801   4.614   3.473   5.411 -0.3025 -0.2538 -0.0751
 5447SOL     OW27802   2.120   1.591   9.386  0.4603 -0.3396 -0.5537
 5447SOL    HW127803   2.162   1.614   9.303 -0.2689  1.3552 -0.4656
 5447SOL    HW227804   2.141   1.498   9.386  1.2315 -0.1617 -1.6781
 5448SOL     OW27805   2.529   4.006   3.789 -0.2771 -0.0245  0.1195
 5448SOL    HW127806   2.449   3.975   3.829  0.5769 -0.2202  1.6791
 5448SOL    HW227807   2.490   4.086   3.754 -1.0843 -1.3138 -1.9367
 5449SOL     OW27808   1.717   0.553   2.918 -0.2712  0.2469  0.3239
 5449SOL    HW127809   1.720   0.496   2.995  3.2176  0.2761  0.2109
 5449SOL    HW227810   1.680   0.500   2.848  2.8438  1.2955 -2.0936
 5450SOL     OW27811   0.985   0.121  13.645 -0.2570 -0.0748 -0.7221
 5450SOL    HW127812   0.917   0.058  13.668 -2.1832  2.2158 -0.1608
 5450SOL    HW227813   1.024   0.071  13.573 -2.2989  0.4444 -2.1807
 5451SOL     OW27814   4.098   4.536   9.574  0.3250 -0.1656  0.1160
 5451SOL    HW127815   4.004   4.548   9.589  0.4127  1.3156 -0.5502
 5451SOL    HW227816   4.121   4.619   9.532  1.2496 -0.3960  0.1593
 5452SOL     OW27817   0.130   3.706  16.563  0.4531  0.0819  0.2525
 5452SOL    HW127818   0.126   3.742  16.475 -1.5184 -1.0892 -0.1345
 5452SOL    HW227819   0.153   3.783  16.615 -1.9880  1.7658 -1.2271
 5453SOL     OW27820   4.394   1.579  13.556  0.4433  0.7021  0.1673
 5453SOL    HW127821   4.416   1.574  13.463  0.2726 -0.6165  0.2116
 5453SOL    HW227822   4.299   1.575  13.547  0.4674  0.0416  0.2529
 5454SOL     OW27823   3.382   1.827   0.608 -0.5719  0.4077 -0.1441
 5454SOL    HW127824   3.441   1.874   0.667 -1.1939  0.9969  0.0068
 5454SOL    HW227825   3.383   1.885   0.532  2.0487  0.5895  0.0385
 5455SOL     OW27826   3.803   2.422   8.184 -0.0702 -1.0114 -0.1027
 5455SOL    HW127827   3.883   2.398   8.137  0.6243  1.0887  0.0005
 5455SOL    HW227828   3.772   2.344   8.230  0.5060 -0.6869  0.8370
 5456SOL     OW27829   0.832   1.940   2.585  0.0414  0.4427 -0.0511
 5456SOL    HW127830   0.858   2.026   2.552  0.9884  0.9210  1.9298
 5456SOL    HW227831   0.834   1.889   2.504  0.2845 -2.6563  1.8808
 5457SOL     OW27832   4.711   0.215   8.936  0.2217 -0.4593 -0.1508
 5457SOL    HW127833   4.624   0.186   8.906 -0.4252 -1.0391  2.3321
 5457SOL    HW227834   0.039   0.140   8.906  1.6883  0.9004 -1.1241
 5458SOL     OW27835   2.155   2.248   4.089 -0.4375 -0.1640  0.3682
 5458SOL    HW127836   2.109   2.232   4.172  1.0938 -0.3753  1.1814
 5458SOL    HW227837   2.204   2.166   4.083  0.2484  0.2643  0.0012
 5459SOL     OW27838   2.573   0.697   1.055  0.6247  0.7985  0.7687
 5459SOL    HW127839   2.636   0.696   0.983  0.9333  0.8302  1.0396
 5459SOL    HW227840   2.613   0.641   1.121 -0.2431 -1.2282 -0.4113
 5460SOL     OW27841   2.036   4.369  10.497 -0.2488  0.1029  0.1690
 5460SOL    HW127842   2.046   4.372  10.592  0.0976 -0.9831  0.1613
 5460SOL    HW227843   2.091   4.296  10.470 -0.8466  0.5938 -2.3946
 5461SOL     OW27844   1.686   4.530   5.543  0.3534 -0.0107 -0.0215
 5461SOL    HW127845   1.674   4.616   5.502 -0.1108 -0.3771 -0.6527
 5461SOL    HW227846   1.712   4.543   5.634  0.2646  2.5798 -0.3678
 5462SOL     OW27847   4.621   3.770   5.466  0.0508 -0.1625 -0.1390
 5462SOL    HW127848   4.644   3.678   5.458 -1.8017 -0.5842 -0.5125
 5462SOL    HW227849   4.590   3.784   5.376 -0.2199  0.1999  0.0108
 5463SOL     OW27850   1.851   4.674   2.958 -0.2347 -0.2428  0.5056
 5463SOL    HW127851   1.856   4.583   2.988 -0.0013 -0.1870  0.6345
 5463SOL    HW227852   1.760   4.682   2.929 -0.1185 -0.4947  0.0816
 5464SOL     OW27853   1.252   2.980   2.717  0.4291 -0.5497 -0.3400
 5464SOL    HW127854   1.207   3.005   2.797  2.2320  3.8449 -0.7305
 5464SOL    HW227855   1.346   2.975   2.733 -0.0419 -1.4280  2.1073
 5465SOL     OW27856   1.456   0.236   4.109  0.3394  0.3823 -0.4755
 5465SOL    HW127857   1.491   0.214   4.023  1.1063  0.3915 -0.1617
 5465SOL    HW227858   1.521   0.198   4.168 -0.5485 -0.7893 -0.2514
 5466SOL     OW27859   4.390   1.116   8.773 -1.0298 -0.0420  0.6967
 5466SOL    HW127860   4.462   1.101   8.834 -1.5039  1.1513  1.5535
 5466SOL    HW227861   4.315   1.133   8.830 -1.2738  0.6069  0.1767
 5467SOL     OW27862   1.867   0.815  15.752 -0.2287  0.1233 -0.1772
 5467SOL    HW127863   1.841   0.797  15.843 -1.6087 -0.5983 -0.7046
 5467SOL    HW227864   1.887   0.727  15.720 -0.3912 -0.1172  0.3798
 5468SOL     OW27865   0.123   0.372  13.917 -0.7613 -0.0235  0.1542
 5468SOL    HW127866   0.117   0.282  13.950 -1.1899  0.4639  1.4238
 5468SOL    HW227867   0.130   0.360  13.823  2.6065 -1.8866  0.6147
 5469SOL     OW27868   2.679   0.965   7.465 -0.8631 -1.0797  0.1159
 5469SOL    HW127869   2.642   0.919   7.541  1.0252 -2.3962  0.2485
 5469SOL    HW227870   2.716   0.890   7.418  2.3453  0.4900  0.1312
 5470SOL     OW27871   1.192   0.866   7.282 -0.0687  0.2495 -0.3498
 5470SOL    HW127872   1.148   0.784   7.257 -0.6709  0.3545  0.3640
 5470SOL    HW227873   1.115   0.923   7.281 -0.4411 -0.2672 -1.3377
 5471SOL     OW27874   2.911   3.572  14.205  0.3643  0.4410 -0.0710
 5471SOL    HW127875   2.839   3.554  14.266 -0.2749  0.4965 -0.8135
 5471SOL    HW227876   2.938   3.660  14.231 -0.6065  0.9995 -0.9846
 5472SOL     OW27877   4.038   3.801  11.876 -0.2060  0.4320 -0.1542
 5472SOL    HW127878   3.993   3.728  11.834  3.3224 -1.1219 -1.2179
 5472SOL    HW227879   3.987   3.875  11.842 -0.1236 -0.6579 -2.6873
 5473SOL     OW27880   3.507   2.564   4.417  0.2186  0.8247  0.8620
 5473SOL    HW127881   3.545   2.478   4.398  0.1624  0.7534  1.0736
 5473SOL    HW227882   3.446   2.576   4.344  1.5146  0.2428 -0.3212
 5474SOL     OW27883   1.212   2.347   9.173  0.2341  0.2549 -0.0457
 5474SOL    HW127884   1.149   2.400   9.221 -1.0472 -2.3709  1.1732
 5474SOL    HW227885   1.158   2.302   9.108  0.2525  2.1835 -1.4041
 5475SOL     OW27886   1.246   2.813  15.539 -0.3701  0.1621  0.4718
 5475SOL    HW127887   1.275   2.785  15.452  1.0536  3.6105 -0.1756
 5475SOL    HW227888   1.258   2.907  15.532  0.6424  0.1501  2.0282
 5476SOL     OW27889   3.400   0.742  14.369 -0.3168  0.1906 -0.0849
 5476SOL    HW127890   3.313   0.782  14.367 -0.9492 -1.2214 -1.1155
 5476SOL    HW227891   3.392   0.682  14.294 -0.4462  0.2256 -0.0991
 5477SOL     OW27892   2.972   2.805  16.658 -0.4777 -0.3051  0.3073
 5477SOL    HW127893   3.009   2.753  16.587  0.7334  0.8610  0.0670
 5477SOL    HW227894   3.039   2.873  16.655 -0.9756 -0.0758 -5.3526
 5478SOL     OW27895   3.076   1.481   7.172  0.3903  0.4772 -0.0045
 5478SOL    HW127896   3.105   1.563   7.213  2.2381 -0.1576 -0.0492
 5478SOL    HW227897   3.123   1.489   7.089 -0.4957 -1.6444 -0.6973
 5479SOL     OW27898   1.831   0.337   4.203 -0.6714 -0.3402 -0.0325
 5479SOL    HW127899   1.898   0.295   4.256 -2.4666 -3.1523  0.0461
 5479SOL    HW227900   1.763   0.270   4.216 -1.4106  0.4302  0.0645
 5480SOL     OW27901   2.715   0.984  16.394  0.3853 -0.2043  0.2894
 5480SOL    HW127902   2.717   0.896  16.431 -0.5469 -1.6305 -3.0911
 5480SOL    HW227903   2.802   0.992  16.354  1.2915 -2.4467  1.8091
 5481SOL     OW27904   3.084   3.049   2.480  0.2391 -0.6105  0.0280
 5481SOL    HW127905   3.146   2.978   2.495 -1.0917 -1.5312  1.1628
 5481SOL    HW227906   3.048   3.038   2.568 -0.7933  1.6501 -0.0988
 5482SOL     OW27907   0.027   1.743   8.074 -0.0426 -0.2137 -0.2833
 5482SOL    HW127908   4.711   1.793   8.001  2.3644  2.3570  0.2175
 5482SOL    HW227909   0.053   1.661   8.034  1.7794  0.1289  0.2309
 5483SOL     OW27910   2.501   1.909   4.525  0.0116  0.4846  0.1786
 5483SOL    HW127911   2.581   1.954   4.497  0.4406 -1.0336 -1.0325
 5483SOL    HW227912   2.478   1.976   4.590 -0.5379 -0.6242  1.1211
 5484SOL     OW27913   2.534   1.098   1.993 -0.1077  0.0754 -0.8177
 5484SOL    HW127914   2.581   1.017   2.013  1.2007  1.4975  1.8613
 5484SOL    HW227915   2.444   1.066   1.996  0.2281 -0.7207  0.9276
 5485SOL     OW27916   3.330   4.215   8.239  0.1695 -0.2222 -0.5435
 5485SOL    HW127917   3.328   4.198   8.333  0.2455 -1.0207 -0.6863
 5485SOL    HW227918   3.267   4.287   8.233 -0.1568 -0.5759 -1.4186
 5486SOL     OW27919   0.859   0.031   3.467 -0.1049  0.1481  0.4605
 5486SOL    HW127920   0.923   0.005   3.533 -0.0145 -1.5428 -0.2962
 5486SOL    HW227921   0.915   0.019   3.390  0.0504 -1.4045  0.8154
 5487SOL     OW27922   4.182   2.351   5.767  0.0239 -0.7379  0.8148
 5487SOL    HW127923   4.195   2.257   5.753  2.8328 -0.4194  1.2931
 5487SOL    HW227924   4.131   2.366   5.688  0.1135  0.7405  1.0411
 5488SOL     OW27925   3.864   3.790  17.125  0.1147 -0.2246 -0.4529
 5488SOL    HW127926   3.798   3.830  17.069 -1.5627 -1.2026  0.8383
 5488SOL    HW227927   3.924   3.761  17.055  3.1659 -0.5807  2.2834
 5489SOL     OW27928   1.502   0.932   4.793 -0.6431  0.4794 -0.4180
 5489SOL    HW127929   1.550   0.861   4.835  0.6362  0.2658 -2.2483
 5489SOL    HW227930   1.450   0.870   4.742 -0.8573 -0.6695  1.1977
 5490SOL     OW27931   3.134   2.501   6.001  0.3643 -0.3608  0.2422
 5490SOL    HW127932   3.225   2.503   6.031  0.7458  1.0960 -0.9911
 5490SOL    HW227933   3.101   2.488   6.090 -1.5425  0.1721 -0.3834
 5491SOL     OW27934   3.639   1.502   9.964  0.1334  0.3749 -0.1252
 5491SOL    HW127935   3.637   1.423  10.017 -1.2394  1.4875  1.4763
 5491SOL    HW227936   3.690   1.483   9.885  2.1812 -2.9742  1.9851
 5492SOL     OW27937   4.198   1.016   5.693 -0.2027  0.6761 -0.2788
 5492SOL    HW127938   4.127   1.004   5.756 -0.0051 -0.0925 -0.1975
 5492SOL    HW227939   4.257   0.947   5.724 -0.2107  1.6807  1.9651
 5493SOL     OW27940   1.951   1.366   5.638 -0.3198  0.9469 -0.1442
 5493SOL    HW127941   1.941   1.292   5.577 -0.1922  0.3549  0.5581
 5493SOL    HW227942   1.861   1.397   5.643 -1.1307 -1.2251 -0.8328
 5494SOL     OW27943   4.317   0.902   8.388  0.1966  0.3596 -0.6186
 5494SOL    HW127944   4.374   0.974   8.416 -0.5338  0.2515  1.1625
 5494SOL    HW227945   4.229   0.939   8.394 -0.2667 -0.6280 -1.2288
 5495SOL     OW27946   1.668   3.796  16.855 -0.4579  0.6053  0.2577
 5495SOL    HW127947   1.673   3.712  16.809  1.2403  0.3225  0.9445
 5495SOL    HW227948   1.574   3.803  16.842 -0.2026  1.4442 -1.0670
 5496SOL     OW27949   4.426   0.127  17.160  0.1390  0.7741 -0.5309
 5496SOL    HW127950   4.352   0.135  17.221 -0.3696  1.1251 -1.1964
 5496SOL    HW227951   4.399   0.067  17.091  0.0628 -0.8607  0.9087
 5497SOL     OW27952   1.839   3.506   8.324 -0.2882  0.0274 -0.3383
 5497SOL    HW127953   1.842   3.503   8.229  0.7342  2.0536 -0.3512
 5497SOL    HW227954   1.753   3.546   8.327  0.4409  1.6963 -2.2547
 5498SOL     OW27955   3.765   2.881  16.331 -0.1136  0.6554  0.2085
 5498SOL    HW127956   3.727   2.796  16.312  2.3242 -0.4601  0.3261
 5498SOL    HW227957   3.707   2.905  16.404  0.9036 -2.5638  2.0331
 5499SOL     OW27958   0.142   2.050   1.794  0.0770 -0.2391 -0.1089
 5499SOL    HW127959   0.064   2.022   1.840  0.8174 -0.3623  1.0645
 5499SOL    HW227960   0.201   1.975   1.791  0.7967  0.4008 -2.3185
 5500SOL     OW27961   2.933   1.040   3.389 -0.1179 -0.4347  0.1394
 5500SOL    HW127962   2.849   0.995   3.382 -1.1331  1.2011  1.6031
 5500SOL    HW227963   2.946   1.023   3.483  1.2660  0.7044  0.1607
 5501SOL     OW27964   4.176   0.527   3.882  0.1365  0.5981  0.5633
 5501SOL    HW127965   4.229   0.450   3.902  1.5101  1.7921  1.5037
 5501SOL    HW227966   4.232   0.565   3.814 -0.0878  1.9433  1.1167
 5502SOL     OW27967   2.527   2.664  10.744  0.0268  0.0719 -0.0299
 5502SOL    HW127968   2.490   2.623  10.666  0.9072 -0.5466 -0.1141
 5502SOL    HW227969   2.595   2.599  10.762  1.3716  1.5509  0.1488
 5503SOL     OW27970   1.260   0.518  13.217 -0.5367  0.0865  0.1617
 5503SOL    HW127971   1.207   0.447  13.252 -1.8757  0.3576 -1.3056
 5503SOL    HW227972   1.301   0.463  13.150 -0.0676  0.6078  0.0228
 5504SOL     OW27973   3.752   1.239   8.104 -0.3470 -0.1070  0.0912
 5504SOL    HW127974   3.791   1.191   8.030  0.5236  0.5126  0.1512
 5504SOL    HW227975   3.781   1.330   8.106 -0.9218  0.0222  2.4790
 5505SOL     OW27976   1.811   4.237  14.857  0.2524 -0.0757 -0.2279
 5505SOL    HW127977   1.810   4.332  14.851  1.4943  0.0106  0.9385
 5505SOL    HW227978   1.743   4.211  14.919  1.4524 -0.3603  0.9558
 5506SOL     OW27979   1.144   1.032   3.743  0.1804  0.5948 -0.4880
 5506SOL    HW127980   1.237   1.042   3.719  0.4691 -3.0581 -0.8102
 5506SOL    HW227981   1.145   1.055   3.836  1.5091 -1.1306 -0.0731
 5507SOL     OW27982   2.541   3.815   8.997 -0.3710 -0.0820  0.1881
 5507SOL    HW127983   2.500   3.812   9.084  0.9810 -0.9536  0.7924
 5507SOL    HW227984   2.515   3.905   8.977 -0.4266 -0.0164  0.5544
 5508SOL     OW27985   2.819   4.366  15.635 -0.6951 -0.4907 -0.0811
 5508SOL    HW127986   2.831   4.397  15.725  1.9142  1.3229 -1.0706
 5508SOL    HW227987   2.835   4.450  15.592 -0.7066  0.9861  2.7904
 5509SOL     OW27988   2.579   0.578   2.299  0.0553 -0.0102  0.7381
 5509SOL    HW127989   2.658   0.618   2.262 -0.0191 -0.0591  0.5264
 5509SOL    HW227990   2.566   0.637   2.373 -1.5805  0.1101  0.3510
 5510SOL     OW27991   0.604   3.022   3.559 -0.7519 -0.0157 -0.5738
 5510SOL    HW127992   0.623   3.019   3.465  0.5879  0.5501 -0.3092
 5510SOL    HW227993   0.650   3.096   3.597 -3.7340  1.8944 -0.6257
 5511SOL     OW27994   0.687   4.349   2.698  0.6030  0.2972  0.1598
 5511SOL    HW127995   0.725   4.276   2.649 -0.1709  0.4126 -0.6261
 5511SOL    HW227996   0.591   4.340   2.694  0.7942 -1.9790  0.2754
 5512SOL     OW27997   4.102   1.799   8.428 -0.4288  0.1800 -0.4442
 5512SOL    HW127998   4.128   1.891   8.434  1.9825 -0.5731  0.3321
 5512SOL    HW227999   4.009   1.801   8.405 -0.3455  1.8895 -0.6578
 5513SOL     OW28000   1.507   3.395  17.410 -0.0715  0.5888 -0.3638
 5513SOL    HW128001   1.477   3.424  17.496 -0.1675  0.7528 -0.4517
 5513SOL    HW228002   1.511   3.301  17.427 -0.4424  0.8240  0.9855
 5514SOL     OW28003   0.948   0.938  15.732  0.1348  0.3622  0.0799
 5514SOL    HW128004   0.876   0.877  15.717  0.6306 -0.0224 -0.7844
 5514SOL    HW228005   0.959   0.966  15.823  1.3369  0.7063 -0.1667
 5515SOL     OW28006   3.198   3.428   6.562  1.0036 -0.0375 -0.2254
 5515SOL    HW128007   3.190   3.493   6.632  0.4582 -0.2571 -0.0813
 5515SOL    HW228008   3.244   3.486   6.501  0.3584  1.2024  0.4792
 5516SOL     OW28009   4.095   3.858  17.362 -0.2479 -1.1400  0.1583
 5516SOL    HW128010   4.008   3.893  17.344 -0.4988  0.1759  4.0118
 5516SOL    HW228011   4.065   3.803  17.434 -0.4242  1.0125  1.7480
 5517SOL     OW28012   3.080   4.452   6.858  0.0684 -0.0122 -0.2207
 5517SOL    HW128013   3.086   4.367   6.814 -3.0094  1.2136 -2.9959
 5517SOL    HW228014   3.171   4.477   6.875 -0.1763 -0.1249  1.2664
 5518SOL     OW28015   2.583   1.870   8.867 -0.2337 -0.0201  0.2877
 5518SOL    HW128016   2.502   1.873   8.917 -0.0698 -4.5296  0.8712
 5518SOL    HW228017   2.632   1.799   8.909  1.5170  1.7320  1.2019
 5519SOL     OW28018   2.617   2.203   6.350  0.8234 -0.1914  0.1877
 5519SOL    HW128019   2.645   2.112   6.363  2.7513  0.1828 -1.2969
 5519SOL    HW228020   2.561   2.190   6.274 -0.7560 -1.1011  1.5242
 5520SOL     OW28021   0.173   0.598   1.743 -0.0074  0.2289 -0.0372
 5520SOL    HW128022   0.262   0.563   1.750  0.3775  1.0733 -0.5707
 5520SOL    HW228023   0.190   0.691   1.725 -1.6500  0.7999  1.4245
 5521SOL     OW28024   2.487   1.227   4.803 -0.0594  0.1164  0.2556
 5521SOL    HW128025   2.472   1.208   4.711  3.7611 -0.7680 -0.1755
 5521SOL    HW228026   2.562   1.285   4.791  0.7338 -1.0282 -0.2870
 5522SOL     OW28027   3.457   2.976   3.121  0.0464 -0.4654  0.2071
 5522SOL    HW128028   3.544   2.978   3.161 -0.0276 -0.0233  0.3451
 5522SOL    HW228029   3.474   3.046   3.057 -0.3618 -0.8066 -0.2791
 5523SOL     OW28030   2.517   3.105   0.421  0.0098 -0.1043 -0.1351
 5523SOL    HW128031   2.423   3.097   0.405  0.1413 -0.6143 -0.6517
 5523SOL    HW228032   2.554   3.046   0.356 -0.3457  0.2471 -0.6548
 5524SOL     OW28033   4.165   2.703   3.752 -0.0951  0.2303  0.4769
 5524SOL    HW128034   4.224   2.737   3.685 -2.0129 -0.6278 -1.6585
 5524SOL    HW228035   4.080   2.716   3.710 -0.3366 -0.1848  0.8352
 5525SOL     OW28036   0.748   0.717   7.395  0.3040  0.3765  0.6412
 5525SOL    HW128037   0.761   0.627   7.425  0.2148  0.4100  0.7796
 5525SOL    HW228038   0.814   0.728   7.326  0.0293  1.5142  0.5585
 5526SOL     OW28039   1.161   0.184   6.079  0.1650 -0.2580 -0.2430
 5526SOL    HW128040   1.229   0.118   6.093 -1.3479 -0.9513  3.6786
 5526SOL    HW228041   1.093   0.132   6.036  0.1604 -0.5544  0.1235
 5527SOL     OW28042   2.383   2.195   5.896  0.1382 -0.2107  0.2164
 5527SOL    HW128043   2.442   2.171   5.825 -0.9800 -0.7335 -0.5359
 5527SOL    HW228044   2.341   2.266   5.847  1.6145  0.9871  0.6830
 5528SOL     OW28045   1.215   2.694   1.165 -0.7679  0.5615  0.8349
 5528SOL    HW128046   1.279   2.742   1.113 -0.0045 -0.8649  0.4574
 5528SOL    HW228047   1.152   2.765   1.175 -1.9385 -0.6063  1.7070
 5529SOL     OW28048   0.975   2.639   4.528  0.2003 -0.4142  0.7057
 5529SOL    HW128049   0.989   2.645   4.434 -1.2814  0.6211  0.5494
 5529SOL    HW228050   0.887   2.602   4.536 -0.2433  0.6122  0.4817
 5530SOL     OW28051   3.597   3.982   8.422  0.0948 -0.0075 -0.0069
 5530SOL    HW128052   3.635   3.899   8.454 -3.5814 -2.1711 -1.2911
 5530SOL    HW228053   3.676   4.035   8.410  1.9164 -2.5664  0.4489
 5531SOL     OW28054   4.371   2.461   8.672  0.7235  0.0350 -0.5001
 5531SOL    HW128055   4.357   2.505   8.756 -1.2187 -1.0366 -0.2600
 5531SOL    HW228056   4.289   2.480   8.627 -0.5019 -0.9082  1.3087
 5532SOL     OW28057   2.129   0.579  16.379 -0.1874 -0.5019  0.0609
 5532SOL    HW128058   2.077   0.660  16.386 -1.8475 -1.6105  0.5469
 5532SOL    HW228059   2.216   0.608  16.407  0.8605 -2.2065 -1.4565
 5533SOL     OW28060   2.361   1.624   3.816 -0.2818 -0.6848  0.0955
 5533SOL    HW128061   2.371   1.533   3.841 -1.4686 -0.9431 -0.3678
 5533SOL    HW228062   2.266   1.632   3.820 -0.3023 -0.1608 -1.2448
 5534SOL     OW28063   0.301   3.707   7.123 -0.3250 -0.3222 -0.5661
 5534SOL    HW128064   0.219   3.659   7.115 -0.2778 -0.4786 -0.0986
 5534SOL    HW228065   0.364   3.638   7.103 -0.0298  0.4586 -2.3534
 5535SOL     OW28066   3.378   2.526   8.444 -0.2588  0.3430  0.6937
 5535SOL    HW128067   3.350   2.607   8.401  0.9235  0.2041 -0.3226
 5535SOL    HW228068   3.326   2.546   8.523  0.2445 -0.0653  1.1257
 5536SOL     OW28069   3.953   4.169   3.772  0.1283  0.6432 -0.0702
 5536SOL    HW128070   3.958   4.190   3.866  0.1034  1.0506 -0.1578
 5536SOL    HW228071   3.956   4.260   3.741  1.6999  0.4411 -0.5031
 5537SOL     OW28072   3.954   0.416   4.744 -0.1519 -0.2881  0.2833
 5537SOL    HW128073   4.027   0.357   4.761 -2.3835 -3.0354  0.2456
 5537SOL    HW228074   3.951   0.471   4.823  0.1873 -0.5328  0.4633
 5538SOL     OW28075   1.859   0.333   6.126  0.1078  0.0850  0.0117
 5538SOL    HW128076   1.811   0.408   6.092 -0.5674 -0.7931 -0.9666
 5538SOL    HW228077   1.826   0.264   6.069 -1.2829  0.4979  0.3213
 5539SOL     OW28078   3.597   4.367  13.587 -0.5139  0.5693  0.6649
 5539SOL    HW128079   3.607   4.361  13.492  0.8103 -0.6309  0.8658
 5539SOL    HW228080   3.630   4.454  13.608 -0.3937  0.4029  1.1775
 5540SOL     OW28081   0.148   0.248   3.762  0.2449 -0.0876  0.0548
 5540SOL    HW128082   0.236   0.219   3.736  0.8400  1.3054  0.4785
 5540SOL    HW228083   0.089   0.184   3.722  1.8025 -0.8456 -1.0351
 5541SOL     OW28084   0.876   0.883   8.481 -0.0442 -0.1500 -0.2221
 5541SOL    HW128085   0.907   0.804   8.526 -0.3626  1.4291  2.7641
 5541SOL    HW228086   0.955   0.899   8.429 -0.8452 -2.6708 -2.1920
 5542SOL     OW28087   0.754   4.312  11.073 -0.6654  0.1289 -0.0438
 5542SOL    HW128088   0.748   4.322  10.978  0.7318 -2.2404 -0.3934
 5542SOL    HW228089   0.673   4.261  11.078 -0.8716  0.3927 -0.6454
 5543SOL     OW28090   4.276   4.640   1.547 -0.6384 -0.0509 -0.2504
 5543SOL    HW128091   4.360   4.639   1.500 -0.5872  1.8723 -0.2089
 5543SOL    HW228092   4.289   4.567   1.608  1.8684 -0.0922 -0.8174
 5544SOL     OW28093   2.185   3.850   7.097 -0.3469 -0.2731 -0.6084
 5544SOL    HW128094   2.220   3.894   7.175 -0.8609  0.0285 -0.5471
 5544SOL    HW228095   2.234   3.768   7.097  2.5196  1.4473 -0.7042
 5545SOL     OW28096   4.214   1.190   8.199 -0.0963  0.2362  0.1160
 5545SOL    HW128097   4.157   1.114   8.189  1.4021 -0.9861  0.9096
 5545SOL    HW228098   4.280   1.163   8.263 -0.1866  0.3886  0.2743
 5546SOL     OW28099   0.047   2.444   7.587 -0.8676 -0.4704  0.7934
 5546SOL    HW128100   0.063   2.471   7.677 -1.4291  0.7739  0.5228
 5546SOL    HW228101   4.716   2.366   7.605  0.1114 -1.1168  0.8620
 5547SOL     OW28102   0.492   3.857   3.654 -0.0979 -0.1305 -0.4926
 5547SOL    HW128103   0.502   3.931   3.594  0.6041 -0.4851 -0.8100
 5547SOL    HW228104   0.446   3.903   3.725 -2.3987  0.9585 -2.7250
 5548SOL     OW28105   4.593   4.511   6.481 -0.4150 -0.0599  0.2511
 5548SOL    HW128106   4.553   4.509   6.568 -1.3816  2.3529 -0.1305
 5548SOL    HW228107   4.683   4.511   6.513 -0.1414  0.8995 -0.5387
 5549SOL     OW28108   0.166   1.721   3.008  0.3782 -0.5022  0.8463
 5549SOL    HW128109   0.127   1.788   2.951  0.8314 -1.5963 -0.7331
 5549SOL    HW228110   0.200   1.663   2.941  0.6856  1.6950 -0.8905
 5550SOL     OW28111   1.102   3.437   5.720 -0.0985 -0.0189  0.1201
 5550SOL    HW128112   1.192   3.467   5.720  0.3210 -1.2849  0.1903
 5550SOL    HW228113   1.107   3.342   5.725  0.6992  0.0601  0.8015
 5551SOL     OW28114   1.276   4.444   8.252  0.4315  0.2605 -0.9217
 5551SOL    HW128115   1.320   4.394   8.321 -1.3408 -1.3964 -1.0003
 5551SOL    HW228116   1.207   4.490   8.300 -0.5225  0.6413 -2.6680
 5552SOL     OW28117   0.802   0.947  14.377  0.4321  0.3502 -0.0948
 5552SOL    HW128118   0.887   0.989  14.390  1.2216 -0.8862 -1.2595
 5552SOL    HW228119   0.825   0.854  14.381 -1.0018  0.0423  1.0811
 5553SOL     OW28120   3.674   4.549   6.592 -0.3258 -0.9071 -0.0459
 5553SOL    HW128121   3.634   4.620   6.643 -0.3347 -0.0058 -1.3073
 5553SOL    HW228122   3.739   4.595   6.539 -0.7636 -1.1635 -0.7882
 5554SOL     OW28123   0.925   0.528   5.038  0.4833 -0.0325  0.3246
 5554SOL    HW128124   0.856   0.488   4.986  0.1558 -0.3778  1.0214
 5554SOL    HW228125   1.002   0.472   5.031  1.0333  0.4727  2.3651
 5555SOL     OW28126   0.937   2.602  12.130  0.1681 -1.0057 -0.1898
 5555SOL    HW128127   0.955   2.604  12.036 -0.1421  1.6912 -0.1896
 5555SOL    HW228128   0.861   2.660  12.135  1.2870  0.5546 -1.3858
 5556SOL     OW28129   2.050   3.188   0.516  0.1235 -0.0084 -0.2261
 5556SOL    HW128130   2.113   3.176   0.587  2.6156 -0.2268 -2.4646
 5556SOL    HW228131   2.003   3.257   0.562  2.5027  1.2488  0.3242
 5557SOL     OW28132   3.474   1.592   7.658 -0.1410 -0.2764 -0.1530
 5557SOL    HW128133   3.550   1.537   7.674  1.5810  1.6481 -1.8092
 5557SOL    HW228134   3.452   1.571   7.567 -0.0351  0.3037 -0.3084
 5558SOL     OW28135   0.990   1.199   6.368  0.1821 -0.2407 -0.5351
 5558SOL    HW128136   1.006   1.279   6.319 -1.1899  0.1929 -0.2686
 5558SOL    HW228137   0.898   1.203   6.392  0.0011  0.2631 -1.3202
 5559SOL     OW28138   0.505   2.936   7.426  0.5880  0.3011 -0.0018
 5559SOL    HW128139   0.565   2.988   7.372 -0.4990  2.1201  0.5366
 5559SOL    HW228140   0.477   2.884   7.351  0.5621 -0.4859  0.5513
 5560SOL     OW28141   2.683   2.303   8.185  0.5096  0.0068 -0.3648
 5560SOL    HW128142   2.632   2.377   8.220 -1.7542 -0.7017 -2.1997
 5560SOL    HW228143   2.691   2.256   8.268  1.6498 -1.1695 -1.1585
 5561SOL     OW28144   2.313   2.932   7.099  0.2806 -0.0014 -0.3723
 5561SOL    HW128145   2.303   3.026   7.088  2.1006  0.0769 -1.4304
 5561SOL    HW228146   2.223   2.903   7.115  1.2879 -2.5515  0.6911
 5562SOL     OW28147   4.402   0.619   9.686  0.2190 -0.1002  0.2549
 5562SOL    HW128148   4.393   0.654   9.775 -0.3763 -0.2791  0.2673
 5562SOL    HW228149   4.432   0.700   9.647  0.0721 -0.2925 -0.2523
 5563SOL     OW28150   0.251   0.059   7.965 -0.6790 -0.7796  0.4417
 5563SOL    HW128151   0.211   0.145   7.973 -2.6614 -1.6677  0.2171
 5563SOL    HW228152   0.211   0.009   8.036  2.0858 -2.6813  0.6513
 5564SOL     OW28153   4.074   3.743   4.092 -0.0887 -0.1060  0.3991
 5564SOL    HW128154   4.055   3.826   4.047  0.8605 -0.7182 -1.1265
 5564SOL    HW228155   3.991   3.732   4.139  0.8001 -0.4267  1.8923
 5565SOL     OW28156   4.152   0.771  16.268  0.3579  0.2229  0.2189
 5565SOL    HW128157   4.191   0.846  16.314 -3.1995  1.4150  1.3077
 5565SOL    HW228158   4.154   0.704  16.337 -0.7152  0.6717  0.6855
 5566SOL     OW28159   0.394   0.652   6.738  0.0249 -0.2436  0.1205
 5566SOL    HW128160   0.342   0.656   6.657 -0.2246 -1.8493  0.1986
 5566SOL    HW228161   0.471   0.605   6.706 -0.1278  1.3176 -2.5448
 5567SOL     OW28162   2.701   3.222  13.996 -0.1402  0.1120  0.0282
 5567SOL    HW128163   2.685   3.269  14.077  0.5350  0.1119  0.1590
 5567SOL    HW228164   2.775   3.168  14.023 -0.1203 -0.4314 -1.0858
 5568SOL     OW28165   1.464   3.444   3.221 -0.2081 -0.4057  0.0938
 5568SOL    HW128166   1.374   3.471   3.242 -0.3157 -1.2731  0.7426
 5568SOL    HW228167   1.482   3.483   3.136 -0.9287 -0.9270 -0.3033
 5569SOL     OW28168   2.559   3.610   2.904  0.0325 -0.7019 -0.0658
 5569SOL    HW128169   2.546   3.684   2.964  2.5240 -1.2647  1.1644
 5569SOL    HW228170   2.584   3.662   2.828 -0.1807 -0.4581  0.0282
 5570SOL     OW28171   0.906   2.141  14.852  0.3373  0.8033  0.1133
 5570SOL    HW128172   0.874   2.230  14.835 -0.8291  0.5711  1.0336
 5570SOL    HW228173   0.888   2.087  14.775  1.6338  1.5765 -0.7277
 5571SOL     OW28174   2.424   1.972   6.778  0.3669  0.3264 -0.3517
 5571SOL    HW128175   2.514   1.940   6.769  1.0340  1.4607  2.0701
 5571SOL    HW228176   2.446   2.055   6.821 -1.3071 -0.2663  1.6777
 5572SOL     OW28177   0.351   3.226  12.116 -0.2263  0.3095 -0.0461
 5572SOL    HW128178   0.393   3.157  12.167 -0.7918 -0.4179 -0.5715
 5572SOL    HW228179   0.279   3.257  12.169 -1.2611 -2.9996  0.4897
 5573SOL     OW28180   3.211   1.193   8.853 -0.3561 -0.4737  0.4177
 5573SOL    HW128181   3.148   1.135   8.811 -2.3562  1.5582  0.5699
 5573SOL    HW228182   3.191   1.179   8.946 -0.1761 -0.0579  0.5205
 5574SOL     OW28183   2.508   2.757  17.159  0.1928 -0.2945 -0.0409
 5574SOL    HW128184   2.545   2.674  17.190  2.1251  0.0152 -1.4551
 5574SOL    HW228185   2.567   2.756  17.083  0.6239  3.1143  0.2217
 5575SOL     OW28186   3.814   3.779   8.120 -0.4833  0.1268 -0.7802
 5575SOL    HW128187   3.838   3.837   8.192 -2.3816  0.6794 -0.5886
 5575SOL    HW228188   3.725   3.814   8.113 -1.1455 -1.1584  1.3502
 5576SOL     OW28189   0.989   2.364   7.585 -0.2582  0.7303  0.8996
 5576SOL    HW128190   0.896   2.373   7.565  0.4787  0.0427 -2.8339
 5576SOL    HW228191   0.985   2.344   7.679 -0.9285  0.4307  0.8104
 5577SOL     OW28192   0.620   4.467   9.295  0.1051 -0.0756  0.0444
 5577SOL    HW128193   0.537   4.443   9.335  1.3701 -1.2779  1.9541
 5577SOL    HW228194   0.603   4.492   9.204 -1.7341  1.1808  0.7342
 5578SOL     OW28195   1.627   3.678   2.535  0.5312 -0.5548 -0.0988
 5578SOL    HW128196   1.697   3.636   2.585  1.5958  0.0866 -1.0296
 5578SOL    HW228197   1.566   3.607   2.514 -0.4113 -0.3998  2.1382
 5579SOL     OW28198   3.111   0.541   5.009  0.0885 -0.1991 -0.5306
 5579SOL    HW128199   3.118   0.631   4.976  3.2973  0.1582  1.0638
 5579SOL    HW228200   3.127   0.492   4.928 -0.5577  1.7500 -1.8246
 5580SOL     OW28201   0.830   3.748  11.932 -0.0463  0.2248  0.5521
 5580SOL    HW128202   0.814   3.657  11.911 -1.5756  0.9111 -1.2658
 5580SOL    HW228203   0.817   3.740  12.026 -0.8905  0.2718  0.4421
 5581SOL     OW28204   4.351   0.552   5.926 -0.3409  0.0257  0.1790
 5581SOL    HW128205   4.343   0.482   5.991  5.1334  0.9275  1.8285
 5581SOL    HW228206   4.441   0.578   5.946  0.3439 -0.7772 -1.8183
 5582SOL     OW28207   1.322   0.510   3.874  0.0127 -0.5370 -0.6008
 5582SOL    HW128208   1.369   0.591   3.890  0.0229 -0.1606 -2.4684
 5582SOL    HW228209   1.296   0.499   3.965 -1.0820 -2.4780 -1.1325
 5583SOL     OW28210   3.321   2.083   3.769 -0.7404 -0.4089  0.0339
 5583SOL    HW128211   3.296   2.060   3.679  0.4153 -2.1980  0.1581
 5583SOL    HW228212   3.255   2.152   3.771  1.1843  1.4285  0.1129
 5584SOL     OW28213   4.147   0.945   4.235  0.2874  0.4461  0.2427
 5584SOL    HW128214   4.146   0.899   4.151  0.0925 -0.4075  0.7092
 5584SOL    HW228215   4.230   0.989   4.219 -0.8247  1.7372 -1.9936
 5585SOL     OW28216   0.056   1.120   2.798 -0.1882 -1.0043 -0.0195
 5585SOL    HW128217   4.687   1.102   2.777 -0.0555  0.9113 -2.2231
 5585SOL    HW228218   0.049   1.146   2.890  1.9836  0.9950 -0.3901
 5586SOL     OW28219   4.585   1.731  16.828  0.0486 -0.1750 -0.0921
 5586SOL    HW128220   4.616   1.674  16.758  0.7015 -0.8932  0.7731
 5586SOL    HW228221   4.668   1.745  16.872 -0.6438 -0.6722  1.3913
 5587SOL     OW28222   0.311   1.168   6.871  0.1981 -0.4223  0.2836
 5587SOL    HW128223   0.302   1.258   6.839  0.6402 -1.0744 -1.6901
 5587SOL    HW228224   0.345   1.110   6.803  0.1311 -0.7717  0.5518
 5588SOL     OW28225   3.181   3.222   6.191 -0.4194 -0.6601 -0.8733
 5588SOL    HW128226   3.244   3.219   6.120 -0.9571  1.5688 -1.4428
 5588SOL    HW228227   3.099   3.216   6.142 -0.9103  0.7767 -0.2404
 5589SOL     OW28228   1.481   4.153  13.094  0.3835  0.1799  0.0836
 5589SOL    HW128229   1.516   4.065  13.107  1.0618  0.6885  1.6752
 5589SOL    HW228230   1.523   4.183  13.013 -0.0939  0.9916  0.1388
 5590SOL     OW28231   3.666   1.610   4.449 -0.1299 -0.2728 -0.6072
 5590SOL    HW128232   3.742   1.570   4.492 -2.1568 -2.3576  0.9999
 5590SOL    HW228233   3.597   1.556   4.488 -0.7114  0.2192 -0.9660
 5591SOL     OW28234   4.625   3.913   6.558  0.0094 -0.4863  0.4818
 5591SOL    HW128235   4.629   3.942   6.467  0.6242  0.2612  0.7476
 5591SOL    HW228236   4.715   3.933   6.585 -0.7877  1.5748  1.6475
 5592SOL     OW28237   0.027   4.306   9.375 -0.1252 -0.0243 -0.2349
 5592SOL    HW128238   0.119   4.283   9.362 -0.4157 -0.3265 -1.7115
 5592SOL    HW228239   0.003   4.214   9.376  1.4941 -0.4476 -0.0952
 5593SOL     OW28240   1.863   1.479   4.850  0.2106  0.3928  0.5081
 5593SOL    HW128241   1.789   1.473   4.911 -0.6008 -1.1924 -0.6302
 5593SOL    HW228242   1.847   1.391   4.816 -0.0003  0.2241  1.0449
 5594SOL     OW28243   3.613   1.339   6.295 -0.5092 -0.6665  0.3545
 5594SOL    HW128244   3.610   1.285   6.374  2.5405 -0.8524  0.3255
 5594SOL    HW228245   3.573   1.419   6.330 -2.1636 -1.0320 -0.6740
 5595SOL     OW28246   0.816   2.760  16.663  0.5255  0.0825  0.3429
 5595SOL    HW128247   0.856   2.673  16.668  2.1215  0.8316  0.5938
 5595SOL    HW228248   0.789   2.766  16.754 -0.2165 -0.2321  0.1415
 5596SOL     OW28249   4.704   1.412   6.010 -0.5069 -0.2886 -0.7539
 5596SOL    HW128250   4.631   1.467   5.982 -0.0637  1.5467  1.6294
 5596SOL    HW228251   4.692   1.425   6.104 -0.1612 -0.6511 -0.6631
 5597SOL     OW28252   4.379   0.334  10.472  0.5387 -0.2881  0.2493
 5597SOL    HW128253   4.471   0.312  10.487  1.2570  1.3698 -1.6601
 5597SOL    HW228254   4.332   0.253  10.490 -1.0616  0.8107  1.0746
 5598SOL     OW28255   2.575   3.538   1.335 -0.0462 -0.0254  0.6639
 5598SOL    HW128256   2.608   3.452   1.360 -1.0242 -0.7692 -0.6377
 5598SOL    HW228257   2.531   3.561   1.417 -1.2033  3.6218 -0.9932
 5599SOL     OW28258   2.846   2.048   6.621 -0.2338 -0.4641  0.3772
 5599SOL    HW128259   2.934   2.013   6.636  0.1627 -0.0630 -1.0042
 5599SOL    HW228260   2.792   1.992   6.677 -1.3416 -0.9997 -1.2384
 5600SOL     OW28261   0.562   0.532   1.287  0.2942 -0.5002 -0.1081
 5600SOL    HW128262   0.475   0.497   1.266  0.0330  0.0267  0.0826
 5600SOL    HW228263   0.593   0.565   1.203 -1.5461 -2.2439 -1.4744
 5601SOL     OW28264   2.687   3.565  12.553  0.1872  0.1327  0.2458
 5601SOL    HW128265   2.628   3.490  12.546 -3.3826  2.8185  1.3588
 5601SOL    HW228266   2.769   3.532  12.517  1.0596 -1.4353  3.6338
 5602SOL     OW28267   0.969   2.611  10.989 -0.3375 -0.0472 -0.0059
 5602SOL    HW128268   1.019   2.665  10.927 -0.3884  0.7022  0.6120
 5602SOL    HW228269   0.886   2.593  10.945 -1.5855 -1.1598  2.8353
 5603SOL     OW28270   0.163   2.108  11.779  0.5263 -0.2588  0.2577
 5603SOL    HW128271   0.167   2.050  11.855  1.9132 -0.6041 -0.0821
 5603SOL    HW228272   0.095   2.160  11.821  0.7925 -1.2217  1.8700
 5604SOL     OW28273   1.240   2.603   7.330 -0.0127  0.6065 -0.1113
 5604SOL    HW128274   1.297   2.545   7.280 -0.5789  0.7254 -0.8805
 5604SOL    HW228275   1.154   2.579   7.295  0.4880  0.4421 -1.2194
 5605SOL     OW28276   1.735   4.539  17.297 -0.2978  0.3583  0.5752
 5605SOL    HW128277   1.801   4.595  17.257 -0.9788 -1.0022 -2.5014
 5605SOL    HW228278   1.747   4.471  17.231  1.8601  1.2386  0.0761
 5606SOL     OW28279   3.076   0.173   5.851  0.6331 -0.4416  0.4177
 5606SOL    HW128280   3.059   0.262   5.881 -0.7073 -1.4278  2.5976
 5606SOL    HW228281   2.994   0.140   5.814 -1.0423  1.7322  2.2049
 5607SOL     OW28282   2.096   4.606  11.150  0.0715 -0.0729  0.2056
 5607SOL    HW128283   2.107   4.701  11.162 -2.2222  0.3268 -1.0557
 5607SOL    HW228284   2.176   4.592  11.100 -0.3815  0.1074 -0.5608
 5608SOL     OW28285   4.438   2.266   3.814 -0.0752 -0.3458  0.0633
 5608SOL    HW128286   4.359   2.281   3.762 -0.0007  1.2183  0.4025
 5608SOL    HW228287   4.494   2.220   3.751  0.7049  0.7591 -0.0604
 5609SOL     OW28288   3.410   1.557  15.405 -0.2434 -0.0006  0.3531
 5609SOL    HW128289   3.390   1.484  15.463 -0.8806 -1.0440 -1.1793
 5609SOL    HW228290   3.339   1.616  15.432  0.0358 -0.1275  1.3764
 5610SOL     OW28291   2.681   0.835  11.547 -0.4652  0.3989  0.2331
 5610SOL    HW128292   2.654   0.926  11.561 -2.0095  0.1235 -1.0297
 5610SOL    HW228293   2.774   0.854  11.559 -0.6892  1.1145  0.8786
 5611SOL     OW28294   1.416   4.459   8.626 -0.4819  0.2496 -0.0548
 5611SOL    HW128295   1.331   4.446   8.669  0.0354  0.5033  1.0299
 5611SOL    HW228296   1.438   4.542   8.668  2.6728 -0.0828 -1.0444
 5612SOL     OW28297   3.509   0.643   5.566 -0.0698 -0.3276 -0.2836
 5612SOL    HW128298   3.499   0.738   5.571  1.1079 -0.1822 -0.9999
 5612SOL    HW228299   3.598   0.636   5.534  0.4956 -0.5135  1.3365
 5613SOL     OW28300   0.430   2.474   9.053 -0.1038 -0.2343 -0.2008
 5613SOL    HW128301   0.384   2.517   8.982 -0.0117  2.5272  1.4081
 5613SOL    HW228302   0.410   2.540   9.120  1.5914 -1.1842  1.2660
 5614SOL     OW28303   2.618   0.410   8.810  0.2322 -0.5470 -0.4295
 5614SOL    HW128304   2.640   0.456   8.891 -1.5929  2.1191 -1.4393
 5614SOL    HW228305   2.704   0.375   8.787  1.5405  1.7778  0.8568
 5615SOL     OW28306   2.834   2.608   3.172  0.0973  0.2825  0.1886
 5615SOL    HW128307   2.908   2.552   3.198  1.9261  2.8204  0.4973
 5615SOL    HW228308   2.818   2.585   3.081 -2.2773  2.0641  0.1742
 5616SOL     OW28309   2.740   3.785   3.783 -0.2448  0.0148 -0.2009
 5616SOL    HW128310   2.674   3.845   3.819  0.2415  1.3059 -1.4867
 5616SOL    HW228311   2.770   3.838   3.709  0.6211  1.7242  1.3724
 5617SOL     OW28312   3.839   3.349  13.969  0.3952  0.4223  0.0406
 5617SOL    HW128313   3.907   3.304  14.018 -1.7159 -1.7813  0.9313
 5617SOL    HW228314   3.850   3.441  13.994 -0.3284  0.5426 -0.0853
 5618SOL     OW28315   3.474   4.609  17.316 -0.0848  0.1997 -0.2901
 5618SOL    HW128316   3.472   4.703  17.299 -1.9807  0.3557  0.8131
 5618SOL    HW228317   3.509   4.613  17.405 -0.1227 -1.5328 -0.1863
 5619SOL     OW28318   3.072   0.936   5.950 -0.5515  0.0788  0.0820
 5619SOL    HW128319   3.154   0.969   5.987  0.8698 -2.1663 -1.0694
 5619SOL    HW228320   3.094   0.843   5.944  1.3532  0.4613  1.3333
 5620SOL     OW28321   1.010   2.064   7.624  0.3110  0.0808  0.1870
 5620SOL    HW128322   0.975   2.149   7.595  0.0337 -0.9164 -2.3482
 5620SOL    HW228323   1.078   2.087   7.687  1.1366 -1.4043 -0.1641
 5621SOL     OW28324   2.973   0.454   9.509 -0.2739  0.3288  0.2624
 5621SOL    HW128325   2.945   0.417   9.593 -1.5429  2.6644  0.8717
 5621SOL    HW228326   2.894   0.473   9.458 -0.6124  0.7129  0.9304
 5622SOL     OW28327   1.596   3.099  12.819  0.0438  0.2549 -0.0998
 5622SOL    HW128328   1.674   3.103  12.763 -2.0765  0.6926 -3.0073
 5622SOL    HW228329   1.607   3.173  12.879 -3.0757 -0.0602  0.8438
 5623SOL     OW28330   2.358   4.283   5.915  0.0144 -0.2060 -0.3043
 5623SOL    HW128331   2.418   4.349   5.882 -0.2797  0.7296  1.0221
 5623SOL    HW228332   2.395   4.249   5.997  2.2125  1.1569 -0.7545
 5624SOL     OW28333   0.708   2.547   6.744 -0.4204 -0.0959 -0.0831
 5624SOL    HW128334   0.792   2.529   6.787  0.0152  2.6322  0.1510
 5624SOL    HW228335   0.725   2.628   6.696  0.2011 -0.2767 -0.1704
 5625SOL     OW28336   1.663   1.888   4.289 -0.3701 -0.0531  0.4250
 5625SOL    HW128337   1.586   1.835   4.268 -0.4159 -0.2179  1.0047
 5625SOL    HW228338   1.705   1.887   4.203  2.2550  0.1942  1.7126
 5626SOL     OW28339   4.489   3.965   5.233 -0.1803 -0.0188  0.4439
 5626SOL    HW128340   4.553   3.929   5.171 -0.6295  1.3687 -0.8117
 5626SOL    HW228341   4.422   4.004   5.178 -2.1052 -0.5378  2.3806
 5627SOL     OW28342   4.298   0.599   5.036 -0.7188  0.2386 -0.2755
 5627SOL    HW128343   4.329   0.522   4.987  0.4676 -0.1362  1.0618
 5627SOL    HW228344   4.229   0.567   5.094 -1.7770  2.1659 -0.4741
 5628SOL     OW28345   3.045   1.348   5.575 -0.1800 -0.0528  0.0617
 5628SOL    HW128346   3.050   1.419   5.512 -2.7047  0.0593 -0.0119
 5628SOL    HW228347   3.135   1.318   5.563  1.0271  2.6850  2.2137
 5629SOL     OW28348   0.386   2.043   4.878  0.1520 -0.3701  0.0725
 5629SOL    HW128349   0.390   2.069   4.786 -0.2154 -2.3749 -0.5141
 5629SOL    HW228350   0.290   2.045   4.885  0.1481  0.4966 -0.1653
 5630SOL     OW28351   3.790   0.083  16.844 -0.5730  0.0652 -0.2468
 5630SOL    HW128352   3.877   0.045  16.859 -0.0407  0.3309 -2.5825
 5630SOL    HW228353   3.762   0.113  16.930 -3.6401 -0.7054 -0.9881
 5631SOL     OW28354   2.053   4.445  11.360 -0.2546 -0.1921  0.7452
 5631SOL    HW128355   2.133   4.417  11.404  1.7685  2.2348 -1.3931
 5631SOL    HW228356   2.080   4.489  11.280 -0.8322 -1.5604 -0.2119
 5632SOL     OW28357   0.462   1.896  11.826  0.4448 -0.0938 -0.4391
 5632SOL    HW128358   0.453   1.801  11.833 -1.6488  0.0458 -1.1663
 5632SOL    HW228359   0.450   1.935  11.912  0.6890  0.3127 -0.5867
 5633SOL     OW28360   1.143   1.849   4.924 -0.0056 -0.6290  0.4967
 5633SOL    HW128361   1.153   1.811   5.011  2.3228  2.4565  1.6117
 5633SOL    HW228362   1.127   1.943   4.937 -2.1826 -0.8059 -0.8617
 5634SOL     OW28363   3.652   0.532   7.731 -0.4557  0.0390  0.4893
 5634SOL    HW128364   3.639   0.446   7.771  1.3392 -0.6233 -0.3685
 5634SOL    HW228365   3.657   0.509   7.638 -1.0948  1.0548  0.2012
 5635SOL     OW28366   1.453   2.729   4.255  0.9825  0.0373  0.7105
 5635SOL    HW128367   1.483   2.785   4.327  2.7005  0.9633 -0.7062
 5635SOL    HW228368   1.407   2.787   4.194  2.1166  0.6779  0.4618
 5636SOL     OW28369   2.673   0.545   3.636  0.0629 -0.3843 -0.3595
 5636SOL    HW128370   2.668   0.514   3.545 -0.3548 -0.3473 -0.3464
 5636SOL    HW228371   2.743   0.610   3.630 -0.2438 -0.0176  0.1089
 5637SOL     OW28372   0.065   4.222   3.436 -0.6072  0.3197  0.0301
 5637SOL    HW128373   0.126   4.173   3.492  0.5529  0.5894 -1.0142
 5637SOL    HW228374   0.118   4.301   3.427 -1.2925  0.5302 -2.0243
 5638SOL     OW28375   3.920   4.109  12.195 -0.0161  0.2941 -0.0891
 5638SOL    HW128376   3.957   4.025  12.224  1.5789  2.3472  3.7495
 5638SOL    HW228377   3.944   4.107  12.102  0.0623 -0.0724 -0.0607
 5639SOL     OW28378   4.689   3.704   5.213  0.2833 -0.1314  0.7498
 5639SOL    HW128379   4.682   3.616   5.176 -2.0410 -1.2484  3.8134
 5639SOL    HW228380   4.683   3.758   5.134  2.2309  0.4026  0.9826
 5640SOL     OW28381   2.698   1.178  11.872 -0.6167 -0.4107 -0.3276
 5640SOL    HW128382   2.619   1.231  11.885  0.3937  0.4815  2.1364
 5640SOL    HW228383   2.765   1.231  11.915  0.0391 -1.4453 -0.0980
 5641SOL     OW28384   3.834   1.860   6.109 -0.1028 -0.3432 -0.1880
 5641SOL    HW128385   3.900   1.878   6.176  0.5233 -0.1382 -0.8746
 5641SOL    HW228386   3.877   1.785   6.070  0.5690 -1.3346  2.4159
 5642SOL     OW28387   4.266   1.482   5.779 -0.4331 -0.1614 -0.7626
 5642SOL    HW128388   4.177   1.508   5.759  0.1348  1.6444 -0.8709
 5642SOL    HW228389   4.281   1.399   5.733 -0.5156 -0.2025 -0.7155
 5643SOL     OW28390   1.477   2.690  13.782 -0.5789 -0.0520  0.1092
 5643SOL    HW128391   1.466   2.770  13.730 -0.1562  1.0789  1.7875
 5643SOL    HW228392   1.476   2.723  13.871  0.4985 -1.0372  0.4862
 5644SOL     OW28393   0.678   1.371   6.110  0.3862  0.8329 -0.9973
 5644SOL    HW128394   0.682   1.337   6.021  0.0933 -1.9529  0.0607
 5644SOL    HW228395   0.650   1.460   6.088  0.6444  0.5298 -2.5243
 5645SOL     OW28396   2.406   0.802  16.486  0.0370 -0.3923  0.2378
 5645SOL    HW128397   2.361   0.725  16.522 -1.6990  0.7535  0.5172
 5645SOL    HW228398   2.497   0.780  16.508  0.4333  2.6274  1.6784
 5646SOL     OW28399   1.429   0.390   6.008 -0.8988 -0.0069  0.3774
 5646SOL    HW128400   1.340   0.355   6.011 -1.1038  0.5493  0.7379
 5646SOL    HW228401   1.411   0.475   5.968 -1.6444 -1.1179 -1.6979
 5647SOL     OW28402   3.861   1.521   4.034 -0.4370 -0.5604 -0.2545
 5647SOL    HW128403   3.796   1.565   3.979 -0.4459  1.0382  1.0145
 5647SOL    HW228404   3.943   1.554   3.997 -0.9260  1.8476  0.7699
 5648SOL     OW28405   2.907   4.609   5.136 -0.3640 -0.1605 -0.4704
 5648SOL    HW128406   2.971   4.596   5.065  3.4249  0.7749  2.8002
 5648SOL    HW228407   2.831   4.557   5.111 -0.4939  0.0855 -0.5846
 5649SOL     OW28408   1.872   1.522   9.469 -0.0359  0.4585  0.4341
 5649SOL    HW128409   1.902   1.463   9.538  0.3295  0.4299  0.2513
 5649SOL    HW228410   1.949   1.573   9.445  1.1642 -0.9750  1.2737
 5650SOL     OW28411   0.350   1.721  11.603 -0.2097 -0.3270  0.6281
 5650SOL    HW128412   0.310   1.654  11.657 -1.8621 -0.0325 -0.2512
 5650SOL    HW228413   0.295   1.716  11.526  0.3046 -0.4006  0.2619
 5651SOL     OW28414   3.324   4.304   1.778 -0.4622 -0.1415 -0.2365
 5651SOL    HW128415   3.241   4.256   1.775 -0.9642  0.6407  1.1901
 5651SOL    HW228416   3.369   4.268   1.855 -0.6613 -2.7401 -1.3275
 5652SOL     OW28417   0.029   0.029   6.471  0.3114 -0.4458  0.0426
 5652SOL    HW128418   0.109   0.078   6.453 -2.2023  3.4558 -0.5292
 5652SOL    HW228419   0.078   4.677   6.507  0.6405 -0.3769 -0.2678
 5653SOL     OW28420   2.951   0.063  14.312  0.3573  0.2162  0.2358
 5653SOL    HW128421   3.000   4.706  14.290  1.1753 -0.5529  4.7577
 5653SOL    HW228422   2.953   0.070  14.408  0.3049  0.3343  0.2280
 5654SOL     OW28423   2.674   3.805   6.031  0.0322  0.0405  0.1061
 5654SOL    HW128424   2.689   3.837   5.943 -1.3496  0.4846  0.0279
 5654SOL    HW228425   2.725   3.868   6.082  0.3664  0.1077 -0.3215
 5655SOL     OW28426   1.142   2.414   0.310  0.2287 -0.1422 -0.5298
 5655SOL    HW128427   1.095   2.345   0.358 -1.0763  0.8283 -0.3975
 5655SOL    HW228428   1.233   2.385   0.318  0.5157  0.4092 -1.8599
 5656SOL     OW28429   3.350   1.418   6.460  0.2242 -0.3211  0.3046
 5656SOL    HW128430   3.338   1.368   6.379  1.1644  1.8757 -1.1946
 5656SOL    HW228431   3.271   1.470   6.452 -0.2986 -0.9080  1.8470
 5657SOL     OW28432   2.709   4.656   0.843  0.0088  0.6185 -0.4632
 5657SOL    HW128433   2.789   4.617   0.810 -0.5768 -1.7224  0.8961
 5657SOL    HW228434   2.710   0.019   0.799  2.4439  0.0750 -1.4199
 5658SOL     OW28435   0.671   3.979   2.671 -0.1003 -0.1146  0.1274
 5658SOL    HW128436   0.682   4.046   2.603  2.0836 -1.4180 -0.7893
 5658SOL    HW228437   0.723   4.021   2.740 -0.3766 -1.2326  1.0109
 5659SOL     OW28438   4.329   2.232  15.133 -0.1084  0.2778 -0.4623
 5659SOL    HW128439   4.285   2.182  15.201  0.9414  3.6620  2.6445
 5659SOL    HW228440   4.262   2.237  15.065  0.4333 -0.7593 -1.0856
 5660SOL     OW28441   4.197   1.777   5.959 -0.7518  0.4346 -0.4714
 5660SOL    HW128442   4.243   1.782   6.043  1.0609 -0.1125 -1.4283
 5660SOL    HW228443   4.115   1.732   5.980  1.0311 -2.1366  1.0209
 5661SOL     OW28444   3.518   2.966   4.560 -0.6734  0.0061  0.4467
 5661SOL    HW128445   3.446   2.920   4.602 -1.7925 -0.4287 -1.9417
 5661SOL    HW228446   3.560   3.001   4.639  1.5442 -2.1422  0.2361
 5662SOL     OW28447   4.400   0.926  16.292  0.8081 -0.1781 -0.0693
 5662SOL    HW128448   4.392   0.935  16.387 -0.5329  1.7207 -0.3508
 5662SOL    HW228449   4.473   0.986  16.276  1.4842 -0.2364  2.7719
 5663SOL     OW28450   0.870   2.623   6.261  0.4034  0.7745 -0.5244
 5663SOL    HW128451   0.775   2.632   6.252  0.1336 -0.9706  0.6410
 5663SOL    HW228452   0.881   2.570   6.182  0.8278  1.2622 -0.7851
 5664SOL     OW28453   2.254   3.436   3.078  0.1996 -0.4898  0.3914
 5664SOL    HW128454   2.255   3.341   3.072  0.3404 -0.4785  0.2118
 5664SOL    HW228455   2.327   3.461   3.134  0.2357 -0.2567  0.2416
 5665SOL     OW28456   2.100   4.438   6.379 -0.2680 -0.4290 -0.2107
 5665SOL    HW128457   2.153   4.367   6.418  0.3787 -0.6912 -1.5784
 5665SOL    HW228458   2.154   4.449   6.301 -2.3894  0.3487 -1.5562
 5666SOL     OW28459   1.190   0.331   8.186 -0.7955  0.1168  0.2387
 5666SOL    HW128460   1.150   0.373   8.110  2.2640  1.2413 -0.7296
 5666SOL    HW228461   1.275   0.306   8.150 -0.8543 -0.0280  0.1997
 5667SOL     OW28462   3.704   1.193   3.754 -0.4881 -0.0171 -0.2809
 5667SOL    HW128463   3.686   1.251   3.680  3.9837  2.2989  0.4268
 5667SOL    HW228464   3.633   1.227   3.808  2.1773  2.2305  1.7906
 5668SOL     OW28465   4.047   1.326   5.962  0.3064  0.8802  0.2282
 5668SOL    HW128466   4.132   1.288   5.937  1.4432  3.4903  0.1628
 5668SOL    HW228467   4.024   1.273   6.039 -2.8397  1.6042 -0.2435
 5669SOL     OW28468   4.276   1.605   3.532 -0.3778  0.2274 -0.1562
 5669SOL    HW128469   4.345   1.574   3.474 -2.0960  0.5102 -2.3629
 5669SOL    HW228470   4.308   1.695   3.538  0.3467  0.0086 -0.9309
 5670SOL     OW28471   4.633   3.487   7.752 -0.4888  0.9025  0.1536
 5670SOL    HW128472   4.645   3.555   7.818  1.3444  2.1332 -1.4778
 5670SOL    HW228473   4.692   3.520   7.685 -0.5338 -0.3050 -0.4796
 5671SOL     OW28474   1.492   1.475  16.013  0.0594 -0.2771  0.5045
 5671SOL    HW128475   1.553   1.468  15.939 -1.4138  2.0006 -0.9596
 5671SOL    HW228476   1.434   1.547  15.986  1.6909  0.0928 -2.0338
 5672SOL     OW28477   1.705   2.696   9.511 -0.3647  0.4511 -0.0068
 5672SOL    HW128478   1.772   2.641   9.551 -0.3586  0.6147  0.2054
 5672SOL    HW228479   1.645   2.622   9.506  2.3258 -1.5959 -2.6484
 5673SOL     OW28480   1.229   1.972   9.336 -0.9593  0.2307 -0.1026
 5673SOL    HW128481   1.172   1.904   9.299 -0.5893 -0.7087  1.0328
 5673SOL    HW228482   1.302   1.973   9.275 -0.1337 -1.4497  0.8358
 5674SOL     OW28483   3.209   3.512   7.288  0.3930  0.4775  0.5490
 5674SOL    HW128484   3.135   3.534   7.231 -1.6386 -1.3767  2.4477
 5674SOL    HW228485   3.162   3.442   7.334 -1.3977 -0.4865 -2.7281
 5675SOL     OW28486   1.227   3.695   4.573 -0.1202  0.3111  0.2979
 5675SOL    HW128487   1.194   3.714   4.661 -0.1737 -1.3248  0.6393
 5675SOL    HW228488   1.175   3.758   4.524 -0.8027  1.2631  2.2572
 5676SOL     OW28489   4.219   1.924   7.780 -0.2195  0.3296  0.3494
 5676SOL    HW128490   4.134   1.941   7.741 -0.6613 -0.3969  0.9704
 5676SOL    HW228491   4.267   1.987   7.728  0.1667 -0.9944 -0.8957
 5677SOL     OW28492   0.591   0.152   8.511 -0.2368  0.3062 -0.0663
 5677SOL    HW128493   0.500   0.169   8.486  0.3329  1.3741 -1.4341
 5677SOL    HW228494   0.591   0.089   8.583  0.7430 -1.7424 -1.8589
 5678SOL     OW28495   0.217   4.673   8.372  0.5034  0.1802  0.4300
 5678SOL    HW128496   0.285   4.627   8.421  0.9988 -0.0445 -0.4696
 5678SOL    HW228497   0.213   4.630   8.286  0.0366 -0.5956  0.8423
 5679SOL     OW28498   3.632   3.557  15.198  0.3664 -0.4960 -0.0403
 5679SOL    HW128499   3.708   3.525  15.149  0.7022  0.2764 -0.0303
 5679SOL    HW228500   3.651   3.651  15.197  0.6275 -0.5183  3.0231
 5680SOL     OW28501   0.582   1.738   7.384  0.6840 -0.0588  0.0476
 5680SOL    HW128502   0.645   1.694   7.328  2.8764 -0.9596  3.2347
 5680SOL    HW228503   0.571   1.824   7.342  0.5489 -0.2513 -0.3105
 5681SOL     OW28504   2.931   0.054   8.624  0.0768 -0.3759 -0.1392
 5681SOL    HW128505   2.882   0.030   8.545  0.4411 -1.2251 -0.1007
 5681SOL    HW228506   3.016   0.051   8.581  0.2054  1.1387  0.0204
 5682SOL     OW28507   2.109   0.901   4.039  0.1925  0.6882  0.1845
 5682SOL    HW128508   2.083   0.992   4.026 -2.3526  0.1519  1.5523
 5682SOL    HW228509   2.203   0.912   4.053  0.5385 -1.5963 -0.3834
 5683SOL     OW28510   3.699   3.655   6.622 -0.1295  0.0480  0.1950
 5683SOL    HW128511   3.738   3.596   6.558 -1.7872 -0.6603 -0.1741
 5683SOL    HW228512   3.695   3.728   6.560 -2.6558 -0.7975 -0.6473
 5684SOL     OW28513   4.519   0.524   0.248 -0.4934 -0.0145 -0.1456
 5684SOL    HW128514   4.428   0.497   0.231 -0.4967 -0.3172  0.3563
 5684SOL    HW228515   4.529   0.497   0.339  2.1268  1.3607 -0.0590
 5685SOL     OW28516   0.813   2.131  13.470 -0.0859 -0.1608  0.0699
 5685SOL    HW128517   0.792   2.113  13.379 -1.4801 -0.4624  0.4533
 5685SOL    HW228518   0.764   2.063  13.516 -1.2825  1.0232  0.5665
 5686SOL     OW28519   3.490   2.666  12.044  0.7012 -0.5925  0.2640
 5686SOL    HW128520   3.442   2.619  11.976 -0.7393  1.1406  0.0834
 5686SOL    HW228521   3.540   2.593  12.081 -1.9308 -2.2949  0.4137
 5687SOL     OW28522   2.037   2.912   9.294 -0.1400  0.0545 -0.0697
 5687SOL    HW128523   1.985   2.836   9.269 -1.0926  0.7535 -0.2275
 5687SOL    HW228524   1.995   2.929   9.379 -0.6344 -2.4067  0.1806
 5688SOL     OW28525   3.806   0.941   6.922  0.0316 -0.2113 -0.4571
 5688SOL    HW128526   3.901   0.957   6.917  0.5522 -2.9811  0.2068
 5688SOL    HW228527   3.789   0.919   6.831 -0.1880  1.1159 -0.7335
 5689SOL     OW28528   2.304   1.059  14.042 -0.1077 -0.5707  0.9909
 5689SOL    HW128529   2.209   1.057  14.050 -0.2050  0.4061 -0.0022
 5689SOL    HW228530   2.330   1.089  14.129  0.8444  1.4581 -0.0093
 5690SOL     OW28531   4.631   4.276   2.487 -0.2800  0.2470  0.4089
 5690SOL    HW128532   4.662   4.214   2.552 -0.0151 -2.1837 -1.9997
 5690SOL    HW228533   4.609   4.226   2.407  2.3273 -0.9083  0.4275
 5691SOL     OW28534   1.563   1.038  13.026  0.2082 -0.1981  0.6911
 5691SOL    HW128535   1.540   0.949  13.002  0.5531  0.0950 -0.6972
 5691SOL    HW228536   1.653   1.023  13.056 -0.9260  1.4311  4.9761
 5692SOL     OW28537   3.327   2.773  12.876  0.3898 -0.9166 -0.0551
 5692SOL    HW128538   3.336   2.695  12.931  0.3291 -1.0716 -0.2607
 5692SOL    HW228539   3.231   2.770  12.880  0.4833 -2.1778  1.1418
 5693SOL     OW28540   1.281   1.493  14.334 -0.1915 -0.2128  0.4006
 5693SOL    HW128541   1.305   1.436  14.408 -2.1036 -0.0902  1.1303
 5693SOL    HW228542   1.332   1.572  14.348  0.7168 -1.2059  2.8405
 5694SOL     OW28543   0.015   0.907   7.159  0.2541  0.0528  0.4428
 5694SOL    HW128544   4.680   0.912   7.236 -1.6301 -1.5756 -0.8284
 5694SOL    HW228545   0.057   0.992   7.150 -0.9551  0.6013  0.0734
 5695SOL     OW28546   1.639   0.771   7.954  0.5109 -0.0068  0.0800
 5695SOL    HW128547   1.675   0.820   7.880  0.8062  0.6756  0.6720
 5695SOL    HW228548   1.681   0.685   7.952  0.4080 -0.1199  3.6016
 5696SOL     OW28549   4.158   4.087   3.365 -0.1603 -0.0675 -0.1621
 5696SOL    HW128550   4.129   4.098   3.275  0.0853 -0.1740 -0.2526
 5696SOL    HW228551   4.237   4.035   3.350 -0.7562 -0.7142 -1.0028
 5697SOL     OW28552   4.339   1.834  16.828  0.0934  0.1660  0.4787
 5697SOL    HW128553   4.422   1.789  16.839  0.9605  2.1703  2.0037
 5697SOL    HW228554   4.303   1.845  16.916 -1.5280  0.9045 -0.2680
 5698SOL     OW28555   2.152   3.872   1.848  0.2944  0.4502  0.3106
 5698SOL    HW128556   2.150   3.802   1.783 -0.0411  0.1559  0.6344
 5698SOL    HW228557   2.141   3.819   1.928 -1.3000  0.0554 -0.1637
 5699SOL     OW28558   0.805   4.550  14.023  0.6461  0.0850  0.0352
 5699SOL    HW128559   0.806   4.486  14.094 -0.2742  0.5625  0.4865
 5699SOL    HW228560   0.741   4.615  14.052 -0.2067 -1.6479  2.0588
 5700SOL     OW28561   0.052   2.988   1.636  0.4694  0.0776  0.7878
 5700SOL    HW128562   0.110   2.938   1.579 -0.4189  0.8235 -0.7660
 5700SOL    HW228563   0.012   2.910   1.675  0.3443  1.8097  4.1926
 5701SOL     OW28564   0.665   3.526  11.315 -0.6550 -0.5978  0.0991
 5701SOL    HW128565   0.737   3.582  11.343  0.1466 -0.4702 -2.1750
 5701SOL    HW228566   0.674   3.528  11.219  0.1319  0.2139  0.1868
 5702SOL     OW28567   1.430   1.662   2.027 -0.7309  0.4362  0.3185
 5702SOL    HW128568   1.432   1.657   2.123 -0.9218  1.9876  0.3937
 5702SOL    HW228569   1.414   1.570   2.002 -1.9297  0.6034  0.4759
 5703SOL     OW28570   0.581   1.622   7.853  0.1474  0.2773  0.3730
 5703SOL    HW128571   0.598   1.574   7.935 -0.4621  1.2024  1.0481
 5703SOL    HW228572   0.487   1.638   7.853 -0.5447 -3.6755  1.2419
 5704SOL     OW28573   3.750   2.753   8.448  0.2207  0.1899 -0.2507
 5704SOL    HW128574   3.675   2.797   8.408  0.6457  1.4026  0.2831
 5704SOL    HW228575   3.782   2.817   8.511  1.4398 -0.4488 -0.2245
 5705SOL     OW28576   1.501   2.796   8.807 -0.1293  0.5361 -0.3736
 5705SOL    HW128577   1.509   2.705   8.836 -1.4556  0.6012  0.1745
 5705SOL    HW228578   1.519   2.843   8.889 -0.8377  2.0444 -1.0850
 5706SOL     OW28579   4.690   2.178  10.395  0.7796  0.1712 -0.4551
 5706SOL    HW128580   4.700   2.218  10.309  1.9304 -0.7666 -0.7600
 5706SOL    HW228581   4.607   2.133  10.381  0.6560 -0.3186  1.7354
 5707SOL     OW28582   0.397   2.290   7.930 -1.0116  0.0003  0.1833
 5707SOL    HW128583   0.485   2.329   7.928 -1.1693  0.3513  0.0909
 5707SOL    HW228584   0.361   2.361   7.984 -0.5269  0.5163 -0.1654
 5708SOL     OW28585   2.362   3.830   1.404 -0.0609  0.1385  0.2827
 5708SOL    HW128586   2.287   3.868   1.357  1.5185  1.1039 -1.4707
 5708SOL    HW228587   2.372   3.740   1.373 -1.7236 -0.0799  0.3426
 5709SOL     OW28588   0.775   3.963  14.563 -0.0878  1.0104  0.0146
 5709SOL    HW128589   0.691   3.931  14.530 -0.1742  0.0396  1.1537
 5709SOL    HW228590   0.835   3.892  14.541  0.5880  1.5011  0.2573
 5710SOL     OW28591   0.683   2.908   2.269 -0.9753  0.0196  0.2551
 5710SOL    HW128592   0.770   2.944   2.285 -2.0609  1.8749  1.9890
 5710SOL    HW228593   0.711   2.862   2.189  1.3901 -0.2463  1.2632
 5711SOL     OW28594   0.367   0.619  17.276 -0.1837  0.3187  0.7226
 5711SOL    HW128595   0.383   0.620  17.370 -2.5284 -1.3102  1.1500
 5711SOL    HW228596   0.444   0.569  17.247 -0.8820 -1.7620  2.4712
 5712SOL     OW28597   0.516   4.190   6.182 -0.4330 -0.2626  0.0369
 5712SOL    HW128598   0.448   4.125   6.200  0.8866 -2.1020 -1.6195
 5712SOL    HW228599   0.524   4.226   6.270  2.2207  1.5614 -0.9136
 5713SOL     OW28600   2.729   2.759   4.912 -0.2247 -0.0453 -0.1139
 5713SOL    HW128601   2.676   2.721   4.842  0.1012  2.9859 -2.0356
 5713SOL    HW228602   2.675   2.833   4.939  0.4747  0.9139 -1.3734
 5714SOL     OW28603   0.234   0.211   5.790 -0.9349  0.4536 -0.1070
 5714SOL    HW128604   0.251   0.117   5.784  0.1046  0.5261  1.6968
 5714SOL    HW228605   0.154   0.217   5.738 -0.8347  1.0594 -0.1847
 5715SOL     OW28606   1.733   0.460   6.500  0.5758 -0.2777 -0.5611
 5715SOL    HW128607   1.769   0.542   6.465 -2.4055  1.0294 -0.5405
 5715SOL    HW228608   1.761   0.393   6.438  0.0838 -1.8268  0.8865
 5716SOL     OW28609   4.613   0.379   5.045  0.1517 -0.7227 -0.0575
 5716SOL    HW128610   4.619   0.406   4.953  0.1617 -0.9159 -0.1129
 5716SOL    HW228611   4.701   0.405   5.074 -0.6717 -2.5280  4.0876
 5717SOL     OW28612   3.489   3.004   0.685  0.9666 -0.2267 -0.0526
 5717SOL    HW128613   3.452   2.996   0.773  1.7826  0.3001  0.3358
 5717SOL    HW228614   3.415   2.972   0.633  0.7155 -0.8678  0.7032
 5718SOL     OW28615   1.579   2.503   0.935  0.0844  0.1625 -0.3758
 5718SOL    HW128616   1.635   2.457   0.871 -0.0761 -1.7742  0.8665
 5718SOL    HW228617   1.597   2.596   0.924 -0.8744  0.2514 -1.1018
 5719SOL     OW28618   4.618   2.638   3.288  0.0201 -0.5068 -0.0021
 5719SOL    HW128619   4.570   2.717   3.265 -0.0572 -0.9101 -1.2095
 5719SOL    HW228620   4.709   2.668   3.296  0.4978 -2.2193  1.1030
 5720SOL     OW28621   0.284   3.281   7.620 -0.0530 -0.8056  0.0777
 5720SOL    HW128622   0.235   3.337   7.560 -0.7065 -0.8187  0.6023
 5720SOL    HW228623   0.375   3.311   7.610 -0.5736  0.1896 -1.7097
 5721SOL     OW28624   2.533   4.086   1.438  0.2865  0.1190  0.2579
 5721SOL    HW128625   2.495   4.169   1.467 -1.3335 -0.9988  1.3495
 5721SOL    HW228626   2.472   4.015   1.459 -1.9160  2.1138  0.5405
 5722SOL     OW28627   1.058   1.959   2.311  0.5763  0.4016 -0.2623
 5722SOL    HW128628   0.968   1.962   2.279 -0.4373 -1.1023  2.5246
 5722SOL    HW228629   1.103   2.021   2.252  4.0534 -1.7188  0.1670
 5723SOL     OW28630   2.695   3.003  15.966  0.1327 -0.0326 -0.1153
 5723SOL    HW128631   2.636   2.931  15.987  1.9291 -1.5305 -0.1888
 5723SOL    HW228632   2.755   2.955  15.908 -2.2214 -0.9273 -1.7839
 5724SOL     OW28633   0.360   4.196   6.964  0.3026 -0.5782  0.2897
 5724SOL    HW128634   0.438   4.207   6.909  0.7940  3.5550  1.8087
 5724SOL    HW228635   0.350   4.101   6.972 -2.6555 -0.6904 -4.6023
 5725SOL     OW28636   2.977   1.828  13.136  0.1634 -0.3996 -0.2316
 5725SOL    HW128637   2.946   1.862  13.052  0.8594 -1.3313 -0.8595
 5725SOL    HW228638   2.905   1.770  13.157  0.1669 -0.0475  0.7560
 5726SOL     OW28639   1.290   0.345  14.677 -0.3054  0.1473  0.8076
 5726SOL    HW128640   1.359   0.409  14.656 -1.6574  1.3396 -0.0461
 5726SOL    HW228641   1.334   0.265  14.648 -1.0892 -0.0211  0.0944
 5727SOL     OW28642   3.071   1.002   8.767  0.0798 -0.2343  0.2077
 5727SOL    HW128643   3.050   0.976   8.677  0.4842 -1.6569  0.5174
 5727SOL    HW228644   2.979   0.992   8.793 -0.1723  1.3138 -0.0851
 5728SOL     OW28645   0.995   1.339   5.753  0.2914 -0.0884 -0.0608
 5728SOL    HW128646   1.005   1.429   5.785 -1.3638 -0.4396  1.4442
 5728SOL    HW228647   1.028   1.355   5.664  0.4971 -0.5284 -0.0621
 5729SOL     OW28648   1.460   1.277   1.321 -0.0314  0.0810  0.0290
 5729SOL    HW128649   1.391   1.226   1.280  1.6535 -0.8460 -1.6691
 5729SOL    HW228650   1.439   1.361   1.279  0.8942 -0.8916 -2.3734
 5730SOL     OW28651   1.925   1.399   4.127  1.0171  0.2049 -0.0755
 5730SOL    HW128652   1.883   1.313   4.119  4.6993 -1.7450  1.5914
 5730SOL    HW228653   2.017   1.375   4.132  1.1494  1.0729  1.4323
 5731SOL     OW28654   4.068   3.736   4.424  0.1152 -0.0223  0.2258
 5731SOL    HW128655   4.110   3.727   4.510 -0.1007 -0.1889  0.3140
 5731SOL    HW228656   4.125   3.805   4.389  0.6017  0.4948  2.0263
 5732SOL     OW28657   4.493   4.110   1.007  0.4997  0.1221 -0.0316
 5732SOL    HW128658   4.407   4.126   1.047  0.6005 -1.5172  0.8604
 5732SOL    HW228659   4.511   4.196   0.970 -2.3078 -0.2641 -2.2667
 5733SOL     OW28660   2.041   4.363   1.323 -0.2861 -0.1690 -0.0362
 5733SOL    HW128661   2.125   4.336   1.359  0.6051  1.6323 -0.7634
 5733SOL    HW228662   1.985   4.292   1.356  1.0891 -0.7860  0.9484
 5734SOL     OW28663   3.898   2.152   2.032  0.5285 -0.2663  0.1326
 5734SOL    HW128664   3.928   2.185   1.947  1.4210 -2.4019 -0.3828
 5734SOL    HW228665   3.820   2.203   2.051  1.0777  0.1251  1.2940
 5735SOL     OW28666   1.431   0.016  10.948 -0.5977  0.3297 -0.3015
 5735SOL    HW128667   1.508   0.029  11.003  0.3850 -0.9359 -1.3904
 5735SOL    HW228668   1.451   0.069  10.871  1.1892  0.8205  0.4975
 5736SOL     OW28669   2.459   3.905   2.527 -0.1274  0.3854  0.1412
 5736SOL    HW128670   2.493   3.970   2.588  3.1886 -0.3730 -0.9061
 5736SOL    HW228671   2.401   3.862   2.590 -1.5715  1.0546 -0.7160
 5737SOL     OW28672   2.146   2.055   6.707  0.9614  0.5088 -0.1459
 5737SOL    HW128673   2.198   2.096   6.777  2.3121 -2.5704  0.6513
 5737SOL    HW228674   2.209   1.995   6.667  0.7719  0.0704  0.2165
 5738SOL     OW28675   0.163   0.446   4.126  0.1515  0.5299 -0.3560
 5738SOL    HW128676   0.142   0.467   4.035  1.5503  0.5491 -0.6665
 5738SOL    HW228677   0.143   0.352   4.120 -0.8460  0.8460 -1.9687
 5739SOL     OW28678   0.553   0.034  15.338  0.3011  0.5077  0.4757
 5739SOL    HW128679   0.637   0.006  15.375 -0.5093  0.2828  2.1386
 5739SOL    HW228680   0.500   4.676  15.340 -1.4983  1.6749 -1.4657
 5740SOL     OW28681   4.145   1.445   1.788 -0.6661  0.0483 -0.5144
 5740SOL    HW128682   4.056   1.475   1.772 -0.1142  1.0110 -1.7645
 5740SOL    HW228683   4.165   1.402   1.705 -0.0766  0.9006 -0.8235
 5741SOL     OW28684   0.621   3.486   4.343 -0.8826  0.3547  0.2462
 5741SOL    HW128685   0.678   3.547   4.390 -0.9777 -0.2357  1.1263
 5741SOL    HW228686   0.684   3.442   4.286 -0.3739  0.8137  0.4553
 5742SOL     OW28687   1.987   2.296   2.417 -0.0034  0.3494 -0.6569
 5742SOL    HW128688   1.982   2.212   2.370  0.8890 -1.4386  2.4580
 5742SOL    HW228689   2.007   2.356   2.345 -0.0739 -0.4026 -1.3004
 5743SOL     OW28690   0.598   2.247   9.233  0.0367 -0.2882  0.4998
 5743SOL    HW128691   0.668   2.312   9.242 -2.0996  1.5980  3.2054
 5743SOL    HW228692   0.531   2.309   9.261 -1.0231 -0.7545 -1.0021
 5744SOL     OW28693   0.454   3.509   7.075 -0.6168 -0.3874  0.1922
 5744SOL    HW128694   0.432   3.506   6.982  1.2023 -1.7448 -0.2103
 5744SOL    HW228695   0.467   3.414   7.088 -0.2390 -0.3622 -0.0102
 5745SOL     OW28696   0.661   2.906  10.828  0.1674 -0.3558  0.7077
 5745SOL    HW128697   0.603   2.969  10.869 -1.9199 -1.4122 -0.6339
 5745SOL    HW228698   0.744   2.954  10.833  1.9966 -3.4804  0.5157
 5746SOL     OW28699   4.602   3.473   0.987 -0.4030 -0.8209 -0.2670
 5746SOL    HW128700   4.562   3.559   0.989  1.7221  0.1992 -1.2148
 5746SOL    HW228701   4.681   3.483   1.041  0.1192 -0.9960 -0.9936
 5747SOL     OW28702   0.950   0.406   6.870 -0.2412 -0.0338 -0.0775
 5747SOL    HW128703   0.855   0.416   6.868 -0.3980 -1.5144 -0.0804
 5747SOL    HW228704   0.969   0.386   6.779 -1.2051 -1.5381  0.0542
 5748SOL     OW28705   0.161   2.295  15.050 -0.2710  0.4071  0.1569
 5748SOL    HW128706   0.202   2.253  15.126 -1.0251  0.2317  0.4689
 5748SOL    HW228707   0.213   2.254  14.980 -1.0262 -1.1072  0.4783
 5749SOL     OW28708   2.910   0.472   7.029  0.1633 -0.1067 -0.6454
 5749SOL    HW128709   2.906   0.433   6.942 -0.2307 -0.4751 -0.4584
 5749SOL    HW228710   2.999   0.506   7.042 -0.0787  0.2724  0.0049
 5750SOL     OW28711   3.894   4.476   7.092  0.3528  0.6184 -0.3208
 5750SOL    HW128712   3.928   4.563   7.076  1.1906  0.3605  0.0490
 5750SOL    HW228713   3.802   4.471   7.065  0.5002 -1.9493 -0.3933
 5751SOL     OW28714   2.658   1.583  11.636  0.5094  0.5303  0.1761
 5751SOL    HW128715   2.734   1.604  11.581  0.9666 -0.3382  0.4796
 5751SOL    HW228716   2.646   1.492  11.609 -0.1460  0.8421 -0.5813
 5752SOL     OW28717   3.165   3.046   9.091 -0.1368 -0.1667  0.0184
 5752SOL    HW128718   3.166   3.084   9.003 -2.9657 -2.2031 -0.9188
 5752SOL    HW228719   3.177   2.955   9.063 -0.6145 -0.1720 -0.1677
 5753SOL     OW28720   0.163   2.402  15.455  0.3080 -0.0420  0.1963
 5753SOL    HW128721   0.218   2.340  15.406  1.0941  0.2667  0.6832
 5753SOL    HW228722   0.212   2.409  15.537 -1.1140 -1.1269  1.1287
 5754SOL     OW28723   4.694   3.583   8.770 -0.4261  0.1792  0.1084
 5754SOL    HW128724   4.720   3.492   8.788  0.3037  0.5958  1.1202
 5754SOL    HW228725   4.600   3.579   8.786 -0.1497 -2.3204  1.1208
 5755SOL     OW28726   2.609   4.368   5.440 -0.0822  0.0901 -0.5136
 5755SOL    HW128727   2.573   4.440   5.389  0.4756  0.1165 -0.8779
 5755SOL    HW228728   2.551   4.293   5.432  0.6248 -0.5019 -0.1420
 5756SOL     OW28729   3.609   0.034  10.031  0.1137  0.0750  0.4333
 5756SOL    HW128730   3.634   0.007  10.119  0.5164 -0.6348  0.0997
 5756SOL    HW228731   3.581   4.668  10.004  0.5864 -0.5585  2.0267
 5757SOL     OW28732   3.352   4.230   7.373  0.0656  0.0957  0.0071
 5757SOL    HW128733   3.394   4.221   7.458 -1.9831  2.0577  1.2005
 5757SOL    HW228734   3.267   4.190   7.388  0.2509 -0.6037 -0.7993
 5758SOL     OW28735   2.157   4.088  10.557 -0.1350  0.2601  0.1377
 5758SOL    HW128736   2.233   4.128  10.514 -0.7013  0.3975 -0.7346
 5758SOL    HW228737   2.180   3.996  10.550  0.7593  0.4786  0.1092
 5759SOL     OW28738   1.612   3.341   3.432  0.0296 -0.4672 -0.4331
 5759SOL    HW128739   1.563   3.341   3.350 -2.6495  2.7217  1.1757
 5759SOL    HW228740   1.568   3.401   3.493  1.1794 -0.6426  0.5546
 5760SOL     OW28741   0.850   0.388   4.004  0.1352 -0.2150  0.1475
 5760SOL    HW128742   0.877   0.475   3.976 -2.2449  0.7892  0.9888
 5760SOL    HW228743   0.791   0.423   4.071 -2.1230 -1.0202 -1.4193
 5761SOL     OW28744   3.218   4.636   9.248 -0.2953  0.7905  0.2720
 5761SOL    HW128745   3.170   4.555   9.259  0.2206  0.2843 -1.2413
 5761SOL    HW228746   3.148   4.693   9.217 -0.1654  1.3353  0.9745
 5762SOL     OW28747   0.571   4.287   6.752 -0.1006 -0.0940  0.8002
 5762SOL    HW128748   0.578   4.268   6.658  0.5857  3.2056  0.1499
 5762SOL    HW228749   0.561   4.382   6.765  0.9398  0.0581  0.5135
 5763SOL     OW28750   3.378   3.185   4.963  0.1003 -0.3572 -0.5026
 5763SOL    HW128751   3.470   3.166   4.945 -0.3543 -3.3797  0.4265
 5763SOL    HW228752   3.357   3.119   5.028  1.7608 -1.0320 -0.6344
 5764SOL     OW28753   1.939   0.100  13.864  0.5837 -0.6407 -0.5116
 5764SOL    HW128754   1.902   0.189  13.860  1.1202 -0.4513 -1.2646
 5764SOL    HW228755   2.028   0.114  13.832 -0.3541 -1.4538 -3.5602
 5765SOL     OW28756   2.254   3.688   2.742 -0.9790 -0.3472  0.0657
 5765SOL    HW128757   2.309   3.643   2.678 -1.9238 -0.1218 -0.9175
 5765SOL    HW228758   2.171   3.705   2.698 -0.2631  2.8780 -0.0377
 5766SOL     OW28759   0.980   2.023   3.885 -0.1891  0.7279 -0.1184
 5766SOL    HW128760   0.964   2.070   3.803  1.0955  0.9388 -0.2544
 5766SOL    HW228761   0.924   1.946   3.882  1.1123 -0.1608 -1.4973
 5767SOL     OW28762   4.414   4.574  13.561  0.5821  0.1447 -0.7024
 5767SOL    HW128763   4.497   4.562  13.606 -0.6400  4.8565  2.7405
 5767SOL    HW228764   4.394   4.666  13.578 -1.8617 -0.5892  0.3036
 5768SOL     OW28765   4.123   4.265   6.744 -0.1582 -0.1054 -0.0370
 5768SOL    HW128766   4.176   4.326   6.795  1.4980 -2.9275  1.6300
 5768SOL    HW228767   4.160   4.177   6.759  1.1314  0.1953 -1.5243
 5769SOL     OW28768   1.500   4.463   1.243  0.2081 -0.1379 -0.0169
 5769SOL    HW128769   1.541   4.475   1.158  0.4563 -1.7384 -0.1234
 5769SOL    HW228770   1.522   4.552   1.268  0.3858 -0.4657  1.0163
 5770SOL     OW28771   4.610   3.490   7.403 -0.2125  0.2410 -0.0915
 5770SOL    HW128772   4.588   3.397   7.403  1.9772 -0.2830 -0.5732
 5770SOL    HW228773   4.529   3.529   7.369 -0.0174  1.0211  0.3457
 5771SOL     OW28774   1.632   0.979   2.784 -0.3086 -0.0734  0.1875
 5771SOL    HW128775   1.695   0.911   2.762 -0.0398  0.0269  0.6658
 5771SOL    HW228776   1.580   0.988   2.704  1.6144 -0.6615 -1.1234
 5772SOL     OW28777   1.467   4.189   4.927  0.6153  0.2877 -0.2649
 5772SOL    HW128778   1.433   4.177   4.838  0.1962  1.1285 -0.2212
 5772SOL    HW228779   1.387   4.206   4.977  0.0345 -0.3844 -0.9532
 5773SOL     OW28780   2.365   2.726  12.253 -0.0175 -0.5371  0.1009
 5773SOL    HW128781   2.407   2.808  12.279  3.4233 -2.0334 -0.7814
 5773SOL    HW228782   2.288   2.716  12.310  1.7048  2.3679  2.9356
 5774SOL     OW28783   1.384   0.074  12.939  0.4833  0.1512 -0.6289
 5774SOL    HW128784   1.330   0.043  12.867  1.6308  0.4881 -1.6257
 5774SOL    HW228785   1.453   0.121  12.892 -1.0702  0.0335 -3.0241
 5775SOL     OW28786   2.484   4.582   3.576  0.2043 -0.0993  1.0103
 5775SOL    HW128787   2.421   4.649   3.549  1.3518  0.7896  0.5068
 5775SOL    HW228788   2.551   4.604   3.510 -0.8863 -1.7385 -0.6383
 5776SOL     OW28789   1.389   4.321   9.696  0.2507 -0.6656  0.0949
 5776SOL    HW128790   1.358   4.385   9.631 -2.2487  0.1801  2.1365
 5776SOL    HW228791   1.313   4.277   9.734 -0.2414  1.4746  1.5455
 5777SOL     OW28792   4.137   3.590   8.722  0.2446 -0.3182 -0.4211
 5777SOL    HW128793   4.056   3.608   8.770  0.2555 -1.2535 -0.0373
 5777SOL    HW228794   4.181   3.524   8.776 -0.4224  0.2838  0.8478
 5778SOL     OW28795   0.239   1.869  15.832  0.1587  0.1717  0.4295
 5778SOL    HW128796   0.229   1.947  15.886  0.4109  1.2165 -1.0433
 5778SOL    HW228797   0.147   1.845  15.839  0.8932 -2.6607  0.3013
 5779SOL     OW28798   1.526   1.390   5.562 -1.2522  0.0401 -0.2692
 5779SOL    HW128799   1.520   1.480   5.532 -0.0860 -0.5967 -2.4170
 5779SOL    HW228800   1.465   1.395   5.635 -0.8497 -0.8279  0.1342
 5780SOL     OW28801   2.757   4.058   8.762 -0.5990 -0.0419 -0.0156
 5780SOL    HW128802   2.789   3.988   8.705  0.1625  0.9509 -0.8199
 5780SOL    HW228803   2.664   4.044   8.743  0.0198 -2.2414 -1.4177
 5781SOL     OW28804   0.911   4.131   4.079 -0.3375  0.5386 -0.3949
 5781SOL    HW128805   0.853   4.207   4.069 -0.2472  0.5824 -0.5936
 5781SOL    HW228806   0.969   4.145   4.004  1.2975 -1.7398  0.4603
 5782SOL     OW28807   1.690   3.397   8.933  0.0322 -0.0682  0.2442
 5782SOL    HW128808   1.702   3.311   8.974  0.8858 -0.5055 -0.9307
 5782SOL    HW228809   1.755   3.395   8.863 -0.9290  1.6283 -0.6931
 5783SOL     OW28810   4.720   3.146  17.220 -0.0315 -0.4510  0.3512
 5783SOL    HW128811   4.669   3.184  17.149 -0.2055 -1.2906  0.0227
 5783SOL    HW228812   0.071   3.205  17.202 -1.2056  1.7344  2.6903
 5784SOL     OW28813   2.916   3.879  10.074  0.0609  0.2636 -0.0221
 5784SOL    HW128814   2.839   3.935  10.063 -1.1773 -1.5600 -0.6922
 5784SOL    HW228815   2.976   3.923  10.014 -0.8301  0.8684 -0.4642
 5785SOL     OW28816   3.986   2.166   3.718 -0.7808  0.2327 -0.1393
 5785SOL    HW128817   4.019   2.079   3.742 -1.6244  0.3521  1.4505
 5785SOL    HW228818   4.070   2.212   3.717 -1.8392  2.1611  0.7376
 5786SOL     OW28819   1.415   3.843   8.314 -0.2463 -0.2738 -0.1366
 5786SOL    HW128820   1.407   3.814   8.405  3.5194  1.0461  0.6174
 5786SOL    HW228821   1.499   3.888   8.319 -0.8787  1.1210 -2.1027
 5787SOL     OW28822   3.081   3.377   5.828  0.1837  0.0094  0.4699
 5787SOL    HW128823   3.092   3.411   5.917 -0.3657 -3.0892  1.7439
 5787SOL    HW228824   2.988   3.356   5.838  0.3415 -1.3067 -0.8256
 5788SOL     OW28825   3.291   2.105   4.136  0.0188 -0.0226 -0.0166
 5788SOL    HW128826   3.291   2.096   4.232 -2.1855  1.2005  0.0874
 5788SOL    HW228827   3.374   2.061   4.116  0.3532  0.4427  0.3269
 5789SOL     OW28828   4.248   3.672   6.585  0.2084 -0.1520 -0.6498
 5789SOL    HW128829   4.254   3.767   6.578 -1.9871 -0.0321 -0.7444
 5789SOL    HW228830   4.222   3.666   6.677  0.4259 -1.1827 -0.6604
 5790SOL     OW28831   3.499   3.201   2.968 -0.4592  0.0489  0.5702
 5790SOL    HW128832   3.505   3.294   2.991 -2.2645  0.3618 -0.2231
 5790SOL    HW228833   3.522   3.209   2.876  0.4471  2.2672  1.0025
 5791SOL     OW28834   4.274   4.140   4.033  0.5347 -0.4900 -0.1109
 5791SOL    HW128835   4.359   4.129   4.074 -0.3691 -0.0884  1.8775
 5791SOL    HW228836   4.267   4.234   4.017 -1.1429 -0.2475  2.0520
 5792SOL     OW28837   4.435   0.542   6.718  0.1007  0.3204 -0.1589
 5792SOL    HW128838   4.505   0.537   6.783 -0.1402  0.8550  0.1432
 5792SOL    HW228839   4.476   0.609   6.663  0.1699  1.2457  1.0165
 5793SOL     OW28840   2.843   2.148   7.244  0.2462 -0.3230  0.2002
 5793SOL    HW128841   2.799   2.064   7.257 -1.7571  0.6526 -0.2923
 5793SOL    HW228842   2.763   2.200   7.240  0.4011  0.2848  4.5607
 5794SOL     OW28843   0.538   2.238   2.889  0.1342 -0.1572 -0.1419
 5794SOL    HW128844   0.473   2.300   2.855  0.4350  0.9498  1.3007
 5794SOL    HW228845   0.546   2.173   2.820 -0.7766 -1.8232  1.3007
 5795SOL     OW28846   3.979   2.095   4.940 -0.0422  0.1770 -0.2502
 5795SOL    HW128847   4.001   2.166   5.000  1.0728 -1.1010  0.8379
 5795SOL    HW228848   3.886   2.113   4.924  0.2634  1.4208 -0.5757
 5796SOL     OW28849   3.647   2.850  10.983  0.4579 -0.4839  0.0247
 5796SOL    HW128850   3.583   2.841  10.913 -0.5851 -1.8171  1.1384
 5796SOL    HW228851   3.685   2.763  10.997  1.3242  0.1751  1.7805
 5797SOL     OW28852   0.977   2.498   3.816 -0.4065 -0.2438 -0.2008
 5797SOL    HW128853   0.907   2.554   3.850  0.2460 -0.7108  1.9012
 5797SOL    HW228854   1.020   2.565   3.762  1.3411 -1.3497 -0.1946
 5798SOL     OW28855   2.297   0.217   9.545  0.0696 -0.3106 -0.3348
 5798SOL    HW128856   2.312   0.262   9.628  0.5044 -0.9618 -0.0623
 5798SOL    HW228857   2.298   0.300   9.498 -0.3205 -2.2936 -3.8871
 5799SOL     OW28858   4.176   0.375  14.186 -0.5279 -0.4211 -0.1246
 5799SOL    HW128859   4.165   0.317  14.111 -1.7246  1.2804 -1.2552
 5799SOL    HW228860   4.204   0.452  14.137  0.7198 -0.2595  0.8367
 5800SOL     OW28861   2.155   0.511   6.412 -0.6671 -0.3446  0.3382
 5800SOL    HW128862   2.063   0.490   6.397 -0.8147  0.6023 -0.0771
 5800SOL    HW228863   2.146   0.605   6.397 -0.3691 -0.2385  0.8547
 5801SOL     OW28864   0.300   3.437   4.884 -0.0955  0.1572 -0.3593
 5801SOL    HW128865   0.313   3.471   4.795  0.0626 -0.3399 -0.5209
 5801SOL    HW228866   0.390   3.409   4.900 -0.6554 -1.5804 -0.2708
 5802SOL     OW28867   1.540   3.426  16.262  0.0473 -0.0260  0.3637
 5802SOL    HW128868   1.530   3.331  16.268 -2.8474  0.2831  0.6776
 5802SOL    HW228869   1.633   3.435  16.279 -0.0184  0.1528  0.6222
 5803SOL     OW28870   1.507   2.104   8.948 -0.4352  0.2788  0.0482
 5803SOL    HW128871   1.464   2.030   8.990  0.4099  0.5549  1.3970
 5803SOL    HW228872   1.537   2.147   9.028 -0.5560 -1.3450  0.9594
 5804SOL     OW28873   1.839   3.497  10.163 -0.0949  0.3247 -0.3256
 5804SOL    HW128874   1.746   3.475  10.173 -0.2724  1.9176  1.7634
 5804SOL    HW228875   1.843   3.592  10.147 -0.0773  0.3989  0.0928
 5805SOL     OW28876   2.895   1.795   2.909  0.1919  0.3783 -0.3619
 5805SOL    HW128877   2.922   1.810   2.999 -0.1416 -0.5296 -0.1078
 5805SOL    HW228878   2.860   1.706   2.914  0.4206  0.4228  1.9141
 5806SOL     OW28879   1.883   3.450  14.719  0.4654 -0.5172 -0.0617
 5806SOL    HW128880   1.824   3.525  14.719  2.4259  1.0082  0.9715
 5806SOL    HW228881   1.834   3.386  14.770  1.6203 -0.9516  0.5069
 5807SOL     OW28882   3.390   2.448   7.374  0.1374 -0.7465  0.1403
 5807SOL    HW128883   3.303   2.465   7.411  0.2079 -1.6382  0.7023
 5807SOL    HW228884   3.423   2.365   7.407 -0.0039 -0.7165  0.3547
 5808SOL     OW28885   1.566   2.349   3.590 -0.1061  0.0740 -0.2912
 5808SOL    HW128886   1.521   2.381   3.668  0.8746  1.6099 -0.3598
 5808SOL    HW228887   1.605   2.432   3.562 -0.8199 -0.1303 -1.9138
 5809SOL     OW28888   4.384   0.060   7.979  0.0063  0.4579  0.0222
 5809SOL    HW128889   4.479   0.064   7.986  0.3719 -1.3408 -3.7520
 5809SOL    HW228890   4.363   0.145   7.941  0.5656  1.0257  1.0254
 5810SOL     OW28891   1.432   4.595   6.617  0.1341 -0.0296 -0.2593
 5810SOL    HW128892   1.445   4.532   6.546 -1.8380  0.6300 -1.1858
 5810SOL    HW228893   1.361   4.651   6.588  0.1375 -0.1642 -0.5290
 5811SOL     OW28894   3.207   2.391  10.525 -0.0237  0.0753  0.1396
 5811SOL    HW128895   3.220   2.463  10.463  1.8668 -0.5428 -0.1993
 5811SOL    HW228896   3.158   2.432  10.595 -0.3202  1.4187 -0.8528
 5812SOL     OW28897   4.074   2.589  11.092  0.3344  0.0444 -0.5543
 5812SOL    HW128898   4.140   2.528  11.059 -0.4727 -1.2112  0.1481
 5812SOL    HW228899   3.989   2.578  11.050 -0.2799  3.0507 -0.0521
 5813SOL     OW28900   1.621   4.696  13.248 -0.2557  0.4147  0.5575
 5813SOL    HW128901   1.668   4.667  13.326  1.7102  1.9750 -0.0763
 5813SOL    HW228902   1.613   0.069  13.258  1.5240  0.4246  1.8328
 5814SOL     OW28903   3.178   2.690  13.599 -0.2226  0.3177 -0.7696
 5814SOL    HW128904   3.181   2.768  13.654 -1.8364 -1.3227  1.6323
 5814SOL    HW228905   3.256   2.643  13.629 -0.7237 -0.3717 -0.5493
 5815SOL     OW28906   1.226   2.078   7.180 -0.6374  0.6561 -0.6474
 5815SOL    HW128907   1.172   2.158   7.175 -0.8853  0.4790 -0.7876
 5815SOL    HW228908   1.313   2.119   7.181 -0.7494  0.9220 -1.5558
 5816SOL     OW28909   0.405   0.409   0.329 -0.5071 -0.1248  0.3387
 5816SOL    HW128910   0.346   0.466   0.281 -0.9415 -1.9540 -1.2820
 5816SOL    HW228911   0.400   0.440   0.419 -0.5421  0.2104  0.2216
 5817SOL     OW28912   2.096   3.954   1.576  0.2252 -0.5049  0.0951
 5817SOL    HW128913   2.190   3.972   1.585  0.4360 -1.3438 -0.4325
 5817SOL    HW228914   2.072   3.970   1.667  1.9559  1.0707  0.2671
 5818SOL     OW28915   1.313   1.419   2.023  0.6917  0.6694  0.2507
 5818SOL    HW128916   1.384   1.381   2.074  2.2559  1.5951 -1.2536
 5818SOL    HW228917   1.282   1.339   1.980  0.8386  0.7584 -0.0157
 5819SOL     OW28918   4.342   0.928   6.682  0.5728 -0.2975 -0.2360
 5819SOL    HW128919   4.433   0.931   6.712 -0.1290  0.9107  1.7816
 5819SOL    HW228920   4.316   0.851   6.732 -0.8371 -0.5832 -1.4281
 5820SOL     OW28921   2.779   3.068   6.228  0.0371  0.4417 -0.4889
 5820SOL    HW128922   2.759   3.006   6.299 -0.8336  0.6170 -0.5825
 5820SOL    HW228923   2.812   3.138   6.284  0.5660  0.1300 -0.4034
 5821SOL     OW28924   2.010   3.421   4.624  0.3880  0.4852 -0.0469
 5821SOL    HW128925   1.927   3.446   4.665  0.9334  0.0978  1.3032
 5821SOL    HW228926   2.037   3.355   4.689 -2.7248  1.6477  2.4529
 5822SOL     OW28927   0.985   1.586   2.014  0.1326 -0.2207  0.2282
 5822SOL    HW128928   0.970   1.582   1.920  1.7009  1.4309 -0.0842
 5822SOL    HW228929   1.070   1.542   2.017 -0.2179 -0.8068  1.6736
 5823SOL     OW28930   0.840   4.716  17.222  0.0783 -0.1277  0.1603
 5823SOL    HW128931   0.882   4.642  17.178  1.4636  1.9031 -1.9101
 5823SOL    HW228932   0.910   0.018  17.283 -0.6210  2.7704 -0.1653
 5824SOL     OW28933   4.176   0.493  16.317 -0.0872  0.2485  0.6246
 5824SOL    HW128934   4.219   0.419  16.358  0.7613  0.6981  0.5376
 5824SOL    HW228935   4.196   0.474  16.225  4.1983  1.5865  1.3086
 5825SOL     OW28936   0.153   3.199  16.797  0.1828  0.1516 -0.4069
 5825SOL    HW128937   0.068   3.155  16.798 -0.8902  2.2422  3.1652
 5825SOL    HW228938   0.205   3.143  16.854 -0.0864  1.0250  0.6972
 5826SOL     OW28939   0.452   2.842   9.901 -0.0235 -0.0919 -0.0998
 5826SOL    HW128940   0.403   2.921   9.924  0.8415  0.2577  0.5279
 5826SOL    HW228941   0.450   2.850   9.805  0.5527  0.3273 -0.0740
 5827SOL     OW28942   0.559   4.306   5.101  0.0462  0.3219 -0.1731
 5827SOL    HW128943   0.582   4.395   5.075 -1.5402  1.3665  2.0648
 5827SOL    HW228944   0.496   4.328   5.169 -0.8214 -0.3773 -0.7434
 5828SOL     OW28945   3.378   2.601   4.903 -0.8441  0.4059 -0.3449
 5828SOL    HW128946   3.352   2.525   4.956 -1.4929 -0.1901 -1.5105
 5828SOL    HW228947   3.427   2.558   4.833 -0.0520  2.0918 -0.8265
 5829SOL     OW28948   4.027   2.425   3.247 -0.0697  0.2202 -0.4448
 5829SOL    HW128949   4.025   2.331   3.226  3.6943 -0.1351  0.7614
 5829SOL    HW228950   4.011   2.420   3.342 -0.9345  0.1595 -0.5942
 5830SOL     OW28951   0.572   3.832   5.704 -0.2205  0.1173 -0.4026
 5830SOL    HW128952   0.586   3.896   5.634 -0.8623 -0.2702 -0.8806
 5830SOL    HW228953   0.477   3.830   5.701 -0.2295  0.6188 -0.6728
 5831SOL     OW28954   2.998   0.220  16.959 -0.1892 -0.1658  0.6750
 5831SOL    HW128955   3.059   0.291  16.939  0.0376 -0.2236  1.1436
 5831SOL    HW228956   2.916   0.265  16.976 -0.0851 -0.0093  0.7660
 5832SOL     OW28957   4.582   1.370   8.524 -0.3853 -0.1177  0.0440
 5832SOL    HW128958   4.588   1.407   8.436  0.8539 -1.6568 -0.5248
 5832SOL    HW228959   4.675   1.371   8.547 -0.3572 -1.0942 -0.0361
 5833SOL     OW28960   1.214   3.458   1.252  0.4103 -0.0446  0.2309
 5833SOL    HW128961   1.190   3.542   1.291 -0.4842  0.4527 -1.4001
 5833SOL    HW228962   1.293   3.440   1.302  1.7077  0.4665 -1.6247
 5834SOL     OW28963   4.332   1.123   3.725  0.6754  0.1904 -0.9355
 5834SOL    HW128964   4.343   1.185   3.797 -0.6051 -0.8852  0.1838
 5834SOL    HW228965   4.262   1.072   3.766  0.5721  0.2798 -0.9986
 5835SOL     OW28966   2.853   1.217   4.160  0.0103  0.1373  0.3144
 5835SOL    HW128967   2.926   1.155   4.168 -0.7674 -0.7570  0.5341
 5835SOL    HW228968   2.904   1.297   4.168 -0.3307  0.0136  3.5695
 5836SOL     OW28969   4.405   1.140   7.994  0.3778  0.5943 -0.1925
 5836SOL    HW128970   4.312   1.120   8.004  0.0406  1.9295 -0.6592
 5836SOL    HW228971   4.407   1.235   8.003  1.5789  0.5962 -0.4396
 5837SOL     OW28972   4.531   1.743   2.042 -0.1625 -0.3736 -1.0149
 5837SOL    HW128973   4.528   1.657   1.999 -0.4026 -0.7464 -0.2621
 5837SOL    HW228974   4.438   1.749   2.067 -0.2689  0.4481 -1.6066
 5838SOL     OW28975   1.805   2.962   5.722  0.0610  0.5696 -0.2386
 5838SOL    HW128976   1.769   3.046   5.693 -0.6917  0.0505 -0.7990
 5838SOL    HW228977   1.808   2.989   5.814  0.5064 -1.3791  0.3080
 5839SOL     OW28978   3.707   2.982  12.296 -0.2490 -0.3311  0.5144
 5839SOL    HW128979   3.772   2.915  12.276 -0.4751 -0.9327  1.7936
 5839SOL    HW228980   3.646   2.927  12.345 -0.0391 -0.9132  0.1303
 5840SOL     OW28981   1.788   0.969  13.164 -0.0875  0.2816  0.0868
 5840SOL    HW128982   1.872   1.012  13.181  1.3886 -2.4025 -0.3596
 5840SOL    HW228983   1.820   0.886  13.127 -2.5405 -0.1106 -1.1552
 5841SOL     OW28984   3.656   1.664  15.475  0.4196  0.6062 -0.2176
 5841SOL    HW128985   3.577   1.637  15.427  0.2245  0.4682  0.1811
 5841SOL    HW228986   3.635   1.634  15.563 -0.2884  1.6349 -0.0352
 5842SOL     OW28987   1.137   0.020   8.786 -0.0658 -0.4068  0.0755
 5842SOL    HW128988   1.090   0.075   8.849  0.4114 -0.7630  0.7361
 5842SOL    HW228989   1.122   4.650   8.808 -1.3636  0.1309  1.4541
 5843SOL     OW28990   3.147   1.061   5.728  0.2097  0.7145 -0.2314
 5843SOL    HW128991   3.241   1.044   5.720  0.2705  2.2905 -2.6871
 5843SOL    HW228992   3.127   1.005   5.803 -0.0919  2.3333  0.8971
 5844SOL     OW28993   3.693   2.440  11.849  0.4389  0.1143 -0.6944
 5844SOL    HW128994   3.639   2.420  11.925  0.9175 -1.9767 -0.8827
 5844SOL    HW228995   3.639   2.504  11.802 -3.6503 -1.8086  1.3806
 5845SOL     OW28996   0.696   1.175  15.115 -0.2379  0.8027  0.4470
 5845SOL    HW128997   0.751   1.209  15.185  0.1466  0.4696  0.3071
 5845SOL    HW228998   0.637   1.249  15.130 -1.4146 -0.1672  0.7053
 5846SOL     OW28999   3.525   4.432   7.560  0.0513 -0.0865 -0.1355
 5846SOL    HW129000   3.570   4.438   7.645  0.3427 -0.4198 -0.2684
 5846SOL    HW229001   3.513   4.337   7.554  0.0062 -0.0864 -0.0480
 5847SOL     OW29002   3.650   0.936   3.608 -0.1043  0.3585  0.3911
 5847SOL    HW129003   3.677   1.005   3.669  0.5813 -0.2536  0.7845
 5847SOL    HW229004   3.729   0.906   3.563 -0.0760  1.5919 -0.4051
 5848SOL     OW29005   1.833   4.179   1.727  0.4653 -0.2338  0.4553
 5848SOL    HW129006   1.889   4.211   1.797 -2.7866  1.2653  2.3448
 5848SOL    HW229007   1.820   4.087   1.751  1.0367 -1.2452 -3.0410
 5849SOL     OW29008   2.580   2.310   7.927  0.0982 -0.1361  0.0913
 5849SOL    HW129009   2.588   2.405   7.924 -0.1862 -0.1090  0.2097
 5849SOL    HW229010   2.619   2.287   8.012 -1.0579  1.1277  0.9714
 5850SOL     OW29011   0.866   1.207   4.088 -0.1825  0.1674 -0.7195
 5850SOL    HW129012   0.807   1.167   4.152  2.3859  0.4655  1.8171
 5850SOL    HW229013   0.945   1.156   4.105  1.2254  1.9582 -1.9031
 5851SOL     OW29014   1.506   0.198   0.925  0.0185  0.1182  0.2945
 5851SOL    HW129015   1.452   0.275   0.943 -0.2625  0.0726 -0.3390
 5851SOL    HW229016   1.448   0.124   0.945  1.4934 -0.6410  1.7014
 5852SOL     OW29017   3.656   3.649   2.366  0.2937  0.0188  0.1544
 5852SOL    HW129018   3.622   3.656   2.455  2.9659 -2.0705  1.3521
 5852SOL    HW229019   3.669   3.741   2.347  1.6759  0.0113  1.0311
 5853SOL     OW29020   1.541   2.762   8.537 -0.3621 -0.6121 -0.8463
 5853SOL    HW129021   1.636   2.772   8.544 -0.3697 -1.1987  0.0454
 5853SOL    HW229022   1.505   2.760   8.626  0.0057  3.2650 -0.6084
 5854SOL     OW29023   0.499   2.482   4.666 -0.1006 -0.0493  0.0327
 5854SOL    HW129024   0.459   2.569   4.660  2.1445  0.9756  0.2609
 5854SOL    HW229025   0.577   2.494   4.719 -0.3335 -0.8842  0.5606
 5855SOL     OW29026   4.288   2.398   4.507 -0.2736  0.0898 -0.1256
 5855SOL    HW129027   4.238   2.369   4.583 -0.3344  1.4563  0.3613
 5855SOL    HW229028   4.326   2.317   4.473  0.5920  0.3527  0.2230
 5856SOL     OW29029   0.557   0.295   6.488  0.6851  0.1784  0.1746
 5856SOL    HW129030   0.537   0.314   6.397  1.8233  0.5298  0.0026
 5856SOL    HW229031   0.629   0.358   6.497  1.9958 -1.2036 -0.5635
 5857SOL     OW29032   1.744   0.967  16.455  0.3574  0.6401 -0.2029
 5857SOL    HW129033   1.746   1.061  16.469 -0.8138  0.3198  2.1928
 5857SOL    HW229034   1.838   0.949  16.463 -0.4198 -2.4946  2.1976
 5858SOL     OW29035   4.204   4.417  13.701  0.6326  0.1865  0.6467
 5858SOL    HW129036   4.244   4.463  13.627 -2.1106 -0.1920 -1.0710
 5858SOL    HW229037   4.283   4.413  13.755  0.7323  1.7741  0.6186
 5859SOL     OW29038   3.608   4.132   5.632 -0.3851 -0.2126 -0.3954
 5859SOL    HW129039   3.542   4.126   5.702 -1.3075 -1.0232 -1.3281
 5859SOL    HW229040   3.686   4.113   5.684 -1.8760  0.0016  1.9334
 5860SOL     OW29041   2.657   4.425   7.215 -0.0454 -0.8393 -0.5374
 5860SOL    HW129042   2.741   4.460   7.184  0.6663 -0.7669  1.4996
 5860SOL    HW229043   2.613   4.419   7.130  0.3972 -3.8138 -0.5379
 5861SOL     OW29044   1.896   0.726  13.043 -0.6609  0.1804  0.6059
 5861SOL    HW129045   1.893   0.666  12.969  0.6679 -1.4246  1.8642
 5861SOL    HW229046   1.863   0.662  13.105  2.7940  0.1489  2.3905
 5862SOL     OW29047   0.971   0.683   7.208  0.1853 -0.4354 -0.3056
 5862SOL    HW129048   0.920   0.719   7.135  0.3660 -0.1380 -0.2852
 5862SOL    HW229049   0.971   0.591   7.184  0.9277 -0.3373 -0.7060
 5863SOL     OW29050   4.329   3.211  15.160  0.1124  0.2229  0.1493
 5863SOL    HW129051   4.410   3.252  15.188 -0.6801  0.1425  2.5558
 5863SOL    HW229052   4.364   3.149  15.096  0.7230 -0.6393  1.3179
 5864SOL     OW29053   4.623   3.608  12.310 -0.0897  0.0232  0.1104
 5864SOL    HW129054   4.654   3.648  12.229 -0.2061 -1.5549 -0.7255
 5864SOL    HW229055   4.630   3.668  12.384 -0.7372 -0.9383  0.9551
 5865SOL     OW29056   2.485   2.971   1.762  0.2648 -0.3090  0.7751
 5865SOL    HW129057   2.450   3.038   1.704  0.6897 -1.3253 -0.6351
 5865SOL    HW229058   2.495   2.895   1.706  1.1024  1.4584 -1.4412
 5866SOL     OW29059   0.537   2.827  16.423 -0.0022  0.2221  0.1156
 5866SOL    HW129060   0.603   2.813  16.491 -1.4792  0.4658  1.5945
 5866SOL    HW229061   0.584   2.789  16.349  0.0566  0.6845 -0.0855
 5867SOL     OW29062   4.188   2.534   2.427  0.2386 -0.1149 -0.3872
 5867SOL    HW129063   4.215   2.530   2.335 -0.4625 -3.1234 -0.4382
 5867SOL    HW229064   4.276   2.558   2.457  0.4992  0.4983 -1.6295
 5868SOL     OW29065   2.601   0.314   7.683 -0.4284  0.1537  0.6907
 5868SOL    HW129066   2.663   0.292   7.614 -1.0366 -0.4013  0.3189
 5868SOL    HW229067   2.519   0.268   7.666 -2.4470  2.9054  2.9678
 5869SOL     OW29068   3.022   4.420   4.226 -0.2539  0.0389 -0.4222
 5869SOL    HW129069   3.099   4.373   4.196  0.6518  1.1127  0.2311
 5869SOL    HW229070   2.980   4.460   4.149 -0.9244  0.7753  0.3205
 5870SOL     OW29071   1.608   0.163   3.514 -0.0336  0.0219 -0.1961
 5870SOL    HW129072   1.580   0.252   3.534  0.9497 -0.2358  2.3558
 5870SOL    HW229073   1.560   0.142   3.434 -1.2856  2.1428  0.0084
 5871SOL     OW29074   4.094   0.924  11.538 -0.5287 -0.1491  0.1159
 5871SOL    HW129075   4.077   0.881  11.455 -0.8907 -1.5595  0.9318
 5871SOL    HW229076   4.047   1.007  11.527  1.4307  0.9492  0.0258
 5872SOL     OW29077   1.460   0.332   8.098 -0.4579 -0.2617 -0.4025
 5872SOL    HW129078   1.500   0.381   8.171  0.3172 -1.3882 -0.0684
 5872SOL    HW229079   1.538   0.314   8.045  0.1434 -1.3039  0.8239
 5873SOL     OW29080   3.507   3.090   2.009 -0.0431  0.5224  0.3536
 5873SOL    HW129081   3.561   3.151   2.059  0.2127  0.3639  0.2687
 5873SOL    HW229082   3.544   3.004   2.028 -1.5795 -0.9596 -3.2789
 5874SOL     OW29083   0.839   2.263   2.726  0.0732  0.1595  0.1113
 5874SOL    HW129084   0.796   2.235   2.645  1.6490 -2.1883  0.0602
 5874SOL    HW229085   0.930   2.253   2.695 -1.0322 -1.8627 -2.5544
 5875SOL     OW29086   3.569   0.961   1.293  0.2408 -0.4640  0.5141
 5875SOL    HW129087   3.551   0.875   1.332 -1.9508 -0.5819 -0.7759
 5875SOL    HW229088   3.481   0.995   1.281  1.1210  1.8245  0.6241
 5876SOL     OW29089   3.460   1.308   4.162  0.0242 -0.0174  0.3858
 5876SOL    HW129090   3.551   1.287   4.141 -0.4114  0.4706 -2.0411
 5876SOL    HW229091   3.455   1.244   4.233  2.3867 -2.8213 -1.9296
 5877SOL     OW29092   1.238   3.937   6.107 -0.0498 -0.5244  0.3524
 5877SOL    HW129093   1.183   3.915   6.032 -1.7991  3.5924  0.4070
 5877SOL    HW229094   1.317   3.922   6.055 -1.1492  0.5143 -1.6385
 5878SOL     OW29095   0.077   0.374   6.701  0.4070 -0.0223  0.2862
 5878SOL    HW129096   0.126   0.328   6.769 -0.3618 -2.1997 -0.6308
 5878SOL    HW229097   0.045   0.459   6.731  3.1973  0.9404  0.5700
 5879SOL     OW29098   1.749   0.584   4.268 -0.2978 -0.4737  0.7882
 5879SOL    HW129099   1.782   0.497   4.249 -0.9947  0.0763 -2.8631
 5879SOL    HW229100   1.814   0.641   4.227 -1.5071 -0.1158 -0.6555
 5880SOL     OW29101   0.739   2.767  13.983 -0.0688 -0.3988 -0.4283
 5880SOL    HW129102   0.748   2.683  14.028  1.1146 -0.1543 -0.2056
 5880SOL    HW229103   0.793   2.822  14.040  1.0150  0.8036 -2.6320
 5881SOL     OW29104   3.373   4.522   5.095  0.3720  0.3497  0.6356
 5881SOL    HW129105   3.421   4.568   5.164  0.3547  1.1924  0.0808
 5881SOL    HW229106   3.325   4.449   5.135  0.9280  0.3285  1.2643
 5882SOL     OW29107   0.348   2.030   3.914  0.1364  0.3362  0.3779
 5882SOL    HW129108   0.443   2.029   3.902 -0.0150 -0.9088 -0.7285
 5882SOL    HW229109   0.334   1.936   3.902  0.2044  0.4550 -0.6465
 5883SOL     OW29110   1.420   1.377  13.790 -0.0548 -0.5329  0.3900
 5883SOL    HW129111   1.398   1.453  13.736 -0.6517 -1.5714 -0.8339
 5883SOL    HW229112   1.364   1.382  13.868 -1.4940 -3.5669 -0.4611
 5884SOL     OW29113   2.804   3.584   6.758  0.0252  0.1493  0.4017
 5884SOL    HW129114   2.863   3.525   6.806 -0.0099  0.7911  1.2461
 5884SOL    HW229115   2.863   3.655   6.732 -0.4769  0.6925  0.7403
 5885SOL     OW29116   4.106   0.946   4.958  0.2877  0.1825 -0.5293
 5885SOL    HW129117   4.028   0.894   4.976  0.5380 -0.5891 -1.6719
 5885SOL    HW229118   4.147   0.886   4.897  0.9679  0.8387 -0.7193
 5886SOL     OW29119   3.373   2.714  15.871  0.6908 -0.3574 -0.6011
 5886SOL    HW129120   3.336   2.802  15.859  1.3001  0.3435  2.6385
 5886SOL    HW229121   3.309   2.656  15.829  0.9918 -1.9485  1.1689
 5887SOL     OW29122   4.085   0.249   5.567  0.5684 -0.1133 -0.0144
 5887SOL    HW129123   4.074   0.252   5.662 -0.5665 -0.0375 -0.1518
 5887SOL    HW229124   4.000   0.289   5.549  0.0841 -1.4544 -0.6572
 5888SOL     OW29125   1.552   0.101   1.736  0.1261 -0.0823  0.4033
 5888SOL    HW129126   1.614   0.136   1.673 -1.1683  1.9998  0.2887
 5888SOL    HW229127   1.476   0.126   1.683  0.3356 -2.6916 -1.1236
 5889SOL     OW29128   4.015   3.889   8.995  0.4227  0.3421  0.1110
 5889SOL    HW129129   4.074   3.964   8.996  0.0820  0.6050  0.2608
 5889SOL    HW229130   3.992   3.898   9.088  1.3843  0.9211  0.2873
 5890SOL     OW29131   3.494   4.324   9.210 -0.0083 -0.3355 -0.1374
 5890SOL    HW129132   3.407   4.284   9.218 -0.5463  0.5953 -1.2168
 5890SOL    HW229133   3.521   4.314   9.301  2.5927 -1.9568 -1.1241
 5891SOL     OW29134   1.717   3.938   3.041  0.8139  0.0852 -0.1976
 5891SOL    HW129135   1.697   3.983   2.959 -0.3797  1.2186  0.7262
 5891SOL    HW229136   1.773   3.863   3.018  1.6733  1.0132 -1.0828
 5892SOL     OW29137   2.982   1.704   7.577  0.2071  0.4888  0.2798
 5892SOL    HW129138   2.957   1.627   7.629  1.1784  0.9311  1.4127
 5892SOL    HW229139   2.894   1.737   7.560 -0.2421 -0.5909  0.4682
 5893SOL     OW29140   2.086   4.106  14.979  0.4987  0.1813  0.0624
 5893SOL    HW129141   2.045   4.022  15.000 -1.1172  1.1433  0.7626
 5893SOL    HW229142   2.168   4.086  14.934  0.5659  0.0804  0.2322
 5894SOL     OW29143   2.354   1.583  13.624 -0.8179  0.1378  0.6087
 5894SOL    HW129144   2.383   1.650  13.686 -2.2739  0.2009  1.2121
 5894SOL    HW229145   2.265   1.578  13.657 -1.4270 -3.2439 -1.4567
 5895SOL     OW29146   0.447   1.630  10.545 -0.5461  0.1611  0.1093
 5895SOL    HW129147   0.373   1.681  10.512  1.1178  1.5549 -1.4663
 5895SOL    HW229148   0.410   1.546  10.517 -1.0301  0.0689  1.0189
 5896SOL     OW29149   1.570   0.659   8.878  0.0318  0.2763 -0.2203
 5896SOL    HW129150   1.528   0.710   8.947  0.9842 -1.1355  1.4109
 5896SOL    HW229151   1.634   0.722   8.846 -1.4240  2.2966  0.8753
 5897SOL     OW29152   4.214   1.178   8.997  0.0487  0.0227 -0.2891
 5897SOL    HW129153   4.223   1.155   9.089 -1.2565 -0.9708 -0.4153
 5897SOL    HW229154   4.264   1.259   8.990 -0.4656  0.3276 -0.4677
 5898SOL     OW29155   0.485   2.787   6.578  0.3038  0.0295  0.0453
 5898SOL    HW129156   0.580   2.798   6.589  0.2508 -0.3954  0.9432
 5898SOL    HW229157   0.492   2.716   6.514 -0.9793  0.8946 -1.0569
 5899SOL     OW29158   4.422   0.347   4.151  0.1028  0.0962 -0.5241
 5899SOL    HW129159   4.469   0.330   4.069 -0.1767 -0.5590 -0.5490
 5899SOL    HW229160   4.491   0.397   4.194 -2.0877  2.5200  0.2037
 5900SOL     OW29161   0.668   2.018  11.626 -0.4331 -0.6666 -0.7755
 5900SOL    HW129162   0.760   2.035  11.646 -0.8524  1.9244 -1.0913
 5900SOL    HW229163   0.660   2.064  11.542 -0.1890 -1.0596 -1.0144
 5901SOL     OW29164   3.309   4.340   2.150 -0.3834  0.2626 -0.0929
 5901SOL    HW129165   3.349   4.371   2.231 -1.7222 -0.4249  0.8248
 5901SOL    HW229166   3.263   4.418   2.120 -1.9954 -0.2141  1.1015
 5902SOL     OW29167   1.678   2.032   9.948  1.4931  0.0662  0.1284
 5902SOL    HW129168   1.756   1.987   9.981  1.3171 -0.2804  0.0810
 5902SOL    HW229169   1.695   2.033   9.854  1.0741 -0.4714  0.0419
 5903SOL     OW29170   4.343   2.538   3.460 -0.5031 -0.6910 -0.1131
 5903SOL    HW129171   4.298   2.578   3.386 -0.6745 -0.5005  0.0930
 5903SOL    HW229172   4.346   2.447   3.429  0.2025 -0.8099  0.2788
 5904SOL     OW29173   0.916   2.020   8.867 -0.0291  0.4757 -0.2417
 5904SOL    HW129174   0.978   1.976   8.808  1.3139  3.3301 -0.9648
 5904SOL    HW229175   0.916   1.956   8.938  0.7674  2.9236  1.9519
 5905SOL     OW29176   0.130   0.545   4.411  0.0268  0.0954 -0.1579
 5905SOL    HW129177   0.184   0.607   4.460  0.4297  0.3826 -0.9609
 5905SOL    HW229178   0.139   0.574   4.320 -2.6984 -1.9166 -1.0556
 5906SOL     OW29179   1.571   1.199   2.955 -0.2963  0.1115  0.0925
 5906SOL    HW129180   1.584   1.106   2.936 -1.2120 -0.4878  2.4434
 5906SOL    HW229181   1.479   1.202   2.929 -0.6625  0.3360  1.4409
 5907SOL     OW29182   3.577   1.321   5.946 -0.2825 -0.4791  0.7373
 5907SOL    HW129183   3.636   1.363   5.883  0.1016 -3.4216 -0.8942
 5907SOL    HW229184   3.589   1.226   5.935  0.6535 -0.3985  1.0709
 5908SOL     OW29185   0.497   2.421  10.569 -0.3407 -0.0104  0.1166
 5908SOL    HW129186   0.475   2.505  10.610 -4.0421 -1.3126  0.8128
 5908SOL    HW229187   0.455   2.414  10.483 -0.3856  0.1627  0.1240
 5909SOL     OW29188   1.280   3.422   9.639 -0.3455 -0.0911 -0.3955
 5909SOL    HW129189   1.256   3.331   9.622  0.8907 -0.0752 -2.3045
 5909SOL    HW229190   1.198   3.453   9.677  0.1131  0.4630  0.1469
 5910SOL     OW29191   1.096   0.976   3.469 -0.3286 -0.0592  0.2717
 5910SOL    HW129192   1.104   1.063   3.430  0.0005 -0.6362 -0.9579
 5910SOL    HW229193   1.103   0.983   3.564  2.7312 -0.4305  0.0899
 5911SOL     OW29194   1.029   0.223   8.926 -0.2606  0.5861  0.3785
 5911SOL    HW129195   1.020   0.311   8.892 -0.0261  0.3071 -0.4055
 5911SOL    HW229196   1.025   0.244   9.019 -0.6915  0.4814  0.3824
 5912SOL     OW29197   0.755   1.538   3.909 -0.4245 -0.3425  0.6659
 5912SOL    HW129198   0.790   1.462   3.864 -0.5969 -1.4983  2.4596
 5912SOL    HW229199   0.661   1.517   3.911 -0.3653 -0.7607 -1.2026
 5913SOL     OW29200   0.184   0.738   7.639  0.1164 -0.2062 -0.5306
 5913SOL    HW129201   0.279   0.751   7.635 -0.0427  1.6288  1.2527
 5913SOL    HW229202   0.173   0.660   7.693 -0.7019  0.9935  1.0534
 5914SOL     OW29203   2.328   3.710  15.891 -0.4532 -0.7230  0.3211
 5914SOL    HW129204   2.242   3.699  15.931 -0.3384 -1.7946  0.2696
 5914SOL    HW229205   2.301   3.711  15.800  0.3144  1.8635  0.1313
 5915SOL     OW29206   2.387   4.231  17.591  0.6624 -0.0927 -0.6097
 5915SOL    HW129207   2.413   4.197  17.677 -1.7154  1.7251  0.8343
 5915SOL    HW229208   2.292   4.219  17.599  0.4649  0.1113 -2.6239
 5916SOL     OW29209   3.357   0.154  11.689  0.7386  0.1466  0.1630
 5916SOL    HW129210   3.392   0.234  11.729 -2.0505  1.3339  0.2392
 5916SOL    HW229211   3.411   0.144  11.611 -0.1763  0.0930 -0.4569
 5917SOL     OW29212   0.040   3.676   7.563  0.0201 -0.3435 -0.7585
 5917SOL    HW129213   0.020   3.769   7.551  1.5417  0.2346  1.2965
 5917SOL    HW229214   4.707   3.639   7.494 -0.3609 -1.2140  0.0171
 5918SOL     OW29215   2.627   3.203   9.722 -0.5370  0.1721  0.5652
 5918SOL    HW129216   2.653   3.197   9.630 -0.5399 -0.5924  0.6172
 5918SOL    HW229217   2.601   3.295   9.727 -3.3197 -0.5449 -0.6769
 5919SOL     OW29218   0.061   3.704  15.065 -0.1936  0.0152  0.4139
 5919SOL    HW129219   0.006   3.755  15.124  1.8643  0.6410  1.8018
 5919SOL    HW229220   4.716   3.686  14.999 -0.4568 -0.3134  0.7707
 5920SOL     OW29221   1.775   2.742   8.062  0.4531  0.3395  0.0384
 5920SOL    HW129222   1.871   2.741   8.063  0.4344 -1.0348  0.9369
 5920SOL    HW229223   1.753   2.769   8.151 -1.1267  0.8240 -0.5124
 5921SOL     OW29224   2.705   1.335  13.425  0.5210 -0.3595 -0.1144
 5921SOL    HW129225   2.672   1.385  13.500 -0.8618  0.3093 -1.1650
 5921SOL    HW229226   2.800   1.335  13.434  0.5309  1.1437 -0.1523
 5922SOL     OW29227   0.146   2.099   0.678 -0.0257 -0.0069 -0.3059
 5922SOL    HW129228   0.202   2.123   0.752 -0.2669 -1.5603  0.3866
 5922SOL    HW229229   0.125   2.185   0.641 -1.0299  0.5543  1.5655
 5923SOL     OW29230   1.535   0.199  10.760  0.4531 -0.3236  0.4887
 5923SOL    HW129231   1.492   0.249  10.690  0.8251 -0.0438  0.4625
 5923SOL    HW229232   1.598   0.140  10.720 -0.0576 -1.2457  1.0565
 5924SOL     OW29233   0.371   3.941   4.484 -0.1191  0.0998  0.0046
 5924SOL    HW129234   0.332   3.854   4.475  2.1193 -0.8604 -0.3583
 5924SOL    HW229235   0.295   3.984   4.525 -0.5643 -1.0528  0.3792
 5925SOL     OW29236   3.106   1.227   8.482 -0.1721  0.2903  0.0159
 5925SOL    HW129237   3.169   1.181   8.538 -0.9933 -0.5327  0.2765
 5925SOL    HW229238   3.107   1.160   8.413 -0.5165  0.8223 -0.4999
 5926SOL     OW29239   4.096   1.785  13.668 -0.4478  0.0194 -0.1628
 5926SOL    HW129240   4.087   1.856  13.603  0.4510  0.0456 -0.2574
 5926SOL    HW229241   4.022   1.796  13.727  0.3480  1.3359  0.6064
 5927SOL     OW29242   3.041   0.250   7.465 -0.3857 -0.3000 -0.1314
 5927SOL    HW129243   3.088   0.309   7.406 -0.6482 -1.2516 -1.3134
 5927SOL    HW229244   3.103   0.227   7.534 -1.8805 -1.4960  0.7819
 5928SOL     OW29245   4.538   2.092   7.117  0.2229 -0.0299  0.5539
 5928SOL    HW129246   4.487   2.019   7.081  0.5747 -0.0350  0.0571
 5928SOL    HW229247   4.505   2.160   7.058  0.8036  1.2401  1.7124
 5929SOL     OW29248   4.441   0.774   1.266  0.0958  0.9823 -0.1225
 5929SOL    HW129249   4.456   0.696   1.319 -2.8486  1.2594  1.1135
 5929SOL    HW229250   4.464   0.749   1.176 -1.0952  0.5101 -0.2854
 5930SOL     OW29251   3.349   1.382   0.944  0.4799 -0.3968 -0.6452
 5930SOL    HW129252   3.355   1.358   1.036 -0.5557  1.7474 -0.0061
 5930SOL    HW229253   3.373   1.474   0.957  2.0212 -0.9228  0.1698
 5931SOL     OW29254   2.366   0.073   3.486  0.0759  0.4966 -0.4909
 5931SOL    HW129255   2.330   0.062   3.398  0.1554  0.5563 -0.5316
 5931SOL    HW229256   2.350   0.167   3.498 -1.0006  0.3690 -0.9963
 5932SOL     OW29257   4.552   0.529   7.366 -0.2516 -0.4033  0.6716
 5932SOL    HW129258   4.555   0.621   7.392  0.0628  0.6054 -2.9174
 5932SOL    HW229259   4.582   0.528   7.275 -0.1473 -0.4918  0.7067
 5933SOL     OW29260   4.205   4.466  14.875  0.2910  0.8009 -0.2459
 5933SOL    HW129261   4.148   4.503  14.942 -0.4762  2.0784 -1.6075
 5933SOL    HW229262   4.164   4.380  14.884  2.0261  0.1757  1.8471
 5934SOL     OW29263   0.173   3.733   2.123 -0.3434 -0.4519 -0.0010
 5934SOL    HW129264   0.100   3.672   2.117 -1.3402  0.8256 -0.6571
 5934SOL    HW229265   0.207   3.717   2.212 -2.1146 -2.2231  0.3608
 5935SOL     OW29266   1.960   4.372   3.992  0.5179  0.2947 -0.0254
 5935SOL    HW129267   1.899   4.400   4.059  0.7111  0.1884  0.1930
 5935SOL    HW229268   1.932   4.433   3.923  2.2561  1.1178 -0.0127
 5936SOL     OW29269   0.811   1.629   7.716  0.1851  0.1209  0.6554
 5936SOL    HW129270   0.815   1.534   7.703 -1.0238  0.0145  1.0000
 5936SOL    HW229271   0.726   1.624   7.761 -1.5292 -0.6682 -2.6903
 5937SOL     OW29272   0.967   3.012  15.277  0.3637 -0.2031  0.2037
 5937SOL    HW129273   0.894   3.073  15.264 -1.0421 -1.7750  0.7208
 5937SOL    HW229274   1.029   3.064  15.227 -0.5235 -0.1432 -0.8445
 5938SOL     OW29275   2.385   1.924   9.076  0.2073 -0.5545  0.1338
 5938SOL    HW129276   2.340   1.839   9.081  0.9902 -0.9475  0.3746
 5938SOL    HW229277   2.468   1.905   9.118 -0.1293  0.4666  1.2343
 5939SOL     OW29278   1.064   0.957   5.389  0.5287 -0.3723  0.0334
 5939SOL    HW129279   1.105   1.009   5.320  0.3331 -0.5908 -0.2453
 5939SOL    HW229280   1.043   0.884   5.332 -0.0690  1.0526 -1.5616
 5940SOL     OW29281   3.075   4.254   4.926 -0.5934 -0.1845  0.0733
 5940SOL    HW129282   3.108   4.203   4.852  1.8278 -1.4048  1.9908
 5940SOL    HW229283   3.006   4.194   4.957 -1.5035  1.7349  1.7854
 5941SOL     OW29284   1.217   0.083   3.988  0.5482  0.4994 -0.7527
 5941SOL    HW129285   1.194   0.031   4.064  0.2014 -1.6188 -2.3036
 5941SOL    HW229286   1.304   0.104   4.020 -0.3386  2.3206  0.4550
 5942SOL     OW29287   3.640   2.568   3.898 -0.0371 -0.1639 -0.5061
 5942SOL    HW129288   3.607   2.617   3.973 -1.8362  1.2222 -2.1774
 5942SOL    HW229289   3.588   2.487   3.896 -1.4621  0.7508 -0.5177
 5943SOL     OW29290   0.515   4.358  14.274  0.3180  0.4490 -0.0579
 5943SOL    HW129291   0.556   4.334  14.191 -3.0396 -0.4959 -1.4392
 5943SOL    HW229292   0.498   4.281  14.328  1.5160  0.4012  0.2439
 5944SOL     OW29293   3.761   3.799   9.234 -0.3515  0.3619 -0.3542
 5944SOL    HW129294   3.840   3.844   9.264 -0.4564 -0.9613  1.9494
 5944SOL    HW229295   3.697   3.865   9.259 -0.4296  0.5927 -1.1620
 5945SOL     OW29296   1.689   2.725   3.837  0.1885 -0.3100  0.0096
 5945SOL    HW129297   1.782   2.703   3.831  1.0302  3.0242  1.1383
 5945SOL    HW229298   1.697   2.790   3.907  1.7211 -0.3764 -0.0980
 5946SOL     OW29299   2.825   2.241   8.569  0.1102  0.2715 -0.5452
 5946SOL    HW129300   2.892   2.253   8.502 -0.0282 -0.4089 -0.8088
 5946SOL    HW229301   2.756   2.199   8.517  0.3178  0.0321 -0.6282
 5947SOL     OW29302   4.515   0.687   8.528 -0.2598 -0.4330  0.2625
 5947SOL    HW129303   4.501   0.737   8.448 -0.1934 -2.0617 -0.7563
 5947SOL    HW229304   4.601   0.658   8.498 -0.6503 -0.7994 -0.4985
 5948SOL     OW29305   3.239   3.468  12.581  0.0887  0.3082  0.1352
 5948SOL    HW129306   3.163   3.428  12.539  0.6846 -0.3168 -0.3479
 5948SOL    HW229307   3.305   3.432  12.522 -0.7614  3.3849 -2.6604
 5949SOL     OW29308   4.467   4.491  14.805 -0.3353 -0.9427  0.6532
 5949SOL    HW129309   4.378   4.486  14.839  0.3180 -1.1813  2.3847
 5949SOL    HW229310   4.484   4.405  14.768 -0.9366 -0.6017 -0.4120
 5950SOL     OW29311   4.477   3.214   0.937 -0.1970 -1.2286  0.2924
 5950SOL    HW129312   4.475   3.155   1.012  0.8361  0.1992  1.4133
 5950SOL    HW229313   4.505   3.298   0.973 -1.7335 -0.8176  0.5411
 5951SOL     OW29314   2.100   4.317   2.997 -0.0242  0.2203 -0.1404
 5951SOL    HW129315   2.166   4.324   3.065  1.7011 -2.3691 -1.5693
 5951SOL    HW229316   2.130   4.249   2.937 -0.7706  0.1766 -0.4754
 5952SOL     OW29317   0.824   1.631   5.168 -0.0298 -0.6798 -0.0161
 5952SOL    HW129318   0.763   1.667   5.104  2.4400  2.8268 -0.4063
 5952SOL    HW229319   0.854   1.551   5.126  0.1731 -1.3732  1.4654
 5953SOL     OW29320   1.784   0.861  17.253  0.1428  0.1955  0.2074
 5953SOL    HW129321   1.729   0.939  17.241  1.4168  1.4112  2.2096
 5953SOL    HW229322   1.840   0.876  17.178 -2.2469  0.1256 -1.5898
 5954SOL     OW29323   1.843   3.231  10.257  0.7636 -0.1622  0.8942
 5954SOL    HW129324   1.926   3.186  10.239  0.4571 -0.9026  1.2929
 5954SOL    HW229325   1.864   3.319  10.226  3.0638 -0.7026  0.9073
 5955SOL     OW29326   0.982   3.245  10.547 -0.2965  0.2974 -0.1890
 5955SOL    HW129327   0.914   3.194  10.504  0.3027 -0.2375 -0.4875
 5955SOL    HW229328   0.971   3.326  10.497 -3.3881 -0.9661 -1.5554
 5956SOL     OW29329   3.735   0.280   1.096  0.1555  0.1587 -0.0205
 5956SOL    HW129330   3.743   0.330   1.015 -4.3795  1.9640  0.6797
 5956SOL    HW229331   3.746   0.354   1.156  0.6838  1.3933 -1.6443
 5957SOL     OW29332   0.464   1.707   4.431 -0.1377 -0.4079  0.0914
 5957SOL    HW129333   0.467   1.733   4.339  1.0229 -0.4766  0.1118
 5957SOL    HW229334   0.416   1.781   4.470 -0.5291 -0.1217 -0.9443
 5958SOL     OW29335   3.935   1.328   2.878 -0.5649  0.0279  0.0190
 5958SOL    HW129336   3.987   1.340   2.957  2.1318  0.2649 -1.8000
 5958SOL    HW229337   3.850   1.362   2.905 -0.7127  1.3784 -2.1954
 5959SOL     OW29338   2.570   3.138  13.649  0.3814 -0.5965  0.3110
 5959SOL    HW129339   2.520   3.059  13.631 -0.0410  0.3387 -2.7386
 5959SOL    HW229340   2.593   3.168  13.561  1.6502  0.4378  1.0027
 5960SOL     OW29341   1.020   2.244  10.994  0.4184 -0.1925 -0.7319
 5960SOL    HW129342   1.002   2.186  10.920 -2.5352  1.2739 -1.1635
 5960SOL    HW229343   1.109   2.228  11.027  0.9877  1.0702 -1.6562
 5961SOL     OW29344   2.837   0.401   2.025  0.2565 -0.2940 -0.0424
 5961SOL    HW129345   2.910   0.401   2.087 -0.0382  0.3954  0.3096
 5961SOL    HW229346   2.846   0.316   1.983 -3.0287  0.1345 -1.5751
 5962SOL     OW29347   3.228   1.718  15.528 -0.1053 -0.2772  0.2417
 5962SOL    HW129348   3.185   1.784  15.475 -0.0158 -2.3813 -2.4516
 5962SOL    HW229349   3.287   1.768  15.585  1.6772  0.1633 -2.0227
 5963SOL     OW29350   1.339   2.738  11.941  0.1085 -0.1111  0.2561
 5963SOL    HW129351   1.390   2.741  11.861 -1.2270 -2.5853 -0.7025
 5963SOL    HW229352   1.265   2.681  11.919  1.1925 -1.8855  1.1182
 5964SOL     OW29353   1.173   2.543   6.877 -0.3535  0.4146  0.2448
 5964SOL    HW129354   1.085   2.511   6.898  0.7030 -0.5580  3.1345
 5964SOL    HW229355   1.160   2.638   6.874 -0.1899  0.3725 -2.1361
 5965SOL     OW29356   2.139   2.538  16.543  0.1224 -0.4608  0.8116
 5965SOL    HW129357   2.138   2.481  16.620 -2.3991 -2.5483 -0.7609
 5965SOL    HW229358   2.132   2.469  16.477 -1.1719  2.9440 -2.5756
 5966SOL     OW29359   1.349   1.798  13.324 -0.1224 -0.0282  0.9608
 5966SOL    HW129360   1.443   1.813  13.334 -0.1783 -0.1910  1.7302
 5966SOL    HW229361   1.343   1.715  13.276 -0.5459  1.3179 -1.3614
 5967SOL     OW29362   0.639   2.479  15.575 -0.3909 -0.2088 -0.0473
 5967SOL    HW129363   0.557   2.443  15.608  0.2241  0.9774  2.7903
 5967SOL    HW229364   0.677   2.405  15.528  0.0650 -0.5132  0.7880
 5968SOL     OW29365   0.593   1.896  10.708  0.0547 -0.1212  0.4176
 5968SOL    HW129366   0.581   1.991  10.707  0.2618 -0.1073 -0.9618
 5968SOL    HW229367   0.678   1.886  10.665  1.3166  2.4883  2.3214
 5969SOL     OW29368   1.454   3.131   8.118  0.1521  0.1643 -0.4882
 5969SOL    HW129369   1.425   3.082   8.042 -1.7439 -0.5895  0.7010
 5969SOL    HW229370   1.514   3.196   8.082  0.0908  0.6239  0.2291
 5970SOL     OW29371   0.248   1.136  11.046 -0.4417  0.2898  0.0239
 5970SOL    HW129372   0.265   1.197  10.973 -1.4923 -0.4798 -0.8674
 5970SOL    HW229373   0.158   1.112  11.025  0.4048 -1.7300 -1.2848
 5971SOL     OW29374   4.601   2.586   6.442  0.6018 -0.2443  0.2365
 5971SOL    HW129375   4.534   2.653   6.433 -1.4960 -2.4381 -0.2893
 5971SOL    HW229376   4.651   2.605   6.362  1.9835 -1.2433  0.8458
 5972SOL     OW29377   0.045   4.004   9.135 -0.4524  0.1220 -0.2746
 5972SOL    HW129378   4.682   4.043   9.112 -0.6063 -0.2192 -0.2844
 5972SOL    HW229379   0.025   3.911   9.125 -1.8246  0.3677  0.0958
 5973SOL     OW29380   2.547   3.079   6.466 -0.1740 -0.2324 -0.1259
 5973SOL    HW129381   2.542   3.005   6.406 -0.4664 -1.4056  1.3328
 5973SOL    HW229382   2.537   3.155   6.410  0.6662  0.7116  1.0102
 5974SOL     OW29383   4.415   2.987   7.383  0.0594 -0.2478  0.0492
 5974SOL    HW129384   4.468   2.910   7.402  0.0214 -0.4290 -0.5925
 5974SOL    HW229385   4.397   2.979   7.290 -2.0827  2.3280  0.2207
 5975SOL     OW29386   2.089   2.741   2.336  0.2203  0.7586  0.4650
 5975SOL    HW129387   2.096   2.808   2.268 -1.5007 -0.5282 -0.9713
 5975SOL    HW229388   2.017   2.778   2.386 -0.5760  0.7793 -0.7015
 5976SOL     OW29389   4.691   3.388  11.602 -0.0238  0.0711  0.7699
 5976SOL    HW129390   0.048   3.438  11.581  0.8477 -0.9101  1.7213
 5976SOL    HW229391   0.010   3.319  11.654 -1.6034  0.0962  2.0518
 5977SOL     OW29392   3.480   0.080   6.442  0.0170 -0.0684  0.5239
 5977SOL    HW129393   3.464   0.031   6.361  0.3300 -2.8622  2.1378
 5977SOL    HW229394   3.569   0.105   6.418 -0.0048 -0.2619  0.2430
 5978SOL     OW29395   0.153   3.661  12.141  0.1149 -0.0243  0.5939
 5978SOL    HW129396   0.068   3.676  12.100  0.8795  1.3099 -0.5129
 5978SOL    HW229397   0.178   3.581  12.094 -1.4080  0.7369 -1.5598
 5979SOL     OW29398   2.244   1.879   1.875  0.3355 -0.0680  0.2375
 5979SOL    HW129399   2.227   1.879   1.780 -1.0958  0.2553  0.4990
 5979SOL    HW229400   2.333   1.914   1.886  0.3263 -0.0217  0.1705
 5980SOL     OW29401   0.247   1.744   4.677 -0.1490 -0.7875 -0.2894
 5980SOL    HW129402   0.162   1.704   4.697 -0.9122  1.1258  0.3128
 5980SOL    HW229403   0.307   1.675   4.650 -2.3816 -2.8033 -0.1318
 5981SOL     OW29404   1.500   0.816  16.389 -0.3027 -0.1759  0.5234
 5981SOL    HW129405   1.482   0.904  16.357  1.8782  0.2624  0.4961
 5981SOL    HW229406   1.580   0.846  16.433  0.2952 -0.4136 -0.4025
 5982SOL     OW29407   4.111   1.218  10.090 -0.1676 -0.4312 -0.5172
 5982SOL    HW129408   4.021   1.186  10.100 -0.6063  0.9447  0.0150
 5982SOL    HW229409   4.094   1.301  10.135 -0.1680 -0.0661 -1.1929
 5983SOL     OW29410   2.011   4.430   5.971  0.0982 -0.1688 -0.1878
 5983SOL    HW129411   2.006   4.335   5.976 -2.5720  0.0652  1.4408
 5983SOL    HW229412   2.072   4.449   6.042  0.1881  0.9142 -0.5572
 5984SOL     OW29413   1.393   0.611   8.034  0.0492 -0.2713  0.5708
 5984SOL    HW129414   1.456   0.544   8.063  1.0406 -0.0189 -0.9915
 5984SOL    HW229415   1.449   0.674   7.988 -0.9506 -0.2348 -0.5984
 5985SOL     OW29416   3.874   2.792  12.204 -0.0736  0.1915 -0.1152
 5985SOL    HW129417   3.869   2.721  12.140  1.1603 -1.0758  1.1939
 5985SOL    HW229418   3.924   2.856  12.153 -0.9950  1.5793  0.7281
 5986SOL     OW29419   3.979   1.922  11.298 -0.1765  0.0859 -0.2116
 5986SOL    HW129420   3.997   1.902  11.206 -0.7271  2.3206 -0.8007
 5986SOL    HW229421   4.060   1.885  11.334  1.3660  2.2155 -1.5085
 5987SOL     OW29422   3.693   1.608   3.823  0.2241 -0.1954  0.4075
 5987SOL    HW129423   3.611   1.657   3.830 -0.6219 -1.5330 -0.0189
 5987SOL    HW229424   3.668   1.548   3.752 -0.6778  0.6786 -0.0143
 5988SOL     OW29425   3.913   1.133   4.232 -0.2787  0.0073  0.2728
 5988SOL    HW129426   3.919   1.184   4.313  1.0871  0.7840 -0.3224
 5988SOL    HW229427   3.976   1.065   4.253  0.1295  0.3634  0.1956
 5989SOL     OW29428   4.550   2.638   3.573  0.1677 -0.5960  0.2112
 5989SOL    HW129429   4.471   2.585   3.562  1.5537 -2.2514 -1.6533
 5989SOL    HW229430   4.565   2.658   3.481 -2.0828  2.3944  0.5178
 5990SOL     OW29431   2.980   0.340   6.538  0.0096 -0.2947  0.6033
 5990SOL    HW129432   2.956   0.286   6.463  0.0835 -0.3468  0.6175
 5990SOL    HW229433   3.072   0.313   6.547  0.0529 -0.5528 -0.6362
 5991SOL     OW29434   2.409   4.696   8.923  0.3355  0.1113  0.0790
 5991SOL    HW129435   2.371   4.622   8.971  1.2914 -0.2752  0.2459
 5991SOL    HW229436   2.366   0.040   8.978  1.2588 -0.0450  0.9990
 5992SOL     OW29437   3.508   2.497   5.470  0.2638 -1.1118  0.3418
 5992SOL    HW129438   3.479   2.588   5.475  1.2454 -0.7449 -0.5428
 5992SOL    HW229439   3.550   2.491   5.384 -0.4722  0.3995 -0.1172
 5993SOL     OW29440   0.466   0.075   4.669 -0.5873 -0.1692 -0.6186
 5993SOL    HW129441   0.426   0.015   4.732 -0.1605  0.6228  0.3999
 5993SOL    HW229442   0.500   0.014   4.603 -0.6881 -2.0742  1.0691
 5994SOL     OW29443   2.923   3.552   1.921 -0.0549 -0.1723  0.1692
 5994SOL    HW129444   2.877   3.634   1.904 -2.1954 -1.4077 -0.0224
 5994SOL    HW229445   2.869   3.509   1.987  0.4950 -1.6809 -0.3619
 5995SOL     OW29446   1.622   1.680   6.972 -0.1203  0.0651  0.1677
 5995SOL    HW129447   1.587   1.628   7.045  2.9495 -2.0985  0.1472
 5995SOL    HW229448   1.581   1.764   6.992 -0.5800 -0.3843  1.1068
 5996SOL     OW29449   3.270   3.898   8.625  0.3019 -0.4605 -0.2863
 5996SOL    HW129450   3.226   3.829   8.676  0.5413 -0.6927 -0.3902
 5996SOL    HW229451   3.334   3.910   8.695  2.1635 -1.9441 -1.7406
 5997SOL     OW29452   2.923   4.238   1.436  0.2134  0.3512 -0.1397
 5997SOL    HW129453   2.890   4.149   1.443 -0.8686  0.5883 -2.0806
 5997SOL    HW229454   2.863   4.284   1.378  1.1319  1.2621 -0.3796
 5998SOL     OW29455   2.692   2.670   4.013 -0.3086  0.2886  0.4851
 5998SOL    HW129456   2.662   2.595   4.065  2.4067 -0.6885  0.6441
 5998SOL    HW229457   2.783   2.673   4.041 -1.0946  2.8968  2.7546
 5999SOL     OW29458   3.749   0.001  10.515  0.5268 -0.3799  0.3612
 5999SOL    HW129459   3.779   4.693  10.601 -0.0869 -1.0377  0.3450
 5999SOL    HW229460   3.760   0.095  10.530 -2.2427  0.0873 -0.6145
 6000SOL     OW29461   4.036   1.322  13.974 -0.2146 -0.1770 -0.7527
 6000SOL    HW129462   4.080   1.253  13.924  0.2537 -0.2721 -0.2031
 6000SOL    HW229463   3.954   1.279  13.999  1.1806 -1.6856  1.1722
 6001SOL     OW29464   2.472   2.630   2.054  0.2867  0.6981  0.2789
 6001SOL    HW129465   2.487   2.577   1.975 -0.8342 -1.0631  1.2574
 6001SOL    HW229466   2.452   2.721   2.032 -1.5829  0.4437  0.9489
 6002SOL     OW29467   4.059   3.313   4.969 -0.6422  0.6087  0.0600
 6002SOL    HW129468   4.053   3.271   4.884 -1.1204 -0.4392  0.6221
 6002SOL    HW229469   4.100   3.244   5.021  2.7505  3.1477  0.7522
 6003SOL     OW29470   3.813   1.048   4.510 -0.1409 -0.2582  0.2754
 6003SOL    HW129471   3.746   0.986   4.480 -1.6107  1.4113  0.1441
 6003SOL    HW229472   3.894   1.000   4.491  0.1910  0.9792 -1.3814
 6004SOL     OW29473   0.992   0.017   2.229  0.4090  0.4692  0.4920
 6004SOL    HW129474   0.940   4.662   2.207  0.3224  1.1231 -1.6610
 6004SOL    HW229475   1.064   0.015   2.166 -1.9360  2.0160 -2.2715
 6005SOL     OW29476   2.650   0.616   5.172 -0.1299  0.6628 -0.1737
 6005SOL    HW129477   2.721   0.665   5.213  0.0805  1.2317 -1.2108
 6005SOL    HW229478   2.667   0.536   5.223 -0.6952 -1.2213 -2.9363
 6006SOL     OW29479   0.763   2.366   7.175  0.4689  0.3314 -0.0848
 6006SOL    HW129480   0.745   2.439   7.233 -0.6867 -0.2662  0.3173
 6006SOL    HW229481   0.712   2.303   7.226  0.3795  1.5920  1.3550
 6007SOL     OW29482   4.113   1.259   8.576 -0.2065  0.2691  0.1170
 6007SOL    HW129483   4.182   1.311   8.617 -1.0025  2.5617 -1.4453
 6007SOL    HW229484   4.112   1.294   8.487  0.3428 -0.2255 -0.0787
 6008SOL     OW29485   3.733   1.204  11.352 -0.2319 -0.1443 -0.0581
 6008SOL    HW129486   3.790   1.151  11.296 -0.9874  0.2650 -1.2279
 6008SOL    HW229487   3.767   1.293  11.347 -2.2995  0.7460  1.9205
 6009SOL     OW29488   0.240   2.872   8.796 -0.1281  0.1791 -0.2858
 6009SOL    HW129489   0.229   2.903   8.706 -0.6053 -1.9798 -0.9538
 6009SOL    HW229490   0.148   2.873   8.823 -0.3912  0.0315 -1.1667
 6010SOL     OW29491   0.498   0.682  16.409 -0.2012  0.1742  0.6400
 6010SOL    HW129492   0.440   0.650  16.340 -0.6593 -0.4801  1.3260
 6010SOL    HW229493   0.568   0.715  16.353  0.1042 -0.9150  0.3819
 6011SOL     OW29494   1.827   1.828   7.216  0.2862 -0.0156  0.2103
 6011SOL    HW129495   1.841   1.871   7.301 -3.2634 -0.5731  1.0647
 6011SOL    HW229496   1.906   1.774   7.208  0.2111  0.0921 -1.1998
 6012SOL     OW29497   4.087   1.662   1.568  0.1857  0.2375  0.2849
 6012SOL    HW129498   4.147   1.627   1.503  1.3121  0.6472  1.1057
 6012SOL    HW229499   4.012   1.603   1.561 -1.9053  2.9476 -0.5079
 6013SOL     OW29500   2.416   0.664   5.822 -0.2073 -0.3115  0.1156
 6013SOL    HW129501   2.438   0.704   5.906 -0.0538  0.5249 -0.3181
 6013SOL    HW229502   2.497   0.625   5.789  0.5942  1.3359  0.1617
 6014SOL     OW29503   1.738   0.593   2.051 -0.1004  0.1516  0.3351
 6014SOL    HW129504   1.729   0.566   1.960 -0.7677  0.1043  0.4198
 6014SOL    HW229505   1.649   0.597   2.086  0.5397 -3.2582  2.3321
 6015SOL     OW29506   1.048   4.327   8.104  0.3655 -0.3043  0.1082
 6015SOL    HW129507   1.091   4.398   8.151 -0.0227  1.2237 -1.8507
 6015SOL    HW229508   1.056   4.344   8.010  1.3872 -0.4341  0.1807
 6016SOL     OW29509   1.948   0.096   2.740  0.1803  0.3084 -0.2651
 6016SOL    HW129510   2.038   0.118   2.764  0.8881 -2.9526  0.0061
 6016SOL    HW229511   1.913   0.061   2.821 -1.3241  1.8019 -0.2814
 6017SOL     OW29512   3.521   3.899   6.111  0.0847 -0.1109 -0.3572
 6017SOL    HW129513   3.593   3.836   6.102  1.2292  1.4735 -2.1492
 6017SOL    HW229514   3.491   3.873   6.198 -0.1144  0.7422 -0.1726
 6018SOL     OW29515   1.615   0.064  11.387 -0.6265 -0.3162  0.2537
 6018SOL    HW129516   1.527   0.049  11.421 -0.3257 -0.9249  0.7582
 6018SOL    HW229517   1.683   0.066  11.454 -2.5890 -3.4772  2.2769
 6019SOL     OW29518   1.820   3.846   6.752 -0.3010 -0.4041 -0.5140
 6019SOL    HW129519   1.860   3.882   6.832 -0.2663 -0.1248 -0.6576
 6019SOL    HW229520   1.751   3.909   6.732  3.2781  4.4643  2.4327
 6020SOL     OW29521   0.141   3.090   7.798 -0.0733  0.4133  0.2188
 6020SOL    HW129522   0.059   3.135   7.817  2.2481  4.4352  0.6596
 6020SOL    HW229523   0.180   3.144   7.730 -1.3840 -0.7220 -1.4554
 6021SOL     OW29524   2.068   2.264   3.536 -0.0593 -0.1374  0.2144
 6021SOL    HW129525   2.158   2.244   3.562  0.3097 -0.3646 -1.2275
 6021SOL    HW229526   2.080   2.348   3.492 -0.5612  1.6824  3.5287
 6022SOL     OW29527   2.695   0.812   9.426 -0.4201 -0.1712  0.1920
 6022SOL    HW129528   2.667   0.882   9.485 -0.6951  1.8164 -2.3200
 6022SOL    HW229529   2.753   0.854   9.363  0.6565 -0.6470  0.8601
 6023SOL     OW29530   3.458   0.816   3.833 -0.1781  0.8208  0.4294
 6023SOL    HW129531   3.410   0.754   3.889 -1.1889  1.0019 -0.2406
 6023SOL    HW229532   3.517   0.855   3.897 -1.1272  2.9260  0.0060
 6024SOL     OW29533   2.318   1.267   8.583 -0.0880  0.4353 -0.0983
 6024SOL    HW129534   2.243   1.319   8.555 -0.9428 -1.4022 -1.1537
 6024SOL    HW229535   2.282   1.180   8.601  1.2653 -0.3051 -0.9350
 6025SOL     OW29536   3.120   3.385   3.786  0.0742  0.1478  0.2494
 6025SOL    HW129537   3.075   3.366   3.869  0.7320  1.2204  0.8466
 6025SOL    HW229538   3.057   3.451   3.755  0.5228  0.6330  0.3725
 6026SOL     OW29539   0.294   0.385   7.834  0.3532 -0.3833 -0.0378
 6026SOL    HW129540   0.226   0.452   7.833  1.0011  0.2802  0.6198
 6026SOL    HW229541   0.245   0.315   7.877  0.3652  0.3455  1.1695
 6027SOL     OW29542   0.412   2.591   7.804  0.1326 -0.5222 -0.2746
 6027SOL    HW129543   0.475   2.559   7.869 -1.8248 -0.6806  1.5423
 6027SOL    HW229544   0.439   2.680   7.782  1.4270 -1.1291 -1.1229
 6028SOL     OW29545   3.324   1.146  17.166  0.0890  0.8668 -0.2931
 6028SOL    HW129546   3.237   1.139  17.128  1.4762  0.7748 -3.4392
 6028SOL    HW229547   3.314   1.228  17.214 -1.2860  0.7440 -0.3742
 6029SOL     OW29548   3.476   1.287   5.153  0.1130 -1.0036 -0.2302
 6029SOL    HW129549   3.469   1.262   5.061 -0.5324 -1.6631 -0.0045
 6029SOL    HW229550   3.386   1.284   5.185  0.2089 -1.8264 -0.0322
 6030SOL     OW29551   2.753   1.641   0.790 -0.5566 -0.1932 -0.3174
 6030SOL    HW129552   2.766   1.713   0.728 -1.5104  0.6769  0.4880
 6030SOL    HW229553   2.666   1.659   0.826  1.1234  2.4939  2.4521
 6031SOL     OW29554   3.381   3.078  10.293  0.0287 -0.4545  0.3221
 6031SOL    HW129555   3.292   3.097  10.323 -0.6953 -0.8940 -1.5215
 6031SOL    HW229556   3.417   3.026  10.365 -2.5292 -1.2579  1.0161
 6032SOL     OW29557   1.432   0.236  17.365  0.1089 -0.1681 -0.7045
 6032SOL    HW129558   1.499   0.299  17.391 -0.5800  0.6261 -0.8113
 6032SOL    HW229559   1.473   0.150  17.372 -2.1376 -1.2372 -0.4309
 6033SOL     OW29560   4.713   4.159   5.924 -0.6471 -0.4664  0.0392
 6033SOL    HW129561   4.682   4.208   6.000  2.4645  1.2957  0.1838
 6033SOL    HW229562   4.703   4.066   5.947  0.7478 -0.8600 -0.9350
 6034SOL     OW29563   4.694   2.755   4.715 -0.1447 -0.2609 -0.1079
 6034SOL    HW129564   4.683   2.823   4.649  1.1773  0.2480  0.2123
 6034SOL    HW229565   4.610   2.710   4.702  0.9765 -2.7253  1.2212
 6035SOL     OW29566   0.197   1.311   4.066 -0.2222 -0.0437 -0.1621
 6035SOL    HW129567   0.255   1.386   4.058 -0.9326  0.3418 -1.5743
 6035SOL    HW229568   0.216   1.267   3.983 -0.8949 -0.4949 -0.0856
 6036SOL     OW29569   2.278   4.457  10.060  0.0947  0.3165  1.0338
 6036SOL    HW129570   2.360   4.505  10.052  0.8981 -1.1100  0.8422
 6036SOL    HW229571   2.253   4.416   9.977  1.2736  3.0672 -0.7031
 6037SOL     OW29572   4.284   3.708   1.630 -0.1800  0.3438  0.4026
 6037SOL    HW129573   4.199   3.743   1.655 -0.1947 -0.2570  1.1703
 6037SOL    HW229574   4.270   3.619   1.598  0.7496  0.2770  0.1724
 6038SOL     OW29575   1.311   2.150  12.747  0.1531 -0.5260 -0.5517
 6038SOL    HW129576   1.264   2.156  12.664  0.4630 -0.6752 -0.7416
 6038SOL    HW229577   1.363   2.230  12.752  1.6579 -1.5784  0.5141
 6039SOL     OW29578   1.309   0.708   8.301 -0.0950  0.2897  0.1181
 6039SOL    HW129579   1.320   0.678   8.211 -0.5538  0.6766 -0.0689
 6039SOL    HW229580   1.274   0.631   8.347 -0.9159 -1.0655 -2.8142
 6040SOL     OW29581   4.001   3.166   4.751  0.4754  0.1254  0.0319
 6040SOL    HW129582   3.994   3.142   4.659  2.1796  1.6617 -0.5041
 6040SOL    HW229583   4.009   3.086   4.803  0.7843 -0.7286 -1.3321
 6041SOL     OW29584   0.770   3.993  12.202  0.2743 -0.0417 -0.6252
 6041SOL    HW129585   0.857   3.993  12.161  0.3471  0.3503 -0.4713
 6041SOL    HW229586   0.758   3.898  12.203 -2.3783  0.3257  1.4025
 6042SOL     OW29587   0.044   2.567   4.499  0.5704 -0.4343 -0.3791
 6042SOL    HW129588   4.688   2.542   4.548 -0.0947  1.8385 -0.2541
 6042SOL    HW229589   0.034   2.662   4.488 -0.1653 -0.2431  1.8765
 6043SOL     OW29590   2.397   3.404   2.812 -0.2966  0.6370  0.3830
 6043SOL    HW129591   2.311   3.437   2.838 -0.5348  1.0757 -0.9669
 6043SOL    HW229592   2.458   3.466   2.853 -0.7573  0.8988  0.6778
 6044SOL     OW29593   2.595   2.720  16.898 -0.3499 -0.0708 -0.3097
 6044SOL    HW129594   2.626   2.783  16.834  0.8749  0.6121  0.9414
 6044SOL    HW229595   2.655   2.647  16.884 -0.3907  0.1878 -1.8176
 6045SOL     OW29596   2.486   1.797  16.549 -0.1946  0.2285  0.2200
 6045SOL    HW129597   2.516   1.790  16.458  0.0739 -2.7466  0.5155
 6045SOL    HW229598   2.541   1.869  16.582  1.5575  0.2262 -2.6931
 6046SOL     OW29599   1.455   2.325   5.774  0.1366  0.7676  0.2158
 6046SOL    HW129600   1.477   2.243   5.819  0.1254 -0.5538 -2.1663
 6046SOL    HW229601   1.540   2.369   5.770 -0.5327  2.0537  0.3459
 6047SOL     OW29602   3.493   0.699   1.390  0.2829 -0.0116 -0.2419
 6047SOL    HW129603   3.401   0.673   1.387 -0.0822  1.0614  1.4749
 6047SOL    HW229604   3.538   0.616   1.403  2.5315  1.4944  1.5559
 6048SOL     OW29605   2.870   0.646   3.326  0.0740  0.1523  0.3628
 6048SOL    HW129606   2.861   0.677   3.236  0.1505 -1.6805 -0.2751
 6048SOL    HW229607   2.939   0.580   3.317  1.0813  1.3196 -0.3708
 6049SOL     OW29608   3.678   4.401   1.768  0.8474 -0.1777  0.0814
 6049SOL    HW129609   3.739   4.460   1.812 -1.7063  1.9267  0.8451
 6049SOL    HW229610   3.601   4.458   1.770  1.5544  0.7597  0.6252
 6050SOL     OW29611   1.849   4.142  13.440  0.3723  0.6913  0.1011
 6050SOL    HW129612   1.759   4.163  13.415  0.3763 -0.1606 -0.6383
 6050SOL    HW229613   1.834   4.082  13.513  3.4935  0.2629  0.4038
 6051SOL     OW29614   0.267   0.876  17.342  0.1325  0.4658 -0.3846
 6051SOL    HW129615   0.312   0.808  17.290 -1.3370 -0.2922 -0.6713
 6051SOL    HW229616   0.228   0.929  17.272 -0.3957 -1.0719 -1.2728
 6052SOL     OW29617   0.231   1.335   6.289 -0.1474 -0.1005 -0.2132
 6052SOL    HW129618   0.221   1.253   6.241  0.3426 -1.3190  1.7724
 6052SOL    HW229619   0.176   1.311   6.363  0.9955 -2.1903 -0.0333
 6053SOL     OW29620   3.517   1.882   6.146  0.0202  0.5924 -0.1896
 6053SOL    HW129621   3.518   1.789   6.166  1.2373  0.4563 -0.8766
 6053SOL    HW229622   3.600   1.886   6.099  0.3886  0.2382  0.4320
 6054SOL     OW29623   3.209   0.770  11.900  0.2356 -0.7458 -0.2243
 6054SOL    HW129624   3.196   0.864  11.907 -0.7625 -0.8755 -0.3163
 6054SOL    HW229625   3.125   0.729  11.880 -1.0159  1.7114  0.0195
 6055SOL     OW29626   3.588   4.602   3.091 -0.3896  0.4017  0.0981
 6055SOL    HW129627   3.604   4.644   3.007  2.7955  0.2550  0.6217
 6055SOL    HW229628   3.553   4.514   3.076  1.6378 -0.3468 -0.2264
 6056SOL     OW29629   2.203   1.458   6.891  0.1803  1.0913  0.3555
 6056SOL    HW129630   2.184   1.501   6.808  1.2194 -0.6032 -0.7797
 6056SOL    HW229631   2.127   1.400   6.898  2.0935 -1.4092  0.5229
 6057SOL     OW29632   2.948   1.891   5.898 -0.0059  0.1676  0.3991
 6057SOL    HW129633   2.957   1.977   5.857  2.0450 -0.7237 -1.0017
 6057SOL    HW229634   3.005   1.832   5.848 -1.2905 -1.1896  0.5235
 6058SOL     OW29635   0.186   2.985  17.038 -0.2895  0.2638 -0.3621
 6058SOL    HW129636   0.166   2.902  16.995 -1.1524  0.9151 -1.2151
 6058SOL    HW229637   0.128   2.987  17.114  1.7758  1.2931  1.2031
 6059SOL     OW29638   4.553   4.341   4.364 -0.0301 -0.6162 -0.0756
 6059SOL    HW129639   4.602   4.344   4.281 -2.5087 -0.9845 -1.5671
 6059SOL    HW229640   4.508   4.425   4.355 -2.5825 -1.9105  0.6456
 6060SOL     OW29641   0.808   3.719  12.199 -0.1011  0.0423 -0.4197
 6060SOL    HW129642   0.877   3.657  12.224 -0.1724  1.4112  3.1482
 6060SOL    HW229643   0.754   3.712  12.278 -0.8035  0.2786 -0.8784
 6061SOL     OW29644   0.536   0.668   0.123 -0.1695  0.5384 -0.1493
 6061SOL    HW129645   0.480   0.592   0.135 -3.3104  2.8952  0.0593
 6061SOL    HW229646   0.482   0.739   0.159  1.3304  0.6071  1.9866
 6062SOL     OW29647   2.905   0.995   2.481  0.1862 -0.1195 -0.3014
 6062SOL    HW129648   2.995   1.003   2.449 -0.4664 -0.1202 -2.0793
 6062SOL    HW229649   2.859   1.050   2.419  0.0178  1.4612  1.2291
 6063SOL     OW29650   3.932   0.218  16.665 -0.0208 -0.2721 -0.4137
 6063SOL    HW129651   4.015   0.221  16.714 -3.0934 -0.3038  4.7842
 6063SOL    HW229652   3.882   0.155  16.715  2.3922 -1.8611  0.0139
 6064SOL     OW29653   0.545   2.757  17.368  0.0321 -0.1301 -0.1509
 6064SOL    HW129654   0.488   2.832  17.383 -0.2166 -0.2541 -0.4600
 6064SOL    HW229655   0.572   2.780  17.279  0.1215 -1.4840 -0.4676
 6065SOL     OW29656   0.153   0.273  17.642 -0.1428  0.3051 -0.5981
 6065SOL    HW129657   0.062   0.268  17.670 -0.1933 -1.5092 -1.1136
 6065SOL    HW229658   0.192   0.224   0.024  0.1219 -1.1397 -1.7250
 6066SOL     OW29659   1.345   0.005   1.032 -0.0365 -0.0285  0.0597
 6066SOL    HW129660   1.392   0.003   1.116 -0.0263  0.0603  0.0566
 6066SOL    HW229661   1.361   4.637   1.003 -0.2501 -1.0019  2.9361
 6067SOL     OW29662   2.221   2.659   6.198  0.1647  0.0566  0.2605
 6067SOL    HW129663   2.314   2.638   6.195  0.3350  0.5378  1.9459
 6067SOL    HW229664   2.206   2.711   6.119  0.2129  1.2909  1.0591
 6068SOL     OW29665   0.254   3.124  14.861 -0.6371  0.5572  0.1191
 6068SOL    HW129666   0.221   3.061  14.925  1.9311 -1.3555 -0.4261
 6068SOL    HW229667   0.188   3.117  14.792 -1.4396  1.7621  0.7626
 6069SOL     OW29668   1.506   4.038   7.076  0.4491  0.2853 -0.4115
 6069SOL    HW129669   1.490   4.016   7.168  1.4886  1.4710  0.0629
 6069SOL    HW229670   1.444   4.111   7.072 -0.2229 -0.3108 -0.9134
 6070SOL     OW29671   4.249   2.075   0.860 -0.4371 -0.3401 -0.2597
 6070SOL    HW129672   4.185   2.143   0.838  1.5594  2.1946  1.7049
 6070SOL    HW229673   4.197   1.995   0.854  0.4742 -1.0260  1.0626
 6071SOL     OW29674   1.243   4.382   5.813  0.1041 -0.1394  0.7707
 6071SOL    HW129675   1.316   4.414   5.866  0.1818 -0.9272  1.1403
 6071SOL    HW229676   1.292   4.337   5.745 -1.0106  1.5919 -1.1792
 6072SOL     OW29677   3.890   1.919   1.476 -0.7311  0.2244  0.1154
 6072SOL    HW129678   3.929   1.839   1.440  1.0758  0.4693  1.5365
 6072SOL    HW229679   3.817   1.914   1.414 -0.5135 -2.7147  0.1092
 6073SOL     OW29680   0.380   1.093  15.163 -0.4919  0.3410  0.1529
 6073SOL    HW129681   0.443   1.031  15.127  0.8632  1.7993 -0.0005
 6073SOL    HW229682   0.376   1.066  15.255  0.9207 -2.4371 -0.6018
 6074SOL     OW29683   0.794   0.730   4.603 -0.2030  0.3791  0.1082
 6074SOL    HW129684   0.832   0.678   4.532 -0.8555  2.7931 -2.0036
 6074SOL    HW229685   0.707   0.694   4.584  0.2968 -2.0744  2.5396
 6075SOL     OW29686   0.914   2.987   4.089 -0.3407  0.2079  0.3685
 6075SOL    HW129687   0.821   2.994   4.067 -0.8140 -1.5929  1.7066
 6075SOL    HW229688   0.958   3.066   4.058 -0.1532 -0.8010 -1.9018
 6076SOL     OW29689   2.369   1.034   5.201  0.3221  0.2961 -0.4454
 6076SOL    HW129690   2.364   0.954   5.149  0.6629  0.5851 -0.9256
 6076SOL    HW229691   2.402   1.103   5.144  1.0940 -0.0022 -0.3596
 6077SOL     OW29692   3.639   3.377   5.949  0.1721 -0.4131 -0.4019
 6077SOL    HW129693   3.673   3.395   6.037 -2.4821 -2.8819  1.1560
 6077SOL    HW229694   3.702   3.423   5.893  0.1953 -0.7181 -0.6249
 6078SOL     OW29695   3.312   3.833   5.063 -0.4764  0.0942 -0.0401
 6078SOL    HW129696   3.284   3.860   4.976  2.9325 -0.8717 -1.4104
 6078SOL    HW229697   3.295   3.914   5.111  1.6933  0.9220 -0.6799
 6079SOL     OW29698   2.499   3.141   4.599 -0.0814 -1.0901 -0.4128
 6079SOL    HW129699   2.529   3.061   4.555 -2.7510 -2.0990 -0.3488
 6079SOL    HW229700   2.575   3.164   4.652  0.8641 -1.9717 -1.3693
 6080SOL     OW29701   3.955   0.235   7.553 -0.5365  0.4102  0.3301
 6080SOL    HW129702   4.036   0.199   7.516 -1.4576 -0.9259 -0.3791
 6080SOL    HW229703   3.932   0.168   7.617  1.1725  1.2554  1.8304
 6081SOL     OW29704   2.569   4.326   4.056  0.2812  0.4643 -0.0039
 6081SOL    HW129705   2.522   4.255   4.100  2.2027 -1.3899 -0.9439
 6081SOL    HW229706   2.650   4.277   4.043 -1.2635 -2.8729  2.8291
 6082SOL     OW29707   2.408   0.146  15.365 -0.3947 -0.1415  0.1878
 6082SOL    HW129708   2.349   0.082  15.405 -1.1536 -0.7172 -1.8191
 6082SOL    HW229709   2.370   0.128  15.278  0.8614  2.2063 -0.8439
 6083SOL     OW29710   3.445   0.032  11.915  0.5729  0.1350  0.1584
 6083SOL    HW129711   3.389   4.679  11.895  0.8980  0.6504 -2.6557
 6083SOL    HW229712   3.417   0.085  11.841 -1.0570  0.5612  1.0814
 6084SOL     OW29713   4.144   2.409  15.323  0.5401 -0.2094  0.0513
 6084SOL    HW129714   4.123   2.477  15.259  2.4761 -1.0093 -1.4402
 6084SOL    HW229715   4.202   2.454  15.384 -2.3540  2.5154  0.7866
 6085SOL     OW29716   0.295   4.171  17.057 -0.6543  0.7701  0.0719
 6085SOL    HW129717   0.368   4.110  17.056 -0.4299  1.0400  0.1384
 6085SOL    HW229718   0.228   4.121  17.010 -1.5550  0.8752  1.2404
 6086SOL     OW29719   1.651   0.398   9.111  0.2100  0.1175 -0.3029
 6086SOL    HW129720   1.706   0.405   9.032 -1.5680 -0.3636 -1.5676
 6086SOL    HW229721   1.630   0.488   9.137  1.1240  0.5869 -1.1425
 6087SOL     OW29722   2.545   0.885   1.659 -0.0944  1.0824 -0.1445
 6087SOL    HW129723   2.522   0.977   1.673  0.3894  1.4385 -1.7752
 6087SOL    HW229724   2.508   0.848   1.740  1.9227 -1.6295 -0.4756
 6088SOL     OW29725   0.785   4.695  14.365 -0.4089 -0.9250 -0.2033
 6088SOL    HW129726   0.864   0.008  14.406  0.2763 -2.2937 -0.3423
 6088SOL    HW229727   0.810   4.605  14.341  0.6541 -1.2765  2.2436
 6089SOL     OW29728   2.896   1.207   4.533  0.6206  0.4377  0.0793
 6089SOL    HW129729   2.907   1.241   4.621 -1.5894  1.3142  0.0092
 6089SOL    HW229730   2.985   1.226   4.503  1.2881  2.1265  3.1705
 6090SOL     OW29731   2.572   4.535   4.349  0.1173  0.3458 -0.2476
 6090SOL    HW129732   2.487   4.533   4.394 -0.7031  0.3913 -1.7868
 6090SOL    HW229733   2.546   4.557   4.260 -0.6286 -0.0780 -0.1407
 6091SOL     OW29734   0.389   3.709   1.776 -0.7301 -0.4471 -0.3179
 6091SOL    HW129735   0.399   3.793   1.731 -2.4190 -0.3351 -0.4924
 6091SOL    HW229736   0.385   3.734   1.868 -1.4144 -1.3668 -0.0972
 6092SOL     OW29737   0.483   2.159   1.504  0.6205  0.4906  0.2844
 6092SOL    HW129738   0.445   2.077   1.535 -0.7188  0.8148 -0.4632
 6092SOL    HW229739   0.420   2.184   1.436 -0.2564 -0.7084  0.6629
 6093SOL     OW29740   0.241   0.089  11.084  0.0464 -0.2131  0.0439
 6093SOL    HW129741   0.176   0.038  11.035 -0.1126 -1.9944  2.1149
 6093SOL    HW229742   0.300   0.106  11.010 -2.6505 -0.2122 -2.1135
 6094SOL     OW29743   1.788   3.919   1.839  0.6814 -0.1299 -0.2590
 6094SOL    HW129744   1.819   3.889   1.924  2.3337  0.5667 -0.6019
 6094SOL    HW229745   1.742   3.836   1.826 -0.5918  0.3388  1.3224
 6095SOL     OW29746   2.214   3.457   0.546  0.0479  0.0456 -0.5296
 6095SOL    HW129747   2.292   3.480   0.597  2.1239 -1.6523 -2.9144
 6095SOL    HW229748   2.198   3.532   0.488  1.9641  1.5980  0.9064
 6096SOL     OW29749   3.190   0.052   8.497 -0.1100 -1.0560 -0.3528
 6096SOL    HW129750   3.183   0.013   8.410 -0.8784  1.1046 -1.2602
 6096SOL    HW229751   3.276   0.094   8.492 -1.3777  1.5145 -0.8095
 6097SOL     OW29752   3.733   1.394   3.043 -0.1996  0.3151  0.0594
 6097SOL    HW129753   3.673   1.382   3.117  0.8825  0.0424  0.9095
 6097SOL    HW229754   3.773   1.475   3.075  2.6080  0.0436 -2.8172
 6098SOL     OW29755   2.035   1.691   4.121 -0.0031  0.3681  1.0337
 6098SOL    HW129756   2.053   1.674   4.028 -2.0490  1.1186  0.5010
 6098SOL    HW229757   2.029   1.596   4.136 -1.8441  0.4211  0.6145
 6099SOL     OW29758   0.384   0.498   0.587 -0.0522  0.6117 -0.5332
 6099SOL    HW129759   0.398   0.414   0.632 -0.6177  1.2067  0.7438
 6099SOL    HW229760   0.294   0.511   0.615  0.1636 -0.6835  0.8086
 6100SOL     OW29761   3.567   2.433  12.643 -0.0492  0.2750 -0.0208
 6100SOL    HW129762   3.576   2.433  12.738 -1.0109  0.1712  0.0720
 6100SOL    HW229763   3.654   2.415  12.608 -0.2626  0.6587 -0.7599
 6101SOL     OW29764   2.071   3.829  13.483 -0.6283 -0.7026  0.3239
 6101SOL    HW129765   2.028   3.757  13.436  0.3766 -0.8180 -0.4127
 6101SOL    HW229766   2.022   3.836  13.565 -2.6316 -2.5401 -0.7005
 6102SOL     OW29767   3.476   3.310   7.669  0.1446 -0.0840  0.6368
 6102SOL    HW129768   3.526   3.324   7.589 -0.3543 -2.7427 -0.1723
 6102SOL    HW229769   3.527   3.361   7.732  1.3934  1.5345 -1.6909
 6103SOL     OW29770   4.257   4.031  12.219 -0.1626  0.4510 -0.0513
 6103SOL    HW129771   4.327   3.972  12.188 -0.9862  0.4877 -1.9576
 6103SOL    HW229772   4.187   3.969  12.236  0.8267 -1.0787 -1.4600
 6104SOL     OW29773   1.199   2.839   9.061  0.5536 -0.1230  0.3969
 6104SOL    HW129774   1.258   2.840   9.137  2.1198  1.8041 -0.8450
 6104SOL    HW229775   1.127   2.885   9.104  1.5127  1.0101  0.7930
 6105SOL     OW29776   0.044   4.598   4.919 -0.1377  0.0141 -0.2745
 6105SOL    HW129777   0.011   4.677   4.962  0.4082  0.3886 -0.5466
 6105SOL    HW229778   0.072   4.548   4.995  0.3455  1.0209  0.1985
 6106SOL     OW29779   4.176   3.087   5.814 -0.0322 -0.3900 -0.0841
 6106SOL    HW129780   4.101   3.059   5.866 -1.6473  1.0731 -1.6483
 6106SOL    HW229781   4.152   3.179   5.809 -0.3838 -0.4808 -0.0709
 6107SOL     OW29782   3.947   2.401  14.339  0.2030  0.0296  0.0824
 6107SOL    HW129783   4.005   2.444  14.403 -1.3913  0.7835  1.0126
 6107SOL    HW229784   4.005   2.332  14.308 -0.3831 -0.8927  1.0437
 6108SOL     OW29785   2.963   3.646  14.491  0.1964 -0.6374  0.9998
 6108SOL    HW129786   3.054   3.617  14.482  0.2148 -0.0820 -0.6468
 6108SOL    HW229787   2.973   3.721  14.549 -0.1360  0.5238 -0.4488
 6109SOL     OW29788   0.360   1.660  16.165 -0.2418  0.0951  0.1270
 6109SOL    HW129789   0.287   1.722  16.161 -3.6087 -4.0548 -1.8417
 6109SOL    HW229790   0.327   1.593  16.224  1.6348  0.1979  1.3048
 6110SOL     OW29791   0.987   3.389  10.244  0.3464 -0.1267  0.6139
 6110SOL    HW129792   0.942   3.394  10.159  0.5793  0.7045  0.5373
 6110SOL    HW229793   0.990   3.481  10.270 -2.0559  0.1544 -0.0808
 6111SOL     OW29794   1.944   4.482   5.398 -0.2124 -0.2456  0.6179
 6111SOL    HW129795   1.876   4.419   5.377  1.0582 -2.2567  2.5604
 6111SOL    HW229796   2.015   4.419   5.383  0.8685  0.8794  1.0216
 6112SOL     OW29797   2.407   2.568   7.024 -0.0071  0.4652  0.1888
 6112SOL    HW129798   2.337   2.624   6.992 -1.5048 -1.2219  0.5228
 6112SOL    HW229799   2.377   2.536   7.109 -2.4575  1.0111 -0.4705
 6113SOL     OW29800   1.788   0.551   7.960 -0.6371 -0.1012  0.1005
 6113SOL    HW129801   1.851   0.524   8.028 -0.2769 -1.5222 -0.7862
 6113SOL    HW229802   1.758   0.469   7.919  1.5153 -1.3856  1.0876
 6114SOL     OW29803   0.441   3.866  13.858 -0.0608  0.8029 -0.2641
 6114SOL    HW129804   0.511   3.883  13.921  0.1598 -0.3518 -0.1913
 6114SOL    HW229805   0.456   3.776  13.827  0.0400  0.5413  0.5462
 6115SOL     OW29806   4.349   3.550   0.764 -0.0895 -0.0471  0.3759
 6115SOL    HW129807   4.375   3.628   0.716  3.6723 -1.3641  0.2493
 6115SOL    HW229808   4.354   3.574   0.856  0.2577 -0.3797  0.4405
 6116SOL     OW29809   3.658   3.259   2.164 -0.3149 -0.0201 -0.1796
 6116SOL    HW129810   3.709   3.339   2.168  1.1998 -1.0025  0.1298
 6116SOL    HW229811   3.639   3.243   2.256  0.7465  0.1708  0.0681
 6117SOL     OW29812   0.158   0.059   7.371 -0.0189 -0.3775  0.2088
 6117SOL    HW129813   0.231   0.069   7.310 -1.2604  1.9912 -0.8761
 6117SOL    HW229814   0.112   4.709   7.329  0.8371 -1.1836  0.6465
 6118SOL     OW29815   1.915   3.464   1.613 -0.4431 -0.0436 -0.5307
 6118SOL    HW129816   1.927   3.527   1.684  2.2088 -1.7285  0.4957
 6118SOL    HW229817   1.842   3.514   1.576 -1.3229  0.2634  1.6455
 6119SOL     OW29818   4.361   3.795   9.150 -0.0433  0.0374 -1.3505
 6119SOL    HW129819   4.374   3.810   9.057  0.5978 -0.2685 -1.3135
 6119SOL    HW229820   4.291   3.731   9.164  1.9895 -2.0700 -0.8165
 6120SOL     OW29821   3.690   3.949  10.592  0.0361  0.4207 -0.7588
 6120SOL    HW129822   3.780   3.919  10.607 -0.4116 -0.0669  0.9513
 6120SOL    HW229823   3.651   3.864  10.575  1.5040 -0.8139  1.8803
 6121SOL     OW29824   3.820   4.491   1.363  0.3365  0.5903 -0.9489
 6121SOL    HW129825   3.877   4.526   1.431 -0.9936  0.4462  0.2416
 6121SOL    HW229826   3.769   4.434   1.421  0.3304  0.2220 -1.3217
 6122SOL     OW29827   4.350   0.355   3.730 -0.2018 -0.5078 -0.2654
 6122SOL    HW129828   4.415   0.312   3.785  0.5834  0.8998 -0.0814
 6122SOL    HW229829   4.380   0.331   3.642 -0.1676  0.0661 -0.4119
 6123SOL     OW29830   2.382   2.848   4.285 -0.0597  0.1989  0.6260
 6123SOL    HW129831   2.350   2.764   4.253 -0.1800  0.6260 -0.3672
 6123SOL    HW229832   2.319   2.856   4.356  0.3100  3.1952  0.5987
 6124SOL     OW29833   4.652   0.554   6.917  0.0148 -0.1361 -0.4116
 6124SOL    HW129834   4.714   0.535   6.987 -0.2182  1.1756  0.1529
 6124SOL    HW229835   4.586   0.611   6.956  0.0934 -0.4598  0.1882
 6125SOL     OW29836   4.538   0.253  16.019  0.0623 -0.7044  0.0769
 6125SOL    HW129837   4.553   0.173  16.070 -1.5093 -0.0776  1.5075
 6125SOL    HW229838   4.618   0.303  16.035 -0.3674  0.5384 -1.6671
 6126SOL     OW29839   0.673   2.555   5.453  0.3374  0.0534 -0.0308
 6126SOL    HW129840   0.749   2.574   5.399 -1.3749  1.0708 -2.0928
 6126SOL    HW229841   0.669   2.623   5.519 -0.9486  0.1020 -0.1584
 6127SOL     OW29842   1.715   2.549   5.673 -0.6666  0.0342  0.4112
 6127SOL    HW129843   1.787   2.600   5.635 -1.2868  0.8456  0.3045
 6127SOL    HW229844   1.643   2.594   5.626 -0.7546 -1.0273 -0.4810
 6128SOL     OW29845   1.579   4.137   9.828 -0.0762  0.4118 -0.5785
 6128SOL    HW129846   1.521   4.203   9.789  0.1867  0.3395 -1.0804
 6128SOL    HW229847   1.526   4.059   9.840  1.4771 -0.6517 -0.6620
 6129SOL     OW29848   1.660   2.352  12.720  0.8202 -0.5976 -0.0412
 6129SOL    HW129849   1.667   2.279  12.660  3.1856 -0.2201 -0.1975
 6129SOL    HW229850   1.748   2.351  12.756  0.3280 -0.7691  1.1701
 6130SOL     OW29851   2.332   3.551  16.905  0.6923 -0.1142  0.0674
 6130SOL    HW129852   2.394   3.497  16.856 -0.5693 -3.2072  1.8946
 6130SOL    HW229853   2.303   3.494  16.977  0.1726  1.0428  0.7787
 6131SOL     OW29854   3.258   1.525   3.909  1.2592 -0.0062 -0.1624
 6131SOL    HW129855   3.181   1.544   3.962  2.8377 -0.1386  2.1948
 6131SOL    HW229856   3.305   1.608   3.905 -1.5482  1.5546 -0.5622
 6132SOL     OW29857   1.368   3.062   1.239  0.0828 -0.0771  0.1916
 6132SOL    HW129858   1.395   3.001   1.309 -1.5914  0.8011  1.5959
 6132SOL    HW229859   1.325   3.127   1.294 -1.8198  0.8202 -2.3864
 6133SOL     OW29860   2.214   1.805   7.655  0.5475  0.4508 -0.3466
 6133SOL    HW129861   2.143   1.785   7.593  0.2932  0.1670  0.0390
 6133SOL    HW229862   2.205   1.752   7.733  5.0090  3.5528  2.2832
 6134SOL     OW29863   1.860   0.795   3.393  0.0488 -0.3971  0.3328
 6134SOL    HW129864   1.799   0.722   3.395  0.4420 -0.7566 -0.7038
 6134SOL    HW229865   1.799   0.868   3.394 -1.6332 -1.8312  1.9301
 6135SOL     OW29866   2.187   1.427   4.055 -0.1813 -0.2903  0.0047
 6135SOL    HW129867   2.182   1.334   4.034 -1.3752 -0.5238  1.3039
 6135SOL    HW229868   2.160   1.467   3.972 -0.9523 -1.5185 -0.3353
 6136SOL     OW29869   0.023   1.496  12.296 -0.0776  0.2090 -0.1154
 6136SOL    HW129870   4.665   1.544  12.316 -1.2722 -0.8328 -2.3700
 6136SOL    HW229871   0.002   1.480  12.204 -0.5992  0.1937  0.0089
 6137SOL     OW29872   3.748   2.830   6.574  0.3357  0.3116 -0.0717
 6137SOL    HW129873   3.690   2.889   6.526  0.5808 -0.3553 -1.1838
 6137SOL    HW229874   3.693   2.805   6.649 -1.8946  0.3823 -1.6632
 6138SOL     OW29875   2.209   1.043   8.695 -0.3813  0.3964  0.5575
 6138SOL    HW129876   2.154   1.038   8.773  0.3951  0.9922  1.1518
 6138SOL    HW229877   2.199   0.960   8.648  1.9069 -0.3524  1.3438
 6139SOL     OW29878   0.545   1.345  11.810  0.3330  0.3601  0.5955
 6139SOL    HW129879   0.554   1.255  11.840 -0.5102 -0.1224 -0.5970
 6139SOL    HW229880   0.618   1.363  11.751 -0.4788  1.4094 -0.1059
 6140SOL     OW29881   2.492   2.797   7.234 -0.0759  0.1227 -0.3436
 6140SOL    HW129882   2.431   2.817   7.305  0.2557 -0.9593  0.2487
 6140SOL    HW229883   2.436   2.838   7.168 -1.3517 -0.1586  0.5605
 6141SOL     OW29884   3.518   1.068   9.314  0.8288 -0.5659  0.0431
 6141SOL    HW129885   3.565   1.000   9.363  2.3311  1.5320  1.5513
 6141SOL    HW229886   3.429   1.063   9.349 -0.1911  0.3549 -2.4367
 6142SOL     OW29887   1.907   2.936  15.330  0.1032  0.3606  0.0646
 6142SOL    HW129888   1.824   2.957  15.288 -1.5019 -0.5151  2.8525
 6142SOL    HW229889   1.881   2.947  15.421  1.4162 -0.6719  0.5630
 6143SOL     OW29890   0.749   0.964   7.224 -0.1612 -0.1548  0.4189
 6143SOL    HW129891   0.765   1.057   7.241  1.6780 -0.3435 -0.3000
 6143SOL    HW229892   0.654   0.960   7.216 -0.1415  1.5995 -0.7090
 6144SOL     OW29893   3.406   0.708   3.167  0.1338  1.0837  0.1713
 6144SOL    HW129894   3.323   0.742   3.199 -0.5112  0.4190 -0.7858
 6144SOL    HW229895   3.365   0.653   3.100 -0.7349 -1.8929  3.1560
 6145SOL     OW29896   1.678   2.814   4.886 -0.2434 -0.3770 -0.1595
 6145SOL    HW129897   1.715   2.867   4.815 -1.3728  0.4149 -0.1485
 6145SOL    HW229898   1.756   2.761   4.905  0.9415  1.3660 -0.1442
 6146SOL     OW29899   0.801   2.896   6.928  0.4943  0.1965 -0.0328
 6146SOL    HW129900   0.842   2.951   6.994  1.2600  0.1517 -0.4790
 6146SOL    HW229901   0.754   2.839   6.989 -2.7457  1.1218 -1.6068
 6147SOL     OW29902   0.468   4.562   6.214  0.4807 -0.3547  0.2007
 6147SOL    HW129903   0.440   4.651   6.235  0.4295 -0.2605 -0.2622
 6147SOL    HW229904   0.457   4.566   6.119  0.7697  1.9964  0.2756
 6148SOL     OW29905   0.011   1.190   5.096  0.2372  0.3733  0.6147
 6148SOL    HW129906   0.087   1.236   5.132 -0.0355  1.1892  0.1321
 6148SOL    HW229907   4.658   1.244   5.121 -2.1926 -1.5212 -2.5089
 6149SOL     OW29908   0.587   2.621   6.220  0.2477 -0.4122  0.3033
 6149SOL    HW129909   0.516   2.604   6.283 -0.1657  0.5264  0.0850
 6149SOL    HW229910   0.555   2.567   6.147 -1.0004  1.1281 -0.2860
 6150SOL     OW29911   1.685   2.597   4.454 -0.1356  0.4529 -0.0182
 6150SOL    HW129912   1.705   2.619   4.545 -0.0773 -1.6431  0.4566
 6150SOL    HW229913   1.646   2.683   4.437  3.3163  2.2520  1.2265
 6151SOL     OW29914   3.305   0.257   1.402 -0.3030  0.4723 -0.2985
 6151SOL    HW129915   3.386   0.282   1.357 -0.7816 -0.1172 -1.4509
 6151SOL    HW229916   3.313   0.164   1.384  0.0253  0.3981  0.2074
 6152SOL     OW29917   4.305   0.391  16.051 -0.7481 -0.3174  0.3285
 6152SOL    HW129918   4.330   0.483  16.043 -0.3547 -0.6290 -2.1212
 6152SOL    HW229919   4.387   0.341  16.047 -0.8509 -0.3644 -1.4680
 6153SOL     OW29920   4.028   0.236   6.194 -0.8425  0.4315  0.3428
 6153SOL    HW129921   3.942   0.268   6.166 -0.8212  0.0277 -0.1849
 6153SOL    HW229922   4.016   0.262   6.285 -4.7188 -0.4460  0.1180
 6154SOL     OW29923   0.880   4.352   4.783 -0.2424 -0.7470 -0.5509
 6154SOL    HW129924   0.896   4.424   4.844 -2.0432 -0.3740 -0.5274
 6154SOL    HW229925   0.960   4.349   4.732 -1.1278 -0.4058 -1.9517
 6155SOL     OW29926   0.538   2.709   2.612 -0.3605  0.0172 -0.2969
 6155SOL    HW129927   0.445   2.729   2.599  0.7917  3.3896 -3.1192
 6155SOL    HW229928   0.552   2.665   2.528 -2.9697  2.1471 -1.8703
 6156SOL     OW29929   0.014   3.228   6.167 -0.4007 -0.0908 -0.0396
 6156SOL    HW129930   4.660   3.217   6.224 -1.9374 -0.7323 -2.1959
 6156SOL    HW229931   0.033   3.320   6.188  1.6993  0.0802 -2.6268
 6157SOL     OW29932   2.156   1.683   3.004 -0.0094  0.5300  0.4760
 6157SOL    HW129933   2.144   1.690   2.909 -2.1194 -0.4575  0.6602
 6157SOL    HW229934   2.224   1.750   3.015  0.5105  0.3233 -1.4819
 6158SOL     OW29935   1.036   2.691   3.609  0.0917 -0.6618  0.0777
 6158SOL    HW129936   1.030   2.781   3.578 -1.5774 -0.2596  1.5743
 6158SOL    HW229937   0.956   2.659   3.567 -0.2721  0.5987 -0.1947
 6159SOL     OW29938   0.097   0.303   5.472 -0.2677  0.3233 -0.2651
 6159SOL    HW129939   0.025   0.250   5.438 -0.0677  0.0773 -0.3048
 6159SOL    HW229940   0.039   0.370   5.509 -2.0616 -0.4341 -1.7300
 6160SOL     OW29941   4.309   2.221   4.307 -0.1967  0.4415 -0.0294
 6160SOL    HW129942   4.238   2.157   4.306  1.1071 -0.9732 -0.4441
 6160SOL    HW229943   4.283   2.273   4.231  1.0526 -0.2235 -0.9154
 6161SOL     OW29944   2.513   0.050   8.084 -0.5325  0.3477  0.7271
 6161SOL    HW129945   2.468   0.002   8.154  0.4892  1.0615  1.8580
 6161SOL    HW229946   2.498   0.140   8.114 -1.5412  0.4817 -0.1897
 6162SOL     OW29947   4.282   3.691  16.127  0.5686  0.3839  0.0159
 6162SOL    HW129948   4.248   3.773  16.090  0.4243  1.2691  2.1352
 6162SOL    HW229949   4.314   3.652  16.045  2.7239  0.4581  0.8196
 6163SOL     OW29950   4.631   2.876   6.427  0.3548  0.1307 -0.1358
 6163SOL    HW129951   4.691   2.844   6.359 -0.0022 -0.6432 -0.0865
 6163SOL    HW229952   4.556   2.903   6.375  0.0435 -2.4209 -1.0047
 6164SOL     OW29953   3.630   3.243  17.596 -0.1581 -0.3671  0.1310
 6164SOL    HW129954   3.633   3.313  17.662 -0.0518  3.0199 -3.4292
 6164SOL    HW229955   3.715   3.254  17.553 -0.0172 -0.9109  0.2698
 6165SOL     OW29956   3.559   2.662   7.424  0.2929  0.3521  0.4608
 6165SOL    HW129957   3.564   2.624   7.512 -0.7047  1.2193  0.8953
 6165SOL    HW229958   3.509   2.593   7.378 -0.2293  0.7261  0.4644
 6166SOL     OW29959   0.170   2.911  15.034  0.2057 -0.2738  0.7068
 6166SOL    HW129960   0.177   2.828  15.081 -1.0104 -0.9352 -0.2865
 6166SOL    HW229961   0.079   2.913  15.006  0.7639 -0.7216 -1.1274
 6167SOL     OW29962   4.389   0.572  17.545 -0.1963  0.7001  0.5217
 6167SOL    HW129963   4.371   0.481  17.568 -0.9992  0.6834 -0.1834
 6167SOL    HW229964   4.465   0.591  17.600 -0.2150  0.6882  0.5516
 6168SOL     OW29965   3.676   3.092   4.794 -0.2801  0.5713 -0.4161
 6168SOL    HW129966   3.770   3.078   4.800 -0.4139 -0.5611 -0.9184
 6168SOL    HW229967   3.670   3.183   4.822 -3.6638  0.4092 -0.5829
 6169SOL     OW29968   2.947   1.560   2.256  0.0861  0.9502 -0.3137
 6169SOL    HW129969   2.961   1.630   2.320 -1.2855 -0.1823  1.1993
 6169SOL    HW229970   3.012   1.587   2.191 -0.0797  2.4102  0.1236
 6170SOL     OW29971   0.354   1.039   4.628  0.1166 -0.3771  0.2670
 6170SOL    HW129972   0.386   1.129   4.618 -0.5294 -0.2371 -0.5629
 6170SOL    HW229973   0.364   1.019   4.721 -3.0812  0.3124  0.7752
 6171SOL     OW29974   4.378   4.031  14.153  0.5262 -0.1455  0.1701
 6171SOL    HW129975   4.362   3.942  14.122 -1.8854 -0.2103  1.5870
 6171SOL    HW229976   4.455   4.014  14.208 -0.0629  1.0687  1.3905
 6172SOL     OW29977   1.248   1.480   5.336 -0.4140  0.1503 -0.2046
 6172SOL    HW129978   1.338   1.511   5.320 -0.4317  1.6325  2.5624
 6172SOL    HW229979   1.202   1.479   5.252 -1.2569 -2.1250  0.3042
 6173SOL     OW29980   4.341   2.447   0.946  0.7789  0.2495 -0.4775
 6173SOL    HW129981   4.307   2.416   1.029 -1.2703 -0.3349 -1.5498
 6173SOL    HW229982   4.328   2.540   0.966 -0.7478  0.0223 -0.4561
 6174SOL     OW29983   4.036   3.882  12.300 -0.5856  0.8246  0.5122
 6174SOL    HW129984   4.031   3.798  12.254  1.4239  1.6870 -1.2944
 6174SOL    HW229985   4.063   3.864  12.390 -1.5114  2.7654  1.1805
 6175SOL     OW29986   0.038   0.850  11.969  0.0104 -0.1990  0.1913
 6175SOL    HW129987   0.088   0.896  11.901  1.2344 -1.7474  0.0504
 6175SOL    HW229988   4.683   0.815  11.924  0.2962  1.1592 -1.3778
 6176SOL     OW29989   3.132   1.816   1.026  0.1926 -0.1309  0.0362
 6176SOL    HW129990   3.129   1.790   0.933  4.0662  3.2609 -0.9973
 6176SOL    HW229991   3.219   1.856   1.025  0.0199  0.2120 -1.4956
 6177SOL     OW29992   3.312   0.472   7.803 -0.6133 -0.1771  0.4364
 6177SOL    HW129993   3.331   0.502   7.892  2.0231 -1.7291  0.3942
 6177SOL    HW229994   3.401   0.446   7.780 -0.2624 -0.1382  1.7280
 6178SOL     OW29995   2.474   3.982   8.301  0.0746 -0.1650 -0.1728
 6178SOL    HW129996   2.379   3.992   8.308  0.1123  1.2738 -1.5631
 6178SOL    HW229997   2.487   3.890   8.321  0.5888  0.4832  2.3986
 6179SOL     OW29998   0.020   3.633   6.542 -0.2187 -0.2451  0.5078
 6179SOL    HW129999   0.082   3.689   6.589  0.1148  0.9116 -1.3181
 6179SOL    HW230000   4.670   3.696   6.541  0.6220  0.6989 -0.5325
 6180SOL     OW30001   2.291   4.402  11.479 -0.5288 -0.0296  0.1786
 6180SOL    HW130002   2.366   4.426  11.534  2.0808  1.6790 -4.1294
 6180SOL    HW230003   2.293   4.308  11.493 -1.2603 -0.2550 -1.2302
 6181SOL     OW30004   0.346   4.637   4.867 -0.6110 -0.2323  0.2509
 6181SOL    HW130005   0.258   4.648   4.905 -0.7576 -2.3301  0.4972
 6181SOL    HW230006   0.401   4.615   4.942  1.9329  1.0736 -1.2721
 6182SOL     OW30007   3.134   2.726  16.443  0.8152  0.3247 -0.0736
 6182SOL    HW130008   3.135   2.807  16.392  2.7840  1.2684  1.4847
 6182SOL    HW230009   3.220   2.701  16.409  1.7688  1.5826  1.3995
 6183SOL     OW30010   1.451   2.171   6.991 -1.0671  0.2425  0.5957
 6183SOL    HW130011   1.497   2.252   6.970  0.5564 -0.6570  0.7154
 6183SOL    HW230012   1.369   2.187   6.945 -1.0560  1.2242  0.9263
 6184SOL     OW30013   2.731   4.462   9.388  0.4117 -0.4012 -0.1265
 6184SOL    HW130014   2.714   4.524   9.318  0.0528  1.0311  1.2192
 6184SOL    HW230015   2.826   4.476   9.397  0.3586  0.2404 -0.5458
 6185SOL     OW30016   1.685   2.093   7.212 -0.1575  0.2115 -0.5762
 6185SOL    HW130017   1.714   2.151   7.141  1.1784  1.0444  0.6489
 6185SOL    HW230018   1.768   2.076   7.255 -0.4079 -0.9887 -0.5814
 6186SOL     OW30019   4.270   1.474   7.086  0.3718 -0.7554 -0.2489
 6186SOL    HW130020   4.247   1.431   7.169 -2.0101  0.7554 -0.1284
 6186SOL    HW230021   4.326   1.540   7.127  0.4608 -0.5725 -0.6631
 6187SOL     OW30022   2.450   1.796   4.866  0.3545  0.5711 -0.3422
 6187SOL    HW130023   2.525   1.846   4.898  0.3087 -0.6145  1.6124
 6187SOL    HW230024   2.386   1.866   4.851 -0.4365  0.1872  1.2317
 6188SOL     OW30025   0.970   1.524  11.587  0.1474 -0.4824  0.2294
 6188SOL    HW130026   0.955   1.598  11.529  0.2196  0.0165  0.8414
 6188SOL    HW230027   0.958   1.577  11.666 -0.2466  0.1297 -0.2425
 6189SOL     OW30028   4.263   3.617   5.129 -0.2351 -0.0629  0.3258
 6189SOL    HW130029   4.337   3.585   5.076 -0.9216  0.9145 -1.2229
 6189SOL    HW230030   4.294   3.593   5.216  0.0348 -0.4292  0.1319
 6190SOL     OW30031   4.663   3.042  11.307 -0.2895 -0.5686 -0.7055
 6190SOL    HW130032   4.617   3.103  11.249  2.1799  0.3236 -1.7134
 6190SOL    HW230033   4.607   2.965  11.297  0.2803 -0.7563 -2.4253
 6191SOL     OW30034   1.976   3.628   8.515  0.0750 -0.2856  0.1554
 6191SOL    HW130035   1.912   3.691   8.483 -1.1792 -0.6658  1.9157
 6191SOL    HW230036   1.946   3.550   8.467  1.3776 -1.7939  1.8070
 6192SOL     OW30037   2.204   1.054   9.397 -0.4569 -0.2968  0.0037
 6192SOL    HW130038   2.109   1.052   9.413 -0.3940 -0.3228  0.3790
 6192SOL    HW230039   2.200   0.991   9.326  2.8469  0.9752 -1.3008
 6193SOL     OW30040   0.918   2.112  11.194 -0.0877 -0.7042 -0.6792
 6193SOL    HW130041   0.969   2.034  11.171  2.7729  0.3046  2.2017
 6193SOL    HW230042   0.941   2.174  11.125  0.3824 -1.3284 -1.0764
 6194SOL     OW30043   1.356   2.516  13.096  0.2589  0.2626  0.0000
 6194SOL    HW130044   1.417   2.529  13.024  1.0147  0.7323  0.7298
 6194SOL    HW230045   1.289   2.584  13.085  1.6431  1.6260  0.1149
 6195SOL     OW30046   2.107   3.164   5.202 -0.2325 -0.0891  0.1711
 6195SOL    HW130047   2.133   3.199   5.287  0.8197  2.4140 -1.1687
 6195SOL    HW230048   2.035   3.107   5.229  0.8691 -0.5352  2.1665
 6196SOL     OW30049   0.062   2.437   5.751 -0.2189  0.2112  0.5145
 6196SOL    HW130050   0.089   2.347   5.772 -0.2063  0.2749  0.7712
 6196SOL    HW230051   4.690   2.417   5.760 -0.4514  1.1161 -0.0101
 6197SOL     OW30052   3.233   0.796   8.831  0.4498  0.7870 -0.1530
 6197SOL    HW130053   3.189   0.730   8.778  2.0699  0.5779 -1.2501
 6197SOL    HW230054   3.156   0.836   8.870  0.2841 -2.0856  2.3922
 6198SOL     OW30055   4.361   4.025   1.449 -0.2988  0.2749  0.0087
 6198SOL    HW130056   4.432   4.010   1.388 -1.3697  1.5045 -1.5200
 6198SOL    HW230057   4.300   3.951   1.439 -2.3013  1.8195  0.6582
 6199SOL     OW30058   3.067   3.347   8.966 -0.1449 -0.2191  0.3532
 6199SOL    HW130059   3.063   3.416   9.031 -1.8291 -0.0885  0.1043
 6199SOL    HW230060   3.020   3.384   8.891 -0.4975 -0.1312  0.6223
 6200SOL     OW30061   2.713   0.316  14.520  0.4210  0.4108 -0.0400
 6200SOL    HW130062   2.631   0.364  14.507 -0.0349 -0.4835 -0.4403
 6200SOL    HW230063   2.758   0.349  14.442 -1.1734  0.4313 -0.9645
 6201SOL     OW30064   1.685   3.801   2.309 -0.0124  0.6689  0.1191
 6201SOL    HW130065   1.642   3.886   2.296 -1.2594 -0.0749 -0.6216
 6201SOL    HW230066   1.650   3.769   2.393 -1.3049 -0.3520 -0.8179
 6202SOL     OW30067   2.653   2.981   3.206  0.3059 -0.1842  0.3464
 6202SOL    HW130068   2.613   3.043   3.145  1.1879 -1.1160 -1.1736
 6202SOL    HW230069   2.738   2.971   3.164 -0.2973  0.7830 -1.1109
 6203SOL     OW30070   2.935   1.633  14.229 -0.2646  0.1946  0.4348
 6203SOL    HW130071   2.997   1.628  14.302  1.0496 -3.1397 -0.8962
 6203SOL    HW230072   2.857   1.597  14.271  0.5286 -1.4215  0.5082
 6204SOL     OW30073   0.037   1.378   8.262 -0.2506 -0.1441 -0.1313
 6204SOL    HW130074   0.120   1.423   8.249 -0.9499  0.8423 -1.1513
 6204SOL    HW230075   4.692   1.442   8.238  0.0957  0.4450  0.4948
 6205SOL     OW30076   1.935   1.208   5.413 -0.1733  0.5714 -0.3859
 6205SOL    HW130077   1.949   1.284   5.357  1.9251 -1.2115 -2.3181
 6205SOL    HW230078   2.028   1.183   5.417  0.0107  1.0711 -1.5771
 6206SOL     OW30079   4.267   1.170   9.294  0.5683 -0.2513  1.2636
 6206SOL    HW130080   4.227   1.245   9.338  0.9048 -0.1469  1.3910
 6206SOL    HW230081   4.234   1.102   9.353 -2.3346 -1.0849 -1.3374
 6207SOL     OW30082   1.484   1.635   5.472 -0.4397  0.4648 -0.4018
 6207SOL    HW130083   1.519   1.717   5.507  2.5191 -0.8089 -0.4152
 6207SOL    HW230084   1.391   1.657   5.476 -0.2123  1.3144  0.2232
 6208SOL     OW30085   3.028   2.137   1.612 -0.4236 -0.4844  0.4711
 6208SOL    HW130086   2.940   2.168   1.587 -0.0332 -0.7959 -1.2695
 6208SOL    HW230087   3.053   2.110   1.523 -1.1403  0.8557 -0.1476
 6209SOL     OW30088   0.855   0.687  15.155 -0.1597  0.1456 -0.4340
 6209SOL    HW130089   0.859   0.768  15.104  2.1228  1.5668  1.9452
 6209SOL    HW230090   0.928   0.648  15.107 -0.3869 -0.3538 -0.3671
 6210SOL     OW30091   2.641   4.646   0.467 -0.1555 -0.4509  0.4411
 6210SOL    HW130092   2.640   0.011   0.426 -1.4789  0.4643  2.4297
 6210SOL    HW230093   2.731   4.647   0.499 -0.2933 -0.7344  0.8271
 6211SOL     OW30094   0.588   2.452   2.405 -0.2372  0.4691 -0.4706
 6211SOL    HW130095   0.538   2.502   2.340  0.9222  0.3142 -1.4760
 6211SOL    HW230096   0.523   2.401   2.455  0.9110  1.3535  1.9443
 6212SOL     OW30097   1.662   2.590   8.315  0.0780  0.0551 -0.1208
 6212SOL    HW130098   1.647   2.509   8.364  2.5577 -1.0203 -1.1398
 6212SOL    HW230099   1.603   2.641   8.371  1.1973  2.8642 -1.5293
 6213SOL     OW30100   2.040   1.020   1.305  0.5996 -0.3810  0.3362
 6213SOL    HW130101   2.023   0.946   1.247  2.3942  1.0549 -2.0259
 6213SOL    HW230102   2.127   1.044   1.274  1.0390 -0.2801  1.6475
 6214SOL     OW30103   0.174   2.700  12.077  0.7820 -0.5926  0.0720
 6214SOL    HW130104   0.244   2.737  12.024 -0.2160 -1.4690 -1.9002
 6214SOL    HW230105   0.168   2.618  12.027  0.1055 -0.5374  0.0618
 6215SOL     OW30106   3.436   1.869   8.870  0.5224  0.3630  0.3125
 6215SOL    HW130107   3.395   1.866   8.957 -0.5018 -2.0904 -0.2619
 6215SOL    HW230108   3.441   1.775   8.851  0.4947 -0.2066  3.1404
 6216SOL     OW30109   0.392   4.426   5.567  0.3321 -0.6114 -0.2517
 6216SOL    HW130110   0.316   4.470   5.605  1.6702 -0.3654  2.1276
 6216SOL    HW230111   0.398   4.343   5.613 -2.0934 -0.3228  0.6047
 6217SOL     OW30112   3.880   2.996   5.178 -0.7230  0.4706  0.7242
 6217SOL    HW130113   3.897   2.907   5.208 -2.3846  0.3555  1.3323
 6217SOL    HW230114   3.788   3.012   5.196 -1.0008  3.8343 -3.6097
 6218SOL     OW30115   0.283   0.655   5.149 -0.4625 -0.4165 -0.3570
 6218SOL    HW130116   0.239   0.667   5.234  2.3430 -1.2743  1.2029
 6218SOL    HW230117   0.362   0.610   5.179 -1.7533 -3.3006 -1.3005
 6219SOL     OW30118   2.072   3.832  14.465  0.1867 -0.4092  0.2975
 6219SOL    HW130119   2.110   3.905  14.515  1.0030 -3.1303  3.6013
 6219SOL    HW230120   2.065   3.771  14.539 -0.4037 -1.3386 -0.5336
 6220SOL     OW30121   0.105   0.974   5.673 -0.0022 -0.5663  0.9061
 6220SOL    HW130122   0.110   0.981   5.768  0.5568 -0.3966  0.8642
 6220SOL    HW230123   0.198   0.961   5.653 -0.2897  2.1098 -2.2484
 6221SOL     OW30124   0.293   2.540   3.122 -0.4831  0.1335 -0.5724
 6221SOL    HW130125   0.373   2.576   3.160 -0.6525 -1.5086  1.3398
 6221SOL    HW230126   0.233   2.569   3.190 -0.1002 -0.3675 -0.0227
 6222SOL     OW30127   0.756   3.733   7.449 -0.2938 -0.1596 -0.4077
 6222SOL    HW130128   0.746   3.772   7.536  0.4237 -0.5258 -0.1635
 6222SOL    HW230129   0.836   3.769   7.411 -0.4729  0.4448 -0.2229
 6223SOL     OW30130   1.166   2.940   2.161 -0.2677 -0.4212 -0.1594
 6223SOL    HW130131   1.210   2.855   2.153  1.5979  0.6196 -0.9097
 6223SOL    HW230132   1.073   2.916   2.162 -0.7626  1.6107  2.9710
 6224SOL     OW30133   2.931   2.285  10.397 -0.0700 -0.3109  0.0326
 6224SOL    HW130134   2.958   2.371  10.430  1.3856 -0.9245  0.4584
 6224SOL    HW230135   3.011   2.232  10.399 -0.1648 -0.5049 -1.8417
 6225SOL     OW30136   4.685   1.350   5.312  0.3255 -0.3368 -0.3103
 6225SOL    HW130137   4.597   1.367   5.346  0.5117 -0.6100  0.3075
 6225SOL    HW230138   4.692   1.258   5.337  1.4582 -0.4627 -1.1030
 6226SOL     OW30139   4.349   1.143   7.257 -0.0581 -0.7339  0.1285
 6226SOL    HW130140   4.366   1.238   7.258 -0.4618 -0.6673  0.5171
 6226SOL    HW230141   4.309   1.135   7.343 -1.5052 -0.7789 -0.5338
 6227SOL     OW30142   4.048   3.723   5.516 -0.2138  0.3048  0.3466
 6227SOL    HW130143   4.063   3.641   5.564  0.6602 -0.1844 -0.7503
 6227SOL    HW230144   4.027   3.783   5.587  1.2986  2.4322 -1.0021
 6228SOL     OW30145   3.586   1.073   6.072 -0.1936  0.2464 -0.3939
 6228SOL    HW130146   3.671   1.098   6.107  0.8537 -0.7649 -2.1863
 6228SOL    HW230147   3.548   1.046   6.156  0.5949 -0.4783 -0.2702
 6229SOL     OW30148   1.501   1.595   8.756  0.5976 -0.7875 -0.1271
 6229SOL    HW130149   1.505   1.690   8.748 -1.6792 -0.6457  0.4641
 6229SOL    HW230150   1.546   1.565   8.677  4.1710 -0.9333  1.9659
 6230SOL     OW30151   4.240   2.834   7.056 -0.2537 -0.1672 -0.2267
 6230SOL    HW130152   4.324   2.879   7.066  0.1580 -1.3456  1.7256
 6230SOL    HW230153   4.264   2.750   7.016  1.5381 -0.8168  2.2067
 6231SOL     OW30154   4.538   3.360  15.229  0.5053 -0.0612  0.1718
 6231SOL    HW130155   4.630   3.376  15.211 -0.0025  0.1340 -2.2912
 6231SOL    HW230156   4.541   3.336  15.322 -1.1877 -0.1928  0.2021
 6232SOL     OW30157   0.872   4.606  13.179  0.2229  0.2685 -0.4199
 6232SOL    HW130158   0.962   4.599  13.147 -0.4820 -0.9357 -2.1407
 6232SOL    HW230159   0.831   4.551  13.112  1.0428 -0.4177 -0.3648
 6233SOL     OW30160   2.191   2.235   5.591 -0.0941  0.1598  0.1057
 6233SOL    HW130161   2.145   2.236   5.676 -0.6880  1.3523 -0.2280
 6233SOL    HW230162   2.226   2.146   5.586  1.0451  0.5868  0.5201
 6234SOL     OW30163   0.076   2.796  16.577 -0.1719  0.0122 -0.3206
 6234SOL    HW130164   4.721   2.846  16.549 -0.0237  0.8493  0.7807
 6234SOL    HW230165   0.152   2.836  16.535  0.6649 -1.0412  0.1767
 6235SOL     OW30166   0.853   2.216   7.802  0.0540  0.1324 -0.1775
 6235SOL    HW130167   0.859   2.239   7.894 -1.4938  0.6631 -0.2068
 6235SOL    HW230168   0.844   2.120   7.807 -1.8187  0.3047 -0.2450
 6236SOL     OW30169   0.941   3.392   7.638  0.1160  0.3448 -0.4799
 6236SOL    HW130170   0.882   3.404   7.563 -1.9863  1.0512  1.3042
 6236SOL    HW230171   0.876   3.355   7.697  1.2161  1.2047  1.2412
 6237SOL     OW30172   4.243   0.458   3.301 -0.0230 -0.1805 -0.2651
 6237SOL    HW130173   4.172   0.464   3.366  0.1348  0.1836 -0.1246
 6237SOL    HW230174   4.261   0.549   3.276 -1.4363  0.0153 -0.5858
 6238SOL     OW30175   3.667   2.798   4.381  0.1415  0.1577  0.6608
 6238SOL    HW130176   3.615   2.717   4.390  2.1187 -1.1583  0.2123
 6238SOL    HW230177   3.617   2.868   4.424  0.0279  0.6956 -0.3412
 6239SOL     OW30178   3.945   2.532   0.795  0.4856 -0.2157 -0.3555
 6239SOL    HW130179   4.023   2.570   0.754 -1.0371  1.7132 -1.5168
 6239SOL    HW230180   3.881   2.601   0.777  1.0486  0.6521  0.9771
 6240SOL     OW30181   3.230   3.243   7.055  0.5350  0.8022 -0.2852
 6240SOL    HW130182   3.163   3.197   7.005  0.1090  0.5863  0.4761
 6240SOL    HW230183   3.252   3.181   7.125 -0.0761  0.6231 -0.2476
 6241SOL     OW30184   3.979   1.509  13.270  0.4861 -0.1793  0.2650
 6241SOL    HW130185   4.048   1.462  13.223  0.1963  1.4186 -1.7886
 6241SOL    HW230186   3.901   1.485  13.220 -0.3510  0.9214  1.0465
 6242SOL     OW30187   2.882   1.023   7.194 -0.5249  0.0283 -0.2953
 6242SOL    HW130188   2.795   0.985   7.186 -0.9796  1.2706 -1.2911
 6242SOL    HW230189   2.872   1.111   7.157  1.2918 -0.0120 -0.9097
 6243SOL     OW30190   2.177   2.643  11.985 -0.1363 -0.8252 -0.0051
 6243SOL    HW130191   2.237   2.583  11.941  1.8905  0.0946  1.5263
 6243SOL    HW230192   2.130   2.688  11.915  0.0852 -0.2815  0.1955
 6244SOL     OW30193   1.037   2.002   5.339  0.6263 -0.7819 -0.3542
 6244SOL    HW130194   1.129   2.021   5.355 -0.0844  2.8530 -0.6009
 6244SOL    HW230195   1.047   1.934   5.272  0.6258  0.4422 -1.5918
 6245SOL     OW30196   4.167   0.426   6.634 -0.0813  0.7739 -0.6264
 6245SOL    HW130197   4.260   0.432   6.657 -0.2968  2.7163 -0.2742
 6245SOL    HW230198   4.145   0.516   6.609 -2.1335  0.7247  1.0563
 6246SOL     OW30199   3.175   3.867  14.031  1.1572  0.3193 -0.1594
 6246SOL    HW130200   3.118   3.869  14.107 -1.4911  2.2230 -2.2011
 6246SOL    HW230201   3.114   3.829  13.968 -0.8254 -0.9089  2.5119
 6247SOL     OW30202   1.658   0.212   0.699 -0.5030 -0.1010 -0.6240
 6247SOL    HW130203   1.605   0.209   0.779 -0.8769 -0.0632 -0.8761
 6247SOL    HW230204   1.737   0.252   0.738 -0.0942 -0.1454 -1.4165
 6248SOL     OW30205   0.924   3.129   3.772 -0.2361 -0.0787 -0.8108
 6248SOL    HW130206   0.945   3.042   3.737 -4.6425 -1.9397  1.1642
 6248SOL    HW230207   0.915   3.173   3.688 -3.6054  1.6550  0.4432
 6249SOL     OW30208   3.299   1.852  14.239  0.0834  0.1871 -0.1182
 6249SOL    HW130209   3.331   1.766  14.263 -1.1460 -0.3313 -0.3128
 6249SOL    HW230210   3.295   1.893  14.326 -2.7168  0.5794 -0.4071
 6250SOL     OW30211   1.629   2.922   8.313 -0.1945 -0.4861 -0.1460
 6250SOL    HW130212   1.570   2.889   8.380 -0.6022  0.2491 -0.1465
 6250SOL    HW230213   1.574   2.980   8.259 -0.0626  0.9100  1.2383
 6251SOL     OW30214   1.306   1.088   8.816  0.1389 -0.2631  0.2083
 6251SOL    HW130215   1.342   1.150   8.880 -0.8244  3.2968 -2.6948
 6251SOL    HW230216   1.295   1.139   8.736  0.8245  1.4684  1.2160
 6252SOL     OW30217   4.507   1.373   6.598  0.3381 -0.0026  0.6366
 6252SOL    HW130218   4.510   1.399   6.690 -1.0874  0.9654  0.4137
 6252SOL    HW230219   4.416   1.347   6.587  0.1799  1.1414 -0.7433
 6253SOL     OW30220   0.876   2.541   7.982 -0.2354 -0.2812  0.0904
 6253SOL    HW130221   0.886   2.624   8.030 -3.2833  0.1942 -0.0875
 6253SOL    HW230222   0.942   2.482   8.019 -0.7541 -0.7136  0.3122
 6254SOL     OW30223   2.185   0.543   5.783 -0.4820  0.1930 -0.0713
 6254SOL    HW130224   2.202   0.452   5.760  0.6600  0.2792  0.4529
 6254SOL    HW230225   2.275   0.571   5.797 -0.1125 -0.2032 -1.6787
 6255SOL     OW30226   1.524   2.639   2.914 -0.5509 -0.1670 -0.0512
 6255SOL    HW130227   1.607   2.592   2.920 -0.6658 -0.2488  0.8760
 6255SOL    HW230228   1.494   2.608   2.829 -0.8687 -0.9217  0.3312
 6256SOL     OW30229   1.596   1.552   7.728  0.0380 -0.0842 -0.0899
 6256SOL    HW130230   1.687   1.540   7.756 -0.0789  2.6548  1.5186
 6256SOL    HW230231   1.583   1.642   7.757  1.2653  0.2166 -0.4787
 6257SOL     OW30232   0.049   2.353   2.415  0.0955 -0.8782 -0.0835
 6257SOL    HW130233   4.717   2.324   2.342 -1.6542  2.4000 -0.0807
 6257SOL    HW230234   4.703   2.355   2.483  0.3757 -0.4132  0.1841
 6258SOL     OW30235   1.486   2.003  10.121  0.0827 -0.3143 -0.1503
 6258SOL    HW130236   1.495   2.087  10.165 -1.6469 -0.1266 -0.1676
 6258SOL    HW230237   1.560   2.009  10.060  1.5397 -2.4393  1.4055
 6259SOL     OW30238   0.475   1.643   3.361  0.2116 -0.3979  0.1804
 6259SOL    HW130239   0.433   1.705   3.301  0.5806 -2.2765 -2.0249
 6259SOL    HW230240   0.568   1.662   3.345  0.1906 -0.5395 -0.1010
 6260SOL     OW30241   3.389   2.410  10.093 -0.0050 -0.5588  0.1985
 6260SOL    HW130242   3.373   2.316  10.084  1.2702 -0.7915  0.3896
 6260SOL    HW230243   3.479   2.415  10.125 -1.1745  0.7621  3.2988
 6261SOL     OW30244   0.437   0.188  17.621 -0.5353  0.0242 -0.4653
 6261SOL    HW130245   0.416   0.157  17.534  1.3978  2.7890 -1.9219
 6261SOL    HW230246   0.391   0.128  17.680 -1.6846 -1.1439 -2.5545
 6262SOL     OW30247   1.501   2.883  11.381 -0.0390  0.8496  0.1569
 6262SOL    HW130248   1.498   2.792  11.352  1.4295  0.9150 -0.1891
 6262SOL    HW230249   1.454   2.868  11.464  2.0613  1.1024  1.3841
 6263SOL     OW30250   0.169   2.103   9.499 -0.6362  0.6609  0.0400
 6263SOL    HW130251   0.186   2.052   9.419  0.4269  1.4060 -0.2025
 6263SOL    HW230252   0.141   2.045   9.570  0.7299 -0.0537 -0.0128
 6264SOL     OW30253   1.582   1.932   4.563  0.6195 -0.3024 -0.0192
 6264SOL    HW130254   1.576   1.841   4.592 -0.2552 -0.3038 -0.1796
 6264SOL    HW230255   1.599   1.919   4.470 -2.4940 -3.6510 -0.1411
 6265SOL     OW30256   1.377   1.340   4.991 -0.0572 -0.5529 -0.3056
 6265SOL    HW130257   1.413   1.317   5.077  3.4607  0.0565 -1.5977
 6265SOL    HW230258   1.318   1.411   5.014  0.3612  0.0348 -1.0472
 6266SOL     OW30259   4.249   4.654  15.769 -0.3087 -0.4335 -0.6826
 6266SOL    HW130260   4.295   0.013  15.748  1.1556 -0.8361  1.0142
 6266SOL    HW230261   4.244   4.658  15.865 -1.3890  3.0188 -0.8706
 6267SOL     OW30262   0.558   3.534   1.652 -0.1493  0.5104  0.0240
 6267SOL    HW130263   0.644   3.576   1.646  0.2790 -0.1266  1.8067
 6267SOL    HW230264   0.512   3.616   1.665  2.3077  2.0588 -0.9880
 6268SOL     OW30265   3.090   3.597  13.667 -0.5922 -0.3419  0.1226
 6268SOL    HW130266   3.168   3.636  13.629  0.3272 -0.8708  1.4590
 6268SOL    HW230267   3.062   3.666  13.727 -0.2688  1.3990 -1.7472
 6269SOL     OW30268   3.091   3.620  15.021 -0.7884  0.3619 -0.0105
 6269SOL    HW130269   3.111   3.553  14.957 -1.3286  0.4675 -0.2902
 6269SOL    HW230270   3.165   3.604  15.080 -0.1953 -0.9487 -1.1253
 6270SOL     OW30271   4.067   1.402   8.309 -0.4611  0.6391 -0.6899
 6270SOL    HW130272   4.116   1.483   8.293  1.5126 -0.0978  1.5840
 6270SOL    HW230273   4.106   1.342   8.245 -0.8020  0.3177 -0.5970
 6271SOL     OW30274   0.285   4.351   7.174  0.3066  0.8222 -0.0615
 6271SOL    HW130275   0.319   4.315   7.092 -1.1741  0.2343 -0.4224
 6271SOL    HW230276   0.233   4.427   7.150 -0.8280  0.1239  0.1543
 6272SOL     OW30277   2.501   2.079   6.127  0.3974  0.2779 -0.8226
 6272SOL    HW130278   2.581   2.060   6.077  1.6852 -1.0423  1.7702
 6272SOL    HW230279   2.456   2.123   6.054  1.7123  2.5078 -0.3134
 6273SOL     OW30280   3.374   2.403  16.261 -0.2856  0.1427 -0.4172
 6273SOL    HW130281   3.420   2.467  16.207  0.6543  0.8311  1.2007
 6273SOL    HW230282   3.412   2.325  16.220  1.2538  0.2116  0.8730
 6274SOL     OW30283   3.353   1.045   7.068 -0.5254  0.5409 -0.3886
 6274SOL    HW130284   3.287   1.078   7.129 -0.6053  1.0243 -0.7379
 6274SOL    HW230285   3.322   1.091   6.991  0.7928  0.6568 -0.8475
 6275SOL     OW30286   1.322   2.675  15.301  0.2591 -0.1147 -0.4273
 6275SOL    HW130287   1.399   2.648  15.351  0.9914  0.7151 -1.0915
 6275SOL    HW230288   1.361   2.703  15.218 -1.3238  1.4780 -0.6368
 6276SOL     OW30289   1.823   0.182   2.152 -0.6532 -0.8413  0.1877
 6276SOL    HW130290   1.875   0.146   2.224 -0.2177  0.7310  0.6693
 6276SOL    HW230291   1.746   0.127   2.139 -2.0840  0.9111  1.2700
 6277SOL     OW30292   0.217   0.998   5.349 -0.4980  0.1490 -0.2673
 6277SOL    HW130293   0.183   0.964   5.432 -0.1890  2.8583  0.9428
 6277SOL    HW230294   0.308   1.019   5.365  0.2598 -3.2790  0.0529
 6278SOL     OW30295   0.564   3.710  15.503  0.3951  0.4881 -0.0573
 6278SOL    HW130296   0.557   3.722  15.409  1.8873  3.2804  0.2116
 6278SOL    HW230297   0.515   3.784  15.537 -0.9335 -0.8423  0.9322
 6279SOL     OW30298   3.755   3.677   5.084 -0.4800  0.6179 -0.0170
 6279SOL    HW130299   3.809   3.642   5.156 -0.7856  2.7983  1.2835
 6279SOL    HW230300   3.716   3.744   5.139 -1.1372  0.5997 -0.4675
 6280SOL     OW30301   2.256   2.914   9.112 -0.4345  0.4935 -0.9108
 6280SOL    HW130302   2.181   2.915   9.172 -0.3362  2.8313 -0.8438
 6280SOL    HW230303   2.229   2.853   9.043 -1.0831  2.6859 -2.5819
 6281SOL     OW30304   2.244   1.799   5.800 -0.3730 -0.0852 -0.1144
 6281SOL    HW130305   2.165   1.753   5.771  0.5230 -2.7824  1.7495
 6281SOL    HW230306   2.312   1.735   5.780 -0.3515  0.2312 -1.0379
 6282SOL     OW30307   0.383   1.676  14.846 -0.6457 -0.0240  0.4494
 6282SOL    HW130308   0.453   1.634  14.797 -0.2600  0.2839  0.7381
 6282SOL    HW230309   0.430   1.744  14.895  2.3286 -0.1931 -2.1835
 6283SOL     OW30310   2.472   3.798   9.263 -0.0024 -0.7717  0.3344
 6283SOL    HW130311   2.390   3.835   9.293  0.0941  0.6629 -1.1969
 6283SOL    HW230312   2.477   3.717   9.315  2.0143 -1.2845 -0.6689
 6284SOL     OW30313   3.530   2.990   3.736 -0.0333  0.1229 -0.3045
 6284SOL    HW130314   3.598   2.941   3.782  0.7634  0.2934 -1.3032
 6284SOL    HW230315   3.495   3.043   3.808 -2.3048 -1.5847 -0.1448
 6285SOL     OW30316   1.819   1.269  12.785  0.2991  0.2641 -0.1009
 6285SOL    HW130317   1.728   1.296  12.788  0.6269  1.5553 -2.3022
 6285SOL    HW230318   1.843   1.283  12.877  1.8286  1.6606 -0.7113
 6286SOL     OW30319   3.621   4.041  11.523 -0.3346 -0.4882  0.1228
 6286SOL    HW130320   3.651   4.050  11.433 -2.2714 -1.2808 -0.5982
 6286SOL    HW230321   3.635   3.948  11.538  1.0630 -0.6389 -2.2850
 6287SOL     OW30322   0.571   0.473  15.825 -0.2069  0.4710 -0.0370
 6287SOL    HW130323   0.480   0.475  15.795 -0.3178 -0.8037  0.2177
 6287SOL    HW230324   0.605   0.461  15.736 -1.3138  0.4476 -0.4593
 6288SOL     OW30325   0.459   0.979   6.334 -0.4141 -0.2487  0.2475
 6288SOL    HW130326   0.530   1.042   6.322  1.5477 -2.4925  0.0226
 6288SOL    HW230327   0.501   0.916   6.275 -0.9796 -1.1266  0.7853
 6289SOL     OW30328   3.974   0.116   2.970 -0.1003  0.5914  0.2968
 6289SOL    HW130329   3.945   0.028   2.948  1.7724 -0.4493  1.9166
 6289SOL    HW230330   3.903   0.164   2.927 -0.2640 -0.8785 -1.0795
 6290SOL     OW30331   0.551   0.503   3.235 -0.1130  0.3798 -0.0922
 6290SOL    HW130332   0.601   0.557   3.296 -1.3361 -0.3865  1.5850
 6290SOL    HW230333   0.466   0.534   3.264 -1.1564 -1.4302 -1.2224
 6291SOL     OW30334   1.521   0.624   6.670  0.3839 -0.8413 -0.2041
 6291SOL    HW130335   1.589   0.557   6.665 -2.0268 -3.3125  0.3305
 6291SOL    HW230336   1.497   0.616   6.762 -0.2019  1.8262 -0.1354
 6292SOL     OW30337   0.301   2.826   1.823  0.2254 -0.1948 -0.7008
 6292SOL    HW130338   0.221   2.779   1.843 -1.2125  2.2300 -0.7537
 6292SOL    HW230339   0.352   2.750   1.795 -1.7604 -0.9437 -2.2907
 6293SOL     OW30340   2.335   1.329   6.016  0.0462  0.6064  1.0196
 6293SOL    HW130341   2.277   1.294   5.948  1.9829  0.6736 -0.6781
 6293SOL    HW230342   2.420   1.323   5.974 -1.0051 -2.0329 -0.7161
 6294SOL     OW30343   4.328   4.671   2.929  0.1489 -0.0584 -0.0777
 6294SOL    HW130344   4.260   4.659   2.862 -0.1966 -0.2957  0.3218
 6294SOL    HW230345   4.387   4.613   2.881 -1.6187 -1.5684 -0.4239
 6295SOL     OW30346   4.054   1.392   8.889  0.5236  0.1400  0.1719
 6295SOL    HW130347   4.089   1.305   8.910 -2.4238 -0.7309  1.5013
 6295SOL    HW230348   3.972   1.380   8.937 -0.5206 -0.2011 -1.7087
 6296SOL     OW30349   3.659   3.104   8.337  0.2589  0.4262  0.3921
 6296SOL    HW130350   3.731   3.067   8.286  1.6916  1.5490  1.5971
 6296SOL    HW230351   3.635   3.175   8.278  2.3072  0.5833 -0.2585
 6297SOL     OW30352   1.770   0.269   2.610  0.0273  0.0457  0.1560
 6297SOL    HW130353   1.816   0.191   2.643 -0.5253  0.3079  1.5331
 6297SOL    HW230354   1.842   0.332   2.608 -1.5741  1.8359 -1.2099
 6298SOL     OW30355   2.869   4.494   6.716  0.0762  0.3507  0.2602
 6298SOL    HW130356   2.836   4.408   6.741 -0.8471  1.0952  1.6086
 6298SOL    HW230357   2.947   4.496   6.771 -0.5348  3.1699  1.0251
 6299SOL     OW30358   2.157   3.282  16.670 -0.0828  0.1576  0.4597
 6299SOL    HW130359   2.155   3.275  16.765 -2.4622 -1.1416  0.3304
 6299SOL    HW230360   2.244   3.321  16.669  0.1300 -0.3182  0.5692
 6300SOL     OW30361   0.552   3.914   6.076  0.2947  0.3782  0.5162
 6300SOL    HW130362   0.622   3.937   6.138  1.0954 -0.6059 -0.0189
 6300SOL    HW230363   0.604   3.896   5.998  0.8178 -5.1524  2.1511
 6301SOL     OW30364   0.491   0.597   3.801  0.1815 -0.1319 -0.0088
 6301SOL    HW130365   0.525   0.613   3.889 -0.3197 -1.7340  0.4835
 6301SOL    HW230366   0.554   0.649   3.752 -0.1736 -0.3702 -0.7221
 6302SOL     OW30367   1.602   3.087   0.848 -0.2598  0.2371  0.2560
 6302SOL    HW130368   1.625   3.156   0.911 -2.2497 -0.8084  2.1364
 6302SOL    HW230369   1.632   3.119   0.763  3.7955  0.4635  1.7307
 6303SOL     OW30370   4.034   2.393   9.845 -0.0162  0.0259  0.4170
 6303SOL    HW130371   4.066   2.471   9.799 -0.0884 -0.7612 -0.9870
 6303SOL    HW230372   3.964   2.428   9.901  0.2264 -0.0244  0.7507
 6304SOL     OW30373   2.926   3.853  14.671 -0.2642  0.2446 -0.9666
 6304SOL    HW130374   3.021   3.861  14.676 -0.3463  0.2971  0.6485
 6304SOL    HW230375   2.899   3.852  14.763 -0.7093 -0.6291 -1.1030
 6305SOL     OW30376   4.453   1.824   8.911  0.5799  0.8172 -0.1532
 6305SOL    HW130377   4.371   1.801   8.867 -0.0276  2.9716 -0.1350
 6305SOL    HW230378   4.429   1.899   8.966  0.5748  1.4387 -1.0112
 6306SOL     OW30379   0.699   4.215  17.129  0.1136 -0.7815  0.3328
 6306SOL    HW130380   0.660   4.268  17.059 -0.7899  0.3798  1.7094
 6306SOL    HW230381   0.679   4.276  17.201 -2.6452  1.4622 -2.3274
 6307SOL     OW30382   3.383   4.370  13.749  0.2602 -0.0090 -0.5290
 6307SOL    HW130383   3.306   4.381  13.693  0.0307 -1.1680 -0.4372
 6307SOL    HW230384   3.447   4.385  13.680  1.7273  2.8023  1.4767
 6308SOL     OW30385   4.519   2.434   5.052 -0.6152 -0.4746 -0.1827
 6308SOL    HW130386   4.515   2.339   5.058  1.5848 -0.6093 -0.7373
 6308SOL    HW230387   4.609   2.444   5.021 -0.5169  2.7494  1.1494
 6309SOL     OW30388   4.107   4.275  14.162  0.2193  0.0724 -0.3421
 6309SOL    HW130389   4.071   4.352  14.206 -0.4271 -0.9566  0.9109
 6309SOL    HW230390   4.077   4.289  14.072 -0.3149  0.9724 -0.0163
 6310SOL     OW30391   3.542   4.092  12.490  0.0356 -0.2064 -0.4979
 6310SOL    HW130392   3.588   4.175  12.482 -1.7017  0.6677 -1.3069
 6310SOL    HW230393   3.579   4.058  12.572 -1.0662  1.3568  0.6355
 6311SOL     OW30394   2.871   4.113  15.751  0.4613 -0.8081 -0.1138
 6311SOL    HW130395   2.954   4.071  15.728 -0.1345 -1.9685 -0.1661
 6311SOL    HW230396   2.859   4.175  15.679  0.1424 -1.2980 -0.4881
 6312SOL     OW30397   3.518   1.243   3.228 -1.1141  0.0200  0.7668
 6312SOL    HW130398   3.461   1.220   3.155 -0.4024  1.1496 -0.1456
 6312SOL    HW230399   3.575   1.166   3.232 -0.2677  0.7149  1.8905
 6313SOL     OW30400   2.493   4.134  16.125  0.1343  0.1776 -0.8326
 6313SOL    HW130401   2.576   4.138  16.077 -0.8691 -0.1692 -2.5562
 6313SOL    HW230402   2.442   4.201  16.080 -0.6864 -0.0215 -0.2006
 6314SOL     OW30403   2.874   4.244   3.586  0.3717 -0.2323 -0.7798
 6314SOL    HW130404   2.953   4.229   3.638 -0.2972 -0.7327  0.0903
 6314SOL    HW230405   2.859   4.157   3.549  0.4437 -0.3398 -0.5595
 6315SOL     OW30406   4.153   0.969   0.377 -0.6400  0.6968 -0.1443
 6315SOL    HW130407   4.077   0.976   0.319  1.2878  1.9134 -2.4947
 6315SOL    HW230408   4.205   0.905   0.328 -0.9677  0.0857  0.2991
 6316SOL     OW30409   0.724   3.123   4.461  0.4417  0.5837 -0.0575
 6316SOL    HW130410   0.708   3.031   4.484  1.6354  0.2349 -0.5924
 6316SOL    HW230411   0.820   3.118   4.454  0.5431  0.1094  1.4439
 6317SOL     OW30412   0.113   0.214   3.397  0.2961 -0.4352  0.0854
 6317SOL    HW130413   0.103   0.289   3.338 -1.3533  0.2469  1.2486
 6317SOL    HW230414   0.125   0.141   3.337  0.1563 -0.9694  0.7077
 6318SOL     OW30415   0.248   4.442   6.343  0.8033 -0.7709 -0.1726
 6318SOL    HW130416   0.182   4.421   6.277  0.8182 -0.1869 -0.3707
 6318SOL    HW230417   0.323   4.459   6.286  1.3708 -0.9602  0.5254
 6319SOL     OW30418   2.509   0.942   1.215 -0.0481  0.4680 -0.5923
 6319SOL    HW130419   2.471   0.875   1.272 -2.8039 -0.2027 -3.2069
 6319SOL    HW230420   2.532   0.890   1.138  0.1866 -1.3470  0.7192
 6320SOL     OW30421   2.755   1.158   6.951 -0.1179 -0.4664  0.0508
 6320SOL    HW130422   2.698   1.101   7.003 -0.0682 -0.5724 -0.0124
 6320SOL    HW230423   2.787   1.217   7.019  0.3299  1.0511 -1.4932
 6321SOL     OW30424   2.873   4.470   1.162  0.4270  0.2267 -0.0895
 6321SOL    HW130425   2.791   4.420   1.164  0.5762 -0.0805 -2.4998
 6321SOL    HW230426   2.914   4.435   1.083  1.0577  0.2621  0.2180
 6322SOL     OW30427   1.227   1.720   5.496 -0.5789 -0.0963 -0.0919
 6322SOL    HW130428   1.170   1.688   5.566  0.1073  1.3789  1.1372
 6322SOL    HW230429   1.198   1.671   5.420 -0.7629  0.1074 -0.1516
 6323SOL     OW30430   0.480   1.475  10.832  0.0426  0.1168  0.1864
 6323SOL    HW130431   0.498   1.489  10.925 -0.0450 -0.8586  0.3481
 6323SOL    HW230432   0.401   1.422  10.842  1.2009 -2.1428 -2.3403
 6324SOL     OW30433   3.052   1.180  17.133  0.1949  0.3680 -0.4392
 6324SOL    HW130434   3.017   1.095  17.107  2.3886 -0.1852 -1.5657
 6324SOL    HW230435   2.995   1.205  17.206  0.4226  1.5306 -0.6604
 6325SOL     OW30436   2.146   4.314   4.396 -0.2560 -0.3700 -0.4351
 6325SOL    HW130437   2.174   4.272   4.478  1.7944  1.1259 -0.3784
 6325SOL    HW230438   2.211   4.279   4.335  0.6268 -0.5841  0.6209
 6326SOL     OW30439   3.151   3.059   8.499  0.0739 -0.0997  0.5768
 6326SOL    HW130440   3.113   3.037   8.413  4.0523 -1.0908 -0.9359
 6326SOL    HW230441   3.076   3.042   8.556  0.3625 -0.2845  0.8988
 6327SOL     OW30442   4.683   1.087   5.392 -0.6751  0.6317 -0.0192
 6327SOL    HW130443   4.598   1.047   5.374 -0.2148 -0.4143  0.1477
 6327SOL    HW230444   0.015   1.061   5.316 -1.5404 -0.2860 -0.3153
 6328SOL     OW30445   3.148   4.681  15.910  0.1857  0.1404  0.1912
 6328SOL    HW130446   3.211   0.016  15.865 -0.9705  1.5782  0.3910
 6328SOL    HW230447   3.091   4.668  15.835  0.5684 -1.8221  0.2403
 6329SOL     OW30448   1.748   0.259   8.697  0.0891 -0.6315 -0.0363
 6329SOL    HW130449   1.827   0.244   8.644  0.5726  2.5324 -0.2123
 6329SOL    HW230450   1.694   0.194   8.653 -2.1198  1.6560 -0.6960
 6330SOL     OW30451   0.630   3.073   6.403  0.2429 -0.2575 -0.1674
 6330SOL    HW130452   0.600   3.012   6.336 -0.7735  0.5231 -0.4296
 6330SOL    HW230453   0.719   3.040   6.417 -0.1313 -2.0903 -2.0407
 6331SOL     OW30454   1.522   2.131   6.506  0.0846 -0.2585  0.3893
 6331SOL    HW130455   1.550   2.118   6.597  0.1792  1.3970  0.5806
 6331SOL    HW230456   1.607   2.146   6.464  0.4667 -1.2730  0.7876
 6332SOL     OW30457   3.092   3.277  12.380 -0.1365 -0.7046 -0.6995
 6332SOL    HW130458   3.090   3.297  12.287  0.8140  2.8174  0.0431
 6332SOL    HW230459   3.188   3.278  12.387 -0.1363 -0.4938 -0.7390
 6333SOL     OW30460   2.315   3.955   4.541 -0.1329  0.0903 -0.1800
 6333SOL    HW130461   2.375   3.931   4.612 -1.5748 -2.9776 -0.0068
 6333SOL    HW230462   2.370   3.975   4.466  0.3320 -1.7224 -0.3107
 6334SOL     OW30463   0.968   4.536  17.030  0.5057  0.2657  0.1564
 6334SOL    HW130464   0.956   4.446  17.003  0.7990 -0.0561  1.0848
 6334SOL    HW230465   1.047   4.532  17.085 -0.1993  1.3916  1.2343
 6335SOL     OW30466   3.849   0.185  15.050 -0.1224  0.6084 -0.5564
 6335SOL    HW130467   3.865   0.096  15.020 -0.0764  0.8845 -1.3592
 6335SOL    HW230468   3.924   0.207  15.105  0.1284 -1.0603 -0.2453
 6336SOL     OW30469   2.303   1.567   8.374 -0.3827  0.4785  0.4042
 6336SOL    HW130470   2.278   1.614   8.454 -0.9977 -1.4268  1.3298
 6336SOL    HW230471   2.295   1.633   8.305  0.0348 -0.0636 -0.1651
 6337SOL     OW30472   1.277   0.172  14.082  0.1876  0.2501  0.7018
 6337SOL    HW130473   1.346   0.136  14.026  0.3776  0.4252  0.8287
 6337SOL    HW230474   1.202   0.162  14.023 -0.7904  0.6395  1.8895
 6338SOL     OW30475   3.324   0.659   4.014 -0.2615  0.2190 -0.3898
 6338SOL    HW130476   3.311   0.583   4.071 -1.1228  0.6593  0.0022
 6338SOL    HW230477   3.243   0.661   3.962  0.6494  0.5357 -1.7899
 6339SOL     OW30478   1.951   1.712  14.392  0.6009  0.2886  0.3403
 6339SOL    HW130479   1.995   1.794  14.415  0.8852  0.1224  0.3838
 6339SOL    HW230480   1.911   1.751  14.314 -0.0174 -1.4427 -0.2057
 6340SOL     OW30481   1.675   1.148  16.080  0.3404  0.3710  0.1473
 6340SOL    HW130482   1.671   1.183  15.991 -0.5125 -0.3793 -0.1061
 6340SOL    HW230483   1.592   1.102  16.088 -0.8184  2.0749 -1.9398
 6341SOL     OW30484   0.965   2.139   8.614  0.1005  0.3138 -0.2068
 6341SOL    HW130485   0.979   2.156   8.707  0.7635 -0.7301 -0.1150
 6341SOL    HW230486   0.985   2.227   8.585 -0.9412 -0.1178 -2.2273
 6342SOL     OW30487   2.856   1.148   5.041 -0.0107  0.5865 -0.3418
 6342SOL    HW130488   2.886   1.152   5.131 -2.0678  4.2085  0.1644
 6342SOL    HW230489   2.807   1.229   5.031 -1.6111 -0.2799  0.4889
 6343SOL     OW30490   3.363   1.863   7.462  0.3520 -0.1991  0.1106
 6343SOL    HW130491   3.442   1.891   7.508 -0.9004  1.1106  1.4725
 6343SOL    HW230492   3.308   1.838   7.537  0.2806  2.2201  0.8769
 6344SOL     OW30493   0.057   4.298   8.812  0.6252 -0.1044 -0.1265
 6344SOL    HW130494   4.719   4.239   8.857  2.5117  0.3833  3.0812
 6344SOL    HW230495   0.061   4.268   8.721 -1.2775  0.9418 -0.5550
 6345SOL     OW30496   4.243   0.091   7.267  0.4480 -0.0800  0.4116
 6345SOL    HW130497   4.306   0.151   7.305  0.0731  1.2480 -1.0650
 6345SOL    HW230498   4.181   0.145   7.217  1.6113 -0.1929 -1.1506
 6346SOL     OW30499   2.646   3.379   6.584  0.4997 -0.3149 -0.5419
 6346SOL    HW130500   2.576   3.347   6.641  1.2110  0.6302  0.8556
 6346SOL    HW230501   2.715   3.404   6.645 -0.8721 -0.7899  1.2227
 6347SOL     OW30502   4.098   4.116   2.818  0.0810  0.1400  0.4077
 6347SOL    HW130503   4.156   4.045   2.791  0.5162  0.3718  0.7472
 6347SOL    HW230504   4.062   4.155   2.738  0.2117 -1.1731 -0.2935
 6348SOL     OW30505   0.199   1.007  10.166 -0.5758 -0.1544  0.0404
 6348SOL    HW130506   0.153   0.939  10.216 -0.7982  0.1400  0.2385
 6348SOL    HW230507   0.136   1.037  10.100  1.5901  2.0292 -1.0237
 6349SOL     OW30508   4.065   3.316   3.256  0.2746 -0.1455 -0.2605
 6349SOL    HW130509   4.124   3.342   3.327 -2.4060  0.7425  1.6374
 6349SOL    HW230510   4.103   3.369   3.185  2.0175 -1.6003 -0.3780
 6350SOL     OW30511   1.047   4.683   2.709  0.2906  0.2367 -0.0226
 6350SOL    HW130512   0.960   4.647   2.689 -0.0971 -0.1512  2.3728
 6350SOL    HW230513   1.081   4.708   2.622 -0.0031 -0.1791 -0.2559
 6351SOL     OW30514   4.418   3.366   3.014  0.2652  0.2684 -0.0429
 6351SOL    HW130515   4.452   3.426   2.948  0.8614  0.1035  0.1156
 6351SOL    HW230516   4.464   3.398   3.091 -0.1164 -0.1292  0.3524
 6352SOL     OW30517   3.236   1.954  12.142  0.5724  0.0819 -0.0828
 6352SOL    HW130518   3.212   1.955  12.050 -0.0619 -1.1889  0.0695
 6352SOL    HW230519   3.153   1.983  12.179  1.3082  3.1759 -0.8237
 6353SOL     OW30520   0.210   3.293   2.787  0.7553  0.0798  0.0601
 6353SOL    HW130521   0.276   3.249   2.733 -1.5498 -0.8783 -1.9718
 6353SOL    HW230522   0.212   3.240   2.867  2.3580  0.6392  0.3799
 6354SOL     OW30523   1.989   1.401   3.392  0.6140 -0.1675  0.3121
 6354SOL    HW130524   2.048   1.437   3.458 -0.1707  1.4838  0.1234
 6354SOL    HW230525   2.033   1.425   3.311 -0.7185  0.2084 -0.3108
 6355SOL     OW30526   2.879   1.525   1.122 -0.8778  0.7301  0.1884
 6355SOL    HW130527   2.863   1.617   1.142 -4.0515  0.4125 -0.9441
 6355SOL    HW230528   2.908   1.527   1.031 -0.6248  0.7479  0.2689
 6356SOL     OW30529   0.542   1.836   4.739 -0.1003  0.6242  0.7255
 6356SOL    HW130530   0.581   1.895   4.674  0.0312  0.5779  0.7613
 6356SOL    HW230531   0.448   1.842   4.750 -0.1899 -1.4869  1.2119
 6357SOL     OW30532   0.787   3.136   8.027 -0.3376 -0.3725  0.6345
 6357SOL    HW130533   0.808   3.226   8.000 -2.1296 -1.3083 -3.9378
 6357SOL    HW230534   0.843   3.112   8.101  0.6244  1.5119  0.5320
 6358SOL     OW30535   1.930   2.529  10.863 -0.1988 -0.3650  0.2679
 6358SOL    HW130536   2.018   2.499  10.841  0.0364  1.4840 -1.3007
 6358SOL    HW230537   1.908   2.607  10.812 -2.2656 -0.0664  1.5841
 6359SOL     OW30538   4.705   1.243   0.749 -0.2068  0.1907  0.7049
 6359SOL    HW130539   4.636   1.199   0.700 -0.6815  0.8237  0.8072
 6359SOL    HW230540   0.051   1.236   0.682 -2.1638 -2.9209 -0.9864
 6360SOL     OW30541   3.163   2.459   6.705 -0.0796 -0.5691  0.0211
 6360SOL    HW130542   3.118   2.422   6.782  0.9712  1.1631  1.4512
 6360SOL    HW230543   3.085   2.476   6.653 -0.6229  1.2587  1.4507
 6361SOL     OW30544   0.365   3.101  11.856  0.1525  0.2963  0.6150
 6361SOL    HW130545   0.394   3.189  11.833 -1.4201  0.5501 -0.4234
 6361SOL    HW230546   0.337   3.113  11.946  0.3329  2.6726  0.3567
 6362SOL     OW30547   0.002   4.568   4.672 -0.2216  0.4359 -0.4288
 6362SOL    HW130548   0.015   4.571   4.767 -0.6933  0.7375 -0.3746
 6362SOL    HW230549   4.648   4.626   4.665 -0.0212  0.7193 -0.2411
 6363SOL     OW30550   2.918   0.240   8.253  0.3002 -0.3890  0.5038
 6363SOL    HW130551   2.943   0.279   8.337 -0.0399 -0.0499  0.4491
 6363SOL    HW230552   2.992   0.257   8.195 -0.7648  2.3307 -0.0641
 6364SOL     OW30553   3.969   1.146   7.734 -0.1973 -0.3611  0.5941
 6364SOL    HW130554   3.933   1.163   7.647  1.0650  0.3054  0.2171
 6364SOL    HW230555   3.998   1.055   7.724 -0.3961 -0.3357 -0.2199
 6365SOL     OW30556   4.199   1.197   3.263  0.0767 -0.5767  0.2502
 6365SOL    HW130557   4.239   1.218   3.348  3.4501 -1.8834 -1.0366
 6365SOL    HW230558   4.278   1.180   3.212 -0.6098  1.5773 -1.5426
 6366SOL     OW30559   1.918   1.318  14.702 -0.4258 -0.1885  0.0298
 6366SOL    HW130560   1.944   1.346  14.614  0.9214  2.8252  1.4022
 6366SOL    HW230561   1.858   1.248  14.678 -1.9135  0.2850  2.3562
 6367SOL     OW30562   2.189   3.243   7.612  0.1669  0.3791  0.1613
 6367SOL    HW130563   2.212   3.151   7.629  0.5294  0.7588  1.7568
 6367SOL    HW230564   2.151   3.260   7.698 -0.5650  0.8755 -0.2582
 6368SOL     OW30565   0.951   4.356  13.545 -0.0048 -0.7659 -0.0442
 6368SOL    HW130566   0.927   4.444  13.514 -0.6938 -1.2331 -0.8406
 6368SOL    HW230567   1.036   4.349  13.500 -0.9296  3.1702 -2.4622
 6369SOL     OW30568   3.630   2.220  17.290 -0.5264  0.4898 -0.1432
 6369SOL    HW130569   3.624   2.220  17.195 -1.5508 -1.1430 -0.0710
 6369SOL    HW230570   3.600   2.131  17.306  0.2105  0.6372  2.1497
 6370SOL     OW30571   2.416   4.079   0.565  0.3952 -0.4234 -0.1384
 6370SOL    HW130572   2.379   4.160   0.600 -1.7570 -1.4731 -0.0077
 6370SOL    HW230573   2.383   4.014   0.627 -0.7027  0.4023  0.1395
 6371SOL     OW30574   0.402   4.520   3.193 -0.6842  0.5270 -0.4543
 6371SOL    HW130575   0.473   4.581   3.212 -1.7340  1.9498 -1.0716
 6371SOL    HW230576   0.378   4.568   3.114  2.5087  2.7081 -0.0852
 6372SOL     OW30577   3.268   3.015   1.931 -0.2764  0.2199 -0.4427
 6372SOL    HW130578   3.357   3.038   1.955 -0.0303  0.5846 -1.7495
 6372SOL    HW230579   3.271   3.019   1.836  3.7179 -1.2485 -0.3536
 6373SOL     OW30580   3.413   4.498   5.553 -0.0570  0.3127 -0.7944
 6373SOL    HW130581   3.407   4.588   5.521 -1.6685  0.2073 -0.7976
 6373SOL    HW230582   3.369   4.514   5.636 -0.8595  0.0651 -1.1724
 6374SOL     OW30583   1.848   0.513  12.900 -0.2252 -0.8912 -0.1050
 6374SOL    HW130584   1.853   0.471  12.815  1.2222  1.8606 -1.3683
 6374SOL    HW230585   1.755   0.531  12.914 -0.1395 -2.0706  2.1347
 6375SOL     OW30586   1.407   1.869   9.096  0.3102  0.1352 -0.3850
 6375SOL    HW130587   1.347   1.797   9.077  0.1243 -0.3572  2.0843
 6375SOL    HW230588   1.488   1.822   9.118  0.5791  0.3881 -0.8462
 6376SOL     OW30589   1.354   3.069  15.782  0.5163  0.2317  0.3305
 6376SOL    HW130590   1.276   3.122  15.798  1.3196  1.0296  1.6070
 6376SOL    HW230591   1.393   3.122  15.712  1.8207 -1.4518 -0.2123
 6377SOL     OW30592   3.578   2.777   3.557 -0.7545  0.3060 -0.0630
 6377SOL    HW130593   3.502   2.834   3.546 -1.6754 -1.1151 -1.1393
 6377SOL    HW230594   3.637   2.827   3.613  2.0894 -1.5787 -1.3544
 6378SOL     OW30595   0.198   3.649   0.893 -0.1044  0.3409 -1.1229
 6378SOL    HW130596   0.184   3.629   0.985  0.0096 -1.2497 -1.4396
 6378SOL    HW230597   0.187   3.744   0.892 -1.3567  0.1746 -4.2320
 6379SOL     OW30598   2.658   0.313   3.464  0.5645 -0.0777  0.5920
 6379SOL    HW130599   2.671   0.251   3.393 -0.4876 -0.4475  0.7213
 6379SOL    HW230600   2.580   0.359   3.432  1.0042  0.0438 -0.2968
 6380SOL     OW30601   3.716   1.049   1.857 -0.2797 -0.1466 -0.6392
 6380SOL    HW130602   3.795   1.087   1.896 -3.0210  2.4556  2.4094
 6380SOL    HW230603   3.714   0.959   1.890 -0.8823  0.4431  0.9225
 6381SOL     OW30604   0.715   2.054   0.534 -0.1149  0.6958  0.4358
 6381SOL    HW130605   0.772   2.036   0.459 -1.1932 -0.2081 -0.1645
 6381SOL    HW230606   0.723   1.967   0.573  1.1074  1.1787  1.2677
 6382SOL     OW30607   3.844   1.392   3.344 -0.1576  0.0474  0.7373
 6382SOL    HW130608   3.871   1.310   3.385  1.5266  1.4006  2.3292
 6382SOL    HW230609   3.929   1.412   3.305 -0.1835 -1.7722 -0.2688
 6383SOL     OW30610   2.663   1.505   1.434  0.1510 -0.6112  0.0896
 6383SOL    HW130611   2.573   1.524   1.407  0.6242  0.3081 -0.8582
 6383SOL    HW230612   2.693   1.595   1.436 -1.0447 -0.2449  1.4643
 6384SOL     OW30613   0.100   0.354   4.623  0.7712 -0.4383  0.4540
 6384SOL    HW130614   0.180   0.303   4.612  1.0802  0.0901  0.2229
 6384SOL    HW230615   0.112   0.406   4.543  1.1243 -0.6045  0.4014
 6385SOL     OW30616   2.950   3.602  10.134 -0.0845 -1.1537 -0.0144
 6385SOL    HW130617   2.960   3.597  10.229 -1.7298 -0.0859  0.2150
 6385SOL    HW230618   2.913   3.690  10.124  1.6943 -0.5896 -1.7439
 6386SOL     OW30619   4.018   2.789   6.520  0.3791  0.4836  0.1815
 6386SOL    HW130620   3.997   2.696   6.528 -0.2901  0.6154  0.0297
 6386SOL    HW230621   3.928   2.817   6.538 -0.0291 -0.9751  0.4126
 6387SOL     OW30622   3.641   2.334   4.316  0.3503 -0.1290  0.1062
 6387SOL    HW130623   3.594   2.256   4.343  2.2265 -1.4165 -0.3531
 6387SOL    HW230624   3.692   2.300   4.243  1.8597  1.7011  0.3019
 6388SOL     OW30625   1.941   1.672   6.430 -0.4021  0.2059 -0.1526
 6388SOL    HW130626   1.970   1.763   6.426 -0.0544  0.0880 -0.3511
 6388SOL    HW230627   1.885   1.668   6.353 -0.3881 -0.7818 -0.1045
 6389SOL     OW30628   4.497   1.448   6.880 -0.3756  0.4272 -0.0388
 6389SOL    HW130629   4.515   1.503   6.956  1.8028  0.1593 -0.3555
 6389SOL    HW230630   4.404   1.470   6.875 -0.2482  0.7532 -0.8443
 6390SOL     OW30631   1.559   1.815   8.109 -0.6808 -0.3427 -0.1093
 6390SOL    HW130632   1.596   1.742   8.159 -0.8089 -0.7394 -0.5942
 6390SOL    HW230633   1.465   1.815   8.129 -0.9470 -0.2273 -1.3425
 6391SOL     OW30634   4.278   4.049   0.739 -0.6310 -0.4429 -0.1921
 6391SOL    HW130635   4.319   4.135   0.727  1.1020 -1.2826 -0.2965
 6391SOL    HW230636   4.243   4.064   0.827  1.5158  0.4055  0.5233
 6392SOL     OW30637   1.955   2.703   3.375  0.2165 -0.5928  0.7922
 6392SOL    HW130638   1.880   2.743   3.419 -1.0628 -2.4100  0.2690
 6392SOL    HW230639   1.979   2.758   3.301 -0.2068 -0.3371  0.8466
 6393SOL     OW30640   0.831   0.449  13.084  1.1392  0.8123  0.2973
 6393SOL    HW130641   0.879   0.386  13.138 -0.6736 -0.3205  0.5538
 6393SOL    HW230642   0.890   0.456  13.009 -0.6224  0.8152 -1.0819
 6394SOL     OW30643   1.927   3.232   1.451  0.4329 -0.1207 -0.9695
 6394SOL    HW130644   1.987   3.257   1.381 -0.6969  0.8464 -1.5899
 6394SOL    HW230645   1.953   3.299   1.514  0.9229 -0.7229 -0.5223
 6395SOL     OW30646   2.183   2.157   7.534  0.1052  0.2004  0.2049
 6395SOL    HW130647   2.262   2.211   7.532  0.3050 -0.0779  0.4069
 6395SOL    HW230648   2.202   2.107   7.614 -0.6872 -1.1830 -0.4870
 6396SOL     OW30649   3.765   2.402  13.354 -0.5262 -0.3966  0.1415
 6396SOL    HW130650   3.792   2.491  13.335 -1.1543 -0.3477 -0.5164
 6396SOL    HW230651   3.844   2.386  13.405  0.6224 -0.6052 -1.7221
 6397SOL     OW30652   4.394   2.949   6.317 -0.0413  0.3212 -0.1417
 6397SOL    HW130653   4.337   2.931   6.242 -0.5554  0.6274  0.1792
 6397SOL    HW230654   4.333   2.927   6.387 -0.5396  0.3645 -0.5640
 6398SOL     OW30655   4.034   0.935   8.141  0.5267  0.3463  0.5992
 6398SOL    HW130656   3.967   0.941   8.072  0.0722  0.0388  1.0134
 6398SOL    HW230657   4.094   0.870   8.105  0.7928 -0.3851  2.3753
 6399SOL     OW30658   2.777   2.799  14.142 -0.2917 -0.1880 -0.2693
 6399SOL    HW130659   2.692   2.809  14.099 -0.1729  0.7264 -0.2979
 6399SOL    HW230660   2.771   2.756  14.227  0.9524  0.1517 -0.0101
 6400SOL     OW30661   0.978   0.975  17.071 -0.2756 -0.3041 -0.1121
 6400SOL    HW130662   0.975   0.879  17.078  0.0530 -0.1926  1.4935
 6400SOL    HW230663   1.028   0.993  17.150 -0.4284 -2.7651  0.5592
 6401SOL     OW30664   2.532   3.460   9.044  0.0791  0.3465  0.3112
 6401SOL    HW130665   2.466   3.501   8.989 -1.2648 -0.4380  1.3327
 6401SOL    HW230666   2.490   3.374   9.046 -2.1427  1.4126 -0.4686
 6402SOL     OW30667   4.254   4.466  12.493 -0.4116 -0.3161 -0.2380
 6402SOL    HW130668   4.258   4.405  12.567 -0.5324  0.1997  0.1929
 6402SOL    HW230669   4.237   4.412  12.415 -1.4434 -0.1696 -0.1123
 6403SOL     OW30670   2.113   0.652   9.603  0.4774 -0.1650  0.5105
 6403SOL    HW130671   2.193   0.701   9.622 -0.0289  0.6725  0.5022
 6403SOL    HW230672   2.067   0.664   9.686 -2.1877  1.5985 -1.1748
 6404SOL     OW30673   0.557   1.780  11.418  0.0465 -0.6936 -0.2354
 6404SOL    HW130674   0.504   1.711  11.379  0.3869 -1.0239 -0.1201
 6404SOL    HW230675   0.630   1.793  11.358 -0.9613 -2.8152 -1.9112
 6405SOL     OW30676   4.301   2.700   6.470  0.2774 -0.5881 -0.1654
 6405SOL    HW130677   4.284   2.731   6.381  2.3225 -0.5169 -0.5525
 6405SOL    HW230678   4.215   2.690   6.509  0.6831 -1.9131  0.3795
 6406SOL     OW30679   1.293   1.338  12.806 -0.1919 -0.2861  0.0129
 6406SOL    HW130680   1.336   1.414  12.845  3.1021 -1.5820 -1.0659
 6406SOL    HW230681   1.281   1.372  12.717 -0.6115  2.1345  0.9851
 6407SOL     OW30682   1.456   3.088   1.876  0.4734 -0.3326 -0.5227
 6407SOL    HW130683   1.518   3.025   1.915  0.3170 -0.9381 -1.2551
 6407SOL    HW230684   1.478   3.072   1.784 -0.0589 -0.2000 -0.6730
 6408SOL     OW30685   4.226   1.675   6.772  0.1389  0.0313 -0.1107
 6408SOL    HW130686   4.215   1.581   6.788 -1.3976  0.3584  0.7406
 6408SOL    HW230687   4.134   1.697   6.786  0.3304  0.6044  0.2705
 6409SOL     OW30688   0.685   2.781  14.385 -0.5336  0.5986  0.5702
 6409SOL    HW130689   0.751   2.713  14.398 -0.4598  0.2766 -1.4711
 6409SOL    HW230690   0.681   2.824  14.470  0.8775  1.0277  0.4210
 6410SOL     OW30691   0.888   1.143   7.860 -0.7635 -0.5732 -0.1761
 6410SOL    HW130692   0.896   1.233   7.828 -0.8242  0.1269  1.8086
 6410SOL    HW230693   0.814   1.143   7.920  0.9984  3.9880  1.9357
 6411SOL     OW30694   0.247   0.606  11.794  0.0963  0.4209  0.3680
 6411SOL    HW130695   0.160   0.614  11.755  1.5851 -0.6986 -3.2055
 6411SOL    HW230696   0.264   0.512  11.804 -0.5897  0.2651  0.0612
 6412SOL     OW30697   0.806   0.824   7.016  0.0153 -0.9364 -0.1519
 6412SOL    HW130698   0.797   0.888   7.087 -1.8598 -1.9276  0.4880
 6412SOL    HW230699   0.726   0.852   6.971  0.9809  1.1404 -0.6091
 6413SOL     OW30700   3.801   2.265  16.202  0.5907 -0.2304 -0.1663
 6413SOL    HW130701   3.767   2.243  16.115 -0.3759 -0.6107  0.3190
 6413SOL    HW230702   3.887   2.301  16.180 -0.3524  1.8761 -0.4567
 6414SOL     OW30703   4.576   0.246   4.512 -0.3380  0.4614  0.4164
 6414SOL    HW130704   4.655   0.222   4.561 -0.1123 -0.5130 -0.4145
 6414SOL    HW230705   4.596   0.321   4.457  0.0733  0.0109 -0.0461
 6415SOL     OW30706   3.508   2.557   5.834  0.7442 -0.0256  0.3900
 6415SOL    HW130707   3.545   2.537   5.747 -0.7835 -3.0774  0.4367
 6415SOL    HW230708   3.469   2.643   5.818 -0.6752 -1.0239 -1.4993
 6416SOL     OW30709   0.926   1.917   6.818  0.6335  0.2412  0.1225
 6416SOL    HW130710   0.873   1.870   6.882 -0.6096  1.3673 -0.0904
 6416SOL    HW230711   0.865   1.953   6.753  1.8864 -0.4383 -1.4305
 6417SOL     OW30712   2.344   3.044  16.109  0.0821 -0.2245 -0.0031
 6417SOL    HW130713   2.291   2.965  16.106 -2.3706  1.4470 -0.3910
 6417SOL    HW230714   2.418   2.997  16.149 -0.0350 -0.9700 -0.6703
 6418SOL     OW30715   0.531   3.126  10.914 -0.2632  0.6398 -0.3741
 6418SOL    HW130716   0.558   3.160  10.999 -0.1218  2.9644 -1.3498
 6418SOL    HW230717   0.580   3.183  10.855 -0.2187 -0.8687 -1.8036
 6419SOL     OW30718   0.797   0.455   6.470  0.2465  0.3395 -0.5068
 6419SOL    HW130719   0.889   0.454   6.496  0.4468 -1.2149 -1.2521
 6419SOL    HW230720   0.818   0.399   6.395 -1.5205 -3.3810  1.7611
 6420SOL     OW30721   2.054   1.109   4.940 -0.0502 -0.3993  0.1423
 6420SOL    HW130722   2.005   1.091   4.859 -0.7528  1.8674  0.0860
 6420SOL    HW230723   1.984   1.131   5.001  1.6765 -0.3855  2.1212
 6421SOL     OW30724   3.759   1.387  17.243  0.5275  0.4643  1.0898
 6421SOL    HW130725   3.717   1.347  17.167 -1.3936  0.0606  2.3792
 6421SOL    HW230726   3.760   1.321  17.312  1.2914 -0.6716 -0.0126
 6422SOL     OW30727   2.556   0.424   7.938  0.6661  0.0458 -0.0974
 6422SOL    HW130728   2.550   0.376   7.855 -0.4315  1.3418 -0.7704
 6422SOL    HW230729   2.629   0.481   7.914  1.2062 -0.5252  0.1966
 6423SOL     OW30730   0.281   1.493  12.311  0.2425 -0.3697  0.0945
 6423SOL    HW130731   0.295   1.399  12.312 -0.4476 -0.4680  1.3777
 6423SOL    HW230732   0.186   1.496  12.293 -0.1246 -2.1430  1.7630
 6424SOL     OW30733   2.527   3.591   7.450 -0.5366  0.2762 -0.4095
 6424SOL    HW130734   2.496   3.538   7.523  0.2162 -0.1243 -0.3784
 6424SOL    HW230735   2.536   3.676   7.492  2.2489 -0.6940  0.9294
 6425SOL     OW30736   4.418   3.419  14.897  0.4325 -0.4600  0.5525
 6425SOL    HW130737   4.427   3.473  14.818  0.2145 -1.5017 -0.1929
 6425SOL    HW230738   4.481   3.349  14.880 -0.5957 -0.9066 -1.5033
 6426SOL     OW30739   2.677   3.127  16.837  0.3346  0.5869  0.2550
 6426SOL    HW130740   2.704   3.049  16.789  0.7691 -1.0475  3.1244
 6426SOL    HW230741   2.640   3.080  16.912 -0.4869 -0.9327 -1.0886
 6427SOL     OW30742   1.414   0.459   7.645 -0.3263  0.6570 -0.1391
 6427SOL    HW130743   1.345   0.393   7.662  0.5253 -0.4772 -1.1047
 6427SOL    HW230744   1.483   0.401   7.613 -1.2671 -0.7147  0.2814
 6428SOL     OW30745   3.073   1.504   6.435 -0.1360  0.0491 -0.3865
 6428SOL    HW130746   3.094   1.597   6.442 -2.0132  0.2687  2.5422
 6428SOL    HW230747   3.030   1.513   6.350 -0.4310 -0.5736 -0.3009
 6429SOL     OW30748   1.832   1.361   9.747  0.2519  0.8841 -0.5009
 6429SOL    HW130749   1.918   1.323   9.729  0.4091  1.5313 -1.1109
 6429SOL    HW230750   1.783   1.283   9.773  1.3440  0.6897  0.9629
 6430SOL     OW30751   4.709   1.222   1.063  0.3629 -0.6187  0.1977
 6430SOL    HW130752   4.682   1.245   0.974  0.9956 -0.7078 -0.0199
 6430SOL    HW230753   0.071   1.266   1.077  0.1667 -0.8495  2.1169
 6431SOL     OW30754   3.634   2.082   6.969 -0.2074 -0.4794  0.4649
 6431SOL    HW130755   3.630   2.155   7.031 -1.4762  0.2709 -0.5101
 6431SOL    HW230756   3.543   2.053   6.965 -0.4400  0.3349 -0.2172
 6432SOL     OW30757   2.038   2.026  16.414 -0.1927  0.2648 -0.4776
 6432SOL    HW130758   1.970   2.053  16.352  0.5674  0.3248 -1.2833
 6432SOL    HW230759   2.064   2.112  16.449  2.7958 -0.8301 -0.0107
 6433SOL     OW30760   0.436   2.800  16.128 -0.1945  0.2094 -0.1108
 6433SOL    HW130761   0.495   2.734  16.162  1.3500  1.9306  0.5224
 6433SOL    HW230762   0.505   2.856  16.094  1.1644 -1.0445  0.6116
 6434SOL     OW30763   2.434   3.228   8.765  0.0352 -0.2015  0.3254
 6434SOL    HW130764   2.479   3.309   8.741 -0.5547  0.5071  1.6180
 6434SOL    HW230765   2.391   3.268   8.841  0.0274 -1.0723  0.7780
 6435SOL     OW30766   2.907   4.646   0.286  0.4286  0.5676 -0.0205
 6435SOL    HW130767   2.900   4.674   0.377 -1.7610 -2.6193  0.7871
 6435SOL    HW230768   2.969   4.574   0.296  2.1892  2.2878  1.6171
 6436SOL     OW30769   0.532   2.579   8.425 -0.2728  0.5347 -0.0151
 6436SOL    HW130770   0.490   2.562   8.510 -2.9459  2.3516 -0.9801
 6436SOL    HW230771   0.504   2.499   8.381 -1.3444  1.4568 -1.0043
 6437SOL     OW30772   0.655   0.953   3.961  0.0567 -0.3450  0.2646
 6437SOL    HW130773   0.615   1.027   4.007 -0.7081 -0.4320 -0.2529
 6437SOL    HW230774   0.593   0.883   3.982  0.1559 -0.4243  0.2945
 6438SOL     OW30775   2.318   1.939   8.584 -0.3612  0.4904  0.8446
 6438SOL    HW130776   2.285   1.975   8.666  0.0181  0.8867  0.8240
 6438SOL    HW230777   2.312   1.843   8.583  1.0716  0.4079 -0.0961
 6439SOL     OW30778   1.434   2.588  12.217 -0.5159  0.8297 -0.0327
 6439SOL    HW130779   1.358   2.623  12.263 -0.6126  0.0191  0.4156
 6439SOL    HW230780   1.439   2.640  12.136 -1.0825  0.4890 -0.2839
 6440SOL     OW30781   0.292   0.414  15.219 -0.1089 -0.2001  0.6194
 6440SOL    HW130782   0.331   0.496  15.249  0.6635 -0.1252 -0.6147
 6440SOL    HW230783   0.373   0.363  15.213 -1.5245 -2.2596 -0.8431
 6441SOL     OW30784   1.899   0.707   2.522  0.0980 -0.4954 -0.7066
 6441SOL    HW130785   1.959   0.644   2.482  1.3496 -0.5382  1.2536
 6441SOL    HW230786   1.824   0.673   2.474 -0.0541 -3.8088  1.9058
 6442SOL     OW30787   3.228   0.571   9.086  0.0212  0.3965 -0.0163
 6442SOL    HW130788   3.170   0.638   9.122  0.8884  1.9694 -1.5702
 6442SOL    HW230789   3.253   0.514   9.159  0.1419  1.8941  1.1058
 6443SOL     OW30790   1.571   3.893   6.144 -0.3596  0.4763  0.2399
 6443SOL    HW130791   1.540   3.980   6.169  0.5605  0.6596  0.7331
 6443SOL    HW230792   1.600   3.862   6.230 -0.6395  1.7134  0.7904
 6444SOL     OW30793   2.053   2.222   9.239 -0.4933 -0.5956 -0.4976
 6444SOL    HW130794   2.141   2.207   9.203  0.0782  1.5392  0.0228
 6444SOL    HW230795   2.059   2.314   9.264  0.6548 -0.3084 -1.8300
 6445SOL     OW30796   0.024   4.254   7.298  0.1327  0.6949  0.4226
 6445SOL    HW130797   0.045   4.199   7.223 -1.2327  1.5240 -0.5543
 6445SOL    HW230798   0.091   4.227   7.361 -0.3496  2.0233  1.5161
 6446SOL     OW30799   4.097   3.084   6.680  0.1171  0.0580  0.4742
 6446SOL    HW130800   4.057   3.070   6.766 -0.1706 -2.7695 -0.0925
 6446SOL    HW230801   4.022   3.096   6.620 -1.0797 -0.2413  1.9079
 6447SOL     OW30802   2.171   3.607   1.787  0.4470 -0.0575  0.0408
 6447SOL    HW130803   2.078   3.588   1.797  0.0205  1.8577 -0.3228
 6447SOL    HW230804   2.200   3.516   1.777  0.0374 -0.4314  2.2469
 6448SOL     OW30805   0.756   2.828   6.658 -0.4108  0.3974 -0.2433
 6448SOL    HW130806   0.747   2.873   6.742  0.2035  2.6715 -1.3940
 6448SOL    HW230807   0.838   2.869   6.631 -0.1637 -1.1874 -1.8169
 6449SOL     OW30808   3.719   4.701   5.937  0.8037  0.5127 -0.0559
 6449SOL    HW130809   3.662   4.663   5.870  1.0642 -1.2325  0.7222
 6449SOL    HW230810   3.780   4.633   5.963  1.0372 -0.0623 -2.1072
 6450SOL     OW30811   4.085   0.308   7.100 -0.4063 -0.5769  0.4985
 6450SOL    HW130812   4.030   0.359   7.160  0.3967  0.3741  0.4245
 6450SOL    HW230813   4.040   0.325   7.017  2.7760 -0.0206 -1.1007
 6451SOL     OW30814   3.926   1.581  17.246  0.4563  0.3416  0.0223
 6451SOL    HW130815   3.860   1.512  17.242  0.5181  0.2331  0.9434
 6451SOL    HW230816   3.871   1.659  17.257 -1.0117 -0.8618  1.3483
 6452SOL     OW30817   1.917   4.309   9.133  0.1920 -0.1593  0.7510
 6452SOL    HW130818   1.975   4.241   9.167  0.4807 -0.7722 -0.9507
 6452SOL    HW230819   1.848   4.252   9.098 -0.6088  0.2790  1.5951
 6453SOL     OW30820   3.584   4.245   9.467 -0.0978 -0.5349 -0.4300
 6453SOL    HW130821   3.620   4.329   9.496  2.5101 -1.7856 -0.0259
 6453SOL    HW230822   3.626   4.187   9.530 -1.4099  0.9109  1.7964
 6454SOL     OW30823   2.046   4.636   4.147  0.4051  0.2622  0.4285
 6454SOL    HW130824   2.097   4.629   4.066 -3.9809 -1.6931 -2.1768
 6454SOL    HW230825   1.964   4.664   4.107  1.0487 -0.4699 -1.4256
 6455SOL     OW30826   0.745   1.862  16.529  0.0995  0.1527  0.3668
 6455SOL    HW130827   0.790   1.819  16.602  0.9510  0.6638  0.1343
 6455SOL    HW230828   0.803   1.937  16.519  1.2612 -0.9542 -1.1120
 6456SOL     OW30829   1.521   1.366   4.085 -0.3327 -0.0942 -0.3234
 6456SOL    HW130830   1.575   1.432   4.129 -0.9898  0.4627 -0.3474
 6456SOL    HW230831   1.450   1.360   4.149  0.3264  1.7370  0.5985
 6457SOL     OW30832   2.649   3.714   1.125 -0.4030  0.6708  0.2069
 6457SOL    HW130833   2.629   3.641   1.067 -1.2133 -0.1654  1.5536
 6457SOL    HW230834   2.638   3.671   1.209 -0.4265 -2.2335 -1.2896
 6458SOL     OW30835   1.648   0.775   5.812 -0.6543  1.0759  0.5672
 6458SOL    HW130836   1.656   0.831   5.735  1.7561  1.8862  1.3832
 6458SOL    HW230837   1.705   0.820   5.874  0.3904 -0.4168  0.7016
 6459SOL     OW30838   3.888   3.126   6.484  0.1820 -0.3071 -0.3147
 6459SOL    HW130839   3.859   3.215   6.461 -0.6860 -0.4234  0.3395
 6459SOL    HW230840   3.808   3.073   6.477  0.1648 -0.1003 -1.8019
 6460SOL     OW30841   1.523   4.014  14.069 -1.4136 -0.3470  0.2764
 6460SOL    HW130842   1.599   4.059  14.032 -2.4293  0.3337 -0.9737
 6460SOL    HW230843   1.505   3.953  13.998 -1.5127 -1.2531  1.0811
 6461SOL     OW30844   3.556   3.708   9.065  0.0466  0.1816  0.0710
 6461SOL    HW130845   3.619   3.687   9.134  1.5967 -0.4046 -1.5259
 6461SOL    HW230846   3.602   3.786   9.035 -1.7686  0.3894 -2.2237
 6462SOL     OW30847   2.054   1.256  14.288 -0.4856 -0.0620  0.5657
 6462SOL    HW130848   2.144   1.235  14.311 -0.3950  1.1831  1.3513
 6462SOL    HW230849   2.034   1.327  14.349 -1.5804  0.4914 -0.4483
 6463SOL     OW30850   2.722   4.558   6.353 -0.3845  0.1109  0.0215
 6463SOL    HW130851   2.801   4.509   6.332  0.6895  1.3116  1.2500
 6463SOL    HW230852   2.690   4.560   6.263 -0.7171 -0.3704  0.1248
 6464SOL     OW30853   2.243   1.649   9.089 -0.2861  0.4427  0.4429
 6464SOL    HW130854   2.292   1.636   9.008 -0.8564 -0.6532  0.2799
 6464SOL    HW230855   2.175   1.583   9.077 -0.0206  0.0062  1.3036
 6465SOL     OW30856   1.530   2.043   5.280 -0.0561  0.0219 -0.1469
 6465SOL    HW130857   1.437   2.047   5.256  0.1050  1.0590 -0.6115
 6465SOL    HW230858   1.564   2.017   5.194 -0.9344  1.1612 -0.8358
 6466SOL     OW30859   2.493   3.192   3.972  0.6951  0.2562 -0.2162
 6466SOL    HW130860   2.542   3.110   3.980  1.2911  0.3328 -3.0588
 6466SOL    HW230861   2.452   3.202   4.058 -1.5453  0.3682 -1.2919
 6467SOL     OW30862   4.065   3.989   3.964 -0.1689 -0.1839 -0.2637
 6467SOL    HW130863   4.059   3.995   3.868 -1.0220  0.4530 -0.1762
 6467SOL    HW230864   4.143   4.042   3.981 -0.6641  0.0673  1.2174
 6468SOL     OW30865   0.572   0.312   6.208  0.2249  0.7410  0.0880
 6468SOL    HW130866   0.603   0.399   6.182  0.7662 -0.4389 -3.2484
 6468SOL    HW230867   0.653   0.261   6.198  0.0250  0.4730 -0.1485
 6469SOL     OW30868   3.450   2.988  10.569 -0.0979  0.0018  0.0351
 6469SOL    HW130869   3.541   2.966  10.551  0.7200  3.1156  0.2515
 6469SOL    HW230870   3.434   2.925  10.640 -0.9894  0.6831  0.4472
 6470SOL     OW30871   4.515   4.145   9.173 -0.2862 -0.1201  0.1028
 6470SOL    HW130872   4.547   4.132   9.262  0.1555  1.7011  0.2248
 6470SOL    HW230873   4.436   4.194   9.193  1.0523  1.9327  0.3969
 6471SOL     OW30874   3.147   1.746   5.757 -0.5624 -0.2184  0.8303
 6471SOL    HW130875   3.182   1.723   5.843  2.0320  0.0671 -0.1588
 6471SOL    HW230876   3.221   1.717   5.704  0.6407  1.7008  1.4430
 6472SOL     OW30877   3.415   0.399  15.211 -0.0810 -0.7467  0.3297
 6472SOL    HW130878   3.498   0.434  15.243  0.2834 -1.8847  0.6583
 6472SOL    HW230879   3.411   0.312  15.252  1.0659 -2.4322 -3.1100
 6473SOL     OW30880   2.501   0.965  12.688 -0.0378 -0.5048 -0.4288
 6473SOL    HW130881   2.424   1.018  12.668 -1.0207 -2.1700 -1.0481
 6473SOL    HW230882   2.470   0.898  12.749  3.0150  1.7610  3.6197
 6474SOL     OW30883   2.505   3.200   7.777  0.0775 -0.3125  0.0104
 6474SOL    HW130884   2.460   3.180   7.859  1.0196  3.2111  1.3961
 6474SOL    HW230885   2.553   3.282   7.792 -0.9499  0.0890  1.0615
 6475SOL     OW30886   1.144   1.954  13.403 -0.9258 -0.1858  0.2463
 6475SOL    HW130887   1.109   1.994  13.324  1.6105 -0.8535 -1.2180
 6475SOL    HW230888   1.225   1.907  13.383 -0.5183  1.1318 -1.1260
 6476SOL     OW30889   3.938   1.987   2.842 -0.1648  0.4273 -0.1568
 6476SOL    HW130890   4.027   2.017   2.860  0.0099 -1.0810  1.5032
 6476SOL    HW230891   3.902   1.964   2.927  0.4614 -0.5297 -0.1572
 6477SOL     OW30892   3.534   1.597   5.069  0.6433 -0.3555 -0.0053
 6477SOL    HW130893   3.547   1.506   5.096  0.8504 -0.1263  0.6589
 6477SOL    HW230894   3.439   1.593   5.066  0.5332  1.1104  2.0184
 6478SOL     OW30895   1.901   3.047   8.308  0.3870 -0.6090  0.2743
 6478SOL    HW130896   1.883   3.036   8.214 -3.4310 -0.8635  1.0032
 6478SOL    HW230897   1.826   3.101   8.333  1.0177 -0.4630  1.7818
 6479SOL     OW30898   0.387   2.322   3.514 -0.2358 -0.2341  0.3342
 6479SOL    HW130899   0.331   2.246   3.503 -1.2815  0.3605  1.5585
 6479SOL    HW230900   0.317   2.387   3.506 -0.9125 -0.8246  1.4250
 6480SOL     OW30901   0.620   2.559   1.051 -0.0149 -0.2632  0.6250
 6480SOL    HW130902   0.554   2.620   1.019  0.3101 -0.2422  0.0035
 6480SOL    HW230903   0.700   2.611   1.060  0.3380 -0.6092 -0.5116
 6481SOL     OW30904   1.550   0.431  10.938  0.1416  0.4111 -0.8126
 6481SOL    HW130905   1.518   0.342  10.921 -1.3691  0.2428  2.7931
 6481SOL    HW230906   1.511   0.444  11.025 -0.3802 -0.2971 -0.9463
 6482SOL     OW30907   4.423   0.817   3.949 -0.1207  0.0400  0.0007
 6482SOL    HW130908   4.423   0.753   3.878 -0.7427  0.0298  0.0075
 6482SOL    HW230909   4.329   0.828   3.964 -0.3166  0.5045 -1.5642
 6483SOL     OW30910   3.048   3.910   3.298  0.6994 -0.2262  0.5205
 6483SOL    HW130911   3.080   3.938   3.212  0.5288 -0.5297  0.3592
 6483SOL    HW230912   2.999   3.986   3.330 -0.6776  0.6572 -3.5916
 6484SOL     OW30913   0.055   0.380   6.229 -0.5993  0.0434 -0.2220
 6484SOL    HW130914   0.049   0.422   6.315  0.8307  1.3466 -0.7571
 6484SOL    HW230915   0.147   0.399   6.207 -0.7398  2.6473  1.3928
 6485SOL     OW30916   4.113   3.377   5.869 -0.9769 -0.0313  0.5757
 6485SOL    HW130917   4.195   3.419   5.895 -0.6418 -1.2271  1.4798
 6485SOL    HW230918   4.066   3.390   5.951  0.7443 -1.0201  1.7086
 6486SOL     OW30919   2.840   3.907   5.807 -0.7137 -0.3953  0.0732
 6486SOL    HW130920   2.856   3.998   5.833  1.5831 -0.2201 -1.9386
 6486SOL    HW230921   2.927   3.876   5.785 -1.0151 -0.1815 -1.3963
 6487SOL     OW30922   1.972   1.149  15.279 -0.1159 -0.2468 -0.1783
 6487SOL    HW130923   1.986   1.179  15.368  0.8798 -2.1060  0.2903
 6487SOL    HW230924   1.985   1.054  15.281  0.6457 -0.1532 -0.7392
 6488SOL     OW30925   1.298   2.140   6.125  0.4960  0.1752 -0.3214
 6488SOL    HW130926   1.241   2.143   6.048 -0.8809 -2.0210  0.5945
 6488SOL    HW230927   1.272   2.052   6.152 -0.3177  1.3430  2.6778
 6489SOL     OW30928   1.538   4.634   2.800  0.1672 -0.0075 -0.5405
 6489SOL    HW130929   1.526   4.543   2.775 -1.9328 -0.1478  0.9994
 6489SOL    HW230930   1.516   4.668   2.713 -1.0779  2.5082  0.7511
 6490SOL     OW30931   2.752   1.560  17.347 -0.1859 -0.3189 -0.3882
 6490SOL    HW130932   2.691   1.620  17.391  0.5346  0.6152 -0.6707
 6490SOL    HW230933   2.786   1.609  17.272 -0.5753 -0.7631 -0.8583
 6491SOL     OW30934   0.335   3.584   2.749  0.5304 -0.2781 -0.2718
 6491SOL    HW130935   0.393   3.660   2.757 -0.7047  0.2313  4.0220
 6491SOL    HW230936   0.254   3.633   2.735  1.5576  1.2530 -0.8741
 6492SOL     OW30937   1.327   1.360   5.761 -0.0428 -0.5461  0.1150
 6492SOL    HW130938   1.261   1.389   5.824 -1.1454 -0.3252 -1.1502
 6492SOL    HW230939   1.273   1.353   5.683  3.2744 -2.4124 -1.9881
 6493SOL     OW30940   0.781   0.098   8.854  0.3725 -0.1682 -0.3885
 6493SOL    HW130941   0.852   0.109   8.917 -0.5449 -3.0069  1.0883
 6493SOL    HW230942   0.819   0.127   8.771  1.7805  1.8893  0.9853
 6494SOL     OW30943   1.725   2.399  16.563  0.1772  0.4510 -0.0545
 6494SOL    HW130944   1.762   2.310  16.561 -2.0754 -0.5068  1.4873
 6494SOL    HW230945   1.644   2.389  16.514  1.1073  0.9413 -1.7082
 6495SOL     OW30946   3.127   3.760   4.300 -0.1090  0.3804 -0.4463
 6495SOL    HW130947   3.071   3.829   4.264 -2.3681 -1.1992  0.0444
 6495SOL    HW230948   3.163   3.725   4.219 -3.5424 -1.5201 -1.1391
 6496SOL     OW30949   1.123   0.140   0.988 -0.0671 -0.3346 -0.1425
 6496SOL    HW130950   1.206   0.093   0.994  0.2780  0.2419 -0.4705
 6496SOL    HW230951   1.075   0.082   0.928 -1.0341  0.2271  0.0865
 6497SOL     OW30952   2.496   1.970   8.135  0.1849  0.3726 -0.1778
 6497SOL    HW130953   2.588   1.981   8.113  0.7594 -1.1900  1.4732
 6497SOL    HW230954   2.488   2.045   8.194 -0.8032  0.6025 -0.6034
 6498SOL     OW30955   3.714   1.252   4.073  0.3030 -0.1226  0.0373
 6498SOL    HW130956   3.739   1.337   4.039  0.9571 -1.2017 -2.1526
 6498SOL    HW230957   3.786   1.222   4.128 -0.6737 -1.0590  0.8155
 6499SOL     OW30958   3.211   1.168  14.504  0.1519 -0.1506  0.3328
 6499SOL    HW130959   3.189   1.210  14.587  0.2277  2.1931 -0.8429
 6499SOL    HW230960   3.255   1.089  14.535  3.4617  1.3670 -0.5328
 6500SOL     OW30961   3.572   3.157  14.915 -0.1607  0.5034 -0.3404
 6500SOL    HW130962   3.535   3.137  14.829 -1.2635 -0.2303  0.3071
 6500SOL    HW230963   3.555   3.076  14.962  1.5668  0.0461 -0.4964
 6501SOL     OW30964   3.484   0.528  10.697  0.2985 -0.1942  0.4395
 6501SOL    HW130965   3.469   0.622  10.689  1.2384 -0.0144  0.8189
 6501SOL    HW230966   3.392   0.510  10.719  0.0312  0.4984 -0.1073
 6502SOL     OW30967   4.302   4.241  12.707  0.2191 -0.2770 -0.4767
 6502SOL    HW130968   4.396   4.248  12.690  0.2343  0.5207 -0.1043
 6502SOL    HW230969   4.291   4.162  12.654 -0.0841  0.0096 -0.8430
 6503SOL     OW30970   1.354   3.352   7.135 -0.0875 -0.1276 -0.2779
 6503SOL    HW130971   1.427   3.292   7.149  0.9306  1.6220  1.7956
 6503SOL    HW230972   1.375   3.397   7.053  0.9159 -1.8108 -0.9610
 6504SOL     OW30973   2.621   3.067   5.791  0.0381 -0.4198  0.0898
 6504SOL    HW130974   2.716   3.053   5.800 -0.0204 -0.0912  1.1920
 6504SOL    HW230975   2.592   3.037   5.877 -0.2035 -0.0247  0.1480
 6505SOL     OW30976   4.295   2.139   9.300  0.1755  0.0495 -0.4763
 6505SOL    HW130977   4.354   2.125   9.374 -0.6291 -1.4077 -0.1147
 6505SOL    HW230978   4.210   2.152   9.341  0.3436  1.3832 -0.5414
 6506SOL     OW30979   1.687   0.180  12.525 -0.4548  0.0441 -0.5347
 6506SOL    HW130980   1.642   0.096  12.534  1.3990 -0.9860 -0.8781
 6506SOL    HW230981   1.641   0.219  12.450 -1.0515  0.8890  0.2718
 6507SOL     OW30982   3.406   3.631   3.069 -0.2225 -0.9165  0.1487
 6507SOL    HW130983   3.495   3.642   3.102 -1.2927  0.4314  2.5802
 6507SOL    HW230984   3.366   3.594   3.148  0.0242  0.1469  0.7723
 6508SOL     OW30985   4.540   3.576   3.502  0.3514  0.5107  0.1724
 6508SOL    HW130986   4.572   3.502   3.553 -1.0419  0.4035  0.8861
 6508SOL    HW230987   4.476   3.614   3.561  0.7962  0.4314  0.7105
 6509SOL     OW30988   2.096   4.385   4.747  0.0593  0.1781  0.2133
 6509SOL    HW130989   2.107   4.476   4.720  2.9716 -0.5574 -1.0226
 6509SOL    HW230990   2.179   4.347   4.721 -0.2212  0.6275 -1.3652
 6510SOL     OW30991   0.529   3.858  14.472  0.3135 -0.0306 -0.2717
 6510SOL    HW130992   0.513   3.801  14.548 -2.4555 -1.5960 -1.9872
 6510SOL    HW230993   0.497   3.784  14.419 -0.5795 -0.6224  1.0894
 6511SOL     OW30994   3.281   3.304   9.204 -0.9091 -0.4301 -0.0468
 6511SOL    HW130995   3.344   3.351   9.149 -2.7311  1.4840 -0.5091
 6511SOL    HW230996   3.215   3.299   9.135 -0.4684 -0.2916 -0.4728
 6512SOL     OW30997   4.070   0.539   0.628  0.2548 -0.3808  0.6369
 6512SOL    HW130998   4.071   0.443   0.631 -1.5923 -0.4678 -1.2162
 6512SOL    HW230999   4.127   0.560   0.554 -0.1272 -1.3383  0.0637
 6513SOL     OW31000   4.257   2.549   7.547  0.3283  0.0236  0.2688
 6513SOL    HW131001   4.254   2.631   7.596 -1.4611  0.6437 -0.8925
 6513SOL    HW231002   4.279   2.489   7.618  0.3929  0.7688  0.8674
 6514SOL     OW31003   2.463   3.133   2.732 -1.0211  0.3271  0.2101
 6514SOL    HW131004   2.467   3.079   2.811 -1.8940 -0.1984 -0.1089
 6514SOL    HW231005   2.433   3.219   2.765 -0.8480  0.7060 -0.6251
 6515SOL     OW31006   3.476   2.296  17.671  0.4002 -1.1781  0.4305
 6515SOL    HW131007   3.516   2.295   0.069  1.6886 -1.0967 -0.1532
 6515SOL    HW231008   3.385   2.308   0.006  0.2406 -0.4108 -0.5304
 6516SOL     OW31009   4.201   3.130   5.128 -0.2001  0.1350 -0.2902
 6516SOL    HW131010   4.155   3.100   5.207  0.7683 -3.7423 -1.2135
 6516SOL    HW231011   4.278   3.074   5.115 -1.9158 -2.1255 -0.8230
 6517SOL     OW31012   1.799   4.221   3.717  0.3589 -0.3658 -0.0732
 6517SOL    HW131013   1.835   4.290   3.773 -0.1824 -2.0063  2.2911
 6517SOL    HW231014   1.788   4.148   3.778  2.2224 -0.7800 -0.2525
 6518SOL     OW31015   2.375   1.836   3.033 -0.4690  0.0311  0.4091
 6518SOL    HW131016   2.437   1.802   2.968  0.2337  0.4721  0.8414
 6518SOL    HW231017   2.409   1.795   3.112 -0.0396  0.8458  0.6523
 6519SOL     OW31018   3.577   0.284   7.798 -0.2564  0.1357  0.4490
 6519SOL    HW131019   3.543   0.196   7.779  1.7917 -0.4275 -0.6271
 6519SOL    HW231020   3.624   0.260   7.877 -0.8784  2.1209  1.4074
 6520SOL     OW31021   3.213   0.056   3.044  0.4405 -0.1220 -0.2353
 6520SOL    HW131022   3.289   0.045   2.986 -0.0629 -0.9978 -0.7328
 6520SOL    HW231023   3.148   0.004   2.997  0.5250 -1.4712  1.1653
 6521SOL     OW31024   4.000   2.210   1.776  0.3354 -0.3354  0.5468
 6521SOL    HW131025   4.038   2.164   1.701 -0.7152  0.1933 -0.3176
 6521SOL    HW231026   4.075   2.266   1.796  0.0553 -0.0372  0.7695
 6522SOL     OW31027   3.316   3.990  17.595 -0.4766  0.2643 -0.2124
 6522SOL    HW131028   3.276   3.993  17.508  0.1089  0.4872 -0.4741
 6522SOL    HW231029   3.323   3.894  17.600 -2.6224  0.0383 -1.6197
 6523SOL     OW31030   3.870   0.986   8.839  0.5082  0.2014 -0.2419
 6523SOL    HW131031   3.959   0.992   8.805 -0.2655  1.0451 -2.1387
 6523SOL    HW231032   3.834   1.063   8.796  1.7120  0.3704 -0.9504
 6524SOL     OW31033   4.034   2.147   4.062  0.3587  0.1463  0.3852
 6524SOL    HW131034   4.037   2.112   3.973 -1.7246 -2.7675  1.4434
 6524SOL    HW231035   4.115   2.197   4.065 -1.2327  2.7313 -0.1856
 6525SOL     OW31036   2.718   1.319   7.652  0.7644 -1.0244  0.3792
 6525SOL    HW131037   2.758   1.259   7.715  2.4624  1.4438  1.6226
 6525SOL    HW231038   2.729   1.257   7.580 -2.0315 -0.7234 -0.2962
 6526SOL     OW31039   0.015   1.413  12.046 -0.7371  0.2510 -0.2752
 6526SOL    HW131040   0.073   1.358  11.994 -0.0368 -0.5862  1.3827
 6526SOL    HW231041   4.658   1.384  12.001 -0.4260  0.6035 -1.0473
 6527SOL     OW31042   0.057   1.690  15.987 -0.2493  0.6189 -0.2846
 6527SOL    HW131043   4.688   1.660  15.992  1.1931 -3.1965  2.7159
 6527SOL    HW231044   0.073   1.725  16.075 -2.0911 -1.5731  0.9282
 6528SOL     OW31045   3.763   2.509   4.918 -0.7350 -0.0145 -0.3250
 6528SOL    HW131046   3.715   2.525   4.837  0.4483 -0.6093 -1.1542
 6528SOL    HW231047   3.700   2.457   4.967 -1.8158  1.3300 -0.2978
 6529SOL     OW31048   2.826   1.117   0.195 -0.0898  0.4787 -0.7004
 6529SOL    HW131049   2.919   1.096   0.196 -0.3899 -0.7910  0.4999
 6529SOL    HW231050   2.803   1.073   0.113  2.2052  0.4548 -1.3329
 6530SOL     OW31051   0.561   0.448  17.100  0.3403 -0.2857  0.4171
 6530SOL    HW131052   0.595   0.508  17.034 -1.1668 -0.2416 -0.3381
 6530SOL    HW231053   0.632   0.384  17.100 -1.0919 -1.8793  0.2777
 6531SOL     OW31054   0.958   3.498   2.209 -0.2786 -0.3350  0.0131
 6531SOL    HW131055   0.894   3.442   2.164 -1.6416 -0.1540  1.7178
 6531SOL    HW231056   1.001   3.439   2.271 -0.5554  1.2792  1.7448
 6532SOL     OW31057   1.228   4.284  13.175  0.3280 -0.1433 -0.0238
 6532SOL    HW131058   1.320   4.260  13.162  0.8504  2.3918 -0.9488
 6532SOL    HW231059   1.185   4.203  13.146  4.2839 -2.1611 -0.3476
 6533SOL     OW31060   1.761   0.584  13.246 -0.2716  0.6201  0.0495
 6533SOL    HW131061   1.667   0.572  13.256 -0.2946 -0.4149 -1.4056
 6533SOL    HW231062   1.778   0.633  13.326  0.7581 -3.4994  2.3312
 6534SOL     OW31063   1.216   0.255  16.736  0.1098 -0.6534  0.7770
 6534SOL    HW131064   1.268   0.261  16.816  1.6609 -2.2055 -0.1204
 6534SOL    HW231065   1.167   0.337  16.735  0.3612 -0.5138 -0.5325
 6535SOL     OW31066   0.092   3.049   3.505  0.5558 -0.1718 -0.1446
 6535SOL    HW131067   0.069   2.989   3.434 -1.3002 -0.5031  0.7168
 6535SOL    HW231068   0.162   3.001   3.549  1.0072 -1.2363 -2.0493
 6536SOL     OW31069   0.500   2.139  11.218  0.3092  0.0329  0.0974
 6536SOL    HW131070   0.405   2.131  11.230  0.1044  2.0023 -0.2930
 6536SOL    HW231071   0.509   2.219  11.167  0.2404 -0.1827 -0.2551
 6537SOL     OW31072   3.400   3.873   7.744 -0.2953  0.0719  0.2163
 6537SOL    HW131073   3.452   3.938   7.792  0.6698 -1.2678  0.9691
 6537SOL    HW231074   3.346   3.832   7.812  1.5492 -1.1050  0.9613
 6538SOL     OW31075   4.092   0.830   1.487  0.8798 -0.1629  0.3754
 6538SOL    HW131076   4.002   0.850   1.513  0.9007 -0.1508  0.4403
 6538SOL    HW231077   4.131   0.832   1.574  1.1249  0.0822  0.2601
 6539SOL     OW31078   1.448   0.996   5.611  0.2609 -0.2487  0.0834
 6539SOL    HW131079   1.369   1.047   5.596  0.4231  0.2498  0.9198
 6539SOL    HW231080   1.421   0.913   5.572  0.7236  0.1566 -1.1084
 6540SOL     OW31081   0.315   4.303   8.384  0.3565  0.5524 -0.7439
 6540SOL    HW131082   0.323   4.328   8.292  2.0634 -1.5554 -1.1741
 6540SOL    HW231083   0.351   4.379   8.429 -0.4713  0.3048  0.3321
 6541SOL     OW31084   3.814   1.325   9.006 -0.3477  0.2297 -0.0051
 6541SOL    HW131085   3.760   1.246   9.012  0.9123 -0.6495 -0.3458
 6541SOL    HW231086   3.781   1.373   9.082  1.8140  0.1289  1.0073
 6542SOL     OW31087   0.724   2.518   4.804  0.5239  0.1450 -0.6338
 6542SOL    HW131088   0.809   2.481   4.782  0.0572 -1.1677 -0.2039
 6542SOL    HW231089   0.748   2.596   4.853  0.9123 -0.6788  0.4842
 6543SOL     OW31090   4.486   4.320   2.173 -0.0218  0.0700  0.0183
 6543SOL    HW131091   4.461   4.231   2.196 -1.8646  1.1146  2.0581
 6543SOL    HW231092   4.523   4.307   2.085  2.7194  1.2198  1.0119
 6544SOL     OW31093   2.167   4.012   2.681  0.0975  0.6604  0.4434
 6544SOL    HW131094   2.232   4.045   2.743  0.2455 -0.2983  0.7968
 6544SOL    HW231095   2.125   3.940   2.728  0.4778 -0.4559 -0.9441
 6545SOL     OW31096   0.354   3.675   0.028 -0.1185  0.2546  0.3624
 6545SOL    HW131097   0.394   3.746  17.668  2.4319 -0.1835  1.7945
 6545SOL    HW231098   0.281   3.717   0.074  0.8367  3.2377 -0.8580
 6546SOL     OW31099   3.997   1.111   1.645  0.3279  0.2870 -0.2011
 6546SOL    HW131100   3.951   1.029   1.627  0.4424 -0.3502  2.4341
 6546SOL    HW231101   3.983   1.132   1.737  0.1299  2.4027 -0.7234
 6547SOL     OW31102   2.442   2.924  17.352 -0.6273  0.0261  0.3427
 6547SOL    HW131103   2.484   2.864  17.291  0.9693  1.8333 -0.3179
 6547SOL    HW231104   2.516   2.935  17.412 -0.7052  0.7921  0.2926
 6548SOL     OW31105   1.477   1.196   9.046  0.0182 -0.1283  0.9506
 6548SOL    HW131106   1.446   1.179   9.135 -1.1681 -4.2495 -0.2396
 6548SOL    HW231107   1.492   1.290   9.053  0.3019 -0.0932 -0.1821
 6549SOL     OW31108   3.054   3.292  12.781  0.1592  0.7657  0.1740
 6549SOL    HW131109   3.124   3.348  12.747 -0.7289 -0.1140 -3.1302
 6549SOL    HW231110   3.059   3.298  12.877  2.9919  2.1360 -0.0517
 6550SOL     OW31111   0.849   0.069  15.378 -0.0797 -0.1086 -0.2537
 6550SOL    HW131112   0.828   0.123  15.302 -0.3235  0.5304  0.2727
 6550SOL    HW231113   0.870   0.135  15.444  2.1787 -2.1852  1.1460
 6551SOL     OW31114   4.564   3.222   7.412  0.4307 -0.3001  0.0394
 6551SOL    HW131115   4.629   3.155   7.391 -0.1132  0.7621 -5.0311
 6551SOL    HW231116   4.489   3.172   7.381 -0.1652  1.3499 -1.1222
 6552SOL     OW31117   3.647   1.538   2.327  0.0584  0.2160 -0.4397
 6552SOL    HW131118   3.563   1.571   2.360  0.7280  0.0114  1.4526
 6552SOL    HW231119   3.661   1.470   2.392 -0.7175  0.2593 -0.2239
 6553SOL     OW31120   0.239   4.578  16.737 -0.0693  0.0783 -0.2323
 6553SOL    HW131121   0.298   4.627  16.795  0.5331  1.4604 -1.9956
 6553SOL    HW231122   0.239   4.490  16.773 -0.5097  0.8435  1.6694
 6554SOL     OW31123   3.972   1.764   4.345 -0.1709  0.1510  0.3265
 6554SOL    HW131124   4.010   1.703   4.282  1.6978 -0.5491  2.1484
 6554SOL    HW231125   4.041   1.775   4.410  0.0663 -1.7254  0.3817
 6555SOL     OW31126   2.726   1.908   7.227 -0.6022  0.5649  0.3877
 6555SOL    HW131127   2.638   1.890   7.195 -0.3382 -0.2655  0.1196
 6555SOL    HW231128   2.770   1.828   7.199  0.0755  0.7704  0.8789
 6556SOL     OW31129   4.708   0.504   9.366  0.6967  0.1821 -0.0006
 6556SOL    HW131130   4.714   0.440   9.295 -1.9516  0.5447 -0.5568
 6556SOL    HW231131   4.616   0.530   9.363  0.6014 -0.1732 -0.1728
 6557SOL     OW31132   3.019   1.804   0.369 -0.0445 -0.2822 -0.2407
 6557SOL    HW131133   2.987   1.723   0.329 -1.4671  0.9417 -1.5989
 6557SOL    HW231134   2.943   1.863   0.367  0.3983  0.4552  4.5570
 6558SOL     OW31135   3.074   4.314   0.118  0.3210  0.0011  0.2237
 6558SOL    HW131136   3.067   4.292   0.025  1.0220 -0.8297  0.3690
 6558SOL    HW231137   3.140   4.249   0.142 -2.9179 -2.6186  2.0128
 6559SOL     OW31138   4.531   1.559   9.750  0.2131  0.6891  0.4908
 6559SOL    HW131139   4.465   1.628   9.739 -0.8022 -0.4689 -0.7660
 6559SOL    HW231140   4.600   1.610   9.708  0.0084  0.9536  0.4774
 6560SOL     OW31141   1.911   0.341   9.420 -0.2504 -0.5970 -0.0288
 6560SOL    HW131142   1.887   0.315   9.509 -1.6724 -2.2892 -0.9031
 6560SOL    HW231143   1.930   0.260   9.373 -0.3524 -1.6599  1.7589
 6561SOL     OW31144   2.461   3.303   5.174  0.3808 -0.2755  0.6338
 6561SOL    HW131145   2.542   3.355   5.176  0.6022 -0.5823 -0.3064
 6561SOL    HW231146   2.427   3.309   5.263  1.1539  0.9735  0.8420
 6562SOL     OW31147   1.866   1.602   6.133 -0.2972  0.5771 -0.5924
 6562SOL    HW131148   1.941   1.586   6.076 -0.0669 -1.2100  0.2211
 6562SOL    HW231149   1.796   1.638   6.078 -0.5076  2.3051  0.7953
 6563SOL     OW31150   0.436   4.181   7.671  0.6102 -0.1640  0.1294
 6563SOL    HW131151   0.434   4.175   7.575 -0.4010  1.2371  0.0617
 6563SOL    HW231152   0.522   4.142   7.683  0.7874 -0.0506 -0.7538
 6564SOL     OW31153   2.503   3.596   4.484  0.1036 -0.1275 -0.4364
 6564SOL    HW131154   2.442   3.578   4.413  0.3651  1.2868 -1.0178
 6564SOL    HW231155   2.443   3.618   4.556  0.6847  0.7958 -0.2308
 6565SOL     OW31156   3.282   3.874   9.045 -0.2641 -0.5843 -0.1019
 6565SOL    HW131157   3.246   3.962   9.037 -1.9615 -1.1314  1.3984
 6565SOL    HW231158   3.337   3.890   9.122  0.6420 -0.7783 -0.7134
 6566SOL     OW31159   1.674   0.378  16.768 -0.1429 -0.4907 -0.2105
 6566SOL    HW131160   1.614   0.322  16.719 -0.8913  0.1546 -0.0230
 6566SOL    HW231161   1.621   0.401  16.844 -1.5759 -1.3998 -0.9312
 6567SOL     OW31162   0.268   2.889   6.294 -0.0854  0.1239 -0.4239
 6567SOL    HW131163   0.261   2.963   6.234 -1.5716 -1.5140 -2.3015
 6567SOL    HW231164   0.363   2.879   6.299 -0.5089 -2.4721  2.7040
 6568SOL     OW31165   2.187   3.663   5.867 -0.7068  0.4488  0.3639
 6568SOL    HW131166   2.176   3.569   5.855 -2.0927  0.3986  2.0101
 6568SOL    HW231167   2.282   3.662   5.883 -0.5463  0.1985 -0.5895
 6569SOL     OW31168   2.886   3.552   3.750  0.5083  0.0159 -0.5840
 6569SOL    HW131169   2.813   3.494   3.773  1.9116 -0.3652  2.8779
 6569SOL    HW231170   2.846   3.638   3.760 -0.8377 -0.7975  1.0050
 6570SOL     OW31171   4.278   3.607   5.660 -0.0589 -0.3945 -0.2720
 6570SOL    HW131172   4.271   3.515   5.688  0.9095 -0.4052 -0.0503
 6570SOL    HW231173   4.220   3.650   5.722 -0.3700  1.2218 -1.7082
 6571SOL     OW31174   2.128   2.626  11.336 -0.2278 -0.3520 -0.1093
 6571SOL    HW131175   2.213   2.582  11.328 -0.0561  0.0360 -0.4196
 6571SOL    HW231176   2.069   2.564  11.292 -1.4215  1.0016 -0.4091
 6572SOL     OW31177   2.986   3.568   9.131  0.8128 -0.0307  0.0689
 6572SOL    HW131178   3.015   3.626   9.202 -2.2388  0.0122  1.2819
 6572SOL    HW231179   2.987   3.627   9.055  0.1696  0.3130  0.3210
 6573SOL     OW31180   2.412   3.910   4.287  0.0215 -0.2078  0.0007
 6573SOL    HW131181   2.465   3.963   4.228 -0.5190  0.5896  0.2251
 6573SOL    HW231182   2.457   3.826   4.277 -0.7724 -0.7973  1.4410
 6574SOL     OW31183   0.050   3.143   2.103  0.0511  0.5273 -1.1189
 6574SOL    HW131184   0.072   3.103   2.187 -0.0728 -0.3718 -1.5132
 6574SOL    HW231185   4.696   3.092   2.075  0.4950 -1.1306  0.7292
 6575SOL     OW31186   3.202   2.836   7.653 -0.7362  0.3419  0.1110
 6575SOL    HW131187   3.152   2.756   7.668  1.7963 -1.5827 -1.6137
 6575SOL    HW231188   3.142   2.884   7.709 -0.6069  1.1443 -0.4473
 6576SOL     OW31189   0.194   3.918  16.079 -0.4362 -0.4397 -0.7616
 6576SOL    HW131190   0.156   4.004  16.062  0.1680  0.0806  0.5338
 6576SOL    HW231191   0.284   3.947  16.097 -0.5601 -0.7324  0.3235
 6577SOL     OW31192   0.118   2.242  16.484  0.6765 -0.2085 -0.0083
 6577SOL    HW131193   0.084   2.185  16.415  1.5761  0.2182 -0.8064
 6577SOL    HW231194   0.076   2.328  16.471  1.2125  0.1681  0.7306
 6578SOL     OW31195   2.207   2.761   6.738 -0.0671  0.1326  0.4400
 6578SOL    HW131196   2.208   2.721   6.651 -0.2498 -0.9778  0.9365
 6578SOL    HW231197   2.116   2.789   6.738 -0.4823 -1.2304 -0.5569
 6579SOL     OW31198   0.578   2.962   4.984 -0.0302  0.3962  0.1796
 6579SOL    HW131199   0.582   2.964   4.889  1.4575 -1.8455  0.1765
 6579SOL    HW231200   0.490   2.931   5.004 -0.5050  1.7904  0.2548
 6580SOL     OW31201   4.316   1.252   2.709 -0.4288  0.1568 -0.5232
 6580SOL    HW131202   4.253   1.203   2.762  0.7106 -1.0263 -0.2775
 6580SOL    HW231203   4.399   1.209   2.729 -0.6738 -0.3651 -0.6485
 6581SOL     OW31204   0.615   3.937  14.028  0.2694 -0.1706  0.1491
 6581SOL    HW131205   0.656   3.880  14.093  1.6250 -0.9916 -1.4312
 6581SOL    HW231206   0.687   3.968  13.974  0.5535 -1.4331 -0.2011
 6582SOL     OW31207   0.188   4.561   8.128  0.3254 -0.5860 -0.3393
 6582SOL    HW131208   0.256   4.494   8.129 -0.3903 -1.2853  0.8816
 6582SOL    HW231209   0.108   4.515   8.103 -0.4477  0.5887 -0.0348
 6583SOL     OW31210   2.871   2.123   3.373 -0.2197 -0.7330  0.8509
 6583SOL    HW131211   2.885   2.147   3.282  1.4421 -0.4967  1.1607
 6583SOL    HW231212   2.784   2.157   3.395  0.4356  2.1038 -0.8716
 6584SOL     OW31213   1.545   3.140   8.721  0.1447 -0.1471 -0.0428
 6584SOL    HW131214   1.543   3.222   8.672 -2.6568  0.8392  1.7364
 6584SOL    HW231215   1.627   3.108   8.684  0.2493  0.1807 -0.0931
 6585SOL     OW31216   0.284   4.310  16.786 -0.8659 -0.1550 -0.3982
 6585SOL    HW131217   0.195   4.300  16.819 -1.1711 -1.5181 -1.6508
 6585SOL    HW231218   0.335   4.277  16.860  0.8604  0.3709 -1.3544
 6586SOL     OW31219   2.573   0.934   8.150 -0.1399 -0.1283  0.3843
 6586SOL    HW131220   2.625   0.952   8.228 -0.7112  0.7470  0.5626
 6586SOL    HW231221   2.554   0.842   8.170 -1.4200  0.3292  1.3069
 6587SOL     OW31222   1.374   0.371   2.537 -0.1230 -0.7082 -0.2180
 6587SOL    HW131223   1.375   0.461   2.502  0.9404 -1.0055 -0.9590
 6587SOL    HW231224   1.327   0.335   2.462 -2.0178  0.3729  0.4579
 6588SOL     OW31225   0.687   3.749  14.220  0.6904  0.1155 -0.2158
 6588SOL    HW131226   0.762   3.714  14.171  0.5617  0.4439 -0.6499
 6588SOL    HW231227   0.719   3.802  14.292 -2.0304  1.4487  0.0239
 6589SOL     OW31228   2.000   1.939   6.485 -0.7943 -0.3932  0.5070
 6589SOL    HW131229   2.082   1.967   6.444  1.0275 -1.5458  3.3996
 6589SOL    HW231230   2.009   1.983   6.570 -0.3884 -1.3795  0.9743
 6590SOL     OW31231   1.747   0.989   6.422 -0.0623 -0.4735  0.1067
 6590SOL    HW131232   1.747   1.065   6.480 -2.3255 -0.3886 -0.0215
 6590SOL    HW231233   1.739   0.916   6.483 -1.3371 -0.4031  0.0143
 6591SOL     OW31234   0.669   3.973   1.908  0.0261 -0.0481  0.0329
 6591SOL    HW131235   0.578   3.949   1.889 -0.1962  1.4741 -0.8122
 6591SOL    HW231236   0.665   4.067   1.891 -2.6910 -0.1994 -0.1654
 6592SOL     OW31237   0.757   0.683   3.083  0.4902  0.1154 -0.5411
 6592SOL    HW131238   0.792   0.604   3.125  0.0228  0.4050  0.3945
 6592SOL    HW231239   0.696   0.715   3.151  1.2157  1.4276 -0.5136
 6593SOL     OW31240   4.636   0.985   7.982 -0.1141 -0.1138  0.7752
 6593SOL    HW131241   4.682   1.037   8.048  0.1992  0.6293 -0.0386
 6593SOL    HW231242   4.555   1.036   7.982  0.9654  1.5869  1.9512
 6594SOL     OW31243   1.191   0.630   8.922  0.0605  0.2461 -0.0110
 6594SOL    HW131244   1.165   0.704   8.867 -0.1692 -1.5505 -2.3373
 6594SOL    HW231245   1.277   0.664   8.949 -0.5172  0.8408  1.0477
 6595SOL     OW31246   3.817   0.670   3.698 -0.3353 -0.1991  0.2242
 6595SOL    HW131247   3.879   0.655   3.769 -1.1458 -0.7199  0.8228
 6595SOL    HW231248   3.738   0.675   3.752 -0.2419  0.4412  0.3000
 6596SOL     OW31249   0.028   1.376   7.518  0.3061 -0.2391 -0.2918
 6596SOL    HW131250   0.049   1.428   7.441 -0.2601 -0.6476 -0.7151
 6596SOL    HW231251   0.024   1.450   7.579  1.3676  0.9620 -1.6874
 6597SOL     OW31252   2.248   0.450   6.711 -0.5235  0.4458  0.3596
 6597SOL    HW131253   2.223   0.521   6.770 -3.1195 -1.0812  1.0832
 6597SOL    HW231254   2.192   0.476   6.638 -0.1675 -1.0075 -0.4347
 6598SOL     OW31255   3.870   2.640  14.174 -1.0021  0.0464  0.4534
 6598SOL    HW131256   3.934   2.688  14.226  0.2757  0.0242 -1.1004
 6598SOL    HW231257   3.887   2.550  14.201  3.2450  0.3581 -1.2092
 6599SOL     OW31258   2.932   4.163   8.000  0.4843 -0.7584  0.4163
 6599SOL    HW131259   2.858   4.128   8.049  0.7076  0.3265  1.5235
 6599SOL    HW231260   3.010   4.120   8.036  1.2207 -0.0607 -0.3595
 6600SOL     OW31261   2.735   2.286   2.764  0.0441 -0.1017  0.4087
 6600SOL    HW131262   2.700   2.239   2.839  1.8086  0.6872  1.7534
 6600SOL    HW231263   2.676   2.268   2.691 -0.8830 -0.1593  1.1740
 6601SOL     OW31264   2.866   0.055   8.077  0.3900  0.1403  0.4010
 6601SOL    HW131265   2.875   0.131   8.135 -1.4781  0.9938 -0.4281
 6601SOL    HW231266   2.889   0.085   7.990 -0.8825  0.8993  0.3240
 6602SOL     OW31267   4.655   3.690   5.949 -0.2820  0.1357 -0.0799
 6602SOL    HW131268   4.719   3.636   5.903  0.4547  1.0816 -0.1720
 6602SOL    HW231269   4.600   3.700   5.871  0.0475  0.3052 -0.2882
 6603SOL     OW31270   0.222   0.592   9.312 -0.3408 -0.1159  0.1229
 6603SOL    HW131271   0.143   0.555   9.352 -1.7241  1.3742 -1.1901
 6603SOL    HW231272   0.243   0.526   9.246 -0.5712 -1.4410  1.3656
 6604SOL     OW31273   0.442   3.460  17.559  0.1555  0.1729  0.2179
 6604SOL    HW131274   0.352   3.477  17.588 -0.1598 -0.3687 -0.4049
 6604SOL    HW231275   0.480   3.547  17.566  0.5644 -0.0015  0.1568
 6605SOL     OW31276   3.899   0.011   6.509  0.3467 -0.0559  0.0155
 6605SOL    HW131277   3.957   4.659   6.489 -0.0566 -0.5273  0.5697
 6605SOL    HW231278   3.922   0.035   6.598  0.4195  0.8625 -0.2500
 6606SOL     OW31279   2.205   3.131   5.780 -0.4791  0.0118 -0.1621
 6606SOL    HW131280   2.287   3.154   5.735 -0.3136 -1.1046 -0.4156
 6606SOL    HW231281   2.149   3.207   5.764 -0.2573  0.0049 -1.0066
 6607SOL     OW31282   1.923   1.910   2.635  0.5823  0.2699 -0.0365
 6607SOL    HW131283   1.860   1.844   2.607  0.7828 -0.7218  1.8057
 6607SOL    HW231284   1.909   1.968   2.560 -2.0781 -1.2995 -0.7742
 6608SOL     OW31285   3.796   2.016  13.325  0.1791 -0.0181 -0.6446
 6608SOL    HW131286   3.888   1.995  13.341 -0.2834 -0.5340  1.2809
 6608SOL    HW231287   3.748   1.934  13.315 -1.9924  1.0977  0.7006
 6609SOL     OW31288   3.325   4.474   2.879  0.0954  0.0058  0.1259
 6609SOL    HW131289   3.242   4.469   2.831  0.4505 -0.6448 -0.4080
 6609SOL    HW231290   3.347   4.567   2.871  1.0688 -0.1659  0.7754
 6610SOL     OW31291   0.856   0.186   2.970  0.1543  1.0478 -0.0961
 6610SOL    HW131292   0.799   0.116   2.940  1.9149 -0.8606  1.0525
 6610SOL    HW231293   0.789   0.241   3.011 -0.8724  0.9006 -1.5781
 6611SOL     OW31294   0.602   1.179   0.548  0.2141 -0.0974 -0.1475
 6611SOL    HW131295   0.684   1.155   0.505  0.1059 -1.6359  0.5085
 6611SOL    HW231296   0.620   1.169   0.642  0.0655 -2.2578 -0.3486
 6612SOL     OW31297   1.144   2.742   2.870 -0.3336  0.4068 -0.0966
 6612SOL    HW131298   1.124   2.685   2.795  0.2027 -0.8969  0.7586
 6612SOL    HW231299   1.073   2.807   2.870 -1.2543 -0.6184  1.9513
 6613SOL     OW31300   1.277   3.268   8.649  0.9643  0.4801  0.1234
 6613SOL    HW131301   1.301   3.224   8.731 -2.4485 -1.7519 -0.0918
 6613SOL    HW231302   1.188   3.298   8.666  0.6458 -0.8864  0.8214
 6614SOL     OW31303   2.342   1.394   6.374  0.3027 -0.0529  0.2537
 6614SOL    HW131304   2.248   1.390   6.358 -0.1605 -0.2496  3.1612
 6614SOL    HW231305   2.380   1.410   6.287  0.6310  2.7431  0.9089
 6615SOL     OW31306   1.244   3.007  16.482 -0.2367 -0.2178  0.7781
 6615SOL    HW131307   1.270   2.965  16.564  0.6880 -2.5774 -0.7285
 6615SOL    HW231308   1.158   3.036  16.511 -0.1884  0.6037  0.1124
 6616SOL     OW31309   4.283   0.562  13.990  0.5994 -0.0910  0.2560
 6616SOL    HW131310   4.257   0.627  13.925 -0.8136 -1.6546 -0.7268
 6616SOL    HW231311   4.320   0.611  14.064 -0.7692 -0.7544  1.3693
 6617SOL     OW31312   2.286   2.607   2.947 -0.0490  0.3436  0.3586
 6617SOL    HW131313   2.234   2.649   2.879 -0.8009  0.0230  0.7409
 6617SOL    HW231314   2.376   2.630   2.924 -0.1568 -1.8465 -2.3180
 6618SOL     OW31315   3.995   0.035   7.075 -0.5773 -0.1875  0.6722
 6618SOL    HW131316   3.954   0.122   7.080  0.4679  0.2826  1.0438
 6618SOL    HW231317   4.074   0.049   7.023 -0.9848  1.3421  0.4428
 6619SOL     OW31318   0.890   3.082  11.075  0.1655 -0.1240  0.4954
 6619SOL    HW131319   0.794   3.082  11.074  0.1969  2.2638 -2.6263
 6619SOL    HW231320   0.906   3.092  10.981 -0.0240 -1.0327  0.3644
 6620SOL     OW31321   4.670   0.180   8.572  0.3839  0.1835 -0.1392
 6620SOL    HW131322   4.665   0.271   8.600  2.1805  0.0864  0.5184
 6620SOL    HW231323   4.698   0.134   8.652  0.4595 -1.0085 -0.8451
 6621SOL     OW31324   1.444   1.217   6.262 -0.1971 -0.4680 -0.3259
 6621SOL    HW131325   1.501   1.212   6.185 -1.5807 -1.2309 -1.3063
 6621SOL    HW231326   1.443   1.312   6.265 -2.9131 -0.4226 -2.5866
 6622SOL     OW31327   2.077   0.539   0.971 -0.2559  0.6252 -0.1033
 6622SOL    HW131328   2.166   0.570   0.988 -0.3473  2.2467 -2.6409
 6622SOL    HW231329   2.023   0.617   0.989 -1.8975 -0.3937 -0.6143
 6623SOL     OW31330   1.900   0.676   9.113  0.3613 -0.1393 -0.1189
 6623SOL    HW131331   1.951   0.696   9.191  1.3102  0.1899 -0.8287
 6623SOL    HW231332   1.924   0.584   9.121  0.5242 -0.2248 -1.6921
 6624SOL     OW31333   2.460   2.092   1.502 -0.5116 -0.3657  0.1822
 6624SOL    HW131334   2.413   2.136   1.431 -1.0129 -0.1705  0.6326
 6624SOL    HW231335   2.462   2.000   1.474  0.6836 -0.6048  1.0137
 6625SOL     OW31336   0.710   0.729  15.919 -0.3762  0.0938  0.4941
 6625SOL    HW131337   0.680   0.648  15.878  1.0703 -0.1345 -0.1002
 6625SOL    HW231338   0.802   0.707  15.930 -0.5895 -1.1288 -0.2165
 6626SOL     OW31339   2.073   2.322  16.389 -0.0481  0.2150 -1.1498
 6626SOL    HW131340   2.141   2.324  16.322  0.1530 -0.1433 -0.9561
 6626SOL    HW231341   2.005   2.374  16.346  1.5806  3.0447 -0.3214
 6627SOL     OW31342   3.088   1.293   2.307  0.0091  0.2260  0.2135
 6627SOL    HW131343   3.077   1.325   2.397  0.7132 -0.6067  0.5882
 6627SOL    HW231344   3.128   1.377   2.282 -0.8383  0.9467  1.2534
 6628SOL     OW31345   0.909   2.757   8.843  0.0706  0.4502  0.1129
 6628SOL    HW131346   0.842   2.701   8.882  1.2793 -0.6098  0.6419
 6628SOL    HW231347   0.981   2.693   8.842 -2.1421 -2.0491  0.2932
 6629SOL     OW31348   1.910   0.355   7.670  0.1360 -0.0199 -0.0831
 6629SOL    HW131349   1.988   0.358   7.615  0.0781  1.6270 -0.0935
 6629SOL    HW231350   1.919   0.446   7.701  2.0790 -0.5356  0.8865
 6630SOL     OW31351   3.290   1.506  15.162 -0.3197  0.2812 -0.2599
 6630SOL    HW131352   3.341   1.507  15.243 -1.2176 -2.7590  0.3164
 6630SOL    HW231353   3.266   1.598  15.153 -0.2244  0.1461 -1.8636
 6631SOL     OW31354   4.447   0.948   9.108  0.2326  0.3868  0.1132
 6631SOL    HW131355   4.537   0.969   9.136  0.5486  1.2436 -1.5820
 6631SOL    HW231356   4.401   1.028   9.132  0.6474  0.3114  1.2070
 6632SOL     OW31357   4.447   4.317   0.384  0.3434 -0.0065  0.3826
 6632SOL    HW131358   4.382   4.308   0.454 -0.6519  0.1784 -0.5165
 6632SOL    HW231359   4.528   4.343   0.427  1.5037 -2.1834 -0.4619
 6633SOL     OW31360   4.114   0.463  11.304  0.1750  0.3065  0.5562
 6633SOL    HW131361   4.197   0.417  11.317 -0.6321 -1.3134  0.0134
 6633SOL    HW231362   4.055   0.388  11.310  2.8464 -1.7332  1.5108
 6634SOL     OW31363   3.856   1.627   7.411 -0.3095 -0.0658  0.3105
 6634SOL    HW131364   3.765   1.649   7.395 -0.0142  0.4288 -0.6683
 6634SOL    HW231365   3.842   1.574   7.490  0.9108 -1.9964 -0.7731
 6635SOL     OW31366   0.825   2.973   9.398 -0.5404  0.0983  0.8968
 6635SOL    HW131367   0.896   3.035   9.414 -0.4812 -0.3155  2.2369
 6635SOL    HW231368   0.777   3.005   9.322  0.3700  1.1918  0.7764
 6636SOL     OW31369   4.500   1.700   4.585 -0.3825 -0.3556 -0.1151
 6636SOL    HW131370   4.542   1.622   4.549  0.3009  0.3622 -0.8617
 6636SOL    HW231371   4.540   1.773   4.537  1.0257  0.9054  3.0203
 6637SOL     OW31372   3.041   3.790   2.962 -0.1495  0.8710  0.3680
 6637SOL    HW131373   3.091   3.869   2.980  0.2405  0.5154  0.8678
 6637SOL    HW231374   2.954   3.826   2.947 -0.0196  0.9797 -0.1118
 6638SOL     OW31375   0.532   0.846   8.099  0.2895 -0.3725 -0.4370
 6638SOL    HW131376   0.490   0.804   8.174 -1.2244  1.8746 -0.0164
 6638SOL    HW231377   0.578   0.774   8.056 -0.9274 -2.1074  1.2159
 6639SOL     OW31378   4.388   0.183  15.778 -0.4012  0.4745 -0.2900
 6639SOL    HW131379   4.465   0.200  15.723  1.2642 -1.0403  1.5629
 6639SOL    HW231380   4.428   0.218  15.858  0.1629 -0.7937 -0.0180
 6640SOL     OW31381   2.801   1.407   2.457  0.2833  0.0288 -0.2667
 6640SOL    HW131382   2.841   1.475   2.403 -2.6087  1.1615 -0.9926
 6640SOL    HW231383   2.865   1.404   2.528 -0.6595 -0.1251  0.5842
 6641SOL     OW31384   3.226   2.132   8.076 -0.2454  0.1584  0.4266
 6641SOL    HW131385   3.194   2.180   8.000  1.4013 -0.9260 -0.9498
 6641SOL    HW231386   3.139   2.105   8.108 -0.3917  1.1046  0.8200
 6642SOL     OW31387   3.049   2.663  15.837  0.2468 -0.6920 -0.2997
 6642SOL    HW131388   3.035   2.614  15.756  1.5031  0.5846 -1.2884
 6642SOL    HW231389   2.960   2.651  15.869 -0.1651 -1.1379 -1.5841
 6643SOL     OW31390   2.232   3.432  11.533  0.8031 -0.1965 -0.0218
 6643SOL    HW131391   2.203   3.342  11.522 -3.1697  0.9752  1.0846
 6643SOL    HW231392   2.169   3.478  11.477  2.1663  0.7773 -0.7637
 6644SOL     OW31393   2.826   3.114  16.502  0.0013  0.1783 -0.0083
 6644SOL    HW131394   2.920   3.126  16.514 -0.5979  2.7010  2.0699
 6644SOL    HW231395   2.786   3.097  16.587  0.8496  0.3479  0.4174
 6645SOL     OW31396   3.827   0.905   1.535 -0.1868  0.1614 -0.0236
 6645SOL    HW131397   3.768   0.871   1.467 -0.5670 -0.5342  0.6601
 6645SOL    HW231398   3.774   0.876   1.609  0.1080 -1.5026 -0.4709
 6646SOL     OW31399   2.491   1.070  13.760  0.3845  0.4481 -0.1124
 6646SOL    HW131400   2.526   1.096  13.675  1.2767 -0.7088 -0.0974
 6646SOL    HW231401   2.497   1.149  13.813  2.8185 -0.1531  0.5165
 6647SOL     OW31402   0.530   4.259  15.362 -0.4978  0.7291  0.4661
 6647SOL    HW131403   0.582   4.251  15.442 -0.9293  0.3557  0.7041
 6647SOL    HW231404   0.451   4.207  15.375  0.5854 -2.2447 -4.7096
 6648SOL     OW31405   1.703   4.326   7.924 -0.5391  0.3211  0.3667
 6648SOL    HW131406   1.660   4.400   7.880 -1.7670 -2.4795 -3.1468
 6648SOL    HW231407   1.767   4.368   7.981  0.9956  1.6754 -2.3587
 6649SOL     OW31408   2.805   2.139   3.071  0.0802 -0.2462 -0.9767
 6649SOL    HW131409   2.756   2.073   3.022 -1.3837  0.4583 -0.4637
 6649SOL    HW231410   2.741   2.205   3.097  0.8170  0.3353 -0.6447
 6650SOL     OW31411   3.753   1.351  15.395  0.4705  0.5970  0.2354
 6650SOL    HW131412   3.766   1.329  15.487  0.4295  0.3207  0.1756
 6650SOL    HW231413   3.818   1.420  15.379 -0.4385  1.0274 -1.6855
 6651SOL     OW31414   0.591   2.115   7.013  0.4812  0.0801 -0.4612
 6651SOL    HW131415   0.601   2.044   6.950  0.9658  1.3898 -1.8357
 6651SOL    HW231416   0.677   2.145   7.043  0.4904 -0.3474 -0.0491
 6652SOL     OW31417   4.195   2.909   4.242 -0.5199 -0.5257 -0.5673
 6652SOL    HW131418   4.163   2.999   4.247  1.1729  0.0283  0.2122
 6652SOL    HW231419   4.143   2.884   4.166 -0.9932  0.6110 -0.6177
 6653SOL     OW31420   4.137   3.587   4.891  0.5813 -0.1631 -0.6013
 6653SOL    HW131421   4.167   3.590   4.981 -0.1648 -0.1564 -0.3504
 6653SOL    HW231422   4.136   3.493   4.872  2.3953 -0.4981  0.9756
 6654SOL     OW31423   1.933   2.369   5.312  0.2238 -0.5245 -0.0570
 6654SOL    HW131424   1.839   2.350   5.312 -0.7766  4.6190 -1.5598
 6654SOL    HW231425   1.968   2.296   5.260  2.7198  0.9944 -0.4814
 6655SOL     OW31426   1.049   0.694   8.560 -0.3684  0.1341  0.0780
 6655SOL    HW131427   1.126   0.734   8.601 -0.6564 -0.0683  0.8157
 6655SOL    HW231428   1.080   0.636   8.490 -0.5622  1.9864 -1.5365
 6656SOL     OW31429   4.416   1.292   4.728 -0.0134  0.1723 -0.4214
 6656SOL    HW131430   4.463   1.360   4.776  0.6609 -0.4195 -0.2341
 6656SOL    HW231431   4.488   1.237   4.696  0.7611 -0.5853  2.6318
 6657SOL     OW31432   0.690   2.052  15.627 -0.8660 -0.4002 -0.1327
 6657SOL    HW131433   0.694   2.073  15.534  3.5301  2.4768  0.7192
 6657SOL    HW231434   0.714   1.960  15.631  3.1281  0.6610  0.7940
 6658SOL     OW31435   2.117   3.723  17.381 -0.5026  0.0588 -0.7815
 6658SOL    HW131436   2.113   3.784  17.455 -0.2087  0.6998 -1.2926
 6658SOL    HW231437   2.030   3.742  17.345  0.5155 -0.2605 -3.4080
 6659SOL     OW31438   2.381   2.737  16.436  0.8754 -0.4365 -0.6370
 6659SOL    HW131439   2.326   2.713  16.362 -0.3889 -1.3593  0.6226
 6659SOL    HW231440   2.317   2.742  16.507  1.5787 -1.0353  0.0351
 6660SOL     OW31441   1.409   0.641   5.870  0.1507 -0.1989 -0.1128
 6660SOL    HW131442   1.486   0.694   5.850  0.5332  0.1451  2.2647
 6660SOL    HW231443   1.339   0.664   5.808 -0.2461 -0.0768  0.3802
 6661SOL     OW31444   3.102   0.916   5.397 -0.1735  0.0554 -0.3148
 6661SOL    HW131445   3.118   0.964   5.478  1.3556 -1.6104  0.3646
 6661SOL    HW231446   3.169   0.849   5.411 -0.1457  0.5570  2.0545
 6662SOL     OW31447   4.614   4.274   4.632 -0.1798 -0.2647  0.2582
 6662SOL    HW131448   4.649   4.360   4.657  2.1145 -0.3276 -2.5901
 6662SOL    HW231449   4.605   4.281   4.537 -0.0943  0.5632  0.3101
 6663SOL     OW31450   0.388   4.337   1.790  0.4793 -0.2750  0.5186
 6663SOL    HW131451   0.379   4.245   1.814  1.4887 -1.0842 -2.2773
 6663SOL    HW231452   0.400   4.389   1.869 -0.8526  0.9623 -0.0928
 6664SOL     OW31453   1.950   0.745   9.376 -0.9802 -0.1122 -0.6416
 6664SOL    HW131454   2.024   0.710   9.426 -2.0618 -1.1115  0.2777
 6664SOL    HW231455   1.870   0.704   9.409 -0.8976  0.7674  0.6580
 6665SOL     OW31456   3.027   2.986   4.793  0.3442  0.3120 -0.2261
 6665SOL    HW131457   3.030   2.891   4.801 -1.7934  0.2743  0.0729
 6665SOL    HW231458   3.120   3.006   4.802  0.2047  0.2144  1.3693
 6666SOL     OW31459   0.852   4.160   6.499  0.2149  0.5553  0.5457
 6666SOL    HW131460   0.927   4.140   6.443 -0.2065  0.1657  0.1251
 6666SOL    HW231461   0.890   4.147   6.586  3.6484 -0.4247 -1.1144
 6667SOL     OW31462   2.233   3.569   8.478 -0.0115  0.0404 -0.0836
 6667SOL    HW131463   2.143   3.567   8.509 -0.0598  0.9993 -0.1556
 6667SOL    HW231464   2.274   3.641   8.527 -0.3788 -2.1894  3.4715
 6668SOL     OW31465   2.447   4.636   5.719  0.4427 -0.3912 -0.3363
 6668SOL    HW131466   2.534   4.668   5.744  0.4255 -0.4770 -0.1632
 6668SOL    HW231467   2.429   4.595   5.803  0.8158 -0.2617 -0.1921
 6669SOL     OW31468   3.153   4.064   9.593 -0.1045  0.0244  0.2206
 6669SOL    HW131469   3.215   4.131   9.621 -0.5438 -0.9854  3.6545
 6669SOL    HW231470   3.205   3.983   9.590 -0.0155  0.0764  0.3737
 6670SOL     OW31471   0.453   3.249   3.272  0.6714 -0.2564  0.3067
 6670SOL    HW131472   0.486   3.338   3.283 -0.2147  0.1161 -0.0463
 6670SOL    HW231473   0.526   3.189   3.290  0.0447 -1.5595 -1.4649
 6671SOL     OW31474   3.840   0.571  13.442  0.0199 -0.1504 -0.5610
 6671SOL    HW131475   3.873   0.481  13.451  2.4161  0.8055  0.3297
 6671SOL    HW231476   3.798   0.575  13.528  2.9598  0.9753  0.8294
 6672SOL     OW31477   3.250   2.965  15.845 -0.0916 -0.1195 -0.4399
 6672SOL    HW131478   3.215   2.942  15.759 -3.4394 -1.3914  1.2510
 6672SOL    HW231479   3.172   3.005  15.883 -0.0813  0.8192 -1.4018
 6673SOL     OW31480   3.321   1.996   8.664  0.1375 -0.5157  0.4869
 6673SOL    HW131481   3.373   2.065   8.623 -0.4864 -0.2528  0.1409
 6673SOL    HW231482   3.378   1.960   8.733  0.7068  1.4969  1.0547
 6674SOL     OW31483   0.769   4.575   6.786 -0.3511 -0.2889 -0.2070
 6674SOL    HW131484   0.840   4.574   6.849  0.2384  0.5236 -0.8590
 6674SOL    HW231485   0.764   4.664   6.752  0.6128 -0.2714 -0.2898
 6675SOL     OW31486   2.680   2.702   8.529 -0.2010 -0.3577  0.0308
 6675SOL    HW131487   2.738   2.657   8.468  0.6206 -0.0146  0.5665
 6675SOL    HW231488   2.671   2.642   8.603  1.0812 -1.1707 -0.4965
 6676SOL     OW31489   1.455   0.354   4.577  0.2131 -0.0205 -0.2616
 6676SOL    HW131490   1.517   0.385   4.644  0.5491 -1.0679 -0.0878
 6676SOL    HW231491   1.446   0.430   4.520  1.0203  0.9802  0.9210
 6677SOL     OW31492   0.212   4.209   4.810 -0.1289 -0.0388  0.2934
 6677SOL    HW131493   0.251   4.292   4.782 -1.8083  0.9610  0.9605
 6677SOL    HW231494   0.281   4.164   4.858  0.1978  1.8952  1.6448
 6678SOL     OW31495   4.161   2.033   7.177 -0.0015 -0.0770 -0.0365
 6678SOL    HW131496   4.146   2.008   7.086  3.6852  0.2399 -0.7413
 6678SOL    HW231497   4.070   2.053   7.194  0.5194  0.8353  1.6374
 6679SOL     OW31498   0.566   0.626   4.620  0.0278 -0.2643 -0.4501
 6679SOL    HW131499   0.493   0.645   4.679 -0.4257  0.7252 -1.3453
 6679SOL    HW231500   0.552   0.535   4.594  2.5200 -0.8080  0.0547
 6680SOL     OW31501   4.043   3.533   3.750 -0.0521 -0.0534 -0.8997
 6680SOL    HW131502   4.006   3.621   3.746  4.7095  1.9053 -1.4940
 6680SOL    HW231503   4.089   3.536   3.667 -0.0909  0.4091 -0.9074
 6681SOL     OW31504   1.473   4.709  14.378 -0.0164 -0.0790  0.2029
 6681SOL    HW131505   1.565   4.718  14.353  0.0256 -2.1845 -0.4493
 6681SOL    HW231506   1.467   0.037  14.459 -0.7877  1.0616 -0.5628
 6682SOL     OW31507   3.898   2.043   4.287 -0.7036 -0.6114  0.4161
 6682SOL    HW131508   3.932   2.073   4.203 -1.7192  0.1497  0.2793
 6682SOL    HW231509   3.904   1.948   4.277  1.9458 -0.2223 -1.6817
 6683SOL     OW31510   3.654   3.436   7.471  0.2478  0.3971  0.0596
 6683SOL    HW131511   3.728   3.381   7.446  1.1943  1.5614  0.3027
 6683SOL    HW231512   3.683   3.522   7.443 -2.1209  1.3411  0.5389
 6684SOL     OW31513   3.990   3.551   1.529 -0.3209  0.3338  0.0099
 6684SOL    HW131514   3.895   3.551   1.543 -0.5301  0.6353 -1.4905
 6684SOL    HW231515   4.000   3.458   1.552  1.5273  0.5466  0.0237
 6685SOL     OW31516   0.514   3.496   5.714 -0.2308  0.1280  0.2571
 6685SOL    HW131517   0.493   3.411   5.675 -0.4338  0.8980 -1.3215
 6685SOL    HW231518   0.518   3.549   5.635  0.0170 -0.3147 -0.0311
 6686SOL     OW31519   3.187   0.934   0.890 -0.1206  0.0214 -0.0819
 6686SOL    HW131520   3.151   1.012   0.847  1.5007  0.5276 -0.5353
 6686SOL    HW231521   3.137   0.867   0.845 -1.2525 -0.8764  2.4916
 6687SOL     OW31522   4.196   3.981   0.442 -0.3161 -0.0323 -0.4061
 6687SOL    HW131523   4.282   3.962   0.406 -0.5821 -1.1788 -0.4222
 6687SOL    HW231524   4.223   3.991   0.533  0.6668 -0.9184 -0.6034
 6688SOL     OW31525   3.078   0.190   4.968 -0.0938  0.1552 -0.4481
 6688SOL    HW131526   3.089   0.210   5.061  1.3812 -0.0679 -0.5761
 6688SOL    HW231527   3.155   0.228   4.927 -0.0856 -2.4674 -2.8641
 6689SOL     OW31528   1.311   1.574  16.248 -0.2500 -0.3810 -0.5427
 6689SOL    HW131529   1.306   1.618  16.163 -1.5315 -0.4483 -0.5057
 6689SOL    HW231530   1.307   1.480  16.232  4.3981 -0.3547 -1.8366
 6690SOL     OW31531   1.687   2.259  13.915  0.3018 -0.5733 -0.3233
 6690SOL    HW131532   1.598   2.237  13.886  1.1420 -1.4509 -2.2906
 6690SOL    HW231533   1.661   2.348  13.938  0.4767 -1.0118  1.5747
 6691SOL     OW31534   0.635   1.208   7.967  0.5587  0.4126 -0.3875
 6691SOL    HW131535   0.624   1.300   7.990  1.5205  0.9838 -2.2197
 6691SOL    HW231536   0.608   1.165   8.049 -1.2727  0.0664 -1.1647
 6692SOL     OW31537   1.486   3.945   2.651  0.4535 -0.4914  0.2468
 6692SOL    HW131538   1.444   3.949   2.565  0.3522  0.3079  0.3324
 6692SOL    HW231539   1.464   3.853   2.662 -0.7019 -0.2409  0.0910
 6693SOL     OW31540   2.407   4.337   4.915  0.2454 -0.9639 -0.2557
 6693SOL    HW131541   2.457   4.257   4.900 -0.3433 -1.4814  0.5466
 6693SOL    HW231542   2.326   4.298   4.949 -0.2070 -0.3953 -0.7013
 6694SOL     OW31543   0.134   1.875   7.425  0.3721  0.1472 -0.2001
 6694SOL    HW131544   0.148   1.906   7.515  0.1085 -1.9576  0.5687
 6694SOL    HW231545   0.206   1.904   7.369  1.3488 -0.9838  0.4734
 6695SOL     OW31546   1.974   0.127   6.994 -0.5676  0.0253  0.2175
 6695SOL    HW131547   2.003   0.216   7.014  1.6398 -1.0312  1.6442
 6695SOL    HW231548   1.879   0.127   6.980 -0.7328  3.0193  1.5051
 6696SOL     OW31549   1.639   3.388   1.928 -0.4200  0.1002  0.2327
 6696SOL    HW131550   1.678   3.357   1.846 -0.2225  1.2373 -0.1089
 6696SOL    HW231551   1.545   3.398   1.913 -0.5426  0.0026  0.9423
 6697SOL     OW31552   4.626   0.049   4.296  0.4897  0.5587 -0.1285
 6697SOL    HW131553   4.610   0.129   4.347  1.8557  2.0973 -2.1591
 6697SOL    HW231554   4.679   0.079   4.223  3.4382  1.6986  2.4580
 6698SOL     OW31555   2.071   4.176   6.903  0.2702  0.1028 -0.1704
 6698SOL    HW131556   2.015   4.245   6.868  2.1897  1.2000 -1.0766
 6698SOL    HW231557   2.118   4.159   6.822 -0.8793  1.6382 -1.1508
 6699SOL     OW31558   3.336   0.299  12.652  0.3666 -0.3740  0.7684
 6699SOL    HW131559   3.384   0.232  12.603  0.7763  0.4155  0.0911
 6699SOL    HW231560   3.362   0.380  12.609  2.0337 -0.8399  0.9206
 6700SOL     OW31561   4.315   0.176   4.501 -0.2336 -0.2968 -0.1881
 6700SOL    HW131562   4.406   0.205   4.508 -0.7288  1.4919 -1.0433
 6700SOL    HW231563   4.315   0.099   4.558  1.1334 -1.9131 -2.3717
 6701SOL     OW31564   3.645   3.144   2.430 -0.2360  0.1628  0.4959
 6701SOL    HW131565   3.706   3.073   2.410  1.4223  0.6875  3.6583
 6701SOL    HW231566   3.565   3.095   2.413 -0.3161 -0.1724  1.8845
 6702SOL     OW31567   2.741   4.567  14.138 -0.2708 -0.4227 -0.1554
 6702SOL    HW131568   2.745   4.595  14.046  0.3663  0.1378  0.0428
 6702SOL    HW231569   2.698   4.639  14.185  0.9859  0.7146 -0.7287
 6703SOL     OW31570   0.133   1.118  10.507  0.0445  0.1619  0.3903
 6703SOL    HW131571   0.227   1.102  10.521 -0.0415 -1.9713 -1.5491
 6703SOL    HW231572   0.129   1.169  10.427  0.9593  0.4191  0.5036
 6704SOL     OW31573   1.163   1.123   7.005 -0.5669  0.3873 -0.1957
 6704SOL    HW131574   1.165   1.031   6.979 -3.9505  0.5152 -0.9015
 6704SOL    HW231575   1.174   1.159   6.917  0.4056  0.3378 -0.0942
 6705SOL     OW31576   0.932   2.616   5.347  0.1387 -0.3474 -0.3443
 6705SOL    HW131577   0.955   2.587   5.259  0.2096 -0.2730 -0.3500
 6705SOL    HW231578   0.919   2.710   5.334 -0.2431 -0.1442  1.5155
 6706SOL     OW31579   3.222   3.414   7.575  0.3717  0.0318 -0.1526
 6706SOL    HW131580   3.287   3.367   7.627 -0.0524 -0.1742  0.1911
 6706SOL    HW231581   3.176   3.342   7.532 -0.1568  1.2117 -1.5574
 6707SOL     OW31582   2.733   3.744   4.461 -0.3304 -0.5927 -0.1054
 6707SOL    HW131583   2.770   3.684   4.526  1.4133 -0.3485 -0.8822
 6707SOL    HW231584   2.644   3.713   4.449 -1.0463  1.6689 -0.6542
 6708SOL     OW31585   1.965   2.640   5.565  0.1386  0.1817  0.0278
 6708SOL    HW131586   2.017   2.625   5.486  1.0227 -2.0915  1.0350
 6708SOL    HW231587   1.935   2.727   5.538  1.6524  1.3588  2.1327
 6709SOL     OW31588   2.067   1.499   6.623 -0.3496 -0.4651 -0.2047
 6709SOL    HW131589   2.040   1.551   6.547 -0.0425 -1.2374 -0.8354
 6709SOL    HW231590   2.131   1.434   6.596 -2.4408 -1.4823 -2.7227
 6710SOL     OW31591   3.559   0.601   6.949  0.6271  0.2765  0.0745
 6710SOL    HW131592   3.592   0.663   6.884  2.1038 -0.5719  0.0061
 6710SOL    HW231593   3.506   0.657   7.006  2.6495  1.0497  1.2120
 6711SOL     OW31594   0.879   3.820  11.167  0.5619  0.7628  0.2361
 6711SOL    HW131595   0.791   3.834  11.133  1.3506 -0.9934 -2.6246
 6711SOL    HW231596   0.864   3.779  11.252  0.4458  0.1773 -0.0654
 6712SOL     OW31597   3.698   4.100   3.693  0.4678 -0.1363  0.7205
 6712SOL    HW131598   3.775   4.106   3.748  1.0001  0.7819 -0.1367
 6712SOL    HW231599   3.697   4.008   3.665  0.1174  0.1419 -0.1806
 6713SOL     OW31600   1.405   1.493  14.991 -0.3331 -0.0671 -0.1516
 6713SOL    HW131601   1.458   1.416  15.010 -2.3272 -1.3300  0.2762
 6713SOL    HW231602   1.446   1.560  15.045 -0.5202 -0.6674  0.7323
 6714SOL     OW31603   0.247   0.770   4.585  0.3719  0.4021 -0.4086
 6714SOL    HW131604   0.168   0.823   4.597  0.5348  0.7851 -1.0899
 6714SOL    HW231605   0.305   0.844   4.571  0.9002 -0.0870 -0.8042
 6715SOL     OW31606   4.548   2.962   1.966 -0.2885  0.0824 -0.3608
 6715SOL    HW131607   4.605   2.907   1.912  0.0243  0.9386 -0.9059
 6715SOL    HW231608   4.467   2.911   1.963  0.2228 -0.5381 -3.5383
 6716SOL     OW31609   4.066   1.894   5.325  0.4413 -0.2607  0.2592
 6716SOL    HW131610   4.100   1.951   5.394 -2.2480 -3.2455  4.0352
 6716SOL    HW231611   4.122   1.819   5.344 -1.5649 -2.1323 -1.2183
 6717SOL     OW31612   3.162   2.828  16.074  0.4608  0.6506  0.3421
 6717SOL    HW131613   3.192   2.817  15.983  0.2137  1.2175  0.1927
 6717SOL    HW231614   3.159   2.735  16.096 -0.8118  0.2116 -1.6636
 6718SOL     OW31615   2.547   4.313   8.741 -0.3121  0.2492 -0.1014
 6718SOL    HW131616   2.625   4.367   8.753  0.2920 -0.8979  1.1117
 6718SOL    HW231617   2.575   4.226   8.711  0.6203  1.2391 -2.1124
 6719SOL     OW31618   1.211   3.091   7.937  0.1011  0.6738  0.5564
 6719SOL    HW131619   1.141   3.068   7.999  0.8320 -2.4170  0.2354
 6719SOL    HW231620   1.161   3.081   7.857 -0.7645  3.0417  0.7843
 6720SOL     OW31621   4.114   2.578   5.505  0.2680 -0.5668 -0.3968
 6720SOL    HW131622   4.097   2.485   5.490  0.8981 -0.5692 -1.0764
 6720SOL    HW231623   4.168   2.586   5.427 -1.3103 -0.2352 -1.4512
 6721SOL     OW31624   2.171   0.627   4.686  0.4238 -0.2702 -0.1065
 6721SOL    HW131625   2.117   0.699   4.653 -1.3336 -0.6960  1.8468
 6721SOL    HW231626   2.177   0.653   4.778  2.0928 -2.1290  0.3120
 6722SOL     OW31627   1.478   3.211   3.093 -0.6135  0.2565  0.9540
 6722SOL    HW131628   1.460   3.137   3.152  1.0805 -1.9452 -1.2519
 6722SOL    HW231629   1.494   3.280   3.157  1.4819 -2.0389  2.9204
 6723SOL     OW31630   3.565   3.880   5.553 -0.1478 -0.6947 -0.2329
 6723SOL    HW131631   3.645   3.871   5.501  0.2732  1.8314 -0.0040
 6723SOL    HW231632   3.577   3.970   5.584  0.9579 -1.4039  1.3686
 6724SOL     OW31633   4.531   1.646   6.349  0.3065 -0.5424  0.2029
 6724SOL    HW131634   4.479   1.656   6.429  3.3897  0.8639  2.0066
 6724SOL    HW231635   4.620   1.658   6.381  0.6271 -0.7173 -0.6451
 6725SOL     OW31636   1.541   4.441  14.851  0.2621 -0.1305 -0.2885
 6725SOL    HW131637   1.571   4.416  14.763 -1.6973 -2.3484 -0.3141
 6725SOL    HW231638   1.495   4.362  14.877  0.0849  0.1192  0.1560
 6726SOL     OW31639   0.978   0.668  15.898 -0.2629  0.2117  0.7103
 6726SOL    HW131640   1.041   0.725  15.942 -0.8396  0.3023  1.4291
 6726SOL    HW231641   0.993   0.581  15.936 -1.4971  0.0007  0.7127
 6727SOL     OW31642   1.293   0.933   7.877 -0.0154  0.0124  0.2282
 6727SOL    HW131643   1.248   0.897   7.802  3.1098 -1.4782 -0.9262
 6727SOL    HW231644   1.217   0.962   7.927  0.8291 -0.1222  1.6133
 6728SOL     OW31645   0.021   1.775   4.416 -0.1812  0.0347  0.0157
 6728SOL    HW131646   0.096   1.756   4.473 -1.7264 -1.8267  1.4586
 6728SOL    HW231647   0.020   1.870   4.420  0.3317 -0.0317  1.6768
 6729SOL     OW31648   0.395   4.547  15.371 -0.9117  0.0382  0.1560
 6729SOL    HW131649   0.304   4.564  15.346 -0.5320  0.3878 -1.0109
 6729SOL    HW231650   0.395   4.451  15.368  0.4362  0.0428  0.0205
 6730SOL     OW31651   1.708   3.056   0.320  0.2024 -0.2753 -0.3123
 6730SOL    HW131652   1.790   3.105   0.323  0.7951 -1.2489 -0.7124
 6730SOL    HW231653   1.661   3.126   0.274 -1.7538 -1.4125 -0.0435
 6731SOL     OW31654   1.957   0.244   8.511  0.2147 -0.2310 -0.4292
 6731SOL    HW131655   2.040   0.261   8.555  0.5980 -1.3804 -0.7145
 6731SOL    HW231656   1.968   0.156   8.475 -3.1795 -0.1041 -1.7662
 6732SOL     OW31657   1.713   3.056   6.491 -0.2196  0.5735 -0.2279
 6732SOL    HW131658   1.738   3.086   6.578 -2.0984 -3.1400  1.5627
 6732SOL    HW231659   1.800   3.063   6.451 -0.2402 -2.1767 -0.7532
 6733SOL     OW31660   4.652   1.226   9.671  0.2391  0.3563 -0.3705
 6733SOL    HW131661   4.605   1.207   9.753  1.2145 -0.8410 -0.0756
 6733SOL    HW231662   0.018   1.242   9.706 -0.2793 -2.1102  2.1271
 6734SOL     OW31663   0.089   1.523   7.894  0.4966  0.2092  0.1665
 6734SOL    HW131664   0.132   1.451   7.848  2.4301  1.2798  0.3126
 6734SOL    HW231665   0.013   1.552   7.842 -0.4999 -1.0617  0.9160
 6735SOL     OW31666   3.167   2.101  11.886 -0.2799 -0.4065 -0.1582
 6735SOL    HW131667   3.092   2.156  11.909  1.1545  0.7408  1.7539
 6735SOL    HW231668   3.175   2.100  11.791 -2.5003 -0.3820 -0.3450
 6736SOL     OW31669   1.714   0.102   6.044  0.7633  0.6321 -0.1661
 6736SOL    HW131670   1.746   0.110   5.954 -2.5521 -1.8178 -1.5642
 6736SOL    HW231671   1.639   0.043   6.039  0.7909  0.6233 -0.4793
 6737SOL     OW31672   2.525   2.676   2.848 -0.2721 -0.1665  0.2844
 6737SOL    HW131673   2.545   2.705   2.759  0.9301 -0.4896  0.4571
 6737SOL    HW231674   2.609   2.635   2.868 -1.1910 -1.6254  1.1451
 6738SOL     OW31675   2.336   3.658   7.821  0.1750  0.2134 -0.1606
 6738SOL    HW131676   2.243   3.670   7.837 -0.0079 -0.5638 -0.6435
 6738SOL    HW231677   2.332   3.684   7.729  0.9820 -3.1801 -1.1384
 6739SOL     OW31678   3.006   2.218  15.739 -0.0195  0.0452  0.1449
 6739SOL    HW131679   2.988   2.132  15.777  0.5527  0.4745  1.3823
 6739SOL    HW231680   3.037   2.185  15.654 -1.8520  1.2803 -1.0000
 6740SOL     OW31681   1.951   3.237   0.989  0.0864 -0.4021 -0.0798
 6740SOL    HW131682   1.969   3.150   0.953 -0.6850  0.0235 -1.5034
 6740SOL    HW231683   2.034   3.285   0.983  1.1230 -2.6189 -3.5033
 6741SOL     OW31684   2.994   2.718   7.291 -0.1074  0.2561  0.0634
 6741SOL    HW131685   2.971   2.811   7.294  0.7464  0.5149 -1.4025
 6741SOL    HW231686   2.911   2.684   7.255 -0.4917  0.1355  1.0719
 6742SOL     OW31687   1.273   4.268  10.739 -0.1060  0.3208 -0.0014
 6742SOL    HW131688   1.294   4.313  10.657 -0.5030 -2.7177 -1.7708
 6742SOL    HW231689   1.350   4.260  10.795 -0.6548  2.1515  1.0014
 6743SOL     OW31690   0.277   1.466   6.714 -0.2922 -0.1344 -0.3486
 6743SOL    HW131691   0.337   1.472   6.788 -1.2657  0.4709  0.3968
 6743SOL    HW231692   0.211   1.528   6.746 -0.2565 -0.2925  0.0264
 6744SOL     OW31693   2.112   2.913   5.587 -0.5501 -0.3138  0.1555
 6744SOL    HW131694   2.035   2.944   5.634 -1.0828 -1.3760 -0.0120
 6744SOL    HW231695   2.181   2.942   5.647 -0.9182  2.6968 -0.9190
 6745SOL     OW31696   2.167   2.902   2.926 -0.0382 -0.0893 -0.1581
 6745SOL    HW131697   2.154   2.971   2.861 -0.6569 -0.5278 -0.4988
 6745SOL    HW231698   2.134   2.822   2.885  0.1077 -1.5572  2.6030
 6746SOL     OW31699   4.079   2.346   6.131  0.3126 -0.1610 -0.6370
 6746SOL    HW131700   4.041   2.337   6.219  0.1601 -0.8138 -0.7731
 6746SOL    HW231701   4.167   2.308   6.135  0.8942  1.2216 -0.0922
 6747SOL     OW31702   0.597   3.988  11.153  0.6488  0.2668  0.1764
 6747SOL    HW131703   0.637   4.046  11.218  2.1900 -0.7862  0.1634
 6747SOL    HW231704   0.566   4.059  11.096  1.0144  1.8942  2.0187
 6748SOL     OW31705   0.302   4.344   0.074  0.2255 -0.3981  0.1726
 6748SOL    HW131706   0.343   4.265   0.037 -0.2911 -0.5830 -0.0019
 6748SOL    HW231707   0.327   4.402   0.002 -1.1706  2.0250  1.6462
 6749SOL     OW31708   0.262   3.076   7.012  0.5070  0.6641 -0.4924
 6749SOL    HW131709   0.219   3.139   6.953  0.8291  1.5348  0.1991
 6749SOL    HW231710   0.235   2.992   6.975 -0.0673  0.6517 -0.0515
 6750SOL     OW31711   4.559   2.185   3.054  0.2707  0.5367 -0.3916
 6750SOL    HW131712   4.613   2.263   3.068  0.4986  0.0122  1.7194
 6750SOL    HW231713   4.552   2.180   2.959 -1.2234  2.0683 -0.3598
 6751SOL     OW31714   1.386   2.990   9.205 -0.6386  0.0772  0.3219
 6751SOL    HW131715   1.446   2.929   9.249 -0.0052  1.2395  1.0778
 6751SOL    HW231716   1.416   2.977   9.114 -1.3979 -0.8145  0.2000
 6752SOL     OW31717   0.248   4.075   3.588 -0.4918  0.3004 -0.2450
 6752SOL    HW131718   0.285   4.148   3.638  0.6475 -0.1040 -0.4988
 6752SOL    HW231719   0.325   4.044   3.541 -0.1859 -1.7498  1.5950
 6753SOL     OW31720   2.249   1.493   1.680 -0.4257  0.3378 -0.1064
 6753SOL    HW131721   2.197   1.527   1.608  1.0356 -0.1371 -1.3825
 6753SOL    HW231722   2.320   1.557   1.688 -0.8194  0.7119  0.3779
 6754SOL     OW31723   3.306   3.751   2.556 -0.3627 -0.3335 -0.3581
 6754SOL    HW131724   3.342   3.802   2.483 -3.7359  1.0620 -1.0614
 6754SOL    HW231725   3.366   3.676   2.557 -1.0515 -0.9138 -2.0575
 6755SOL     OW31726   4.708   4.557  16.229 -0.5509 -0.2841 -0.0514
 6755SOL    HW131727   4.703   4.462  16.224  0.6926 -0.3699  0.3812
 6755SOL    HW231728   0.078   4.579  16.215 -0.6901 -0.0245 -0.5599
 6756SOL     OW31729   3.153   0.251   1.609 -0.0741 -0.1622 -0.4185
 6756SOL    HW131730   3.220   0.275   1.546 -0.6816  1.9019 -0.3067
 6756SOL    HW231731   3.116   0.336   1.634 -0.1129 -0.2909 -0.0316
 6757SOL     OW31732   2.278   1.324   4.450 -0.8628  0.0734  0.1969
 6757SOL    HW131733   2.361   1.279   4.464  0.3176  2.4451  0.7348
 6757SOL    HW231734   2.279   1.374   4.531 -0.3669  1.3440 -0.5939
 6758SOL     OW31735   1.481   1.714   2.756 -0.0458 -0.1916 -0.3348
 6758SOL    HW131736   1.570   1.695   2.785 -0.5490 -1.8410  0.0799
 6758SOL    HW231737   1.457   1.630   2.718  0.7401 -0.5369 -0.0491
 6759SOL     OW31738   3.476   4.239  17.525 -0.2841 -0.5906  0.0212
 6759SOL    HW131739   3.434   4.160  17.559 -0.2329 -0.7972 -0.3973
 6759SOL    HW231740   3.497   4.294  17.601  1.3690 -0.5968 -0.4211
 6760SOL     OW31741   0.463   0.484   5.244  0.3638 -0.3340  0.2262
 6760SOL    HW131742   0.446   0.405   5.192  0.2576 -0.7495  0.8845
 6760SOL    HW231743   0.558   0.487   5.229  0.2608 -1.3147 -0.6337
 6761SOL     OW31744   0.849   2.436   1.753  0.4821  0.3983  0.0696
 6761SOL    HW131745   0.815   2.348   1.738  0.1146  0.2600  1.7815
 6761SOL    HW231746   0.935   2.433   1.711 -1.1909 -3.8754 -3.0912
 6762SOL     OW31747   0.687   2.717   5.695  0.3072 -0.0429 -0.8518
 6762SOL    HW131748   0.688   2.806   5.729 -1.3323 -0.4376  0.2424
 6762SOL    HW231749   0.608   2.685   5.739  1.4511 -0.1708  1.1381
 6763SOL     OW31750   2.712   1.785   0.569  0.1790 -0.7098  0.0715
 6763SOL    HW131751   2.623   1.758   0.590 -0.2164 -0.0565 -0.7870
 6763SOL    HW231752   2.725   1.733   0.490 -1.3086 -2.3167  0.8777
 6764SOL     OW31753   0.985   0.321   4.669 -0.0345 -0.2285  0.1009
 6764SOL    HW131754   0.949   0.310   4.581  0.7284 -2.1951  0.0338
 6764SOL    HW231755   0.913   0.362   4.717  0.1067 -0.2890  0.3662
 6765SOL     OW31756   1.377   2.166   9.448  0.2458 -0.2599  0.1915
 6765SOL    HW131757   1.317   2.104   9.406  1.1420 -1.9679  1.3887
 6765SOL    HW231758   1.319   2.192   9.519  1.7261 -0.0454  1.3231
 6766SOL     OW31759   0.819   3.995  14.256  0.2617 -0.0560  0.6115
 6766SOL    HW131760   0.779   4.073  14.295  1.0250  1.3451 -1.3821
 6766SOL    HW231761   0.829   4.017  14.163  1.4509  1.6348  1.1408
 6767SOL     OW31762   1.865   2.761  12.175 -0.6325 -0.8024  0.2520
 6767SOL    HW131763   1.800   2.724  12.234 -0.5313 -0.3009  0.6680
 6767SOL    HW231764   1.937   2.700  12.190  3.3009  3.4130 -1.5672
 6768SOL     OW31765   3.941   3.868   0.411  0.4349 -0.2184  0.6667
 6768SOL    HW131766   4.011   3.934   0.410  0.7155 -0.5520 -1.4488
 6768SOL    HW231767   3.984   3.805   0.469  0.2317 -0.6702  0.3240
 6769SOL     OW31768   1.045   0.938   6.453 -0.0809  0.9883  0.6138
 6769SOL    HW131769   1.022   1.030   6.438 -0.4751  1.1761  2.4252
 6769SOL    HW231770   1.126   0.951   6.403 -1.1560 -0.1365 -1.4176
 6770SOL     OW31771   4.248   2.993  16.615 -0.9723  0.4845  0.0742
 6770SOL    HW131772   4.162   2.953  16.624  0.6639 -2.6647  1.6345
 6770SOL    HW231773   4.239   3.034  16.529 -0.4597  0.9083  0.2235
 6771SOL     OW31774   1.488   2.792  15.698  0.0707 -0.3768 -0.3135
 6771SOL    HW131775   1.438   2.849  15.757  0.6526  0.5779 -0.7500
 6771SOL    HW231776   1.546   2.849  15.648  1.8952 -1.9010  0.0587
 6772SOL     OW31777   4.519   2.077  16.897 -0.0315  0.2336  0.0443
 6772SOL    HW131778   4.582   2.108  16.832  0.6489 -0.1345  0.5335
 6772SOL    HW231779   4.468   2.008  16.854  0.0487  0.6166 -0.6648
 6773SOL     OW31780   2.311   4.263   4.598 -0.4448 -0.3069 -0.1426
 6773SOL    HW131781   2.316   4.167   4.600 -4.1482 -0.4548  0.7695
 6773SOL    HW231782   2.403   4.274   4.623 -0.5626  0.4778 -0.0514
 6774SOL     OW31783   2.119   3.267  16.927  0.5893  0.1598  0.5604
 6774SOL    HW131784   2.153   3.276  17.016 -1.3689  0.6509  1.2712
 6774SOL    HW231785   2.031   3.301  16.943  1.1414  0.6508  2.5819
 6775SOL     OW31786   3.479   1.838   4.550 -0.8025  0.0603  0.0317
 6775SOL    HW131787   3.553   1.804   4.500 -1.1234  0.7443 -0.9240
 6775SOL    HW231788   3.509   1.837   4.640  1.5538 -2.4685 -0.8056
 6776SOL     OW31789   0.734   2.986   9.651 -0.9623  0.3376  0.7788
 6776SOL    HW131790   0.751   2.976   9.557  1.8461 -2.1249  1.5629
 6776SOL    HW231791   0.640   2.980   9.664 -0.9915  2.6335  1.6644
 6777SOL     OW31792   0.259   2.508   5.156 -0.4832 -0.1904 -0.1223
 6777SOL    HW131793   0.240   2.418   5.131 -0.0313  0.4076 -2.6272
 6777SOL    HW231794   0.346   2.508   5.196 -0.1857  0.6116 -0.7581
 6778SOL     OW31795   1.706   4.059   2.756  0.3944  0.6309 -0.2708
 6778SOL    HW131796   1.629   4.009   2.726 -0.2983  0.4126  1.8722
 6778SOL    HW231797   1.772   4.023   2.696  0.9820  0.8610  0.2467
 6779SOL     OW31798   3.150   3.748   2.104  0.0386 -0.6278 -0.2536
 6779SOL    HW131799   3.182   3.696   2.029  1.3166 -0.5505  0.2378
 6779SOL    HW231800   3.227   3.732   2.160 -1.1900 -0.7032  1.4120
 6780SOL     OW31801   4.129   2.044   5.827 -0.8359 -0.0884 -0.3982
 6780SOL    HW131802   4.036   2.062   5.839 -0.4184  0.9765  1.2598
 6780SOL    HW231803   4.125   1.951   5.803  1.3826 -0.2991  0.0674
 6781SOL     OW31804   4.351   1.547   2.132  0.0868  0.4495  0.0964
 6781SOL    HW131805   4.259   1.572   2.128 -0.0693 -0.4459 -2.0265
 6781SOL    HW231806   4.346   1.457   2.098  0.7635  0.5755 -0.3169
 6782SOL     OW31807   2.432   2.996   8.900  0.1900 -0.0023 -0.0541
 6782SOL    HW131808   2.446   3.070   8.840  0.5171  0.1072  0.1587
 6782SOL    HW231809   2.489   2.927   8.867 -1.0613 -0.0176 -2.2225
 6783SOL     OW31810   1.850   4.228   4.419  0.0851 -0.5424 -0.1776
 6783SOL    HW131811   1.819   4.208   4.508 -1.0789  2.5024  0.0854
 6783SOL    HW231812   1.945   4.216   4.419 -0.0429 -1.5643  1.4577
 6784SOL     OW31813   1.970   2.392  17.460 -0.0379 -0.1008  0.0445
 6784SOL    HW131814   1.971   2.394  17.364  1.6650  0.6225  0.0644
 6784SOL    HW231815   1.996   2.484  17.472 -2.0115  0.7186 -1.9151
 6785SOL     OW31816   2.100   1.398   8.415  0.2584 -0.2211 -0.6860
 6785SOL    HW131817   2.170   1.439   8.365 -0.5645 -0.6247 -2.1837
 6785SOL    HW231818   2.070   1.348   8.339  0.4010 -0.9469 -0.2687
 6786SOL     OW31819   4.242   3.096   3.892  0.1429  0.2932  0.1443
 6786SOL    HW131820   4.250   3.151   3.969 -1.1550  0.3353  0.2595
 6786SOL    HW231821   4.292   3.022   3.926  1.8041  2.2287  1.8340
 6787SOL     OW31822   2.977   3.322  13.871  0.2539  0.5136 -0.3128
 6787SOL    HW131823   2.991   3.289  13.960  0.9204 -1.2916 -1.0851
 6787SOL    HW231824   2.928   3.396  13.907 -1.4606 -1.1816  0.7937
 6788SOL     OW31825   2.648   1.584   7.365  0.0384  0.1230  0.0007
 6788SOL    HW131826   2.580   1.550   7.307 -0.6616 -0.2561  1.0503
 6788SOL    HW231827   2.630   1.535   7.445  0.2013  0.0076 -0.0329
 6789SOL     OW31828   1.391   3.537   8.011  0.0073  0.0030  0.5071
 6789SOL    HW131829   1.345   3.601   7.956 -0.3583  0.4190  1.3061
 6789SOL    HW231830   1.392   3.455   7.961  1.5960  1.2329 -1.4709
 6790SOL     OW31831   1.953   3.480  17.464 -0.2275 -0.5008  0.6791
 6790SOL    HW131832   2.008   3.544  17.418 -1.2951 -0.6824 -0.8871
 6790SOL    HW231833   2.013   3.414  17.497 -1.7254 -2.0887  0.2432
 6791SOL     OW31834   1.313   3.472   4.765  0.3920  0.2836 -0.0810
 6791SOL    HW131835   1.294   3.546   4.708 -0.5294 -1.0314 -1.5141
 6791SOL    HW231836   1.406   3.462   4.748  0.3806  0.1136 -0.0417
 6792SOL     OW31837   1.300   1.047  13.527 -0.2896  0.1791 -0.2499
 6792SOL    HW131838   1.250   1.113  13.479 -2.9096 -2.4038 -1.0123
 6792SOL    HW231839   1.340   1.000  13.454  0.7806 -0.0909  0.4964
 6793SOL     OW31840   3.353   4.645   4.648  0.1338  0.6731  0.0411
 6793SOL    HW131841   3.260   4.662   4.667 -0.0679 -2.4335  1.7758
 6793SOL    HW231842   3.352   4.602   4.563  2.7808  0.8587 -0.0594
 6794SOL     OW31843   1.445   0.298   7.233  0.2902 -0.1265 -0.0769
 6794SOL    HW131844   1.463   0.242   7.309 -1.1920 -1.2929 -0.5975
 6794SOL    HW231845   1.414   0.374   7.283  0.0195  1.2387 -2.3538
 6795SOL     OW31846   2.533   0.792   2.466 -0.6217 -0.4132  0.0963
 6795SOL    HW131847   2.605   0.826   2.520  0.3223  0.8207 -1.9510
 6795SOL    HW231848   2.457   0.850   2.476 -0.5252 -0.4587  1.1295
 6796SOL     OW31849   2.485   2.907   3.632 -0.0466 -0.1113  0.4818
 6796SOL    HW131850   2.485   2.979   3.568 -1.4515  0.5835  1.2730
 6796SOL    HW231851   2.576   2.902   3.662  0.2262 -2.0387 -0.6690
 6797SOL     OW31852   3.796   1.103  12.570 -0.6765 -0.6639  0.1236
 6797SOL    HW131853   3.771   1.192  12.594  2.5376  0.6344 -1.3122
 6797SOL    HW231854   3.885   1.127  12.544 -0.6062 -0.9944  0.0507
 6798SOL     OW31855   0.613   1.626   6.045  0.5955 -0.1614 -0.4681
 6798SOL    HW131856   0.518   1.640   6.038  0.6027 -0.7321 -1.8551
 6798SOL    HW231857   0.624   1.606   5.952 -1.7401 -2.1429 -0.3311
 6799SOL     OW31858   3.708   1.697  10.147  0.0840  0.5075 -0.2466
 6799SOL    HW131859   3.625   1.698  10.194 -1.1596 -1.7599 -2.3626
 6799SOL    HW231860   3.699   1.622  10.088  0.1840  1.8038 -1.9104
 6800SOL     OW31861   3.455   2.336   7.780  0.2506  0.3509 -1.0399
 6800SOL    HW131862   3.468   2.376   7.694 -0.8647  1.1179 -0.8550
 6800SOL    HW231863   3.401   2.398   7.828 -1.1235  0.4171 -2.6991
 6801SOL     OW31864   4.055   1.669   2.082  0.7875 -0.0888  0.7136
 6801SOL    HW131865   3.972   1.694   2.122  0.3336 -2.4574  1.2472
 6801SOL    HW231866   4.112   1.744   2.098 -2.1003  2.5569 -1.3595
 6802SOL     OW31867   0.303   3.912   2.625 -0.0286 -0.6077 -0.7968
 6802SOL    HW131868   0.225   3.860   2.647 -0.2471 -0.4642 -1.2511
 6802SOL    HW231869   0.283   3.994   2.671  1.4522 -0.9479  0.4562
 6803SOL     OW31870   1.851   2.167   8.540  0.2463 -0.0155  0.6937
 6803SOL    HW131871   1.946   2.180   8.532  0.4863 -3.5651 -2.3717
 6803SOL    HW231872   1.831   2.100   8.475  2.3207  0.8986 -0.8880
 6804SOL     OW31873   0.796   2.422   9.597  0.2357  0.3030 -0.3978
 6804SOL    HW131874   0.761   2.343   9.637  1.6461 -2.5843 -4.8379
 6804SOL    HW231875   0.790   2.409   9.502 -1.2476 -2.0706  0.0258
 6805SOL     OW31876   3.485   1.902  11.917  0.3803 -0.6042 -0.5183
 6805SOL    HW131877   3.456   1.968  11.855  0.7311 -0.5910 -0.6673
 6805SOL    HW231878   3.550   1.949  11.969 -0.6628 -1.4331  1.5638
 6806SOL     OW31879   1.909   1.782   3.088 -0.6817 -0.0660 -0.0920
 6806SOL    HW131880   1.989   1.737   3.059 -1.0543  0.3358 -1.7763
 6806SOL    HW231881   1.876   1.810   3.002  3.3014  0.7328 -1.3794
 6807SOL     OW31882   2.576   0.792   9.786  0.0930 -0.4082  0.0875
 6807SOL    HW131883   2.665   0.763   9.770  0.7378  1.8200 -0.3593
 6807SOL    HW231884   2.556   0.774   9.878 -1.0087 -2.2613 -0.5057
 6808SOL     OW31885   1.812   0.082   5.797  0.5179 -0.5636  0.5558
 6808SOL    HW131886   1.822   0.176   5.785 -1.5379 -0.3876  0.3097
 6808SOL    HW231887   1.859   0.047   5.721  1.9322  0.2915  1.0421
 6809SOL     OW31888   0.734   3.954   5.048 -1.1093 -0.0214 -0.0295
 6809SOL    HW131889   0.674   3.987   5.114  0.3037  0.2758  1.1030
 6809SOL    HW231890   0.760   3.876   5.097 -0.8533  0.0776 -0.0098
 6810SOL     OW31891   3.370   4.593   3.711  0.0847  0.4034  0.2956
 6810SOL    HW131892   3.433   4.607   3.781 -1.4019 -0.0971  1.7179
 6810SOL    HW231893   3.373   4.497   3.709 -2.2511  0.3113  1.4692
 6811SOL     OW31894   3.512   0.416   6.525  0.0226 -0.0975 -0.2057
 6811SOL    HW131895   3.580   0.362   6.565 -1.6581 -0.7837  1.7458
 6811SOL    HW231896   3.555   0.439   6.443 -0.1491 -0.9600 -0.5301
 6812SOL     OW31897   1.869   4.393   2.711 -0.4134 -0.4895  0.1592
 6812SOL    HW131898   1.886   4.309   2.668  0.5077 -1.4484  2.4168
 6812SOL    HW231899   1.826   4.363   2.791 -0.4723 -1.9411 -0.4027
 6813SOL     OW31900   4.144   4.595   6.494  0.2118  0.1030  0.5390
 6813SOL    HW131901   4.172   4.683   6.470  1.4599  0.0483  1.7590
 6813SOL    HW231902   4.201   4.584   6.570 -0.1877 -1.2324  0.6601
 6814SOL     OW31903   3.246   1.497  11.015  0.0737 -0.1480 -0.4044
 6814SOL    HW131904   3.329   1.455  11.041  0.6595  0.8098 -0.7366
 6814SOL    HW231905   3.221   1.527  11.102 -2.7767 -2.7589 -0.3012
 6815SOL     OW31906   3.465   2.677  13.286  0.0555 -0.2428 -0.4668
 6815SOL    HW131907   3.532   2.702  13.350 -0.1810  2.0234 -1.1252
 6815SOL    HW231908   3.480   2.750  13.226  0.0334  0.4090  0.3245
 6816SOL     OW31909   2.706   4.674   5.810  0.1258 -0.3651  0.2043
 6816SOL    HW131910   2.723   4.580   5.806  0.6014 -0.3110  0.9774
 6816SOL    HW231911   2.758   4.698   5.887 -2.4135  2.7233  1.0075
 6817SOL     OW31912   3.429   3.065   9.122  0.3396  0.0741  0.0463
 6817SOL    HW131913   3.333   3.063   9.122  0.2817  2.4188  0.6005
 6817SOL    HW231914   3.455   3.030   9.207 -0.5315  0.1631  0.3449
 6818SOL     OW31915   4.594   2.248   7.604  0.2573  0.0498 -0.0934
 6818SOL    HW131916   4.531   2.215   7.669  0.6070  1.0961  0.7791
 6818SOL    HW231917   4.580   2.201   7.522  1.9911  0.2504 -0.5029
 6819SOL     OW31918   2.284   4.195   6.352  0.0094  0.6106  0.2469
 6819SOL    HW131919   2.346   4.177   6.423  0.5961  0.6329 -0.2664
 6819SOL    HW231920   2.323   4.243   6.279 -0.4220  0.9524  0.2378
 6820SOL     OW31921   1.009   1.778  16.213 -0.6077 -0.0622 -0.0286
 6820SOL    HW131922   0.938   1.830  16.177 -0.3509  1.5174  1.7461
 6820SOL    HW231923   0.965   1.694  16.227  1.2990 -0.9322  0.8194
 6821SOL     OW31924   1.178   2.678  12.195  0.2806 -0.2437  0.2648
 6821SOL    HW131925   1.181   2.763  12.153  1.3589 -0.4309 -0.0301
 6821SOL    HW231926   1.089   2.647  12.178  0.8887 -2.1533  0.4809
 6822SOL     OW31927   1.088   1.363   0.539 -0.0269 -0.3263  0.2338
 6822SOL    HW131928   1.068   1.365   0.445  2.0654  0.0387 -0.2022
 6822SOL    HW231929   1.159   1.298   0.540  0.8905  0.6206 -2.7239
 6823SOL     OW31930   4.544   2.370  16.955 -0.0448 -0.1270  0.8111
 6823SOL    HW131931   4.577   2.364  16.866 -0.9180  1.1110  0.4045
 6823SOL    HW231932   4.502   2.285  16.972  2.5433 -1.9087 -1.6385
 6824SOL     OW31933   4.421   2.988   8.141  0.2009  0.1452 -0.4892
 6824SOL    HW131934   4.445   2.951   8.056 -0.5029  0.5409 -0.8602
 6824SOL    HW231935   4.501   3.027   8.175 -0.0941  1.8573 -1.7626
 6825SOL     OW31936   3.051   2.988   8.209 -0.1526  0.3788 -0.2646
 6825SOL    HW131937   2.967   3.033   8.201 -0.3046  0.2859  0.7976
 6825SOL    HW231938   3.033   2.896   8.193 -0.1263  0.6454 -1.9148
 6826SOL     OW31939   0.864   2.986  16.499  0.1143  0.1264 -0.0744
 6826SOL    HW131940   0.855   2.968  16.405 -0.7743  2.6696 -0.4805
 6826SOL    HW231941   0.843   2.906  16.547 -2.2760 -0.2540 -1.7744
 6827SOL     OW31942   3.490   3.953   3.386 -0.6408  0.0410  0.0600
 6827SOL    HW131943   3.407   3.909   3.404 -0.5458 -0.0682  0.2322
 6827SOL    HW231944   3.489   4.038   3.431 -1.1276  0.7788 -1.3532
 6828SOL     OW31945   0.932   4.366   1.556 -0.1556 -0.3521  0.2241
 6828SOL    HW131946   0.864   4.300   1.545 -0.5664  0.1651 -0.3203
 6828SOL    HW231947   0.881   4.443   1.532 -1.1012 -0.9577  0.2737
 6829SOL     OW31948   2.698   4.232   3.172  0.1165 -0.1401 -0.0475
 6829SOL    HW131949   2.761   4.304   3.185  0.8273 -1.0262  1.3577
 6829SOL    HW231950   2.647   4.248   3.251 -1.6980  1.0625 -1.4418
 6830SOL     OW31951   3.527   3.897   7.492  0.0159 -0.1291 -0.2939
 6830SOL    HW131952   3.486   3.860   7.413  1.1182 -1.9946  0.0087
 6830SOL    HW231953   3.487   3.853   7.567 -0.8677  1.1126 -0.0319
 6831SOL     OW31954   3.274   1.607   6.005  0.2382  0.0166 -0.6238
 6831SOL    HW131955   3.197   1.649   6.044  1.1749  0.5157  0.6781
 6831SOL    HW231956   3.248   1.517   5.987 -3.2048  0.6759  0.9677
 6832SOL     OW31957   4.529   3.463   1.672 -0.6432 -0.5191 -0.2645
 6832SOL    HW131958   4.567   3.413   1.744  0.5359 -0.3999 -0.8085
 6832SOL    HW231959   4.459   3.402   1.647 -1.3364  0.4132 -0.5911
 6833SOL     OW31960   0.337   2.472   8.571  0.0594  0.1603 -0.2392
 6833SOL    HW131961   0.374   2.384   8.577 -0.6338  0.0907  3.0806
 6833SOL    HW231962   0.244   2.461   8.552  0.0876  0.5794 -0.6229
 6834SOL     OW31963   0.186   3.736   8.441  0.3554  0.1871  0.5433
 6834SOL    HW131964   0.199   3.746   8.347  0.1033 -1.6336  0.3109
 6834SOL    HW231965   0.092   3.728   8.454  0.2642  0.3257 -0.0355
 6835SOL     OW31966   1.063   1.023   2.175 -0.3677  0.3127 -0.1013
 6835SOL    HW131967   1.144   1.045   2.130  0.5105 -0.2795  1.1785
 6835SOL    HW231968   1.014   0.962   2.121 -0.2473 -0.3862  0.5880
 6836SOL     OW31969   2.298   1.141  15.241  0.1626  0.1675  0.1644
 6836SOL    HW131970   2.267   1.060  15.281 -1.0271  0.1375 -0.8343
 6836SOL    HW231971   2.318   1.091  15.162 -0.6578  0.1639 -0.0335
 6837SOL     OW31972   1.170   1.118   4.002 -0.2424  0.0819 -0.3681
 6837SOL    HW131973   1.137   1.085   4.085 -1.0473  2.6268  0.3187
 6837SOL    HW231974   1.262   1.091   4.008 -0.6966 -1.0624  1.2839
 6838SOL     OW31975   4.049   4.409   0.543  0.0732  0.1775 -0.3243
 6838SOL    HW131976   3.987   4.482   0.550  0.4921  0.6085 -1.1182
 6838SOL    HW231977   3.992   4.336   0.567 -0.1785  0.6054  0.3611
 6839SOL     OW31978   4.211   4.709   5.754 -0.1272  0.3488 -0.2691
 6839SOL    HW131979   4.190   0.076   5.782 -3.2942 -0.6083  0.4384
 6839SOL    HW231980   4.124   4.669   5.752 -0.2028  0.5386 -0.7113
 6840SOL     OW31981   0.345   0.126  17.163  0.4051 -0.2578  0.1021
 6840SOL    HW131982   0.407   0.173  17.218  1.2464  1.8716 -2.7372
 6840SOL    HW231983   0.284   0.191  17.129  0.9807  0.0420 -0.3473
 6841SOL     OW31984   4.066   1.121  12.551  0.0216  0.2941  0.2320
 6841SOL    HW131985   4.099   1.100  12.638 -0.4123  0.4433  0.4363
 6841SOL    HW231986   4.117   1.066  12.493  0.0793 -0.0278  0.5863
 6842SOL     OW31987   0.005   2.061   0.917  0.4314  0.1037 -0.1710
 6842SOL    HW131988   0.061   2.079   0.842 -1.1456 -1.5893 -1.7826
 6842SOL    HW231989   4.647   2.107   0.890  1.3005  2.1842  0.8446
 6843SOL     OW31990   0.353   4.634   9.657 -0.0843  0.0313  0.4095
 6843SOL    HW131991   0.415   4.561   9.660  0.3394  0.3614 -0.3532
 6843SOL    HW231992   0.290   4.603   9.592  0.1862 -0.7637  0.5208
 6844SOL     OW31993   4.562   1.579   8.210  0.0844  0.1906 -0.4412
 6844SOL    HW131994   4.479   1.622   8.228  0.8666  1.1518  0.8436
 6844SOL    HW231995   4.627   1.647   8.196  2.5258 -1.9906  0.2026
 6845SOL     OW31996   4.457   3.509   4.945  0.4390 -0.4671  0.0097
 6845SOL    HW131997   4.526   3.563   4.906 -0.1400 -0.0117 -0.3805
 6845SOL    HW231998   4.472   3.423   4.904 -1.5251 -0.0433 -1.6217
 6846SOL     OW31999   1.529   2.033  11.706  0.0264  0.2621  0.0049
 6846SOL    HW132000   1.547   2.076  11.623 -1.6462  1.2353  0.1443
 6846SOL    HW232001   1.619   2.007  11.725 -0.0982 -0.4854 -0.4241
 6847SOL     OW32002   0.803   1.562   7.340  0.0993 -0.4240  0.0515
 6847SOL    HW132003   0.858   1.562   7.262  0.8436 -0.7062  0.5676
 6847SOL    HW232004   0.880   1.580   7.394  0.0337 -0.8040  0.2746
 6848SOL     OW32005   0.397   1.628   7.561  0.4174  0.1303 -0.2124
 6848SOL    HW132006   0.407   1.534   7.573  2.9962  0.4931  0.3227
 6848SOL    HW232007   0.482   1.668   7.574  0.0605  0.6972  0.3878
 6849SOL     OW32008   3.049   2.219   6.440 -0.8765 -0.2411 -0.2090
 6849SOL    HW132009   3.116   2.166   6.482  1.5878  0.0307 -3.7887
 6849SOL    HW232010   2.970   2.210   6.494 -0.3059 -1.1062  0.4646
 6850SOL     OW32011   3.170   4.224  10.230 -0.0513  0.0608 -0.5931
 6850SOL    HW132012   3.119   4.180  10.163  2.1538 -1.3738 -1.3261
 6850SOL    HW232013   3.217   4.154  10.275 -0.2847 -0.0089 -0.4608
 6851SOL     OW32014   0.575   4.589   7.051 -0.7416 -0.2692  0.4326
 6851SOL    HW132015   0.637   4.532   7.004 -1.0267  0.1542 -0.4551
 6851SOL    HW232016   0.493   4.581   7.003 -1.6903  1.2334  1.8084
 6852SOL     OW32017   3.837   4.224   4.680 -0.0857 -0.1540 -0.0687
 6852SOL    HW132018   3.880   4.171   4.746 -1.3716 -1.4813 -0.3058
 6852SOL    HW232019   3.850   4.162   4.608  0.9587 -1.1552  0.9926
 6853SOL     OW32020   2.536   2.542   3.744 -0.4184  0.0736 -0.9857
 6853SOL    HW132021   2.607   2.487   3.712 -1.4172 -3.4268  2.7796
 6853SOL    HW232022   2.573   2.590   3.818 -1.3909  0.1944 -0.5729
 6854SOL     OW32023   1.847   3.661   7.049  0.4770  0.0231 -0.3530
 6854SOL    HW132024   1.894   3.664   7.132  0.6162  0.5190 -0.4530
 6854SOL    HW232025   1.875   3.744   7.012 -2.7991  1.5011  0.5309
 6855SOL     OW32026   4.275   0.238   1.800  0.1373 -0.3774  0.1823
 6855SOL    HW132027   4.286   0.243   1.895 -0.8684 -1.6355  0.3581
 6855SOL    HW232028   4.359   0.198   1.780 -0.6910 -2.3643  0.6556
 6856SOL     OW32029   1.868   4.169   1.423  0.3789  0.0821 -0.6408
 6856SOL    HW132030   1.782   4.199   1.393 -0.9116 -3.1071 -0.1959
 6856SOL    HW232031   1.833   4.124   1.501  3.1961  1.8820  1.6661
 6857SOL     OW32032   2.298   0.362   2.944  0.4295 -0.7305  0.3382
 6857SOL    HW132033   2.272   0.408   3.024  2.8239 -0.4630  0.9487
 6857SOL    HW232034   2.370   0.415   2.911  0.3758 -0.3622  0.8102
 6858SOL     OW32035   2.821   3.821  13.628  0.1336  0.3929 -0.3549
 6858SOL    HW132036   2.787   3.759  13.565  0.1549 -0.0346  0.0561
 6858SOL    HW232037   2.853   3.889  13.568 -1.6967  1.6867  0.1378
 6859SOL     OW32038   1.506   4.183  10.520  0.0162 -0.1449 -0.0464
 6859SOL    HW132039   1.518   4.200  10.427 -2.1402 -0.7503 -0.4379
 6859SOL    HW232040   1.537   4.095  10.540  3.2752  1.2895  1.2400
 6860SOL     OW32041   2.020   2.382   8.204 -0.3684 -1.4009  0.4306
 6860SOL    HW132042   1.945   2.334   8.169  0.3374 -2.3497  0.2149
 6860SOL    HW232043   2.023   2.342   8.291 -0.9339 -1.6792  0.3204
 6861SOL     OW32044   2.810   3.910   7.838  0.3752 -0.0541 -0.3043
 6861SOL    HW132045   2.862   3.939   7.763  2.2513  0.1405  1.0405
 6861SOL    HW232046   2.740   3.974   7.833  0.2125 -0.0813  1.4626
 6862SOL     OW32047   0.112   3.451   7.033 -0.3555  0.4279 -0.0067
 6862SOL    HW132048   0.125   3.376   7.090  0.9112  0.2627 -0.4964
 6862SOL    HW232049   0.170   3.433   6.959 -0.1797  0.8308  0.0289
 6863SOL     OW32050   2.674   1.846  13.621  1.0128 -0.0754 -0.1515
 6863SOL    HW132051   2.632   1.803  13.547 -0.0197  0.1336  0.3129
 6863SOL    HW232052   2.692   1.773  13.681 -0.1968 -0.3243 -0.0846
 6864SOL     OW32053   3.446   2.460   2.100  0.8061  0.1131 -0.2148
 6864SOL    HW132054   3.479   2.544   2.069 -0.6865  0.2994 -1.3514
 6864SOL    HW232055   3.351   2.476   2.094  0.8248 -0.3597 -1.9918
 6865SOL     OW32056   4.105   0.273   0.594  0.1968 -0.1671 -0.2696
 6865SOL    HW132057   4.096   0.195   0.648 -0.6149 -1.1767 -1.8667
 6865SOL    HW232058   4.126   0.244   0.505 -2.8935 -0.0147 -1.0330
 6866SOL     OW32059   1.299   0.213   0.394 -0.2719  0.1215  0.1473
 6866SOL    HW132060   1.270   0.291   0.347 -1.5692 -1.3824 -1.5478
 6866SOL    HW232061   1.387   0.239   0.419 -0.5178  0.2364  0.8917
 6867SOL     OW32062   0.008   0.234  12.088  0.2647  1.0195 -0.8698
 6867SOL    HW132063   0.035   0.253  12.177 -2.5371  1.1018 -0.0395
 6867SOL    HW232064   4.678   0.155  12.104  1.0093  0.9963  1.3306
 6868SOL     OW32065   3.828   0.197   3.779  0.3586  0.1315 -0.7506
 6868SOL    HW132066   3.920   0.225   3.784  0.3261  0.3960 -1.7122
 6868SOL    HW232067   3.798   0.259   3.712  1.8827  1.0494 -0.5854
 6869SOL     OW32068   3.463   3.273   5.312  0.3090 -0.2533 -0.7195
 6869SOL    HW132069   3.541   3.305   5.266  1.0471  0.1902  0.8750
 6869SOL    HW232070   3.394   3.284   5.246 -1.8931  1.8772  1.9559
 6870SOL     OW32071   1.225   1.537   3.023 -0.2650 -0.4801  0.2390
 6870SOL    HW132072   1.310   1.573   3.049 -0.5514 -0.0169  0.5275
 6870SOL    HW232073   1.242   1.443   3.025  2.1194 -0.0767 -0.5442
 6871SOL     OW32074   2.636   2.593   7.897 -0.1632 -0.9681 -0.4680
 6871SOL    HW132075   2.703   2.583   7.829  0.5941  1.1349 -0.0470
 6871SOL    HW232076   2.558   2.620   7.849 -0.2857 -0.2068  0.1643
 6872SOL     OW32077   2.960   3.362   2.882  0.0885  0.2909  0.0561
 6872SOL    HW132078   2.982   3.270   2.889  0.5984  0.4791  0.9235
 6872SOL    HW232079   3.046   3.405   2.876  0.1265  0.3866  1.1840
 6873SOL     OW32080   3.017   0.662   8.694 -0.3874  0.5513  0.1184
 6873SOL    HW132081   3.015   0.590   8.758 -1.3634 -0.1019 -0.6452
 6873SOL    HW232082   2.934   0.648   8.648 -1.2595 -0.4377  1.9941
 6874SOL     OW32083   4.497   2.939   7.865 -0.3578 -0.3541  0.2196
 6874SOL    HW132084   4.532   2.861   7.823  0.7901 -0.1973  0.8983
 6874SOL    HW232085   4.455   2.974   7.786 -1.3352  0.4956  1.1107
 6875SOL     OW32086   0.227   0.205   6.862  0.1077  0.2965  0.0708
 6875SOL    HW132087   0.256   0.239   6.947 -0.6117  0.5445  0.2162
 6875SOL    HW232088   0.312   0.183   6.823  0.7339  2.9082 -0.0347
 6876SOL     OW32089   4.601   4.233   5.658 -0.2121 -0.1947 -0.0013
 6876SOL    HW132090   4.635   4.172   5.592 -1.1236 -0.5693 -0.1195
 6876SOL    HW232091   4.626   4.190   5.741 -1.7141  0.6413  0.8815
 6877SOL     OW32092   0.700   0.296   7.121 -0.1138  0.1977  0.2123
 6877SOL    HW132093   0.678   0.389   7.117 -1.6861 -0.3007 -2.7534
 6877SOL    HW232094   0.618   0.249   7.110  0.2957 -0.9983  2.2014
 6878SOL     OW32095   1.865   3.884   8.209  0.0916  0.1470  0.3723
 6878SOL    HW132096   1.847   3.966   8.163 -0.2178 -0.1063  0.0371
 6878SOL    HW232097   1.801   3.895   8.280 -1.1023  0.8002 -0.8100
 6879SOL     OW32098   0.704   0.667   7.841  0.3860 -0.1637 -0.1353
 6879SOL    HW132099   0.718   0.646   7.933 -3.1472  3.3969  1.2683
 6879SOL    HW232100   0.780   0.715   7.806  0.3741 -0.5794 -0.7232
 6880SOL     OW32101   4.016   4.532  10.059  0.1558  0.2147 -0.1689
 6880SOL    HW132102   4.074   4.480  10.004  0.3964 -0.0702  0.3558
 6880SOL    HW232103   3.965   4.581   9.994  1.7761 -0.0108 -1.5849
 6881SOL     OW32104   0.152   4.059  17.652 -0.2754 -0.0799  0.5557
 6881SOL    HW132105   0.209   3.983  17.637  0.2027 -0.0071  2.0039
 6881SOL    HW232106   0.081   4.031  17.593  0.6897 -2.3135  0.4618
 6882SOL     OW32107   4.297   2.771   8.526  0.6630  0.6063  0.0924
 6882SOL    HW132108   4.278   2.815   8.443  1.7840  1.7517  0.4563
 6882SOL    HW232109   4.276   2.836   8.592  0.8517 -1.8811  2.6103
 6883SOL     OW32110   3.842   2.787   5.853 -0.2823  0.2814 -0.3086
 6883SOL    HW132111   3.876   2.711   5.900 -2.4221 -0.5597 -0.0981
 6883SOL    HW232112   3.815   2.755   5.766  2.0953 -0.0650 -0.9256
 6884SOL     OW32113   2.193   0.286   0.842 -0.3036 -0.2627  0.0401
 6884SOL    HW132114   2.134   0.355   0.873  1.1080  0.2779  1.5054
 6884SOL    HW232115   2.257   0.290   0.913  0.9025  0.3514 -1.0690
 6885SOL     OW32116   3.302   0.988   1.499  0.1095  0.0156  0.5576
 6885SOL    HW132117   3.258   1.048   1.439  0.6802  0.0075  0.1373
 6885SOL    HW232118   3.221   0.964   1.544 -0.2509  1.8551  0.8865
 6886SOL     OW32119   0.677   1.768   3.747  0.7310 -0.1135  0.1041
 6886SOL    HW132120   0.711   1.691   3.792  2.9613  0.7575 -0.0807
 6886SOL    HW232121   0.651   1.834   3.812 -0.5445  0.3025 -0.8307
 6887SOL     OW32122   0.877   3.697   2.644  0.3747  0.5208 -0.7209
 6887SOL    HW132123   0.820   3.762   2.603 -0.7233 -0.1962 -0.3385
 6887SOL    HW232124   0.859   3.634   2.573 -1.8790 -0.0646  0.3474
 6888SOL     OW32125   3.140   2.004  16.881  0.2037  0.1606 -0.3031
 6888SOL    HW132126   3.197   1.990  16.805 -0.3369  0.7325 -0.8164
 6888SOL    HW232127   3.076   1.934  16.872 -0.8135  0.8750  1.4651
 6889SOL     OW32128   2.232   4.328   3.994 -0.4068  0.8031  0.4471
 6889SOL    HW132129   2.139   4.329   3.971 -0.5968 -0.9511  1.1554
 6889SOL    HW232130   2.239   4.266   4.066 -1.6754 -0.0524 -0.1601
 6890SOL     OW32131   3.982   2.976   8.452  0.3464 -0.5416  0.3785
 6890SOL    HW132132   4.067   2.967   8.408  0.0133 -0.7464 -0.2131
 6890SOL    HW232133   3.933   2.942   8.377 -1.0014  0.5917  0.7447
 6891SOL     OW32134   0.382   3.838   2.001 -0.0631 -0.8742  0.2559
 6891SOL    HW132135   0.374   3.930   2.026  1.9298 -0.6180 -0.0293
 6891SOL    HW232136   0.300   3.806   2.039 -0.7691  0.5849 -0.0587
 6892SOL     OW32137   2.534   2.200   6.911  0.4504  0.2828 -0.1650
 6892SOL    HW132138   2.562   2.288   6.886 -0.3276  0.6824  0.3770
 6892SOL    HW232139   2.616   2.152   6.910  0.5496  0.4369  1.6837
 6893SOL     OW32140   4.609   0.684   4.215 -0.4455  0.1684  0.8172
 6893SOL    HW132141   4.650   0.642   4.140 -0.8175  1.3608 -0.0483
 6893SOL    HW232142   4.638   0.768   4.180 -0.9199  0.7544  1.8233
 6894SOL     OW32143   2.602   1.470   4.405 -0.1076  0.4739 -0.0583
 6894SOL    HW132144   2.583   1.548   4.458 -2.9098  0.0339 -0.3968
 6894SOL    HW232145   2.580   1.502   4.317  0.0757  2.4146  0.5922
 6895SOL     OW32146   4.244   1.313   6.542 -0.0497  0.1830  0.2384
 6895SOL    HW132147   4.189   1.330   6.619  0.3665  0.0374  0.5681
 6895SOL    HW232148   4.221   1.220   6.547 -1.4477  0.6590  2.9217
 6896SOL     OW32149   0.461   2.849   8.318  0.3672  0.1142 -0.3891
 6896SOL    HW132150   0.480   2.756   8.330  0.4851  0.4257  1.7696
 6896SOL    HW232151   0.503   2.876   8.236  3.1194 -1.9935  0.3346
 6897SOL     OW32152   3.308   0.294  13.131  0.0940  0.5362  0.4735
 6897SOL    HW132153   3.292   0.200  13.118 -0.8323  0.6766  0.6177
 6897SOL    HW232154   3.276   0.321  13.045  0.0599  2.0300  0.9626
 6898SOL     OW32155   1.323   0.603  12.197  0.0226 -0.2385  0.1242
 6898SOL    HW132156   1.329   0.651  12.279  1.8660  0.2600 -0.2903
 6898SOL    HW232157   1.269   0.662  12.145  1.5647  0.4048 -0.7400
 6899SOL     OW32158   0.575   3.894  17.358 -0.0849  0.3547  0.0493
 6899SOL    HW132159   0.637   3.821  17.357  2.3357  2.3920 -0.5781
 6899SOL    HW232160   0.636   3.959  17.394 -1.2744  0.9883  0.9285
 6900SOL     OW32161   2.433   0.499   9.669  0.3771 -0.2369  0.0347
 6900SOL    HW132162   2.406   0.577   9.621 -1.5927  0.0951  1.6822
 6900SOL    HW232163   2.368   0.488   9.739 -0.0738  0.9631 -0.1983
 6901SOL     OW32164   2.142   3.873   4.184  0.4401 -0.4015 -0.0308
 6901SOL    HW132165   2.134   3.798   4.125 -0.1465 -0.2181 -0.1817
 6901SOL    HW232166   2.233   3.858   4.208  0.8522  0.0266 -1.3480
 6902SOL     OW32167   4.368   3.738   4.237  0.1660  0.2040  0.4377
 6902SOL    HW132168   4.291   3.794   4.232 -0.0031  0.0410  1.1434
 6902SOL    HW232169   4.430   3.778   4.176  1.4924  0.1569  1.7521
 6903SOL     OW32170   3.443   0.221   5.048  0.2474 -0.2403 -0.1022
 6903SOL    HW132171   3.460   0.131   5.076 -1.0818 -0.8236 -1.2142
 6903SOL    HW232172   3.424   0.220   4.955 -0.8947 -3.0699  0.1727
 6904SOL     OW32173   1.222   2.634  10.252  0.4089  0.2993 -0.4304
 6904SOL    HW132174   1.145   2.662  10.302  2.2403 -0.6275  2.9288
 6904SOL    HW232175   1.176   2.590  10.181  0.9768 -0.6705 -0.1969
 6905SOL     OW32176   0.258   2.496   5.596  0.4579  0.2863  0.5165
 6905SOL    HW132177   0.183   2.476   5.651  1.0810 -0.8499  0.9626
 6905SOL    HW232178   0.316   2.424   5.621  2.1351  0.6718 -2.2707
 6906SOL     OW32179   3.946   3.579  11.536 -0.6374  0.0632  0.0108
 6906SOL    HW132180   3.894   3.543  11.464 -0.6117  0.2750 -0.1113
 6906SOL    HW232181   3.936   3.674  11.535  1.1529  0.2459 -0.2839
 6907SOL     OW32182   4.469   1.880   2.990 -0.4324 -0.5304 -0.3573
 6907SOL    HW132183   4.422   1.915   2.914  0.2098  1.9174  0.3704
 6907SOL    HW232184   4.419   1.921   3.061  2.6655  2.4645  0.0751
 6908SOL     OW32185   0.183   1.158   9.011  0.4242  0.6633  0.3358
 6908SOL    HW132186   0.135   1.078   9.033  0.2952  0.5626 -0.3113
 6908SOL    HW232187   0.145   1.229   9.062  1.8112  2.5390 -1.2153
 6909SOL     OW32188   4.345   2.560   2.196 -0.1745  0.0257  0.0574
 6909SOL    HW132189   4.388   2.475   2.207  0.0540  0.3136  1.4394
 6909SOL    HW232190   4.321   2.560   2.103 -0.6021  0.0311  0.1658
 6910SOL     OW32191   3.726   2.167   8.304  0.3105  0.2107 -0.3232
 6910SOL    HW132192   3.731   2.155   8.399  0.6923 -0.1398 -0.3867
 6910SOL    HW232193   3.632   2.155   8.295  0.1308  0.9820  0.5610
 6911SOL     OW32194   2.238   3.445   3.644  0.4655  0.3863 -0.7862
 6911SOL    HW132195   2.262   3.359   3.676 -0.2845 -0.0292 -1.3457
 6911SOL    HW232196   2.234   3.429   3.549  2.5784  0.0111 -0.8028
 6912SOL     OW32197   0.241   1.786   3.849 -0.8868  0.2114 -0.2053
 6912SOL    HW132198   0.178   1.724   3.886  0.1037 -1.3554 -1.1909
 6912SOL    HW232199   0.256   1.761   3.758  2.2397 -0.5195  0.5105
 6913SOL     OW32200   1.254   2.878  10.123  0.2372 -0.5165 -0.2417
 6913SOL    HW132201   1.340   2.889  10.163 -0.2350  0.9641  0.3916
 6913SOL    HW232202   1.246   2.785  10.141 -1.8454  0.2557  2.8963
 6914SOL     OW32203   0.248   4.124   2.811  0.3191 -0.1769 -0.1796
 6914SOL    HW132204   0.272   4.162   2.895  0.6341 -3.2305  1.1143
 6914SOL    HW232205   0.271   4.194   2.750 -3.4352  1.0647 -0.2093
 6915SOL     OW32206   3.485   0.940  17.249 -0.0142  0.2281  0.2164
 6915SOL    HW132207   3.551   0.949  17.180 -1.1058  1.9854 -0.5931
 6915SOL    HW232208   3.418   1.006  17.233  0.3372  0.4521 -0.3534
 6916SOL     OW32209   1.455   1.088   3.971  0.2963  0.0227  0.2878
 6916SOL    HW132210   1.485   1.170   4.010  0.3940 -0.3143  0.9237
 6916SOL    HW232211   1.533   1.033   3.982 -0.0156 -0.3502  0.6425
 6917SOL     OW32212   2.562   4.542   7.667  0.3113 -1.0543  0.1266
 6917SOL    HW132213   2.491   4.492   7.626 -0.3131 -0.9292  1.0698
 6917SOL    HW232214   2.617   4.557   7.590 -0.6712  0.5927 -0.2259
 6918SOL     OW32215   1.304   0.496   7.391  0.0278  0.2154  0.0144
 6918SOL    HW132216   1.358   0.495   7.471 -1.4432  0.4612  1.0173
 6918SOL    HW232217   1.245   0.566   7.420 -2.6923 -2.6367  1.3412
 6919SOL     OW32218   3.167   4.228   5.730 -0.1080 -0.1438  0.1665
 6919SOL    HW132219   3.262   4.223   5.718  0.0575  0.8025  1.0556
 6919SOL    HW232220   3.166   4.190   5.818 -1.2108  1.6196  0.8941
 6920SOL     OW32221   1.450   3.554   8.318  0.4091 -0.2931 -0.8715
 6920SOL    HW132222   1.422   3.644   8.301  0.7695  0.2292  1.2579
 6920SOL    HW232223   1.442   3.515   8.231  0.2873 -1.2108 -0.4489
 6921SOL     OW32224   2.773   2.314   3.800  0.3583  0.0251 -0.2038
 6921SOL    HW132225   2.851   2.365   3.819 -0.2474 -0.0263  2.4130
 6921SOL    HW232226   2.761   2.275   3.887 -2.5410  0.3718 -0.4240
 6922SOL     OW32227   2.305   0.860   9.641 -0.0884 -0.2800  0.1103
 6922SOL    HW132228   2.316   0.891   9.731  1.1546  1.3765 -0.6137
 6922SOL    HW232229   2.242   0.921   9.602  0.8067  0.9883  0.6669
 6923SOL     OW32230   4.712   1.607   3.215 -0.1624  0.4876  0.1621
 6923SOL    HW132231   4.631   1.601   3.163 -0.3953  2.2728  0.2962
 6923SOL    HW232232   0.043   1.668   3.163  0.9125 -0.3487  0.2889
 6924SOL     OW32233   1.342   4.252   2.972 -0.4095  0.2815  0.8171
 6924SOL    HW132234   1.396   4.283   2.900 -0.9067  1.6701  1.0496
 6924SOL    HW232235   1.328   4.161   2.945 -0.5234  1.2881 -2.4169
 6925SOL     OW32236   2.630   0.230  12.057  0.9341 -0.4304  0.4411
 6925SOL    HW132237   2.645   0.311  12.105  2.9676 -1.3576  1.3909
 6925SOL    HW232238   2.707   0.180  12.087  0.9587 -0.9116 -0.3932
 6926SOL     OW32239   0.400   3.856  14.912 -0.2417 -0.3029  0.0161
 6926SOL    HW132240   0.493   3.877  14.897 -0.7497  1.2585 -0.9001
 6926SOL    HW232241   0.402   3.799  14.989  1.3152  0.4460  0.5446
 6927SOL     OW32242   0.318   3.487   4.613  0.4885  0.2689  0.2349
 6927SOL    HW132243   0.299   3.553   4.546 -0.1065  0.7073  0.8292
 6927SOL    HW232244   0.404   3.448   4.599 -0.4520 -2.4224  1.8632
 6928SOL     OW32245   0.487   2.405  14.487  0.0155  0.3211 -1.0268
 6928SOL    HW132246   0.477   2.480  14.428 -0.4011  0.4285 -0.8241
 6928SOL    HW232247   0.563   2.445  14.529 -0.2611  0.5495 -0.7369
 6929SOL     OW32248   0.481   1.373  14.775 -0.3678 -0.1110 -0.1705
 6929SOL    HW132249   0.432   1.299  14.812  0.5316 -2.2614 -3.2528
 6929SOL    HW232250   0.427   1.394  14.698 -0.7854  1.5817  0.5979
 6930SOL     OW32251   3.263   4.137  17.304  0.1053  0.4855  0.3654
 6930SOL    HW132252   3.210   4.176  17.235 -0.2217 -1.0270 -0.2517
 6930SOL    HW232253   3.343   4.185  17.284 -0.6984  0.9336 -1.7965
 6931SOL     OW32254   4.462   2.631   4.597 -0.2683 -0.6994  0.4409
 6931SOL    HW132255   4.427   2.683   4.525  0.7455 -0.2770  0.2516
 6931SOL    HW232256   4.386   2.590   4.638  0.5353 -2.2185  0.4375
 6932SOL     OW32257   0.455   2.173   5.108 -0.4797 -0.0206  0.2313
 6932SOL    HW132258   0.383   2.162   5.169 -0.1052 -1.6178  0.3849
 6932SOL    HW232259   0.411   2.141   5.029 -0.3313  0.8028 -0.1969
 6933SOL     OW32260   4.560   2.218   6.551  0.1880 -0.0433  0.2172
 6933SOL    HW132261   4.527   2.282   6.613  0.5265 -0.2876  0.6431
 6933SOL    HW232262   4.649   2.250   6.538  0.3027  0.0546  1.2888
 6934SOL     OW32263   4.574   0.246   6.914 -0.3006  0.3163 -0.5197
 6934SOL    HW132264   4.599   0.333   6.945 -0.1855  0.3311 -0.6542
 6934SOL    HW232265   4.480   0.260   6.903 -0.6039 -1.0709  0.2245
 6935SOL     OW32266   3.539   3.335   3.224 -0.1671 -0.2027  0.0655
 6935SOL    HW132267   3.552   3.394   3.150  0.6258  1.0775  1.2337
 6935SOL    HW232268   3.629   3.324   3.256 -0.0645 -0.9517 -0.4774
 6936SOL     OW32269   1.866   3.892  14.299 -0.4309  0.4172  0.5131
 6936SOL    HW132270   1.820   3.944  14.365 -2.3859  0.0485 -0.5864
 6936SOL    HW232271   1.946   3.876  14.350  0.9519  2.0859 -1.1107
 6937SOL     OW32272   0.202   3.122  10.544  0.3256  0.0087 -0.9282
 6937SOL    HW132273   0.118   3.079  10.555  0.2350  0.3293 -0.3869
 6937SOL    HW232274   0.183   3.204  10.499 -2.8650 -1.0843 -1.5539
 6938SOL     OW32275   0.100   1.827  13.848 -0.2190  0.5685  0.1381
 6938SOL    HW132276   0.088   1.831  13.942  0.3914 -1.1199  0.2859
 6938SOL    HW232277   0.032   1.764  13.823 -2.3585  2.9598 -0.0506
 6939SOL     OW32278   1.988   0.096   3.123  0.2461  0.3554 -0.5466
 6939SOL    HW132279   1.940   0.036   3.066  0.2530  1.3980 -1.6585
 6939SOL    HW232280   1.915   0.129   3.176 -0.5436 -1.0984 -0.7327
 6940SOL     OW32281   1.245   1.675   8.084 -0.2387 -0.2940 -0.2178
 6940SOL    HW132282   1.188   1.739   8.041 -0.1345 -1.5835 -2.2920
 6940SOL    HW232283   1.209   1.682   8.172 -1.1162 -0.4695 -0.5536
 6941SOL     OW32284   4.650   3.243   2.518  0.1980 -0.0485  0.5034
 6941SOL    HW132285   4.685   3.158   2.492 -0.0242  0.0708 -0.1755
 6941SOL    HW232286   4.563   3.208   2.536  0.1120 -0.7670 -1.3641
 6942SOL     OW32287   3.088   4.057   9.895 -0.2773 -0.0489 -0.0120
 6942SOL    HW132288   3.040   4.139   9.904  2.1079  1.3901 -0.1644
 6942SOL    HW232289   3.150   4.083   9.826 -2.3996  0.5233 -1.6831
 6943SOL     OW32290   1.183   3.017   6.314  0.4387  0.4193 -0.1512
 6943SOL    HW132291   1.262   2.976   6.278  0.3273 -0.0723  0.1673
 6943SOL    HW232292   1.114   3.000   6.250  0.3484 -0.6281  0.2201
 6944SOL     OW32293   2.741   4.691   3.868  0.0035  0.0042 -0.3579
 6944SOL    HW132294   2.702   0.031   3.806 -3.5266 -1.2356  0.6331
 6944SOL    HW232295   2.704   4.611   3.831 -1.0688  1.0689 -1.6191
 6945SOL     OW32296   3.804   3.413   6.168  0.0727 -0.0326  0.1908
 6945SOL    HW132297   3.870   3.475   6.137  2.6144 -2.2294  1.0931
 6945SOL    HW232298   3.852   3.333   6.145  2.3239  1.6989 -1.1279
 6946SOL     OW32299   0.298   1.106  12.053 -0.5291  0.6076 -0.6670
 6946SOL    HW132300   0.369   1.068  12.000  0.8757  0.6651  1.1854
 6946SOL    HW232301   0.250   1.150  11.982 -1.0879  0.5706 -0.3104
 6947SOL     OW32302   1.823   0.781  16.182 -0.4205 -0.0247 -0.5673
 6947SOL    HW132303   1.812   0.873  16.207 -1.6223 -0.4908  0.6552
 6947SOL    HW232304   1.862   0.742  16.261 -2.9690 -1.2316  0.0882
 6948SOL     OW32305   3.998   4.540   4.808  0.7009  0.5243 -0.2921
 6948SOL    HW132306   4.074   4.504   4.854  0.3134  1.5516  1.1521
 6948SOL    HW232307   4.003   4.494   4.724  0.4256  1.3246 -0.7440
 6949SOL     OW32308   0.876   2.348   6.306 -0.1094 -0.4468  0.5510
 6949SOL    HW132309   0.873   2.444   6.306  1.3414 -0.3896  2.2221
 6949SOL    HW232310   0.855   2.337   6.213  0.5236  0.8703  0.2466
 6950SOL     OW32311   1.266   4.654  11.302  0.0549 -0.1079  0.6036
 6950SOL    HW132312   1.324   4.583  11.274 -0.8450 -1.5268  2.3939
 6950SOL    HW232313   1.309   4.687  11.381  0.7309  0.9552 -0.1950
 6951SOL     OW32314   3.691   4.386   5.881  0.0391 -0.2836 -0.4552
 6951SOL    HW132315   3.695   4.309   5.825 -3.3617 -0.5893 -0.3102
 6951SOL    HW232316   3.762   4.364   5.941 -1.5313 -0.9116  1.1551
 6952SOL     OW32317   0.350   0.059   0.298  0.1808  0.1392 -0.3015
 6952SOL    HW132318   0.416   0.106   0.247  2.4944 -1.9899  0.7698
 6952SOL    HW232319   0.365   4.688   0.282  0.4893 -0.1312  1.6491
 6953SOL     OW32320   1.159   2.669   2.397  0.1496 -0.9476  0.3679
 6953SOL    HW132321   1.226   2.697   2.335  1.4315  0.1217  2.2562
 6953SOL    HW232322   1.087   2.636   2.343 -0.4946  0.5045  0.3387
 6954SOL     OW32323   2.078   4.471   5.687  0.2308 -0.0640  0.5012
 6954SOL    HW132324   2.021   4.546   5.668 -1.9557 -1.7900  0.2729
 6954SOL    HW232325   2.085   4.481   5.782  2.2898 -2.3447  0.6005
 6955SOL     OW32326   2.581   4.522  15.521  0.3014  0.0782  0.1532
 6955SOL    HW132327   2.667   4.563  15.535 -0.4092  1.4158  0.5896
 6955SOL    HW232328   2.532   4.588  15.570  0.7705 -0.8699  1.9042
 6956SOL     OW32329   1.116   0.024  17.311  0.0709 -0.5597 -0.5161
 6956SOL    HW132330   1.175   0.050  17.382  0.5226 -2.0980 -0.3361
 6956SOL    HW232331   1.141   0.084  17.241 -0.4032 -0.7736 -0.8687
 6957SOL     OW32332   1.331   1.353   4.266  0.1041 -0.7126 -0.2979
 6957SOL    HW132333   1.243   1.388   4.247 -0.0716 -0.2293  1.3640
 6957SOL    HW232334   1.312   1.321   4.355  1.2700 -0.4072  0.0526
 6958SOL     OW32335   0.202   0.905   5.078 -0.2389  0.9286 -0.2669
 6958SOL    HW132336   0.243   0.819   5.068 -2.1218 -0.2318  1.9794
 6958SOL    HW232337   0.210   0.937   5.168  0.1254 -0.0029  0.0301
 6959SOL     OW32338   4.017   3.429   5.625 -0.4983 -0.3773 -0.3055
 6959SOL    HW132339   3.922   3.435   5.640 -0.2264  3.4103 -0.0014
 6959SOL    HW232340   4.049   3.412   5.714 -1.2053  2.2383  0.4676
 6960SOL     OW32341   2.288   0.275  10.521  0.2334  0.1765 -0.1218
 6960SOL    HW132342   2.244   0.357  10.543 -1.1346 -0.2961 -1.0936
 6960SOL    HW232343   2.374   0.287  10.560  0.7233 -3.0403 -0.2258
 6961SOL     OW32344   0.663   1.005  15.940  0.1530 -0.0652 -0.4741
 6961SOL    HW132345   0.750   1.016  15.978 -0.2885  2.2888 -0.1805
 6961SOL    HW232346   0.657   0.910  15.930 -0.4244  0.1015 -1.6604
 6962SOL     OW32347   4.235   0.742   4.792  0.2860  0.2250  0.5115
 6962SOL    HW132348   4.276   0.721   4.877 -0.0446 -0.8255  0.4019
 6962SOL    HW232349   4.210   0.656   4.760 -1.6254  0.9573  0.0854
 6963SOL     OW32350   1.229   3.184   5.003  0.0549 -0.4819 -0.0407
 6963SOL    HW132351   1.237   3.189   4.908 -0.0076  0.4842  0.0062
 6963SOL    HW232352   1.249   3.275   5.023 -2.0880  0.3133 -1.4566
 6964SOL     OW32353   4.320   1.756   9.677 -0.0149  0.7837  0.1780
 6964SOL    HW132354   4.301   1.842   9.716  0.8186 -0.4045  3.2454
 6964SOL    HW232355   4.318   1.780   9.585  1.2710 -0.1722 -0.0975
 6965SOL     OW32356   2.420   0.734   9.428  0.6426 -0.2181  0.0221
 6965SOL    HW132357   2.401   0.785   9.506  2.2887  1.9054 -0.9660
 6965SOL    HW232358   2.515   0.749   9.428  0.8587 -1.7034  2.6055
 6966SOL     OW32359   0.267   4.602   2.597 -0.5587  0.1500 -0.0135
 6966SOL    HW132360   0.187   4.628   2.643 -0.3356 -0.5160  0.7608
 6966SOL    HW232361   0.229   4.581   2.512  2.9296 -0.5167 -1.3737
 6967SOL     OW32362   1.044   3.719   8.148  0.1997 -0.4248 -0.8303
 6967SOL    HW132363   0.949   3.716   8.163  0.2474  2.1635 -0.0413
 6967SOL    HW232364   1.056   3.624   8.138  0.9112 -0.4359  0.1507
 6968SOL     OW32365   0.026   1.027  16.583 -0.0269 -0.0523 -0.7015
 6968SOL    HW132366   0.079   1.082  16.641  0.5030 -0.0838 -1.1566
 6968SOL    HW232367   4.660   1.061  16.602 -0.2427 -1.9763  1.6291
 6969SOL     OW32368   0.313   2.619  10.214 -0.5924  0.1406  0.3637
 6969SOL    HW132369   0.389   2.672  10.237 -0.0448 -0.1148 -0.9219
 6969SOL    HW232370   0.243   2.684  10.204 -0.1911  0.4962 -0.0943
 6970SOL     OW32371   3.746   2.597  16.305 -0.0881 -0.0039 -0.0343
 6970SOL    HW132372   3.710   2.515  16.338  2.3637 -0.6161  1.0823
 6970SOL    HW232373   3.749   2.597  16.209 -1.2040  1.0030 -0.0738
 6971SOL     OW32374   3.043   0.897   8.499  0.4029  0.6929  0.3107
 6971SOL    HW132375   3.105   0.823   8.500 -0.2431  0.1417 -1.0379
 6971SOL    HW232376   3.004   0.885   8.413  0.4414  1.0884  0.2415
 6972SOL     OW32377   0.043   0.599   8.463  0.7193  0.4642  0.3448
 6972SOL    HW132378   0.073   0.684   8.496 -2.3365  2.4682 -1.9991
 6972SOL    HW232379   0.127   0.563   8.433  1.1397  1.6733  0.0521
 6973SOL     OW32380   3.463   3.404   1.492  0.0932  0.5969 -0.4340
 6973SOL    HW132381   3.444   3.322   1.538  2.8507  1.2879  1.9327
 6973SOL    HW232382   3.466   3.372   1.402  0.5049  0.0150 -0.2108
 6974SOL     OW32383   0.287   2.070   8.795  0.4508 -0.3597 -0.1402
 6974SOL    HW132384   0.315   2.132   8.727  0.7416 -0.2148  0.1101
 6974SOL    HW232385   0.320   2.122   8.868 -0.2102  0.5240 -0.4726
 6975SOL     OW32386   1.716   0.430   7.374 -0.4151  0.5466  0.5635
 6975SOL    HW132387   1.713   0.461   7.284 -1.2172  0.5334  0.5848
 6975SOL    HW232388   1.714   0.501   7.438  0.8051  0.1742  1.0117
 6976SOL     OW32389   2.965   1.873  15.638 -0.2133 -0.2567  0.3090
 6976SOL    HW132390   3.011   1.953  15.614  2.7938 -1.2740  2.6925
 6976SOL    HW232391   2.943   1.842  15.550 -2.6513 -0.3349  0.9454
 6977SOL     OW32392   4.167   1.874  11.483 -0.4029 -0.1862 -0.3774
 6977SOL    HW132393   4.225   1.947  11.505  0.0079 -0.8366  0.6534
 6977SOL    HW232394   4.174   1.810  11.553 -0.5141 -0.1588 -0.3402
 6978SOL     OW32395   4.019   1.064   5.250  0.5089  0.1798 -0.0952
 6978SOL    HW132396   4.018   1.141   5.194  0.5401 -0.2464 -0.6864
 6978SOL    HW232397   3.927   1.040   5.252  0.5799 -0.2479 -2.0663
 6979SOL     OW32398   0.990   0.171   8.620  0.8940 -0.2862 -0.4971
 6979SOL    HW132399   1.016   0.123   8.542  1.0361 -1.9594  0.5816
 6979SOL    HW232400   1.065   0.151   8.676 -0.0134 -1.4263  0.3276
 6980SOL     OW32401   2.824   4.285   0.932 -0.8941  0.2411 -0.6353
 6980SOL    HW132402   2.821   4.231   0.853  0.1308 -0.4120 -0.2340
 6980SOL    HW232403   2.831   4.224   1.005 -0.6725  0.0452 -0.8204
 6981SOL     OW32404   4.641   1.190   5.646 -0.0848 -0.4532  0.3941
 6981SOL    HW132405   4.662   1.203   5.554 -1.4520  0.5391  0.2299
 6981SOL    HW232406   4.677   1.101   5.653 -1.0639 -0.8420  0.4688
 6982SOL     OW32407   3.921   3.035   3.506 -0.0834 -0.5503 -0.0908
 6982SOL    HW132408   3.833   3.044   3.542 -0.3705 -3.4580 -0.0125
 6982SOL    HW232409   3.969   3.070   3.581 -0.5218  0.8021 -0.4542
 6983SOL     OW32410   1.805   0.156   9.203  0.1364  0.0831  0.2348
 6983SOL    HW132411   1.781   0.108   9.124 -1.9082  0.0128  0.8932
 6983SOL    HW232412   1.748   0.232   9.196  0.5711  0.3487 -0.4465
 6984SOL     OW32413   0.280   1.898   5.825  0.3379  0.1530 -0.3049
 6984SOL    HW132414   0.376   1.903   5.821  0.3741  0.8259  1.7501
 6984SOL    HW232415   0.256   1.887   5.917  2.5553 -2.2173 -0.0008
 6985SOL     OW32416   3.933   0.982  10.280 -0.5144 -0.0014 -0.0496
 6985SOL    HW132417   3.953   0.940  10.196  0.2030  0.2309  0.0077
 6985SOL    HW232418   3.883   1.058  10.251 -0.2118  1.7503  3.9829
 6986SOL     OW32419   4.244   3.821   8.314  0.8362  0.4057 -0.0848
 6986SOL    HW132420   4.231   3.881   8.241  0.0019 -0.7109 -0.8435
 6986SOL    HW232421   4.273   3.887   8.377  1.9502 -0.3894  0.2349
 6987SOL     OW32422   1.999   2.077   1.442 -0.2731  0.0703  0.0801
 6987SOL    HW132423   1.906   2.092   1.459 -0.4736 -2.0127  0.8132
 6987SOL    HW232424   2.012   2.144   1.375 -1.4085 -1.6948 -1.9091
 6988SOL     OW32425   2.960   0.687  11.869 -0.1934 -1.1602  0.8018
 6988SOL    HW132426   2.898   0.620  11.895  0.7473 -2.2535  0.1984
 6988SOL    HW232427   2.915   0.767  11.898  0.5859  0.2729 -1.9105
 6989SOL     OW32428   2.201   2.495   2.356 -0.4327  0.7150  0.6121
 6989SOL    HW132429   2.288   2.516   2.321 -0.5666  0.7586  0.3042
 6989SOL    HW232430   2.158   2.580   2.350 -0.9425  0.4413  0.3854
 6990SOL     OW32431   4.016   2.511   7.772 -0.3470  0.3024  0.2621
 6990SOL    HW132432   4.095   2.458   7.773 -0.7415 -0.2128  3.1491
 6990SOL    HW232433   4.055   2.598   7.782  2.5119 -1.1203  1.1712
 6991SOL     OW32434   2.479   0.619   6.436  0.1476  0.7873 -0.0114
 6991SOL    HW132435   2.394   0.580   6.414  1.1699 -1.5047  0.1987
 6991SOL    HW232436   2.513   0.585   6.518 -1.1345  0.3386  0.3329
 6992SOL     OW32437   2.155   4.463   8.844  0.0505 -0.2387 -0.0461
 6992SOL    HW132438   2.224   4.469   8.911  0.1060  1.6250 -0.2801
 6992SOL    HW232439   2.076   4.493   8.890 -1.0265 -0.2696 -1.8691
 6993SOL     OW32440   2.988   0.186  12.181  0.5611  0.1006  0.1057
 6993SOL    HW132441   2.981   0.203  12.088 -0.2593 -1.4321 -0.1159
 6993SOL    HW232442   2.976   0.270  12.225  0.3142 -1.0922  2.3673
 6994SOL     OW32443   3.347   1.019   4.710  0.4788  0.8848  0.5824
 6994SOL    HW132444   3.288   0.969   4.654 -2.4460  3.2143  1.6177
 6994SOL    HW232445   3.358   1.103   4.664  0.3022  1.2464  1.2121
 6995SOL     OW32446   3.986   3.271   0.376  0.4410 -0.4072  0.0350
 6995SOL    HW132447   4.036   3.198   0.338 -0.9063 -0.1056 -2.3638
 6995SOL    HW232448   4.019   3.350   0.334 -1.2030  1.1254  1.6208
 6996SOL     OW32449   1.859   2.138   6.665  0.0236  0.3411 -0.5946
 6996SOL    HW132450   1.880   2.127   6.758 -1.2222 -1.3911 -0.5232
 6996SOL    HW232451   1.841   2.231   6.675 -0.1552  0.0426  1.8403
 6997SOL     OW32452   1.506   3.023   3.522  0.2060  0.1296  0.4663
 6997SOL    HW132453   1.575   2.987   3.466 -0.9476 -1.8041  0.2729
 6997SOL    HW232454   1.542   3.059   3.603  1.3429  1.7648 -0.7496
 6998SOL     OW32455   4.080   3.043   3.296  0.4181  0.2625  0.1022
 6998SOL    HW132456   4.066   3.042   3.390  0.7375  1.0956  0.1636
 6998SOL    HW232457   4.033   3.125   3.279 -1.0818 -0.2082  1.9896
 6999SOL     OW32458   3.781   3.417   4.529 -0.0411 -0.0113  0.2777
 6999SOL    HW132459   3.688   3.419   4.506  0.6062  0.9602 -2.2051
 6999SOL    HW232460   3.778   3.322   4.529  2.1878 -0.0766  1.2013
 7000SOL     OW32461   3.650   0.685  12.284  0.4833 -0.0180  0.3209
 7000SOL    HW132462   3.696   0.636  12.353  2.4449 -1.0755 -1.7509
 7000SOL    HW232463   3.672   0.636  12.205  0.2379  2.3955 -1.2486
 7001SOL     OW32464   4.141   4.131   7.566  0.2950 -0.3396 -0.6721
 7001SOL    HW132465   4.098   4.058   7.611 -1.1889 -0.0900 -1.6660
 7001SOL    HW232466   4.153   4.192   7.638 -1.0427  0.2714 -0.9590
 7002SOL     OW32467   1.833   4.633   2.575 -0.0362  0.2750  0.3094
 7002SOL    HW132468   1.869   4.551   2.609 -0.4091  1.0610  2.6130
 7002SOL    HW232469   1.868   4.699   2.635 -1.8836  1.0986  0.4586
 7003SOL     OW32470   1.022   1.936   7.176 -0.3113  0.0741 -0.4640
 7003SOL    HW132471   1.116   1.955   7.178 -0.6088  1.3213  2.3116
 7003SOL    HW232472   1.004   1.948   7.269  0.4007 -1.4326 -0.1241
 7004SOL     OW32473   3.194   1.797   7.671  0.4792 -0.1242  0.0524
 7004SOL    HW132474   3.126   1.778   7.607 -2.3165  0.7150  2.7436
 7004SOL    HW232475   3.147   1.794   7.755 -0.2655 -0.3910 -0.3748
 7005SOL     OW32476   2.304   0.686   7.141 -0.4539 -0.1209  0.5307
 7005SOL    HW132477   2.351   0.715   7.219 -1.2467 -1.9961  1.7067
 7005SOL    HW232478   2.379   0.674   7.083 -2.2878 -1.6464 -1.5341
 7006SOL     OW32479   0.499   1.784   0.531  0.0121 -0.2949  0.1710
 7006SOL    HW132480   0.432   1.811   0.594  0.8075  0.4571  0.7058
 7006SOL    HW232481   0.579   1.779   0.583 -1.3653  0.2664  2.3370
 7007SOL     OW32482   1.512   3.531   4.076  0.0221  0.0854 -0.4647
 7007SOL    HW132483   1.438   3.478   4.105  0.3589 -0.6666 -0.9830
 7007SOL    HW232484   1.579   3.491   4.132  0.0291 -0.8259 -1.1415
 7008SOL     OW32485   2.454   2.315   9.225  0.1340  0.5153 -0.5111
 7008SOL    HW132486   2.498   2.344   9.305  0.7622  0.0180 -0.6754
 7008SOL    HW232487   2.493   2.374   9.161 -2.1844  0.8580 -1.6129
 7009SOL     OW32488   2.776   0.260   1.665  0.5622  0.0304 -0.5018
 7009SOL    HW132489   2.853   0.315   1.673 -0.1760  0.8331  1.0757
 7009SOL    HW232490   2.793   0.203   1.740 -1.0671 -1.4537 -1.2572
 7010SOL     OW32491   1.826   3.992   5.691  0.3372 -0.2497  0.1046
 7010SOL    HW132492   1.872   4.059   5.742 -1.5604  1.2365 -0.1165
 7010SOL    HW232493   1.774   3.951   5.761  0.0325 -0.1124 -0.0404
 7011SOL     OW32494   4.094   0.816   6.092 -0.2159  0.4849  0.0517
 7011SOL    HW132495   4.038   0.850   6.162 -1.2527 -0.0800 -0.5001
 7011SOL    HW232496   4.171   0.808   6.148 -1.2722  1.5642  1.6487
 7012SOL     OW32497   2.608   4.039   4.140 -0.2637  0.4315  0.0266
 7012SOL    HW132498   2.682   4.092   4.111  0.7441 -1.0863 -0.1852
 7012SOL    HW232499   2.625   3.968   4.078 -0.2565 -1.4387  2.1845
 7013SOL     OW32500   4.078   2.389   2.637  0.3564 -0.1943 -0.2321
 7013SOL    HW132501   4.126   2.442   2.574 -2.2897  0.3087 -1.8466
 7013SOL    HW232502   4.094   2.298   2.613  0.4885 -0.4676  0.8848
 7014SOL     OW32503   0.291   2.283   0.861  0.7951 -0.6616  0.6464
 7014SOL    HW132504   0.274   2.377   0.865  0.9314 -0.5764 -0.7402
 7014SOL    HW232505   0.381   2.281   0.830  0.7619  0.3127  0.4677
 7015SOL     OW32506   2.859   3.918  12.537  0.0940 -0.4654  0.2833
 7015SOL    HW132507   2.765   3.922  12.556 -0.3069  0.0271 -1.8360
 7015SOL    HW232508   2.893   4.006  12.520 -1.9049  0.4303  0.7953
 7016SOL     OW32509   0.647   4.575   4.075  0.2146 -0.2379  0.2814
 7016SOL    HW132510   0.627   4.607   3.987 -2.1532  0.9929  1.2744
 7016SOL    HW232511   0.612   4.648   4.126  0.3346 -1.0231  1.4689
 7017SOL     OW32512   3.871   0.026  17.613  0.5120  0.5208 -0.6043
 7017SOL    HW132513   3.938   0.017  17.681 -0.6703 -2.2800  0.2196
 7017SOL    HW232514   3.840   4.657  17.611  1.5586  0.1543 -0.2684
 7018SOL     OW32515   4.699   3.258  13.960 -0.7270  0.1152 -0.6676
 7018SOL    HW132516   4.675   3.334  14.013  0.3731  0.6078 -0.8787
 7018SOL    HW232517   0.073   3.257  13.968 -0.7897  1.3245  0.4214
 7019SOL     OW32518   0.112   0.702   7.338  0.1863 -0.3515  0.5267
 7019SOL    HW132519   0.089   0.728   7.427 -1.4600 -1.1440  0.3361
 7019SOL    HW232520   0.079   0.776   7.286 -1.0555  0.5697  2.6244
 7020SOL     OW32521   0.736   3.301  16.324  0.1216 -0.0311  0.4733
 7020SOL    HW132522   0.752   3.240  16.251  1.6317  2.3927 -1.2277
 7020SOL    HW232523   0.641   3.301  16.311 -0.0894  1.0209  2.0565
 7021SOL     OW32524   4.068   0.568   2.098  0.1050  0.9693 -0.1932
 7021SOL    HW132525   4.074   0.649   2.047 -0.7363  0.1236 -1.6365
 7021SOL    HW232526   3.996   0.597   2.154  2.0200  0.9833  2.2636
 7022SOL     OW32527   4.431   2.386  12.419 -0.3914  0.2775  0.4584
 7022SOL    HW132528   4.380   2.414  12.343 -2.0147  0.5745  1.6546
 7022SOL    HW232529   4.489   2.318  12.384 -2.6775 -1.3501 -0.1758
 7023SOL     OW32530   3.225   3.306  13.557  0.5074 -0.5301 -0.0512
 7023SOL    HW132531   3.285   3.232  13.557  2.1515  0.7989 -0.3102
 7023SOL    HW232532   3.276   3.373  13.511  0.0751 -0.1612  0.0110
 7024SOL     OW32533   2.394   0.659   3.834  0.3857  0.3106 -0.1362
 7024SOL    HW132534   2.329   0.590   3.830  1.2841 -0.5280 -0.1837
 7024SOL    HW232535   2.414   0.653   3.928  1.0282 -1.0667 -0.3659
 7025SOL     OW32536   3.617   2.164   6.000 -0.0390 -0.0641 -0.0095
 7025SOL    HW132537   3.639   2.151   6.092  0.3108 -0.8006 -0.2007
 7025SOL    HW232538   3.657   2.249   5.984 -0.1012 -0.0683 -0.1864
 7026SOL     OW32539   1.418   2.911   7.178 -0.0289 -0.0177 -0.3087
 7026SOL    HW132540   1.415   2.832   7.231  0.0609  0.3938  0.3066
 7026SOL    HW232541   1.396   2.876   7.091 -1.1350  0.0565 -0.0640
 7027SOL     OW32542   2.616   3.524   0.956  0.2232 -0.0030 -0.8424
 7027SOL    HW132543   2.684   3.457   0.962 -0.8527 -0.9185  0.8475
 7027SOL    HW232544   2.534   3.476   0.953  1.2194 -1.6111 -1.8835
 7028SOL     OW32545   2.072   0.205   4.903  0.0835 -0.1078 -0.1353
 7028SOL    HW132546   2.095   0.112   4.914 -0.2625 -0.0188  1.4133
 7028SOL    HW232547   2.108   0.214   4.815  0.4542 -2.1094 -0.1985
 7029SOL     OW32548   2.056   1.233   3.032  0.4633 -0.0895  0.5079
 7029SOL    HW132549   2.059   1.307   3.092  0.1941  0.6354 -0.3667
 7029SOL    HW232550   2.105   1.273   2.960 -0.6241  1.7411  0.7946
 7030SOL     OW32551   1.998   1.868   8.692  0.8775  0.1233  0.5649
 7030SOL    HW132552   2.065   1.807   8.663 -1.1185 -2.3249  1.0962
 7030SOL    HW232553   1.927   1.847   8.631  1.8284 -0.2232 -0.4183
 7031SOL     OW32554   3.103   1.864   4.117  0.7911 -0.4515  0.2390
 7031SOL    HW132555   3.126   1.830   4.204 -1.9352  1.9978  1.8966
 7031SOL    HW232556   3.152   1.946   4.122  0.4989 -0.1862 -1.4452
 7032SOL     OW32557   4.170   1.537   4.464  0.2650  0.5382  0.6052
 7032SOL    HW132558   4.256   1.495   4.474  1.4670  3.0703  0.8231
 7032SOL    HW232559   4.168   1.564   4.372  2.6799  0.3141  0.4915
 7033SOL     OW32560   0.958   2.622   5.671  0.1163 -0.5248  0.2842
 7033SOL    HW132561   1.018   2.659   5.735  0.4185  3.3215 -2.2013
 7033SOL    HW232562   0.870   2.651   5.695  0.8805  0.7015  1.5697
 7034SOL     OW32563   3.390   1.800  13.519  0.3784 -0.6072 -0.3565
 7034SOL    HW132564   3.346   1.873  13.475 -1.2788 -0.1217  2.0570
 7034SOL    HW232565   3.355   1.805  13.608 -0.6194  3.2499 -0.9589
 7035SOL     OW32566   3.277   3.387   8.336 -0.0146  0.1401 -0.6140
 7035SOL    HW132567   3.357   3.435   8.318 -0.2527  0.3730 -1.0690
 7035SOL    HW232568   3.290   3.307   8.284  1.0167  0.7811 -1.3468
 7036SOL     OW32569   4.720   3.229  15.750 -0.2571 -0.5859 -0.2166
 7036SOL    HW132570   0.060   3.214  15.821 -0.9340 -1.0072  0.2794
 7036SOL    HW232571   4.697   3.138  15.731 -1.0588 -0.7160  1.4311
 7037SOL     OW32572   2.607   4.433   0.945  0.1272 -0.2350 -0.3035
 7037SOL    HW132573   2.697   4.399   0.945 -0.6575 -2.3081  0.9927
 7037SOL    HW232574   2.614   4.493   0.871 -1.7290 -2.2463 -2.0940
 7038SOL     OW32575   2.781   3.254  12.673 -0.0641 -0.0019  0.3108
 7038SOL    HW132576   2.861   3.203  12.661 -1.3815 -2.4160  1.8322
 7038SOL    HW232577   2.828   3.334  12.697  0.6500 -0.8020  1.5899
 7039SOL     OW32578   0.601   2.222   7.308  0.2724  0.2201  0.0256
 7039SOL    HW132579   0.519   2.240   7.261 -0.3376 -1.3116  0.4937
 7039SOL    HW232580   0.574   2.198   7.397  0.8782  0.2136  0.2041
 7040SOL     OW32581   2.633   4.623   9.203  0.3552  0.0926 -0.0248
 7040SOL    HW132582   2.567   4.673   9.252  0.0066  1.9084 -2.3649
 7040SOL    HW232583   2.651   4.690   9.137  1.2931  0.3360  0.4639
 7041SOL     OW32584   2.640   0.574  13.257 -1.0995 -0.2534  0.0043
 7041SOL    HW132585   2.611   0.666  13.260 -3.1183 -0.8617 -0.7922
 7041SOL    HW232586   2.643   0.546  13.348 -0.1350  1.4532  0.5133
 7042SOL     OW32587   2.760   1.387   5.206 -0.0346  0.1454 -0.1402
 7042SOL    HW132588   2.761   1.336   5.287  0.9926 -2.7083 -1.9491
 7042SOL    HW232589   2.681   1.347   5.171 -0.2380  0.0714  0.4070
 7043SOL     OW32590   4.224   4.246   4.728  0.1929  0.5295 -1.0022
 7043SOL    HW132591   4.148   4.198   4.761  1.7469  1.2486  3.6953
 7043SOL    HW232592   4.265   4.177   4.676 -0.3683  0.2823 -1.1136
 7044SOL     OW32593   0.089   1.528  15.755  0.8661  0.3006  0.6980
 7044SOL    HW132594   0.145   1.453  15.776  0.6430  0.1415  0.7231
 7044SOL    HW232595   0.089   1.582  15.834 -3.8623  1.6493 -0.2145
 7045SOL     OW32596   2.145   0.861  13.025  0.2430  0.0652 -0.4026
 7045SOL    HW132597   2.066   0.808  13.012  0.8871 -1.3207  1.4234
 7045SOL    HW232598   2.112   0.930  13.083  1.1546  1.3444 -1.3954
 7046SOL     OW32599   1.675   0.262   5.606 -0.2264  0.2542 -0.0193
 7046SOL    HW132600   1.612   0.215   5.661  0.9398 -0.9106  0.3119
 7046SOL    HW232601   1.685   0.206   5.529 -3.4632  1.1379 -1.1347
 7047SOL     OW32602   2.982   0.573   7.317 -0.1547 -0.0391 -0.3196
 7047SOL    HW132603   2.935   0.505   7.270  1.1470 -1.5480  0.5690
 7047SOL    HW232604   3.065   0.525   7.320  0.7897  1.5791 -0.3923
 7048SOL     OW32605   2.956   0.256   0.188 -0.4573 -0.4846  0.1704
 7048SOL    HW132606   3.045   0.275   0.220 -0.0438 -0.4517 -1.0266
 7048SOL    HW232607   2.918   0.233   0.273 -0.7929 -0.6252 -0.0187
 7049SOL     OW32608   4.487   0.314   2.884  0.1920 -0.0361 -0.0151
 7049SOL    HW132609   4.401   0.274   2.875  0.7011 -0.7807 -1.5442
 7049SOL    HW232610   4.533   0.269   2.814 -2.7798 -0.5170 -1.6613
 7050SOL     OW32611   3.752   4.643   7.553  0.0353 -0.1206  0.5650
 7050SOL    HW132612   3.784   4.555   7.536  1.0752  0.6075 -1.1619
 7050SOL    HW232613   3.781   4.650   7.644  1.2562  0.5868  0.1203
 7051SOL     OW32614   1.998   4.544  16.100 -0.5938 -0.2198  0.1885
 7051SOL    HW132615   1.962   4.507  16.019 -0.4985  0.1775 -0.0398
 7051SOL    HW232616   1.957   4.631  16.098  1.0761  0.5962  1.7199
 7052SOL     OW32617   4.648   2.017   8.977  0.1879  0.5235 -0.3536
 7052SOL    HW132618   0.019   2.017   9.003  0.3469 -0.5838 -0.9273
 7052SOL    HW232619   4.641   1.921   8.974  0.0802  0.4269  2.2437
 7053SOL     OW32620   2.577   3.324   6.315 -0.5802 -0.2936  0.1053
 7053SOL    HW132621   2.540   3.411   6.300  0.1237 -0.1384 -0.7011
 7053SOL    HW232622   2.622   3.337   6.399  0.2497 -1.1647 -0.2133
 7054SOL     OW32623   3.409   3.234   6.029  0.5429  0.4101 -0.4476
 7054SOL    HW132624   3.478   3.287   5.989  1.5742  0.5868  1.5685
 7054SOL    HW232625   3.463   3.195   6.098 -1.8954 -0.7605  0.8214
 7055SOL     OW32626   0.863   3.770   1.966 -0.4173  0.5759  0.3902
 7055SOL    HW132627   0.794   3.836   1.974 -0.8095  0.3677 -1.3071
 7055SOL    HW232628   0.877   3.757   2.060 -1.5662 -0.2602  0.4440
 7056SOL     OW32629   1.985   2.377   4.981 -0.3432  0.1842  0.2300
 7056SOL    HW132630   1.961   2.466   5.007 -0.3038  0.6418 -1.3049
 7056SOL    HW232631   1.921   2.364   4.910  0.1179 -1.7560  0.1560
 7057SOL     OW32632   2.018   2.265   5.844 -0.0817  0.4349  0.4606
 7057SOL    HW132633   1.942   2.266   5.785 -0.4021 -0.6951  0.8635
 7057SOL    HW232634   2.025   2.361   5.842  0.9991  0.3825  1.8643
 7058SOL     OW32635   1.387   3.646   9.100 -0.4890 -0.2637 -0.3155
 7058SOL    HW132636   1.373   3.567   9.049 -0.7563 -0.4441  0.0440
 7058SOL    HW232637   1.372   3.596   9.180 -2.6876 -1.7998 -1.7133
 7059SOL     OW32638   2.887   1.175   7.822 -0.3109  0.4997  0.0767
 7059SOL    HW132639   2.937   1.101   7.787  0.3295  1.0225 -0.1061
 7059SOL    HW232640   2.951   1.219   7.877  0.4694  0.5072 -0.8358
 7060SOL     OW32641   2.694   2.214  11.004  0.2064  0.5140 -0.4552
 7060SOL    HW132642   2.698   2.132  10.954 -1.9663 -1.1933  2.1679
 7060SOL    HW232643   2.713   2.183  11.093 -0.1170 -1.2161 -1.0001
 7061SOL     OW32644   0.751   1.353   3.407 -0.2649  0.1235 -0.0355
 7061SOL    HW132645   0.828   1.321   3.454  0.2014  0.5362 -0.5199
 7061SOL    HW232646   0.727   1.425   3.464  1.3015 -0.1970  1.0235
 7062SOL     OW32647   1.785   1.142  11.228 -0.1728  0.5319  0.3546
 7062SOL    HW132648   1.741   1.184  11.154 -0.2366 -0.6380 -0.2803
 7062SOL    HW232649   1.757   1.207  11.292  1.3888 -0.2023  1.7928
 7063SOL     OW32650   4.414   0.760   9.296 -0.0754  0.3439 -0.0354
 7063SOL    HW132651   4.442   0.788   9.383 -2.2327 -0.7028  1.0023
 7063SOL    HW232652   4.441   0.825   9.231 -0.6728  1.0217  0.4044
 7064SOL     OW32653   1.615   2.300   4.371  0.4124 -0.4036  0.0826
 7064SOL    HW132654   1.676   2.370   4.393 -1.8509  0.9234  2.1297
 7064SOL    HW232655   1.670   2.236   4.325 -1.9414 -1.7052 -0.9081
 7065SOL     OW32656   4.228   2.981   7.928 -0.0859 -0.0736  0.5457
 7065SOL    HW132657   4.314   2.940   7.916  0.8051  2.0641 -0.4894
 7065SOL    HW232658   4.241   3.061   7.877 -0.2750 -0.1797  0.3332
 7066SOL     OW32659   3.069   1.759   7.290  0.1909 -0.4079 -0.0942
 7066SOL    HW132660   2.985   1.731   7.251 -0.1416  0.5328 -0.0539
 7066SOL    HW232661   3.043   1.749   7.381  2.1028  1.0276  0.5913
 7067SOL     OW32662   4.634   1.954   1.892  0.0773  0.7096 -0.0250
 7067SOL    HW132663   4.555   1.959   1.838 -0.7222 -0.2803  1.0667
 7067SOL    HW232664   4.609   1.881   1.949  0.9549  0.7723  0.4336
 7068SOL     OW32665   1.274   2.185   5.314  0.8210  0.4711  0.5112
 7068SOL    HW132666   1.210   2.228   5.257  1.7095  1.2065  0.0621
 7068SOL    HW232667   1.290   2.249   5.383  1.1098 -0.1790  1.0380
 7069SOL     OW32668   2.569   2.217   7.210 -0.1139 -0.1721 -0.0324
 7069SOL    HW132669   2.504   2.208   7.140  0.8540  2.4118 -1.2360
 7069SOL    HW232670   2.545   2.138   7.260  2.2205 -0.5267  0.5066
 7070SOL     OW32671   3.802   3.313  11.189 -0.4240 -0.0182  0.4301
 7070SOL    HW132672   3.753   3.234  11.211  1.0339 -1.1593 -0.4233
 7070SOL    HW232673   3.894   3.286  11.187 -0.3928  0.0639  0.7854
 7071SOL     OW32674   1.988   2.962   6.798 -0.8916 -0.3370 -0.0279
 7071SOL    HW132675   2.071   2.999   6.768 -1.6844  0.3629 -1.3759
 7071SOL    HW232676   1.972   3.016   6.875  0.7540 -0.7121  0.5682
 7072SOL     OW32677   0.245   0.586   4.800 -0.1713 -0.0764 -0.3512
 7072SOL    HW132678   0.169   0.533   4.777 -0.7005  0.1762  0.7905
 7072SOL    HW232679   0.244   0.642   4.723  0.2016  0.3329 -0.0632
 7073SOL     OW32680   4.432   0.720   8.216 -0.8188 -0.2748 -0.0292
 7073SOL    HW132681   4.390   0.787   8.271  0.0995 -0.5678  1.0169
 7073SOL    HW232682   4.518   0.760   8.229  0.8939 -2.9682 -3.3399
 7074SOL     OW32683   2.206   4.607   3.948  0.3886 -0.0383 -0.0519
 7074SOL    HW132684   2.287   4.638   3.909 -0.6599 -0.6396 -2.6819
 7074SOL    HW232685   2.224   4.513   3.955  0.7352  0.1431  1.4439
 7075SOL     OW32686   3.024   2.508   8.237 -0.6508 -0.5918  0.0505
 7075SOL    HW132687   3.092   2.532   8.174  1.2807  0.3252  2.4502
 7075SOL    HW232688   2.989   2.597   8.248  1.5543  0.3871 -0.8590
 7076SOL     OW32689   3.042   1.400  12.622  0.2311 -0.1935  0.3488
 7076SOL    HW132690   3.061   1.474  12.678 -0.4798 -1.0736  1.7415
 7076SOL    HW232691   3.048   1.440  12.535  2.0823 -0.7435  0.2332
 7077SOL     OW32692   2.317   3.491   8.895 -0.2981  0.5044  0.2218
 7077SOL    HW132693   2.298   3.570   8.845  1.2311 -1.1835 -3.0474
 7077SOL    HW232694   2.237   3.468   8.941  0.0946 -1.8594 -0.2712
 7078SOL     OW32695   2.425   4.127   0.228  0.3021 -0.3480 -0.5679
 7078SOL    HW132696   2.455   4.076   0.304 -0.1220  1.4656  0.8269
 7078SOL    HW232697   2.357   4.173   0.278  1.3519  0.6819 -0.0860
 7079SOL     OW32698   4.603   0.999  13.120  0.4277  0.3351  0.2940
 7079SOL    HW132699   4.679   1.027  13.172 -0.5234  0.7052  1.4997
 7079SOL    HW232700   4.650   0.946  13.056 -0.6847  0.2218 -0.4157
 7080SOL     OW32701   2.109   3.526   4.236  0.4760 -0.2896 -0.6961
 7080SOL    HW132702   2.024   3.489   4.212 -0.0659  1.0086 -0.7706
 7080SOL    HW232703   2.150   3.445   4.267  0.0450 -0.2613 -0.0425
 7081SOL     OW32704   4.598   3.457   9.061 -0.9341  0.3434 -0.3118
 7081SOL    HW132705   4.516   3.409   9.048 -1.6392  0.4144  3.8195
 7081SOL    HW232706   4.556   3.543   9.065 -0.9667  0.3522 -0.7814
 7082SOL     OW32707   2.821   3.847   8.596 -0.1889 -0.0477 -0.3398
 7082SOL    HW132708   2.744   3.792   8.612 -0.3298  0.8460  2.0786
 7082SOL    HW232709   2.796   3.872   8.507 -0.6086 -0.4371 -0.3317
 7083SOL     OW32710   1.305   4.159  13.757  0.0857 -0.1899 -0.0562
 7083SOL    HW132711   1.220   4.169  13.801 -0.2039 -1.6224 -0.2877
 7083SOL    HW232712   1.308   4.064  13.746 -0.9561  0.0312 -2.2820
 7084SOL     OW32713   0.041   2.451  12.176  0.4763 -0.5272  0.2469
 7084SOL    HW132714   4.682   2.500  12.156 -0.8023 -3.0316 -0.7957
 7084SOL    HW232715   0.105   2.522  12.175  0.1257 -0.2119  0.1212
 7085SOL     OW32716   0.243   2.184  12.132 -0.0285  0.0929 -0.1036
 7085SOL    HW132717   0.159   2.153  12.099  0.3617 -1.2838  0.2046
 7085SOL    HW232718   0.243   2.279  12.117  0.0924  0.2498  0.9553
 7086SOL     OW32719   0.060   0.541  15.587 -0.6256 -0.7930 -0.4923
 7086SOL    HW132720   0.039   0.623  15.543 -0.4916 -0.8197 -0.6040
 7086SOL    HW232721   4.722   0.546  15.662 -1.2179  0.4228 -1.0345
 7087SOL     OW32722   2.243   4.534  11.971 -0.0352 -0.1693  0.2282
 7087SOL    HW132723   2.327   4.520  12.014  1.0189 -0.5183 -1.9750
 7087SOL    HW232724   2.219   4.625  11.991  0.1883 -0.4883  1.9463
 7088SOL     OW32725   0.181   3.436   7.415 -0.1639 -0.0707  0.0214
 7088SOL    HW132726   0.097   3.481   7.423 -1.2366 -1.6395 -2.4749
 7088SOL    HW232727   0.168   3.391   7.332  1.6611  1.1305 -0.9157
 7089SOL     OW32728   1.834   2.627   7.790  0.9584 -0.0731 -0.4628
 7089SOL    HW132729   1.853   2.626   7.883  2.4263  0.5557 -0.7728
 7089SOL    HW232730   1.805   2.717   7.778  0.9204  0.0549  0.5883
 7090SOL     OW32731   2.996   0.061   6.434  0.3116 -0.0310  0.0254
 7090SOL    HW132732   3.058   0.048   6.362 -0.3688 -0.7974 -0.4284
 7090SOL    HW232733   3.060   0.036   6.500 -0.8245  0.4027  1.2859
 7091SOL     OW32734   1.492   2.974   7.721  0.2682 -0.5733 -0.3769
 7091SOL    HW132735   1.417   2.920   7.696 -0.9842  0.5675  0.8937
 7091SOL    HW232736   1.495   2.951   7.814 -2.4682  0.8525  0.0736
 7092SOL     OW32737   1.999   1.711   7.498 -0.1118 -0.5591  0.3958
 7092SOL    HW132738   2.030   1.742   7.413  2.1196 -3.1568  0.2672
 7092SOL    HW232739   1.930   1.775   7.516  0.2597 -0.0137 -0.1303
 7093SOL     OW32740   2.076   1.153   3.970 -0.5024 -0.4508 -0.0133
 7093SOL    HW132741   1.985   1.136   3.995 -0.7180  0.3739 -0.2634
 7093SOL    HW232742   2.076   1.133   3.877 -0.9133  0.0829 -0.1243
 7094SOL     OW32743   4.472   2.501   9.339  0.2192 -0.1539 -0.9026
 7094SOL    HW132744   4.446   2.593   9.345 -0.0693 -0.5144  3.2341
 7094SOL    HW232745   4.431   2.472   9.257  0.9438 -1.8376 -0.6799
 7095SOL     OW32746   4.641   3.745   1.246 -0.3144 -0.5934 -0.7378
 7095SOL    HW132747   4.630   3.743   1.341 -0.6982 -0.6263 -0.7827
 7095SOL    HW232748   4.594   3.826   1.223 -1.9342 -1.1582  0.5947
 7096SOL     OW32749   3.021   3.036   2.752 -0.0416  0.2914  0.7198
 7096SOL    HW132750   3.085   3.061   2.819  1.5492 -0.1429 -0.6452
 7096SOL    HW232751   2.937   3.039   2.798 -0.5364  2.0075 -0.2973
 7097SOL     OW32752   4.369   2.220  13.218 -0.2786  0.2870 -0.3008
 7097SOL    HW132753   4.307   2.159  13.179  0.0842  0.8759 -1.7728
 7097SOL    HW232754   4.363   2.195  13.310 -0.2873 -0.4680 -0.5062
 7098SOL     OW32755   4.191   1.621  11.599 -0.0382 -0.0902  0.0127
 7098SOL    HW132756   4.167   1.539  11.643  1.3966 -1.2272 -1.3107
 7098SOL    HW232757   4.284   1.604  11.585  0.0327  1.1754 -1.0907
 7099SOL     OW32758   3.628   1.373   5.561 -0.0542  0.1458 -0.0487
 7099SOL    HW132759   3.676   1.345   5.638 -0.6060  0.7399  0.5098
 7099SOL    HW232760   3.614   1.465   5.582 -2.0181 -0.5260  1.5846
 7100SOL     OW32761   0.977   3.610   4.742  0.1901 -0.0139  0.6712
 7100SOL    HW132762   1.037   3.678   4.774 -1.1532  1.0386  0.9257
 7100SOL    HW232763   0.914   3.598   4.813  0.3661  0.7426  0.9602
 7101SOL     OW32764   2.195   4.333   5.321  0.4333  0.2962  0.3603
 7101SOL    HW132765   2.188   4.244   5.356  2.1511 -0.4530 -1.1674
 7101SOL    HW232766   2.197   4.387   5.400  2.3733 -1.4176  1.4792
 7102SOL     OW32767   2.408   3.993  13.407 -0.2020 -0.3400 -0.3692
 7102SOL    HW132768   2.315   4.015  13.405  0.2725  1.5328 -0.8906
 7102SOL    HW232769   2.395   3.902  13.434  1.4628 -0.2306  0.8215
 7103SOL     OW32770   4.210   2.722   7.770 -0.2840 -0.0693  0.0654
 7103SOL    HW132771   4.262   2.792   7.730 -0.0539  0.9177  2.0751
 7103SOL    HW232772   4.274   2.683   7.830  0.0179  0.7101  0.2480
 7104SOL     OW32773   2.031   3.277   4.850 -0.3444 -0.3555 -0.3986
 7104SOL    HW132774   1.936   3.290   4.852  0.0932  3.1205 -2.1941
 7104SOL    HW232775   2.052   3.305   4.939  1.3001  2.6276 -1.7371
 7105SOL     OW32776   3.942   4.255   5.631 -0.5512 -0.4786 -0.4190
 7105SOL    HW132777   3.923   4.242   5.538  1.8798 -1.4681 -0.7840
 7105SOL    HW232778   3.939   4.350   5.639 -1.7335 -0.5883  0.6645
 7106SOL     OW32779   1.443   1.980   2.478 -0.3063 -0.4829  0.0249
 7106SOL    HW132780   1.439   2.006   2.570  0.7541 -1.2775  0.2892
 7106SOL    HW232781   1.536   1.988   2.458 -0.5676  1.0960 -0.6074
 7107SOL     OW32782   3.082   4.207   8.620 -0.2449  0.3477 -0.0634
 7107SOL    HW132783   3.055   4.279   8.563 -0.7532 -0.4313 -0.8179
 7107SOL    HW232784   3.074   4.133   8.560 -2.2587  1.1427 -0.7728
 7108SOL     OW32785   2.957   3.355   7.985  0.1524  0.5931 -0.0804
 7108SOL    HW132786   2.965   3.400   7.901  0.3464  2.1857  0.8014
 7108SOL    HW232787   2.922   3.272   7.951  1.2663  0.1216 -0.0735
 7109SOL     OW32788   0.285   1.725  13.087  0.0340 -0.1154  0.1173
 7109SOL    HW132789   0.352   1.658  13.071  0.2392  0.6323 -2.0565
 7109SOL    HW232790   0.255   1.746  12.999 -0.4617  0.1391  0.3478
 7110SOL     OW32791   2.107   0.793   1.157  0.3660 -0.3001  0.7287
 7110SOL    HW132792   2.115   0.730   1.228  1.2469 -0.5478  0.4105
 7110SOL    HW232793   2.190   0.771   1.115  0.1386  0.8894 -0.3377
 7111SOL     OW32794   0.805   0.528  16.124  0.8023 -0.5068 -0.1258
 7111SOL    HW132795   0.875   0.472  16.089  0.8631 -0.5946  0.1429
 7111SOL    HW232796   0.770   0.478  16.197  2.3672 -0.0012  0.9615
 7112SOL     OW32797   3.066   0.154   4.470  0.6114  0.8371 -0.4471
 7112SOL    HW132798   3.144   0.142   4.417  2.7188  0.2897  2.7852
 7112SOL    HW232799   3.025   0.209   4.402  1.0903  0.8166 -0.7492
 7113SOL     OW32800   4.664   0.838   2.463  0.1879  0.5389  0.3205
 7113SOL    HW132801   4.657   0.756   2.513 -3.5979  0.7974  0.2190
 7113SOL    HW232802   0.016   0.881   2.505  1.1821 -2.5760  1.8107
 7114SOL     OW32803   0.500   4.345   1.329  0.0941 -0.1175  0.3595
 7114SOL    HW132804   0.437   4.306   1.268  0.7483  0.9255 -0.9914
 7114SOL    HW232805   0.506   4.279   1.398 -0.1984  0.1467  0.6345
 7115SOL     OW32806   2.763   4.470   8.782 -0.2632 -0.0624 -0.2916
 7115SOL    HW132807   2.708   4.545   8.804  0.0203 -0.9864  3.5392
 7115SOL    HW232808   2.848   4.499   8.816 -0.9187  0.9345  0.4776
 7116SOL     OW32809   2.339   3.940   3.957 -0.0024  0.0037  0.1494
 7116SOL    HW132810   2.351   3.998   4.032  1.3957 -0.6523  0.4267
 7116SOL    HW232811   2.255   3.969   3.921 -0.1941 -1.1033 -0.2940
 7117SOL     OW32812   3.153   2.705   1.941 -0.0141  0.1486 -0.0336
 7117SOL    HW132813   3.118   2.789   1.911  2.0663  0.8048 -0.6418
 7117SOL    HW232814   3.245   2.729   1.954  0.0338 -1.5843  2.8364
 7118SOL     OW32815   2.889   3.564   0.361 -0.4129 -0.3839 -0.7938
 7118SOL    HW132816   2.820   3.631   0.365 -2.2710 -2.4505  1.6610
 7118SOL    HW232817   2.965   3.607   0.321  0.3863  0.3404  1.4631
 7119SOL     OW32818   0.818   3.350   4.213  0.1421  0.4983  0.4778
 7119SOL    HW132819   0.854   3.330   4.127  1.1323  0.5503  0.8730
 7119SOL    HW232820   0.787   3.269   4.255 -0.1716  0.6204  0.4827
 7120SOL     OW32821   2.619   1.772   3.156 -0.4909  0.1405  0.2484
 7120SOL    HW132822   2.627   1.679   3.137 -4.2293  0.1034 -1.0078
 7120SOL    HW232823   2.709   1.805   3.144 -0.3814 -1.2392 -2.5727
 7121SOL     OW32824   4.712   2.130  14.411  0.7349  0.1246  0.1493
 7121SOL    HW132825   0.007   2.082  14.492  1.3368  3.4556  1.9970
 7121SOL    HW232826   0.067   2.181  14.385  1.1643 -1.1093 -1.0595
 7122SOL     OW32827   4.657   0.568   3.939  0.6122 -0.3339  0.8487
 7122SOL    HW132828   4.614   0.612   3.865 -0.5872 -1.1872  1.0444
 7122SOL    HW232829   0.025   0.573   3.905 -0.2346  0.7290 -1.2212
 7123SOL     OW32830   4.536   1.527   3.434  0.3138 -0.6508 -0.0519
 7123SOL    HW132831   4.568   1.503   3.521 -1.5252 -0.7565  0.5955
 7123SOL    HW232832   4.613   1.574   3.401  0.9874 -0.3904  1.8943
 7124SOL     OW32833   1.811   3.471   2.699  0.2584  0.0310 -0.4015
 7124SOL    HW132834   1.851   3.396   2.655  2.5068  0.1410  1.4145
 7124SOL    HW232835   1.766   3.422   2.769  0.7515  0.4501  0.2146
 7125SOL     OW32836   4.221   3.713   4.647  0.3034  0.2604  0.0379
 7125SOL    HW132837   4.200   3.693   4.738 -2.4098 -0.7663 -0.8293
 7125SOL    HW232838   4.278   3.642   4.617 -0.4989  0.8602 -2.8800
 7126SOL     OW32839   3.856   1.672   3.183  0.3828 -0.0240  0.3145
 7126SOL    HW132840   3.788   1.651   3.247 -0.4178 -0.2266 -0.6089
 7126SOL    HW232841   3.919   1.604   3.206 -1.1289 -1.7735 -0.7819
 7127SOL     OW32842   4.403   3.103   2.539  0.3818 -0.0843 -0.4269
 7127SOL    HW132843   4.316   3.099   2.576  0.2006  2.5091 -0.5394
 7127SOL    HW232844   4.436   3.013   2.538 -0.1457 -0.2712 -1.0777
 7128SOL     OW32845   2.445   0.150  11.413 -0.4256 -0.5241  0.2389
 7128SOL    HW132846   2.376   0.085  11.430 -0.3931 -0.6218 -0.0016
 7128SOL    HW232847   2.431   0.208  11.488 -0.8746  0.6606 -0.7591
 7129SOL     OW32848   1.070   3.969   4.219  0.0050  0.3766  0.2877
 7129SOL    HW132849   1.009   4.023   4.169  0.5034  1.2546  0.6391
 7129SOL    HW232850   1.139   4.025   4.253  1.6831 -1.3942 -0.1972
 7130SOL     OW32851   3.357   0.581   9.678  0.3262  0.0094  0.6200
 7130SOL    HW132852   3.419   0.586   9.751 -0.1901 -0.1021  1.0667
 7130SOL    HW232853   3.415   0.547   9.610 -0.2005  0.0728  0.1322
 7131SOL     OW32854   3.809   1.687   8.973 -0.6109  0.0318  0.1875
 7131SOL    HW132855   3.759   1.610   8.947 -1.6959  0.4885  0.9198
 7131SOL    HW232856   3.790   1.695   9.066 -1.5713 -0.1587  0.0014
 7132SOL     OW32857   1.560   2.789   9.753  0.2745  0.3578 -0.5186
 7132SOL    HW132858   1.616   2.747   9.688  0.7717  0.0469  0.1087
 7132SOL    HW232859   1.478   2.801   9.705 -0.1622 -2.2247 -0.4510
 7133SOL     OW32860   1.990   3.152   2.186 -0.7946 -0.1402 -0.6303
 7133SOL    HW132861   2.015   3.124   2.274 -0.4211  0.3777 -0.5652
 7133SOL    HW232862   2.051   3.100   2.135 -0.9433  1.6172 -2.6036
 7134SOL     OW32863   3.068   2.932   3.546  0.0059  0.0318 -0.1311
 7134SOL    HW132864   3.062   3.023   3.517 -2.1479  0.1417  0.6354
 7134SOL    HW232865   3.021   2.885   3.476 -0.3593  1.1864 -0.6593
 7135SOL     OW32866   0.077   0.322   0.285  0.4782  0.2053 -0.4953
 7135SOL    HW132867   4.722   0.377   0.294  0.6339  0.1751  1.0153
 7135SOL    HW232868   0.133   0.384   0.238  1.6207  0.0230  0.6047
 7136SOL     OW32869   1.528   1.901   8.727 -0.5051  0.3280  0.3878
 7136SOL    HW132870   1.607   1.909   8.780  0.5033 -0.2170 -1.0314
 7136SOL    HW232871   1.471   1.954   8.782  0.0090  0.1396  1.1030
 7137SOL     OW32872   4.238   0.833   7.298  0.1109 -0.2374 -0.4826
 7137SOL    HW132873   4.281   0.833   7.383 -3.0392 -0.4284  1.1407
 7137SOL    HW232874   4.261   0.913   7.251  1.1766 -1.7102 -2.4894
 7138SOL     OW32875   1.387   3.321  13.493 -0.5063  0.4390 -0.0742
 7138SOL    HW132876   1.454   3.262  13.457  1.4031  0.2880  3.8001
 7138SOL    HW232877   1.345   3.352  13.413 -0.8262 -0.4642 -0.2606
 7139SOL     OW32878   4.599   3.947  11.324  0.2909  0.1071 -0.3447
 7139SOL    HW132879   4.674   3.891  11.306  0.2908 -0.1243  0.4019
 7139SOL    HW232880   4.600   3.933  11.418 -0.3477 -1.2711 -0.5471
 7140SOL     OW32881   1.665   1.094   9.792  0.0415  0.0467 -0.4384
 7140SOL    HW132882   1.729   1.023   9.796 -1.5132 -1.3508 -0.3708
 7140SOL    HW232883   1.645   1.096   9.885 -0.1844  2.0410 -0.5341
 7141SOL     OW32884   0.655   3.557   7.724  0.1941 -0.5572 -0.2599
 7141SOL    HW132885   0.575   3.610   7.728  0.6352 -0.0001  1.1617
 7141SOL    HW232886   0.720   3.626   7.728  1.1929 -1.5136 -0.0851
 7142SOL     OW32887   3.211   1.605   8.287 -0.2179  0.0843  0.1408
 7142SOL    HW132888   3.123   1.645   8.292 -1.3494 -2.6577  1.9266
 7142SOL    HW232889   3.254   1.658   8.354 -1.0189 -0.3875  1.0315
 7143SOL     OW32890   4.026   0.190   5.858  0.1628 -0.3838 -0.1581
 7143SOL    HW132891   4.057   0.220   5.943  1.0341  0.3566 -0.7389
 7143SOL    HW232892   3.933   0.210   5.857  0.1642 -0.4216 -2.3955
 7144SOL     OW32893   2.376   1.021  16.677  0.3110 -0.0292  0.4198
 7144SOL    HW132894   2.389   0.936  16.634 -0.3366  0.3316 -0.5025
 7144SOL    HW232895   2.414   1.079  16.611  1.4416  1.6610  2.5602
 7145SOL     OW32896   1.713   1.113  14.019  0.8837  0.2897 -0.3114
 7145SOL    HW132897   1.766   1.081  14.093 -1.0883  1.9261  1.8213
 7145SOL    HW232898   1.691   1.204  14.040  1.3679  0.4796 -0.6123
 7146SOL     OW32899   0.451   0.629   7.701  0.2520 -0.4404  0.2682
 7146SOL    HW132900   0.425   0.541   7.672 -1.0230 -0.2127  0.7236
 7146SOL    HW232901   0.542   0.620   7.728 -0.8804 -3.5797  2.9756
 7147SOL     OW32902   0.053   1.385  14.920 -0.0537 -0.6349  0.4764
 7147SOL    HW132903   0.135   1.372  14.966 -0.8594 -0.6225  1.9065
 7147SOL    HW232904   0.010   1.311  14.962  0.2428 -1.5264 -0.7980
 7148SOL     OW32905   1.480   2.329  12.333  0.1568  0.4280 -0.3437
 7148SOL    HW132906   1.446   2.406  12.288  1.1699  0.5318 -0.9410
 7148SOL    HW232907   1.405   2.271  12.317  2.0546 -2.0655 -0.3618
 7149SOL     OW32908   2.792   2.491   7.701  0.2858  0.1969  0.7031
 7149SOL    HW132909   2.813   2.563   7.641 -0.1005  1.4006  2.0115
 7149SOL    HW232910   2.880   2.455   7.716  0.0338 -1.3205 -1.5143
 7150SOL     OW32911   4.227   2.299   8.333  0.9156 -0.1937 -0.2813
 7150SOL    HW132912   4.208   2.336   8.246  0.4636  1.9246  0.7301
 7150SOL    HW232913   4.319   2.275   8.330  1.1333  0.3469  2.2072
 7151SOL     OW32914   4.027   0.825   3.541  0.5914 -0.0686 -0.1605
 7151SOL    HW132915   3.971   0.757   3.577  1.1579 -1.4652 -1.8869
 7151SOL    HW232916   3.996   0.832   3.450 -2.2135  0.3518  0.8320
 7152SOL     OW32917   3.411   1.674   0.907 -0.0067 -0.1728  0.4962
 7152SOL    HW132918   3.409   1.661   1.002 -0.4629  0.3195  0.5540
 7152SOL    HW232919   3.486   1.623   0.877  0.7909 -0.4578  2.9634
 7153SOL     OW32920   2.291   0.640   7.882  0.4599  0.2372 -0.0447
 7153SOL    HW132921   2.292   0.545   7.896  0.8629  0.3160  0.4709
 7153SOL    HW232922   2.360   0.669   7.942 -0.1204 -3.5628  2.4763
 7154SOL     OW32923   3.586   1.140   0.262  0.4250 -0.6208 -0.4952
 7154SOL    HW132924   3.673   1.119   0.229  0.6420 -0.6423  0.0989
 7154SOL    HW232925   3.613   1.193   0.336 -0.2812 -0.5300 -0.3019
 7155SOL     OW32926   1.490   3.981   2.212  0.3534 -0.2883 -0.4282
 7155SOL    HW132927   1.416   3.928   2.184 -0.3935  0.7467 -0.4240
 7155SOL    HW232928   1.466   4.017   2.298 -0.3428 -0.4068 -0.5725
 7156SOL     OW32929   4.604   2.059  16.591 -0.2311 -0.1900 -0.3763
 7156SOL    HW132930   4.690   2.101  16.580 -0.9766  1.7096  1.1057
 7156SOL    HW232931   4.547   2.108  16.532  1.5313  1.4062 -0.7380
 7157SOL     OW32932   3.169   3.162   2.939 -0.3384  0.8262  0.4875
 7157SOL    HW132933   3.262   3.175   2.921 -0.0101 -1.1566  0.6833
 7157SOL    HW232934   3.172   3.105   3.016  0.3178  1.1592  0.7039
 7158SOL     OW32935   0.601   0.028  16.522  0.5079  0.1388  0.0718
 7158SOL    HW132936   0.598   0.004  16.615 -0.1622 -0.6854 -0.1686
 7158SOL    HW232937   0.508   0.025  16.498  0.3178 -0.5172  0.8840
 7159SOL     OW32938   3.640   4.387   0.896 -0.0384  0.1889  0.3466
 7159SOL    HW132939   3.652   4.418   0.986 -1.4841 -1.1453  1.0128
 7159SOL    HW232940   3.554   4.418   0.866  0.2766  0.9639  0.2493
 7160SOL     OW32941   1.773   0.904   9.100 -0.1735  0.1888  0.2589
 7160SOL    HW132942   1.739   0.887   9.011  1.1610 -1.8027  0.1221
 7160SOL    HW232943   1.815   0.819   9.112 -0.4946  0.0998  0.7285
 7161SOL     OW32944   4.653   1.908   7.683  0.5640 -0.4736  0.3853
 7161SOL    HW132945   4.622   1.861   7.606  1.4855 -1.5383  0.6627
 7161SOL    HW232946   0.026   1.906   7.668  0.2749  2.9145 -1.8443
 7162SOL     OW32947   2.952   3.061  16.152 -0.0031 -0.1429  0.1606
 7162SOL    HW132948   3.014   3.000  16.192  1.5846  0.3110 -1.5732
 7162SOL    HW232949   2.992   3.072  16.065  0.5773 -0.5618  0.3723
 7163SOL     OW32950   0.251   1.906   6.563 -0.6259 -0.1080  0.8364
 7163SOL    HW132951   0.311   1.971   6.526 -0.5879 -0.5275  0.1665
 7163SOL    HW232952   0.213   1.959   6.634 -1.2729  0.7629 -0.1620
 7164SOL     OW32953   1.326   3.975   4.633  0.2967  0.2921 -0.0832
 7164SOL    HW132954   1.231   3.989   4.625 -0.1324 -2.1533  0.7740
 7164SOL    HW232955   1.343   4.069   4.626 -0.0931  0.5333  2.1090
 7165SOL     OW32956   1.632   1.070   3.565 -0.6741 -0.3676  0.0640
 7165SOL    HW132957   1.574   0.994   3.561 -2.0181  0.7772 -2.0863
 7165SOL    HW232958   1.683   1.053   3.486  1.1273  0.5623  1.0316
 7166SOL     OW32959   2.348   0.585   2.574  0.2240  0.3543  0.3386
 7166SOL    HW132960   2.399   0.625   2.504  0.1058 -1.4212 -0.7638
 7166SOL    HW232961   2.259   0.602   2.545 -0.5713 -0.6145  2.2332
 7167SOL     OW32962   4.295   3.664   3.231 -0.0965 -0.3046 -0.2885
 7167SOL    HW132963   4.378   3.626   3.201  0.8542  0.0186  1.9491
 7167SOL    HW232964   4.330   3.751   3.252  0.8618 -0.3283 -1.7712
 7168SOL     OW32965   4.049   4.033   3.099 -0.2269  0.0119  0.8613
 7168SOL    HW132966   4.020   3.946   3.073 -0.3564 -0.6172  3.0651
 7168SOL    HW232967   4.054   4.078   3.014 -0.7393  1.0016  1.3517
 7169SOL     OW32968   3.045   1.984   2.385  0.2368 -0.5623 -0.1422
 7169SOL    HW132969   2.996   2.028   2.454 -0.3578 -0.9529 -0.3180
 7169SOL    HW232970   3.137   2.010   2.398  1.0933 -2.2662 -2.6240
 7170SOL     OW32971   4.667   2.366   9.469  0.5791 -0.7119 -0.2153
 7170SOL    HW132972   4.595   2.423   9.440  1.8355  2.3768  2.7416
 7170SOL    HW232973   4.686   2.319   9.388 -1.9232  0.1299 -1.3086
 7171SOL     OW32974   0.751   3.040  10.497 -0.0965 -0.4230  0.2201
 7171SOL    HW132975   0.705   3.025  10.579  1.4108  0.3378  1.2094
 7171SOL    HW232976   0.719   2.978  10.432  0.9147 -1.5991  0.8257
 7172SOL     OW32977   1.294   2.807   7.628  0.0173  0.0526 -0.7066
 7172SOL    HW132978   1.269   2.727   7.674  0.1584  0.6896  0.4722
 7172SOL    HW232979   1.366   2.782   7.570  1.1963 -2.2394  1.7514
 7173SOL     OW32980   3.256   0.951   6.702  0.3511  0.6522 -0.0582
 7173SOL    HW132981   3.347   0.980   6.703  0.7194 -0.4983 -0.6826
 7173SOL    HW232982   3.225   0.993   6.783  1.8383 -0.0657  0.8826
 7174SOL     OW32983   1.669   1.237   5.394 -0.0186 -0.7232 -0.1483
 7174SOL    HW132984   1.637   1.281   5.472  2.5414 -2.1148  1.6640
 7174SOL    HW232985   1.762   1.218   5.407 -0.0247  0.6639  1.7910
 7175SOL     OW32986   1.653   2.179  12.472  0.4513 -0.0171 -0.4377
 7175SOL    HW132987   1.590   2.240  12.433 -0.1038 -0.4880 -0.2705
 7175SOL    HW232988   1.618   2.093  12.449  2.1338 -1.1711  1.2017
 7176SOL     OW32989   3.210   0.774   4.590 -1.0265 -0.2046 -0.2198
 7176SOL    HW132990   3.169   0.808   4.510 -0.1294 -1.6310 -1.2693
 7176SOL    HW232991   3.227   0.685   4.560 -1.0459  0.5497 -2.4705
 7177SOL     OW32992   0.910   3.638   2.919  0.0133 -0.4595 -0.0524
 7177SOL    HW132993   0.885   3.671   2.833  0.4502 -0.1084 -0.0441
 7177SOL    HW232994   0.975   3.570   2.899  0.3752 -0.6178  1.6863
 7178SOL     OW32995   1.540   4.421  13.270 -0.1008 -0.0171  0.7274
 7178SOL    HW132996   1.584   4.388  13.192 -0.0832  1.0655  0.2796
 7178SOL    HW232997   1.572   4.511  13.275 -0.9814  0.1348  3.5779
 7179SOL     OW32998   0.307   2.920   4.969  0.0463  0.1369  0.0004
 7179SOL    HW132999   0.284   2.827   4.965 -0.4109  0.1257  2.7229
 7179SOL    HW233000   0.281   2.950   4.882 -1.2256  0.0390  0.3439
 7180SOL     OW33001   2.672   0.373   2.777  0.2309  0.3371  0.7177
 7180SOL    HW133002   2.589   0.391   2.733 -1.0078 -2.2108  1.9338
 7180SOL    HW233003   2.732   0.387   2.705  3.3023  3.1108  3.8327
 7181SOL     OW33004   3.499   2.603   7.689  0.1245 -0.0152  0.3197
 7181SOL    HW133005   3.405   2.619   7.677  0.2734 -1.0302 -2.1326
 7181SOL    HW233006   3.517   2.675   7.751 -3.2745 -0.3203  1.7150
 7182SOL     OW33007   0.373   0.240   5.076 -0.2549  0.5530 -0.1785
 7182SOL    HW133008   0.363   0.154   5.118 -1.7945  2.3433  3.0801
 7182SOL    HW233009   0.289   0.280   5.094  0.3100  0.6519  2.2636
 7183SOL     OW33010   4.298   1.175  10.666  0.3506  0.0231  0.0846
 7183SOL    HW133011   4.300   1.079  10.664  0.8787  0.0231  1.3730
 7183SOL    HW233012   4.309   1.184  10.571  1.0433 -0.2870  0.1393
 7184SOL     OW33013   1.826   1.411   8.059 -0.1412 -0.6097 -0.3422
 7184SOL    HW133014   1.855   1.440   7.973 -2.0751  3.2841  0.3213
 7184SOL    HW233015   1.775   1.333   8.039 -0.8772 -0.3741  0.6249
 7185SOL     OW33016   3.571   1.256  17.113  1.3926  0.4889  0.3839
 7185SOL    HW133017   3.478   1.248  17.130  1.6092  0.7498  1.7441
 7185SOL    HW233018   3.597   1.176  17.066  2.1893  0.6314  0.5781
 7186SOL     OW33019   0.788   3.640  10.230 -0.4497 -0.0637  0.1080
 7186SOL    HW133020   0.818   3.589  10.155 -0.3431 -1.2660  0.9616
 7186SOL    HW233021   0.700   3.602  10.233 -0.9379  1.0410 -0.4768
 7187SOL     OW33022   3.654   1.750   6.416  0.7897  0.5415  0.1078
 7187SOL    HW133023   3.713   1.755   6.491  0.7905  0.5835  0.1041
 7187SOL    HW233024   3.713   1.795   6.355 -0.7408  2.3113 -0.0608
 7188SOL     OW33025   3.178   3.133   8.832 -0.4190 -0.1052 -0.0194
 7188SOL    HW133026   3.188   3.175   8.747 -0.4164 -0.6539 -0.2935
 7188SOL    HW233027   3.176   3.215   8.881  1.5751  0.5357 -1.0291
 7189SOL     OW33028   1.013   2.242   9.026  0.0067 -0.0742 -0.5513
 7189SOL    HW133029   0.968   2.308   8.975 -2.1947 -2.3443 -1.5224
 7189SOL    HW233030   1.005   2.169   8.966 -1.7235  2.1430 -2.9765
 7190SOL     OW33031   0.632   1.516  16.037 -0.1240  0.0631 -0.2077
 7190SOL    HW133032   0.628   1.431  15.993 -0.6380 -0.0090 -0.0108
 7190SOL    HW233033   0.561   1.570  16.002 -0.2061  0.5363  0.6968
 7191SOL     OW33034   2.881   3.361   8.696 -0.7594 -0.2927  0.3762
 7191SOL    HW133035   2.856   3.436   8.749  0.4379  0.3878 -0.0212
 7191SOL    HW233036   2.841   3.385   8.612  1.0898  0.8388 -0.1889
 7192SOL     OW33037   2.548   2.064   5.713 -0.3415 -0.2281 -0.2872
 7192SOL    HW133038   2.627   2.105   5.677  0.3614 -0.1954  1.2991
 7192SOL    HW233039   2.574   1.974   5.732  1.4545  0.3789  0.1757
 7193SOL     OW33040   4.408   0.108   8.260 -0.3506  0.2204 -0.4730
 7193SOL    HW133041   4.437   0.199   8.259 -0.8768  0.3862 -0.6402
 7193SOL    HW233042   4.468   0.061   8.201 -0.4820 -1.7648  0.9885
 7194SOL     OW33043   0.532   3.670   8.762  0.1244 -0.0306  0.3259
 7194SOL    HW133044   0.545   3.576   8.749  1.9394  0.2210  0.2384
 7194SOL    HW233045   0.439   3.688   8.755  0.1941 -0.9863 -2.7802
 7195SOL     OW33046   4.565   1.683  13.754 -0.0975  0.2660  0.5847
 7195SOL    HW133047   4.522   1.629  13.688  0.8661 -0.6099  0.6570
 7195SOL    HW233048   4.632   1.622  13.785  0.3695  0.7019  0.4290
 7196SOL     OW33049   2.651   1.919   4.985 -0.3043 -0.0270  0.3799
 7196SOL    HW133050   2.704   1.917   5.065 -0.6646  1.5241  0.6583
 7196SOL    HW233051   2.708   1.966   4.924 -1.1634 -0.2367 -0.5804
 7197SOL     OW33052   0.427   2.968   2.011 -0.1327  0.2002  0.0847
 7197SOL    HW133053   0.475   3.015   1.943  0.1415 -0.0377  0.1110
 7197SOL    HW233054   0.358   2.924   1.961 -0.2554 -0.9047  1.2159
 7198SOL     OW33055   2.817   0.487   2.974  0.2806  0.4560  0.2967
 7198SOL    HW133056   2.753   0.471   2.905  0.6728  0.3235 -0.0408
 7198SOL    HW233057   2.839   0.396   2.994 -0.4284 -0.0568 -1.1898
 7199SOL     OW33058   3.269   1.390   9.284 -0.2428  0.5968  0.1251
 7199SOL    HW133059   3.313   1.430   9.360  1.3806 -0.7618 -0.1303
 7199SOL    HW233060   3.191   1.370   9.336  1.2921 -1.0212  1.8230
 7200SOL     OW33061   0.777   2.554   8.290 -0.4925  0.0612  0.1251
 7200SOL    HW133062   0.745   2.500   8.218  0.7808 -1.1895  0.4977
 7200SOL    HW233063   0.695   2.574   8.335  0.8209 -0.0580  2.5779
 7201SOL     OW33064   1.155   4.294  11.290 -0.2629  0.4181 -0.0200
 7201SOL    HW133065   1.174   4.375  11.337  0.2327  1.0413 -1.2868
 7201SOL    HW233066   1.112   4.240  11.357  0.0701 -2.2819 -1.9618
 7202SOL     OW33067   1.605   0.490   8.235 -0.2550 -0.8387 -0.2010
 7202SOL    HW133068   1.691   0.454   8.260  0.9725  1.6250 -0.8756
 7202SOL    HW233069   1.594   0.550   8.309 -0.3482 -0.6291 -0.3855
 7203SOL     OW33070   0.542   0.068   7.272  0.3025  0.6689 -0.1142
 7203SOL    HW133071   0.518   0.007   7.342  0.1816 -1.6573 -2.1670
 7203SOL    HW233072   0.554   0.007   7.199  0.1387  0.9572 -0.3802
 7204SOL     OW33073   2.775   3.070   4.744 -0.2561  0.0624 -0.0157
 7204SOL    HW133074   2.853   3.017   4.759 -0.9164 -1.2378 -1.1556
 7204SOL    HW233075   2.802   3.153   4.782  0.0273  0.7322 -1.6664
 7205SOL     OW33076   1.257   2.667   4.491 -0.2051 -0.2155  0.2784
 7205SOL    HW133077   1.260   2.663   4.395 -2.2229  0.0330  0.2017
 7205SOL    HW233078   1.164   2.648   4.503 -0.6614  1.0137 -1.2602
 7206SOL     OW33079   2.247   4.466   6.642 -0.1059 -0.0508 -0.3101
 7206SOL    HW133080   2.177   4.506   6.695  0.8024 -1.6786  2.1308
 7206SOL    HW233081   2.218   4.515   6.565 -2.9457 -1.0487  0.1087
 7207SOL     OW33082   0.845   2.992   2.900  0.0003  0.2332 -0.0482
 7207SOL    HW133083   0.870   2.909   2.861  0.4946  1.3188 -2.0556
 7207SOL    HW233084   0.775   3.009   2.836  1.1126  0.7559 -1.1222
 7208SOL     OW33085   1.306   0.205   5.210 -0.3170 -0.4527  0.4199
 7208SOL    HW133086   1.351   0.151   5.146 -0.5292  0.1827 -0.2697
 7208SOL    HW233087   1.229   0.152   5.232  0.9890 -1.3483  2.9177
 7209SOL     OW33088   3.958   4.205  11.942  0.5374 -0.1582  0.3393
 7209SOL    HW133089   3.927   4.285  11.986  2.0616 -0.4327  1.9228
 7209SOL    HW233090   4.050   4.230  11.952 -0.1291  2.1448  0.6886
 7210SOL     OW33091   0.881   4.522   0.175  0.2319  0.0592  0.4260
 7210SOL    HW133092   0.787   4.537   0.182  0.3243  0.8023  0.1753
 7210SOL    HW233093   0.905   4.516   0.267  1.9226  2.0998  0.1232
 7211SOL     OW33094   3.780   1.137   1.320 -0.1448  0.4613  0.3544
 7211SOL    HW133095   3.723   1.073   1.278  1.8997  0.3694 -2.2668
 7211SOL    HW233096   3.777   1.094   1.406  0.4955 -0.0715  0.1157
 7212SOL     OW33097   1.138   1.417   6.888 -0.2567  0.2822 -0.2408
 7212SOL    HW133098   1.095   1.354   6.830  1.0098 -1.8293  1.1191
 7212SOL    HW233099   1.129   1.400   6.982  3.8646 -1.4790 -0.1888
 7213SOL     OW33100   4.057   0.780   8.992 -0.2803  0.4089 -0.6730
 7213SOL    HW133101   3.986   0.835   8.959 -0.7543  1.2780  1.7842
 7213SOL    HW233102   4.079   0.829   9.071 -0.9561  1.4147 -1.0998
 7214SOL     OW33103   4.448   0.345   3.449  0.1188 -0.5513  0.1366
 7214SOL    HW133104   4.452   0.256   3.414  0.9831 -0.1904 -0.6819
 7214SOL    HW233105   4.376   0.378   3.396  1.0236  2.8503  1.0245
 7215SOL     OW33106   0.619   1.547   8.737  0.1717 -0.2673 -0.1562
 7215SOL    HW133107   0.710   1.531   8.761  0.0209  1.2338  1.4359
 7215SOL    HW233108   0.568   1.484   8.788 -0.2216  1.1783  1.2372
 7216SOL     OW33109   0.709   1.406   4.471 -0.0178 -0.5994 -0.1452
 7216SOL    HW133110   0.760   1.485   4.488  0.0510 -0.5119 -0.7486
 7216SOL    HW233111   0.667   1.444   4.393  0.7941  0.1169 -0.2344
 7217SOL     OW33112   3.505   4.344   3.771  0.0681 -0.1138  0.0944
 7217SOL    HW133113   3.535   4.340   3.680 -2.7683  0.2632 -0.8515
 7217SOL    HW233114   3.477   4.256   3.795 -0.2275  0.1214  0.6094
 7218SOL     OW33115   4.254   0.961   1.323 -0.7358  0.2248  0.0602
 7218SOL    HW133116   4.312   0.885   1.312 -0.7782  0.2439 -0.3017
 7218SOL    HW233117   4.176   0.923   1.365 -0.0661 -0.1569  0.9417
 7219SOL     OW33118   0.765   3.860   3.766 -0.4679 -0.2103 -0.3185
 7219SOL    HW133119   0.738   3.889   3.853  2.1935 -0.6568  0.6580
 7219SOL    HW233120   0.678   3.857   3.726 -1.0986  0.0938  1.0340
 7220SOL     OW33121   0.108   3.408   1.874  0.7369  0.8762  0.7479
 7220SOL    HW133122   0.051   3.337   1.845  0.8086  1.3803 -0.6070
 7220SOL    HW233123   0.090   3.479   1.812  1.9595  1.4149  1.0160
 7221SOL     OW33124   0.508   4.065   3.482  0.4506  0.3386 -0.4170
 7221SOL    HW133125   0.496   4.149   3.437 -0.6246 -0.8096 -2.2651
 7221SOL    HW233126   0.480   4.003   3.415  1.0099  0.4029 -0.7056
 7222SOL     OW33127   3.468   3.993   6.626 -0.1161  0.3921  0.1094
 7222SOL    HW133128   3.430   3.926   6.683 -1.5496  0.1992 -1.0992
 7222SOL    HW233129   3.561   3.971   6.620 -0.3077 -1.1186  2.3435
 7223SOL     OW33130   2.919   3.705   2.241 -0.3313  0.0665  0.1120
 7223SOL    HW133131   2.992   3.706   2.178 -1.9421  2.2726 -1.7016
 7223SOL    HW233132   2.964   3.687   2.324 -0.8286  0.7463  0.5270
 7224SOL     OW33133   2.735   1.098  12.211  0.2239 -0.5088 -0.1086
 7224SOL    HW133134   2.689   1.175  12.176  1.7055  0.7513  0.7271
 7224SOL    HW233135   2.665   1.048  12.252 -0.3683  1.0104  0.7305
 7225SOL     OW33136   4.419   1.599  11.885  0.6311 -0.4300 -0.1397
 7225SOL    HW133137   4.386   1.532  11.826 -0.0419 -1.0561  0.9411
 7225SOL    HW233138   4.514   1.583  11.879  0.9649  1.6147 -0.3753
 7226SOL     OW33139   3.370   0.385   6.940  0.3126  0.3924 -0.8361
 7226SOL    HW133140   3.415   0.450   6.887  0.0106  1.1724 -0.1321
 7226SOL    HW233141   3.375   0.424   7.027 -1.1671 -0.7619 -0.2214
 7227SOL     OW33142   1.262   1.481   3.700  0.3252  0.0297 -0.1319
 7227SOL    HW133143   1.276   1.556   3.642 -0.1629 -0.2157 -0.5639
 7227SOL    HW233144   1.351   1.447   3.700  0.6148  0.7977  0.8057
 7228SOL     OW33145   3.995   2.507  10.762 -0.3669  0.1807  0.4420
 7228SOL    HW133146   4.051   2.505  10.684 -0.7937 -1.4486  0.1844
 7228SOL    HW233147   4.071   2.518  10.819  0.6760 -0.5414 -0.7971
 7229SOL     OW33148   1.685   1.406   2.801 -0.2392  0.2144 -0.2805
 7229SOL    HW133149   1.657   1.349   2.729  0.4714 -1.4982  0.7960
 7229SOL    HW233150   1.661   1.350   2.875 -0.2690  1.7166  0.8564
 7230SOL     OW33151   0.122   0.275  15.533  0.2895 -0.6998 -0.0776
 7230SOL    HW133152   0.117   0.288  15.438 -0.9807  0.3139  0.1273
 7230SOL    HW233153   0.107   0.368  15.551 -0.2425 -0.1930 -3.1379
 7231SOL     OW33154   1.946   1.544   2.101  0.4975  0.3489  0.0259
 7231SOL    HW133155   2.028   1.512   2.064 -0.0715  0.0757 -1.0045
 7231SOL    HW233156   1.881   1.521   2.035 -0.1038  0.4234  0.5933
 7232SOL     OW33157   3.997   3.703   7.598  0.5864  0.1257 -0.2021
 7232SOL    HW133158   4.026   3.778   7.650  0.3233  1.6948 -2.3072
 7232SOL    HW233159   3.920   3.731   7.547  0.2323 -0.1698  0.1736
 7233SOL     OW33160   1.500   0.680   3.179 -0.2901  0.1633  0.2626
 7233SOL    HW133161   1.435   0.748   3.196  0.5488  1.0732 -0.1196
 7233SOL    HW233162   1.580   0.733   3.182 -1.8389  2.4004  2.3591
 7234SOL     OW33163   2.969   2.648   5.450 -0.0934 -0.2463 -0.5816
 7234SOL    HW133164   2.923   2.568   5.426 -0.3980 -0.7648  1.7638
 7234SOL    HW233165   3.055   2.630   5.412 -0.7394 -0.5923 -1.8813
 7235SOL     OW33166   4.257   2.773  14.736 -0.1518  0.2030  0.1463
 7235SOL    HW133167   4.333   2.803  14.686 -0.8929  1.1133 -0.4283
 7235SOL    HW233168   4.194   2.806  14.673 -0.0465 -1.1470 -0.6686
 7236SOL     OW33169   1.066   2.988   8.601 -0.4064 -0.6694  0.2000
 7236SOL    HW133170   1.143   2.994   8.657 -0.3983  1.5201 -0.0575
 7236SOL    HW233171   1.014   3.066   8.624  1.5998  0.3885  1.1207
 7237SOL     OW33172   2.611   2.193   6.610  0.1153 -0.4980  0.2793
 7237SOL    HW133173   2.591   2.224   6.521  1.2003 -0.5412  0.0191
 7237SOL    HW233174   2.693   2.145   6.601  0.9604  0.9482  0.2797
 7238SOL     OW33175   2.493   3.353  12.481  0.0142 -0.2167 -0.4794
 7238SOL    HW133176   2.435   3.401  12.423 -1.3848  1.3487  2.2087
 7238SOL    HW233177   2.499   3.276  12.425 -2.6305 -0.7557  0.0138
 7239SOL     OW33178   2.532   3.054  17.059 -0.4387  0.0581  0.0610
 7239SOL    HW133179   2.528   2.991  17.132  1.1217  0.7192  0.7335
 7239SOL    HW233180   2.449   3.040  17.015  0.1144  1.7940 -1.5161
 7240SOL     OW33181   1.924   3.915   6.998 -0.0931 -0.2620  0.4619
 7240SOL    HW133182   1.907   4.005   7.027  0.1212  0.9620 -3.2915
 7240SOL    HW233183   2.012   3.903   7.032  0.4151 -0.8866 -1.0797
 7241SOL     OW33184   1.957   1.130   3.471 -0.4428  0.1983  0.4095
 7241SOL    HW133185   2.006   1.093   3.398 -2.0193  1.8943 -1.5071
 7241SOL    HW233186   1.949   1.217   3.431  1.8472 -0.5939 -1.8086
 7242SOL     OW33187   3.811   4.434  13.084 -1.2039  0.0335  0.5921
 7242SOL    HW133188   3.820   4.343  13.055 -1.2597 -0.2619  1.5244
 7242SOL    HW233189   3.825   4.489  13.007 -1.2658  1.6751  1.7544
 7243SOL     OW33190   1.699   3.755   8.455 -0.5449 -0.0380  0.3035
 7243SOL    HW133191   1.647   3.720   8.527 -2.7909 -0.6479 -1.6183
 7243SOL    HW233192   1.679   3.847   8.473 -0.7478 -0.4614  2.1699
 7244SOL     OW33193   2.705   0.693   7.100  0.7557  0.0682  0.3731
 7244SOL    HW133194   2.784   0.641   7.089  1.6035  1.5363 -0.4658
 7244SOL    HW233195   2.644   0.661   7.033  1.0074 -2.5156  1.3645
 7245SOL     OW33196   2.144   3.910   6.382 -0.2301 -0.2301  0.0270
 7245SOL    HW133197   2.135   3.992   6.430 -0.0128  0.1922 -0.6530
 7245SOL    HW233198   2.078   3.851   6.418 -0.4627 -0.4574 -0.7592
 7246SOL     OW33199   1.196   0.850   6.900  0.0686  0.1863  0.6019
 7246SOL    HW133200   1.113   0.817   6.866  1.9142 -0.5190 -3.1606
 7246SOL    HW233201   1.261   0.788   6.865 -0.2293  0.7516 -0.9517
 7247SOL     OW33202   4.653   0.488   4.820 -0.8390  0.0141 -0.0870
 7247SOL    HW133203   4.628   0.577   4.795 -1.9022 -0.9077 -2.2933
 7247SOL    HW233204   4.691   0.455   4.739 -2.3555 -1.5258 -0.1781
 7248SOL     OW33205   4.483   4.322   7.387  0.0881  0.6866  0.2306
 7248SOL    HW133206   4.436   4.239   7.395  1.2883  0.2828  2.9084
 7248SOL    HW233207   4.570   4.299   7.357 -0.3036 -1.9982  1.1708
 7249SOL     OW33208   1.101   0.190   0.612 -0.2011 -0.0580  0.6250
 7249SOL    HW133209   1.172   0.181   0.548 -0.0691 -2.6762  1.1461
 7249SOL    HW233210   1.051   0.108   0.608 -2.9966  1.5995  1.4465
 7250SOL     OW33211   1.364   2.163   3.870  0.0902 -0.4489  0.0761
 7250SOL    HW133212   1.367   2.253   3.903 -1.8747 -0.3336 -0.0649
 7250SOL    HW233213   1.311   2.179   3.792 -0.0663 -3.1622 -0.3647
 7251SOL     OW33214   3.020   1.425   5.107 -0.2939 -0.3107 -0.0277
 7251SOL    HW133215   2.928   1.436   5.084 -0.9160 -4.4692  0.4000
 7251SOL    HW233216   3.015   1.411   5.202 -0.2286  1.9277  0.3077
 7252SOL     OW33217   0.673   4.430   8.561  0.0348  0.5839  0.0263
 7252SOL    HW133218   0.659   4.411   8.654 -2.7394  0.6978 -0.3679
 7252SOL    HW233219   0.766   4.447   8.579 -0.2490  0.7712  1.3043
 7253SOL     OW33220   3.625   0.794   6.745  0.3928  0.6514  0.1977
 7253SOL    HW133221   3.696   0.737   6.716 -0.2800  0.4393 -1.0527
 7253SOL    HW233222   3.554   0.756   6.693 -0.7056  2.6561  0.2407
 7254SOL     OW33223   4.145   1.444   4.839 -0.0000  0.1497  0.0176
 7254SOL    HW133224   4.238   1.424   4.826 -0.4882 -2.2151  0.0635
 7254SOL    HW233225   4.143   1.530   4.798  0.6771 -0.5153 -1.4250
 7255SOL     OW33226   3.223   0.067   6.239 -0.7572 -0.5652 -0.4510
 7255SOL    HW133227   3.301   0.118   6.216 -0.2350 -0.8042  0.7962
 7255SOL    HW233228   3.207   0.035   6.150  1.3942  1.6417 -1.6514
 7256SOL     OW33229   3.216   1.150   9.130 -0.0986  0.0974 -0.2934
 7256SOL    HW133230   3.273   1.212   9.177 -0.5586  0.5383 -0.3218
 7256SOL    HW233231   3.140   1.142   9.188  0.1128 -0.3426 -0.0743
 7257SOL     OW33232   0.163   2.290   1.913 -0.7498  0.2093  0.1748
 7257SOL    HW133233   0.181   2.351   1.841 -0.4862  1.1344  1.0225
 7257SOL    HW233234   0.152   2.209   1.863 -1.3028  0.3704  0.0349
 7258SOL     OW33235   4.235   3.059   0.581 -0.3178 -0.3930 -0.8657
 7258SOL    HW133236   4.258   3.125   0.646  2.5529 -2.0626 -0.1782
 7258SOL    HW233237   4.311   3.049   0.524  0.6707 -0.7582  0.4877
 7259SOL     OW33238   2.828   2.497   8.632 -1.1299 -0.7515 -0.4332
 7259SOL    HW133239   2.923   2.509   8.631 -1.1769 -0.6000 -3.0550
 7259SOL    HW233240   2.814   2.407   8.603  0.1752 -1.3250  0.6936
 7260SOL     OW33241   1.910   4.183   6.341 -0.3116 -0.1624 -0.3403
 7260SOL    HW133242   1.820   4.186   6.374 -0.7562 -1.5100 -1.4057
 7260SOL    HW233243   1.949   4.259   6.384 -0.1864 -0.8667  0.7888
 7261SOL     OW33244   0.844   3.574   6.200 -0.1298 -0.6042 -0.0035
 7261SOL    HW133245   0.880   3.649   6.247  0.1143 -0.3936 -0.5257
 7261SOL    HW233246   0.907   3.574   6.128 -1.3091 -0.6017 -1.0404
 7262SOL     OW33247   1.933   3.951   8.736  0.4843  0.2215  0.1281
 7262SOL    HW133248   1.978   3.992   8.810  1.6744 -1.4760  0.3491
 7262SOL    HW233249   1.880   3.884   8.780  0.3264  0.6088  0.5222
 7263SOL     OW33250   0.619   3.124  13.212  0.2809  0.2599  0.3596
 7263SOL    HW133251   0.539   3.088  13.173 -1.8313  3.4134  1.7783
 7263SOL    HW233252   0.581   3.183  13.278 -1.0292 -0.1901  0.0126
 7264SOL     OW33253   0.516   0.830  12.227  0.3828 -0.0967  0.1015
 7264SOL    HW133254   0.443   0.774  12.199  0.1543  0.4124 -0.3052
 7264SOL    HW233255   0.584   0.765  12.248  0.4499  0.0827  0.4299
 7265SOL     OW33256   2.627   0.824   5.422  0.4916  0.8788  0.6940
 7265SOL    HW133257   2.611   0.879   5.345 -0.3693  1.0270  0.9730
 7265SOL    HW233258   2.542   0.787   5.447 -0.4434  1.9588 -0.8844
 7266SOL     OW33259   0.900   4.396  15.186 -0.3627 -0.4763 -0.0345
 7266SOL    HW133260   0.821   4.342  15.194 -1.3154  0.7416 -1.3402
 7266SOL    HW233261   0.890   4.449  15.265 -1.9426  0.8304 -1.1059
 7267SOL     OW33262   0.981   0.085   6.429  0.3840 -0.8289 -0.2571
 7267SOL    HW133263   0.900   0.104   6.382 -1.2268 -1.0735  2.3793
 7267SOL    HW233264   0.971   4.718   6.465 -1.2791 -0.4560  0.2013
 7268SOL     OW33265   3.976   0.235  11.359 -0.5310 -0.2046  0.3261
 7268SOL    HW133266   4.045   0.189  11.408  1.0750  2.7249  0.8025
 7268SOL    HW233267   3.953   0.169  11.292  0.8809  0.5330 -0.8864
 7269SOL     OW33268   2.208   0.098  11.942 -0.8208 -0.0195 -0.0376
 7269SOL    HW133269   2.187   0.191  11.931 -2.7450 -0.8527 -3.2685
 7269SOL    HW233270   2.302   0.103  11.924 -0.9040 -0.1046 -0.5011
 7270SOL     OW33271   3.981   0.492   5.267 -0.1000  0.2305  0.3825
 7270SOL    HW133272   4.070   0.507   5.298 -0.5204  1.8034  0.8017
 7270SOL    HW233273   3.988   0.413   5.212 -1.0858  1.7064 -1.8646
 7271SOL     OW33274   0.540   1.125  12.914 -0.4140 -0.1501  0.2052
 7271SOL    HW133275   0.544   1.035  12.948 -0.7839 -1.4615 -3.3021
 7271SOL    HW233276   0.557   1.106  12.822  1.6535  0.0838  0.5370
 7272SOL     OW33277   2.644   0.173  13.172  0.1198 -0.4566  0.5710
 7272SOL    HW133278   2.668   0.240  13.108 -0.2206  1.2371  2.2413
 7272SOL    HW233279   2.729   0.129  13.179 -0.1021 -0.9355  0.3272
 7273SOL     OW33280   3.058   0.734   5.723  0.0743 -0.7579 -0.0653
 7273SOL    HW133281   2.971   0.749   5.685  0.8621 -0.5694 -1.7572
 7273SOL    HW233282   3.051   0.642   5.751 -0.2609 -0.7609 -0.1532
 7274SOL     OW33283   0.582   2.510   5.965 -0.1383 -0.0483 -0.4604
 7274SOL    HW133284   0.527   2.452   5.912 -0.3708 -0.7050  0.4961
 7274SOL    HW233285   0.543   2.597   5.960  1.3526  0.4878 -2.7025
 7275SOL     OW33286   4.036   4.705   3.450  0.4698  0.0407 -0.1176
 7275SOL    HW133287   4.108   0.044   3.467  0.7143 -0.8647  2.0701
 7275SOL    HW233288   3.997   0.013   3.368 -0.4553 -1.2203 -0.1301
 7276SOL     OW33289   1.161   2.270   2.299  0.3894 -0.2768 -0.2300
 7276SOL    HW133290   1.079   2.237   2.263  0.5782  0.0593 -0.9801
 7276SOL    HW233291   1.229   2.224   2.250  2.5665  0.8007  1.7757
 7277SOL     OW33292   3.689   4.307   1.519 -0.2611  0.2935 -0.0401
 7277SOL    HW133293   3.694   4.312   1.615 -0.8801 -0.2000  0.0132
 7277SOL    HW233294   3.594   4.303   1.512 -0.5114  2.7145  1.6734
 7278SOL     OW33295   0.699   2.030  13.232  0.5259  0.2120  0.3027
 7278SOL    HW133296   0.668   2.110  13.190  0.8305 -0.7756 -1.7936
 7278SOL    HW233297   0.660   1.964  13.176 -0.3845 -0.2817  1.5176
 7279SOL     OW33298   0.239   4.274   3.065 -0.3569 -0.6292 -0.7055
 7279SOL    HW133299   0.147   4.253   3.080  0.3507 -2.7173  0.6565
 7279SOL    HW233300   0.277   4.295   3.150  0.6924 -1.0539 -1.0586
 7280SOL     OW33301   2.677   3.445  13.687  0.0431 -0.6608  0.0080
 7280SOL    HW133302   2.689   3.496  13.607  3.4578 -1.2031  0.1521
 7280SOL    HW233303   2.592   3.474  13.718 -1.0650 -2.9551 -0.8309
 7281SOL     OW33304   1.312   4.205  14.062  0.1140 -0.2398 -0.0613
 7281SOL    HW133305   1.369   4.280  14.046 -0.8761  0.5375  0.0622
 7281SOL    HW233306   1.363   4.127  14.042  0.0192 -0.2182 -0.3887
 7282SOL     OW33307   1.202   4.312  13.431 -0.2700  0.0566 -0.3531
 7282SOL    HW133308   1.278   4.330  13.486 -0.0871 -0.6343 -0.3727
 7282SOL    HW233309   1.230   4.329  13.341  0.5708  1.4190  0.1591
 7283SOL     OW33310   3.119   1.370  11.303 -0.2837  0.0490 -0.8771
 7283SOL    HW133311   3.090   1.455  11.271  2.5885  0.8477 -1.3848
 7283SOL    HW233312   3.044   1.319  11.272  0.4543 -0.7349 -1.4065
 7284SOL     OW33313   0.163   1.539   0.808 -0.0298 -0.2242 -0.4582
 7284SOL    HW133314   0.080   1.494   0.817  0.6552 -1.1421  1.2050
 7284SOL    HW233315   0.201   1.510   0.725 -1.7846 -1.6899 -0.7377
 7285SOL     OW33316   2.932   2.561  14.910 -0.2667  0.8092  0.3293
 7285SOL    HW133317   2.983   2.638  14.887 -0.3585  0.1099 -2.2086
 7285SOL    HW233318   2.848   2.583  14.869  0.2467  0.0731 -1.1068
 7286SOL     OW33319   2.837   0.699   9.698 -0.6831  0.5382 -0.4894
 7286SOL    HW133320   2.867   0.760   9.631 -2.6490 -0.5525 -2.3413
 7286SOL    HW233321   2.923   0.676   9.733 -1.4980  1.1621  1.9659
 7287SOL     OW33322   3.545   3.246   5.569 -0.8869  0.0323 -0.2416
 7287SOL    HW133323   3.514   3.231   5.479  0.9244 -1.6972 -0.5675
 7287SOL    HW233324   3.465   3.285   5.604 -0.9896  0.2425 -0.7169
 7288SOL     OW33325   4.634   0.479   3.589  0.5871 -0.2789  0.2739
 7288SOL    HW133326   4.566   0.442   3.533  1.7859 -1.7984 -0.1737
 7288SOL    HW233327   4.659   0.399   3.635  2.6431  0.5271  0.5999
 7289SOL     OW33328   1.934   2.647   4.907 -0.5828 -0.2346 -0.4464
 7289SOL    HW133329   1.956   2.723   4.961  0.2053  1.1892 -2.7613
 7289SOL    HW233330   2.018   2.624   4.867  0.4416  1.0159  0.9792
 7290SOL     OW33331   3.131   0.628   7.060 -0.5278 -0.0956  0.0376
 7290SOL    HW133332   3.176   0.658   7.139 -1.0439 -0.3206  0.4193
 7290SOL    HW233333   3.155   0.697   6.998 -0.9628 -1.1646 -1.3192
 7291SOL     OW33334   1.124   4.354  10.028 -0.3522 -0.3518 -0.2031
 7291SOL    HW133335   1.189   4.373  10.096  0.3509 -3.4194  0.0161
 7291SOL    HW233336   1.174   4.296   9.970 -0.1222 -1.7744  1.4061
 7292SOL     OW33337   0.473   2.451   9.372  0.0101  0.1814  0.2026
 7292SOL    HW133338   0.419   2.521   9.335 -0.1486 -0.0084  0.0787
 7292SOL    HW233339   0.496   2.479   9.460 -0.5015  1.9483 -0.2179
 7293SOL     OW33340   2.882   1.149   5.340 -0.4329 -0.2296 -0.0074
 7293SOL    HW133341   2.811   1.090   5.366 -1.2408  0.1024 -1.4890
 7293SOL    HW233342   2.957   1.097   5.370 -0.8458 -2.5925 -3.0396
 7294SOL     OW33343   3.321   4.027  10.325  0.1308  0.2807 -0.1818
 7294SOL    HW133344   3.308   3.970  10.250  4.0550  1.4035 -1.7328
 7294SOL    HW233345   3.416   4.036  10.328  0.0899  0.0627  1.8517
 7295SOL     OW33346   1.221   2.622   6.140  0.0376 -0.3785 -0.1532
 7295SOL    HW133347   1.259   2.546   6.097 -1.8769 -0.4673 -1.7073
 7295SOL    HW233348   1.178   2.667   6.067 -0.0188  1.5449  1.0698
 7296SOL     OW33349   1.168   0.476   8.435 -0.9123 -0.1558 -0.4275
 7296SOL    HW133350   1.164   0.414   8.362 -0.7980 -0.0219 -0.5465
 7296SOL    HW233351   1.204   0.429   8.510 -0.1154 -1.6352 -1.7182
 7297SOL     OW33352   3.764   2.129   3.393  0.3268  0.3388  0.2812
 7297SOL    HW133353   3.714   2.209   3.413  1.7182  1.3010 -0.0621
 7297SOL    HW233354   3.693   2.065   3.391 -0.3530  1.0415  1.6172
 7298SOL     OW33355   3.318   3.458   4.983 -0.2665  0.2576 -0.0125
 7298SOL    HW133356   3.367   3.377   4.995 -0.2501  0.4982  1.5674
 7298SOL    HW233357   3.392   3.517   4.970 -1.3029  1.5468 -0.0980
 7299SOL     OW33358   3.303   1.747   3.115  0.3553  0.0442  0.8557
 7299SOL    HW133359   3.270   1.658   3.127  1.3572 -0.6573 -1.5634
 7299SOL    HW233360   3.279   1.773   3.026  1.5319  0.2258  0.5858
 7300SOL     OW33361   2.408   1.504  16.543 -0.5163  0.1736 -0.5570
 7300SOL    HW133362   2.426   1.468  16.456 -0.5793  1.3920 -1.0830
 7300SOL    HW233363   2.424   1.598  16.537  1.5290 -0.2137 -1.2113
 7301SOL     OW33364   0.327   3.311   5.277 -0.3732  0.1128  0.3444
 7301SOL    HW133365   0.411   3.330   5.236 -0.5331  0.3412  0.1188
 7301SOL    HW233366   0.305   3.230   5.231 -1.2571  1.6881 -2.0846
 7302SOL     OW33367   2.896   2.433  13.841  0.0546  0.2946  0.5494
 7302SOL    HW133368   2.916   2.396  13.755  0.3283  0.6022  0.4805
 7302SOL    HW233369   2.808   2.394  13.843 -0.3721  1.2747  1.1336
 7303SOL     OW33370   3.649   3.091  11.128  0.1656  0.0586 -0.5858
 7303SOL    HW133371   3.653   3.158  11.060 -0.7099 -0.1342 -0.8282
 7303SOL    HW233372   3.634   3.009  11.081  1.7832  0.6519 -2.1634
 7304SOL     OW33373   3.830   4.573   3.220 -0.6274 -0.1753 -0.0438
 7304SOL    HW133374   3.751   4.594   3.170  0.2964 -0.6481 -1.7051
 7304SOL    HW233375   3.873   4.527   3.147  0.4051  1.1219 -0.2662
 7305SOL     OW33376   3.957   2.749   4.488  0.5026 -0.1410  0.1630
 7305SOL    HW133377   3.973   2.657   4.470  0.0380 -0.0999 -0.4621
 7305SOL    HW233378   3.878   2.758   4.434 -1.9539 -0.5733  3.7344
 7306SOL     OW33379   0.173   3.219  16.489  0.3989 -0.6429  0.1305
 7306SOL    HW133380   0.169   3.126  16.510  3.2548 -1.0058 -0.8675
 7306SOL    HW233381   0.175   3.258  16.576 -1.0860 -0.6015  0.1404
 7307SOL     OW33382   2.247   0.341  16.953  0.3226  0.2545  0.2215
 7307SOL    HW133383   2.156   0.335  16.982  0.5032  0.9885  0.9413
 7307SOL    HW233384   2.300   0.289  17.014  0.1714  0.7993  0.8249
 7308SOL     OW33385   1.713   0.023   6.968 -0.3590 -0.3652  0.3172
 7308SOL    HW133386   1.659   0.100   6.951 -0.1000  0.1085  1.6465
 7308SOL    HW233387   1.685   4.690   6.895 -2.0521  2.6989 -1.3355
 7309SOL     OW33388   4.602   4.422   9.594 -0.2776  0.4557  0.2924
 7309SOL    HW133389   4.617   4.357   9.526  0.2380 -2.1375  2.8681
 7309SOL    HW233390   4.572   4.361   9.661  1.9104 -1.2176 -0.2705
 7310SOL     OW33391   4.088   4.083   1.256  0.2938 -0.2648  0.0304
 7310SOL    HW133392   3.994   4.097   1.267  0.3008 -0.2981  0.1303
 7310SOL    HW233393   4.110   4.024   1.328 -2.3042 -0.5100  0.6165
 7311SOL     OW33394   1.062   3.005   5.521 -0.7915  0.3179  0.4007
 7311SOL    HW133395   1.009   2.941   5.474 -1.5289  0.6127  0.8408
 7311SOL    HW233396   1.090   3.053   5.443 -1.1277 -0.2237 -0.0515
 7312SOL     OW33397   4.422   2.228   9.071  0.4652  0.1470 -0.3700
 7312SOL    HW133398   4.380   2.178   9.000 -0.2469 -1.8059  1.4093
 7312SOL    HW233399   4.374   2.194   9.147  0.9410  0.5415  0.1018
 7313SOL     OW33400   3.275   0.291   6.477  0.8179  0.9075 -0.2583
 7313SOL    HW133401   3.323   0.212   6.502 -1.0523  0.1160  0.8454
 7313SOL    HW233402   3.337   0.361   6.496  0.9329  0.6694  0.2566
 7314SOL     OW33403   3.385   1.801   3.822  0.1597 -0.0226 -0.0109
 7314SOL    HW133404   3.335   1.866   3.773  0.6887  0.9649  0.7562
 7314SOL    HW233405   3.426   1.858   3.887 -0.7751 -0.0641  0.6126
 7315SOL     OW33406   3.433   0.623   3.514 -0.0523 -0.1622  0.1355
 7315SOL    HW133407   3.512   0.570   3.520  0.0239 -0.2746 -1.6400
 7315SOL    HW233408   3.400   0.584   3.433  0.4462  1.1643 -0.7055
 7316SOL     OW33409   3.988   1.637   5.151  0.3996  0.6960  0.0231
 7316SOL    HW133410   4.016   1.717   5.106 -2.3205  0.9416 -1.1958
 7316SOL    HW233411   4.078   1.604   5.156  0.4155  0.4885 -1.5315
 7317SOL     OW33412   1.530   4.710  17.375 -0.0125 -0.4018  0.5490
 7317SOL    HW133413   1.589   4.637  17.356 -1.1239 -0.7763 -1.4861
 7317SOL    HW233414   1.468   4.673  17.438  0.8115 -0.8216  1.1184
 7318SOL     OW33415   1.510   1.529   1.633 -0.2115 -0.3818 -0.4574
 7318SOL    HW133416   1.560   1.450   1.611 -1.0005 -1.0206  0.0621
 7318SOL    HW233417   1.550   1.589   1.570  0.0625 -1.4639 -1.3178
 7319SOL     OW33418   1.844   4.109   7.822  0.4428  0.1051  0.2600
 7319SOL    HW133419   1.800   4.183   7.863 -2.0460 -1.1411 -0.1749
 7319SOL    HW233420   1.778   4.041   7.837  0.0799  0.3260 -0.3646
 7320SOL     OW33421   2.868   3.560  17.131  0.5098 -0.4139 -0.4552
 7320SOL    HW133422   2.892   3.645  17.168  1.9603 -1.4859  1.0769
 7320SOL    HW233423   2.787   3.585  17.087 -0.0866 -1.3251  0.1296
 7321SOL     OW33424   2.581   2.942   7.782 -0.2061 -0.3084  0.0374
 7321SOL    HW133425   2.627   2.939   7.866  2.7689  0.2453 -1.5540
 7321SOL    HW233426   2.536   3.026   7.783  3.2887  1.5389  0.8093
 7322SOL     OW33427   1.192   3.530   8.485  0.7681 -0.2914 -0.1515
 7322SOL    HW133428   1.285   3.536   8.466  1.4010 -0.5829  2.9972
 7322SOL    HW233429   1.193   3.583   8.564  0.5286  1.0257 -1.0250
 7323SOL     OW33430   0.523   2.852   7.701 -0.2134  0.1206 -0.4158
 7323SOL    HW133431   0.500   2.892   7.617  1.0347  0.5020 -0.5692
 7323SOL    HW233432   0.616   2.873   7.697 -0.7467  2.0642 -2.3222
 7324SOL     OW33433   0.005   1.790   4.929  0.3594  0.5625 -0.8168
 7324SOL    HW133434   0.002   1.714   4.871 -1.1757 -0.0001  0.0146
 7324SOL    HW233435   4.648   1.779   4.982  0.1137  0.3021 -1.2294
 7325SOL     OW33436   2.063   4.111   7.534 -0.5565  0.0080 -0.1752
 7325SOL    HW133437   1.970   4.136   7.530 -0.4707 -0.1641 -3.4698
 7325SOL    HW233438   2.067   4.021   7.502 -0.7636 -0.1093  0.1240
 7326SOL     OW33439   3.722   2.392   1.049 -1.1839  0.2934  0.4529
 7326SOL    HW133440   3.764   2.377   1.133 -1.5827 -1.4137  0.3554
 7326SOL    HW233441   3.799   2.433   1.009 -0.0616 -2.6958 -0.5064
 7327SOL     OW33442   4.683   0.022  17.285 -0.2875 -0.6842  0.3895
 7327SOL    HW133443   4.642   0.028  17.371  2.8515  2.2301  1.7030
 7327SOL    HW233444   4.611   0.053  17.229  1.8612 -0.8980 -2.4847
 7328SOL     OW33445   1.626   4.352   8.934  0.0633  0.3388 -0.3433
 7328SOL    HW133446   1.689   4.350   8.862  0.0924 -0.2578 -0.3061
 7328SOL    HW233447   1.646   4.272   8.983  0.6830  0.4376 -0.4345
 7329SOL     OW33448   0.217   1.270  17.657 -0.5292 -0.1309  0.0001
 7329SOL    HW133449   0.173   1.254  17.574  0.1902  0.3683 -0.4828
 7329SOL    HW233450   0.215   1.365  17.670  1.1522  0.2077 -2.1282
 7330SOL     OW33451   4.221   2.195   2.084 -0.0341 -0.0413 -0.7773
 7330SOL    HW133452   4.126   2.184   2.077  0.1610 -3.4315  1.5691
 7330SOL    HW233453   4.230   2.259   2.013 -2.9646  0.9633 -0.2440
 7331SOL     OW33454   2.908   3.839  14.954 -0.2868  0.5454 -0.9893
 7331SOL    HW133455   2.937   3.908  15.014  1.8014 -0.8850 -0.3106
 7331SOL    HW233456   2.952   3.764  14.996 -0.4176  1.5853  1.0015
 7332SOL     OW33457   0.467   1.470   2.698 -0.2547 -0.3212 -0.4417
 7332SOL    HW133458   0.561   1.457   2.703 -0.2527  0.2650  1.0931
 7332SOL    HW233459   0.430   1.381   2.695 -0.6528 -0.0687 -3.3227
 7333SOL     OW33460   2.601   0.808  10.093 -0.3307  0.0688  0.6692
 7333SOL    HW133461   2.693   0.830  10.104 -0.6357  1.9829 -0.6375
 7333SOL    HW233462   2.619   0.717  10.069 -1.4181 -0.3696  1.4962
 7334SOL     OW33463   4.163   4.430   9.849 -0.3362 -0.3474 -0.1552
 7334SOL    HW133464   4.218   4.352   9.839 -0.8742 -0.4806 -2.0698
 7334SOL    HW233465   4.157   4.452   9.756  1.9194  3.2792  0.5572
 7335SOL     OW33466   0.927   1.745   5.541 -0.1524  0.1065  0.3884
 7335SOL    HW133467   0.976   1.778   5.465 -1.7733 -3.2522 -2.1179
 7335SOL    HW233468   0.887   1.668   5.502 -2.7852  0.8619  1.6055
 7336SOL     OW33469   1.133   2.159   5.921  0.3168 -1.1875  0.0326
 7336SOL    HW133470   1.183   2.132   5.844 -0.4401  0.2974 -0.9562
 7336SOL    HW233471   1.094   2.238   5.886  0.2889 -2.2791 -2.3785
 7337SOL     OW33472   0.229   3.916  16.961  0.1405  0.1859 -0.0436
 7337SOL    HW133473   0.247   3.911  16.867 -1.6538  0.5314 -0.4127
 7337SOL    HW233474   0.244   3.829  16.997  0.6724 -1.3569 -4.0309
 7338SOL     OW33475   2.598   0.092   8.499 -0.1226  0.1775  0.0792
 7338SOL    HW133476   2.625   0.079   8.590 -0.2704 -0.4618  0.0274
 7338SOL    HW233477   2.668   0.043   8.455  1.8955  1.4536  1.8521
 7339SOL     OW33478   0.025   1.707   6.482 -0.1885 -0.3706  0.3181
 7339SOL    HW133479   0.118   1.727   6.483 -0.0734 -0.8856  0.1238
 7339SOL    HW233480   4.703   1.778   6.528 -0.4105 -0.1288 -0.2584
 7340SOL     OW33481   4.453   2.043  10.386  0.4831 -0.6567  0.1507
 7340SOL    HW133482   4.400   2.040  10.306 -1.0560 -0.4823  1.1554
 7340SOL    HW233483   4.390   1.997  10.441 -0.7662  0.9178  0.0541
 7341SOL     OW33484   0.172   1.839  14.127 -0.5086 -0.0632  0.3517
 7341SOL    HW133485   0.226   1.770  14.167 -0.6752 -1.4131 -1.7188
 7341SOL    HW233486   0.091   1.837  14.178 -0.2995 -2.3540  0.5983
 7342SOL     OW33487   2.527   4.246   6.137  0.3104 -0.6434  0.1505
 7342SOL    HW133488   2.494   4.159   6.115 -0.1422 -0.8938  1.8595
 7342SOL    HW233489   2.607   4.213   6.178  2.0049  1.2494 -1.6416
 7343SOL     OW33490   1.566   4.175   7.638  0.4736 -0.6371 -0.3501
 7343SOL    HW133491   1.648   4.144   7.675 -0.4824  0.9890  3.1826
 7343SOL    HW233492   1.593   4.262   7.612 -2.1571  0.2631 -0.0577
 7344SOL     OW33493   0.922   3.535   3.893  0.6594  0.4884  0.3335
 7344SOL    HW133494   0.899   3.446   3.919  1.1162  0.2584 -0.0396
 7344SOL    HW233495   0.957   3.516   3.805  1.2817  0.1351  0.6579
 7345SOL     OW33496   3.301   1.434  16.458 -0.3193 -0.5456 -0.3932
 7345SOL    HW133497   3.318   1.342  16.437  3.3392  0.0880 -0.3330
 7345SOL    HW233498   3.362   1.475  16.396  1.0097  0.3428  1.5001
 7346SOL     OW33499   4.367   3.439   5.989 -0.2127 -0.0906 -0.4961
 7346SOL    HW133500   4.426   3.399   5.926  0.1944 -1.4148  0.7273
 7346SOL    HW233501   4.390   3.411   6.078 -0.6604  0.0927 -0.3179
 7347SOL     OW33502   4.259   3.512   4.333 -0.1835 -0.4779 -0.7439
 7347SOL    HW133503   4.165   3.531   4.328 -0.1335 -0.6602 -2.3275
 7347SOL    HW233504   4.304   3.591   4.303  0.5787 -0.0004  1.6350
 7348SOL     OW33505   4.428   2.210   8.588  0.1640 -0.0875 -0.4038
 7348SOL    HW133506   4.352   2.179   8.636  0.0983  0.9094  0.1449
 7348SOL    HW233507   4.437   2.299   8.622 -2.6275  1.2960 -3.3207
 7349SOL     OW33508   4.679   2.322   2.084  0.0770  0.2346 -0.0038
 7349SOL    HW133509   0.025   2.292   2.024  1.4811 -0.2114  1.8280
 7349SOL    HW233510   4.644   2.390   2.026 -0.0309  0.2505  0.0801
 7350SOL     OW33511   4.538   3.279   4.832  0.1078 -1.0249 -0.3409
 7350SOL    HW133512   4.622   3.234   4.832 -0.1017 -1.4232  0.6149
 7350SOL    HW233513   4.509   3.264   4.742  3.7015 -2.3340 -1.2653
 7351SOL     OW33514   1.716   3.656  14.749 -0.0702  0.0762  0.5203
 7351SOL    HW133515   1.664   3.691  14.676 -0.3103 -0.9692  0.1839
 7351SOL    HW233516   1.718   3.733  14.805  0.3797 -0.3921  1.1537
 7352SOL     OW33517   4.027   3.582   6.158 -0.3904 -0.3541  0.4310
 7352SOL    HW133518   4.093   3.651   6.157  2.7643 -3.3607  0.9169
 7352SOL    HW233519   4.027   3.581   6.254  2.5482  0.1957  0.4441
 7353SOL     OW33520   2.890   1.849  11.526 -0.4516 -0.6252 -0.4650
 7353SOL    HW133521   2.901   1.759  11.497  1.3517 -0.7834  0.7011
 7353SOL    HW233522   2.814   1.876  11.475 -1.0146 -0.2102  0.5861
 7354SOL     OW33523   1.795   3.177   2.613 -0.2779 -0.0298  0.0710
 7354SOL    HW133524   1.703   3.206   2.610 -0.3611 -0.3861 -0.8002
 7354SOL    HW233525   1.797   3.120   2.690  0.4657 -0.3666 -0.2060
 7355SOL     OW33526   3.852   4.153  10.936  0.3206 -0.4163  0.0760
 7355SOL    HW133527   3.911   4.089  10.896  1.5708  0.9847 -0.3124
 7355SOL    HW233528   3.894   4.167  11.021 -1.0206 -1.0092  0.8289
 7356SOL     OW33529   0.076   2.720  10.049 -0.6481  0.0380 -0.2924
 7356SOL    HW133530   0.080   2.738   9.955 -1.2854  1.4648 -0.0368
 7356SOL    HW233531   0.056   2.626  10.051  0.3237 -0.1586  0.3389
 7357SOL     OW33532   0.235   2.110   1.075 -0.2820 -0.1576 -0.1651
 7357SOL    HW133533   0.278   2.185   1.032  3.1786 -1.9214  0.2290
 7357SOL    HW233534   0.154   2.100   1.025 -0.3263 -1.2881  0.1300
 7358SOL     OW33535   0.222   2.905   5.345 -0.4566 -0.0026 -0.5788
 7358SOL    HW133536   0.205   2.811   5.352 -0.9040  0.3306  2.9488
 7358SOL    HW233537   0.265   2.920   5.429 -1.2941 -1.8105  0.1656
 7359SOL     OW33538   0.528   1.535   0.398  0.8729  0.3565 -0.1764
 7359SOL    HW133539   0.500   1.624   0.423 -0.3436 -0.4330  1.2643
 7359SOL    HW233540   0.471   1.485   0.456  1.0167  2.2227  1.6056
 7360SOL     OW33541   1.992   2.027   2.349  0.3449  0.7857 -0.2293
 7360SOL    HW133542   2.002   2.011   2.256 -0.7986 -0.8921 -0.0593
 7360SOL    HW233543   2.065   1.974   2.383 -0.9984 -0.9455 -0.0354
 7361SOL     OW33544   4.293   2.840   4.871  0.7109  0.0606  0.2802
 7361SOL    HW133545   4.308   2.871   4.960  0.3055  0.8335  0.0745
 7361SOL    HW233546   4.309   2.746   4.871 -0.5154 -0.1500 -0.3376
 7362SOL     OW33547   1.694   2.092   9.251  0.2346 -0.3077  0.2366
 7362SOL    HW133548   1.750   2.073   9.176  0.5067  1.3442  0.0247
 7362SOL    HW233549   1.714   2.009   9.295 -0.3501 -0.3912  0.3532
 7363SOL     OW33550   3.659   3.176   8.036  0.6880 -0.2343  0.4135
 7363SOL    HW133551   3.655   3.257   7.984 -1.2967 -0.2346  0.5600
 7363SOL    HW233552   3.745   3.149   8.002  0.2921  0.4308 -1.1239
 7364SOL     OW33553   0.536   2.526   9.632  0.5378 -0.6597 -0.3100
 7364SOL    HW133554   0.628   2.545   9.615 -0.0468  1.4574 -1.1503
 7364SOL    HW233555   0.539   2.517   9.727  1.5385 -0.6771 -0.3420
 7365SOL     OW33556   1.004   2.216   0.479  0.2062  0.0303  0.2366
 7365SOL    HW133557   1.057   2.168   0.543  0.5610 -1.7846 -1.4436
 7365SOL    HW233558   0.979   2.152   0.412  0.9761 -0.0503  0.0340
 7366SOL     OW33559   3.372   0.216   4.053  0.0625  0.1777 -0.4275
 7366SOL    HW133560   3.432   0.163   4.105 -0.9112 -0.0335  0.4654
 7366SOL    HW233561   3.342   0.288   4.108 -1.8097 -0.7031 -0.2976
 7367SOL     OW33562   0.761   0.149   7.408 -0.2420  0.3140 -0.9678
 7367SOL    HW133563   0.669   0.150   7.382 -0.8826  1.5219  1.3408
 7367SOL    HW233564   0.801   0.116   7.328 -2.0847 -1.0968 -1.3040
 7368SOL     OW33565   4.073   3.610  15.146 -0.6977 -0.0341 -0.6115
 7368SOL    HW133566   4.074   3.675  15.216 -1.1465 -0.7767  0.0769
 7368SOL    HW233567   4.167   3.590  15.149 -0.3272  1.6635 -0.7428
 7369SOL     OW33568   1.144   4.438   4.682 -0.3608  0.0796 -0.7727
 7369SOL    HW133569   1.185   4.514   4.723 -0.8330  0.5062 -1.0809
 7369SOL    HW233570   1.212   4.371   4.682 -1.2206 -0.8088  0.7449
 7370SOL     OW33571   2.885   1.339  12.014  0.1061  0.1387 -0.4565
 7370SOL    HW133572   2.899   1.434  12.012 -0.3488  0.2610  2.1649
 7370SOL    HW233573   2.897   1.315  12.106  1.0388 -0.7528 -0.8148
 7371SOL     OW33574   4.716   2.948  10.151 -0.5188 -0.1688  0.6411
 7371SOL    HW133575   4.622   2.945  10.136 -0.8320  0.5678  2.4527
 7371SOL    HW233576   0.025   2.873  10.101  0.0929  2.7431 -3.3454
 7372SOL     OW33577   3.316   1.597   4.447 -0.0280  0.1202  0.1518
 7372SOL    HW133578   3.260   1.674   4.434  1.0330  0.7176 -0.8526
 7372SOL    HW233579   3.360   1.612   4.530  0.5693  0.8807 -0.3019
 7373SOL     OW33580   4.221   3.581   3.536  0.2850  0.0864 -0.0835
 7373SOL    HW133581   4.240   3.622   3.451  0.9702  0.2671  0.1581
 7373SOL    HW233582   4.220   3.491   3.502  1.3038  0.1401 -0.2633
 7374SOL     OW33583   3.998   2.803   0.443  0.1500 -0.5655 -0.7756
 7374SOL    HW133584   3.907   2.823   0.422  1.0935  4.0922 -0.3676
 7374SOL    HW233585   4.040   2.878   0.402 -2.2229  1.0891 -0.1774
 7375SOL     OW33586   4.134   2.569   8.607 -0.5785  0.1811 -0.0209
 7375SOL    HW133587   4.185   2.648   8.590 -1.8023  1.2042  1.0400
 7375SOL    HW233588   4.099   2.559   8.519 -0.2344 -0.4402 -0.0841
 7376SOL     OW33589   0.456   3.523   0.560 -0.4011 -0.0052 -0.2059
 7376SOL    HW133590   0.477   3.610   0.594 -2.5694  1.7369 -3.3410
 7376SOL    HW233591   0.361   3.532   0.547 -0.0711  3.1686 -0.3850
 7377SOL     OW33592   3.486   0.005   8.606  0.2612 -1.0211 -0.0530
 7377SOL    HW133593   3.531   0.080   8.644 -2.9964  1.4719 -1.0654
 7377SOL    HW233594   3.457   0.047   8.524  3.4338  1.3463  0.0739
 7378SOL     OW33595   4.486   0.699   7.074 -0.3828 -0.2222  0.2805
 7378SOL    HW133596   4.491   0.792   7.054  0.7403  0.1296  2.2285
 7378SOL    HW233597   4.396   0.682   7.102 -0.7903  1.2852 -0.1201
 7379SOL     OW33598   1.389   1.121   3.692 -0.0341  0.4408 -0.1137
 7379SOL    HW133599   1.415   1.122   3.785  0.8383 -2.3913 -0.3390
 7379SOL    HW233600   1.472   1.120   3.646 -1.0210 -0.3508 -1.8833
 7380SOL     OW33601   4.425   3.513  10.176  0.6704  0.5574 -0.2149
 7380SOL    HW133602   4.376   3.563  10.111 -0.1670  0.4825  0.3649
 7380SOL    HW233603   4.356   3.491  10.239  1.4359 -0.2955  0.3234
 7381SOL     OW33604   1.117   0.178   3.752 -0.4481 -0.0753  0.1007
 7381SOL    HW133605   1.086   0.090   3.729 -0.1226 -0.0072 -0.6049
 7381SOL    HW233606   1.161   0.148   3.832  1.6592 -0.1522 -1.0867
 7382SOL     OW33607   1.399   4.087   7.957  0.3850 -0.5057  0.1956
 7382SOL    HW133608   1.340   4.044   8.019 -0.4582  1.5482  0.8177
 7382SOL    HW233609   1.370   4.178   7.961  1.0576 -0.3800  2.1743
 7383SOL     OW33610   1.107   0.314   3.331 -0.0870 -0.2973  0.3936
 7383SOL    HW133611   1.093   0.350   3.244 -0.8246  0.7765  0.9481
 7383SOL    HW233612   1.070   0.228   3.310 -0.5332  0.2322 -0.9455
 7384SOL     OW33613   1.699   2.925   1.928  0.1366  0.4593  0.0037
 7384SOL    HW133614   1.658   2.839   1.939 -0.1826  0.7611  1.2442
 7384SOL    HW233615   1.780   2.891   1.892 -0.6470  1.0918 -2.3160
 7385SOL     OW33616   2.199   3.041   2.678  0.1451  0.4127 -0.2217
 7385SOL    HW133617   2.233   2.965   2.631  0.2346  0.4703 -0.2518
 7385SOL    HW233618   2.286   3.065   2.711  0.0031  0.9437 -0.2360
 7386SOL     OW33619   0.737   3.638   1.058  0.5598  0.0804 -0.3993
 7386SOL    HW133620   0.775   3.577   1.122 -0.2870 -0.3276 -0.2810
 7386SOL    HW233621   0.669   3.580   1.024 -1.0849  0.9564  1.3346
 7387SOL     OW33622   1.651   4.179   0.836  0.0987 -0.3103 -0.0457
 7387SOL    HW133623   1.584   4.173   0.905  1.5323  1.7209  1.5092
 7387SOL    HW233624   1.739   4.178   0.872 -0.8215  0.5986  2.2411
 7388SOL     OW33625   3.443   4.519  16.392 -1.1196  0.3216  0.1646
 7388SOL    HW133626   3.494   4.553  16.319  0.2570  1.6246  1.7237
 7388SOL    HW233627   3.478   4.575  16.461 -0.0854 -0.8038  0.5647
 7389SOL     OW33628   1.036   3.735   3.345  0.0037  0.2170  0.7418
 7389SOL    HW133629   1.046   3.793   3.270 -2.7261 -0.9643 -0.5422
 7389SOL    HW233630   1.112   3.767   3.394  0.2819 -1.4627  1.4283
 7390SOL     OW33631   1.884   4.275   5.607 -0.0005 -0.2423  0.1347
 7390SOL    HW133632   1.884   4.371   5.610  0.1658 -0.1928 -1.6287
 7390SOL    HW233633   1.974   4.251   5.628 -0.0504 -0.9784 -0.5121
 7391SOL     OW33634   1.527   1.689  10.139 -0.3792  0.3227  0.5280
 7391SOL    HW133635   1.439   1.708  10.107  0.3191  0.9260 -1.0512
 7391SOL    HW233636   1.561   1.776  10.161 -0.5705  0.7083 -0.6903
 7392SOL     OW33637   3.996   3.425  14.220  0.2296  0.1405 -0.3077
 7392SOL    HW133638   3.927   3.489  14.200 -0.2937  0.5075  2.5709
 7392SOL    HW233639   4.048   3.433  14.140  1.3482 -0.5436  0.3486
 7393SOL     OW33640   3.502   3.312   0.524  0.2343 -0.9676 -0.1911
 7393SOL    HW133641   3.589   3.276   0.540  0.6616  0.5163  0.8749
 7393SOL    HW233642   3.455   3.276   0.600  0.3427  0.8270  0.7432
 7394SOL     OW33643   2.658   4.703   8.839 -0.3310  0.6509 -0.9611
 7394SOL    HW133644   2.698   0.060   8.876 -0.5283  0.7026 -0.8607
 7394SOL    HW233645   2.569   4.704   8.872  1.2061  2.9754  3.0739
 7395SOL     OW33646   2.882   1.386   2.795  0.2409 -0.7750  0.3161
 7395SOL    HW133647   2.967   1.354   2.825  0.3299 -1.2064 -0.3923
 7395SOL    HW233648   2.858   1.455   2.857  2.8791  1.4420 -1.1126
 7396SOL     OW33649   2.626   3.516  16.303 -0.2437 -0.2988 -0.2956
 7396SOL    HW133650   2.602   3.522  16.395 -1.4235 -0.7709 -0.5768
 7396SOL    HW233651   2.650   3.424  16.296  1.7788  0.1052  1.3301
 7397SOL     OW33652   4.267   1.711   5.380 -0.3164 -0.0554  0.2937
 7397SOL    HW133653   4.306   1.683   5.463  1.1685 -0.5673 -0.5769
 7397SOL    HW233654   4.295   1.640   5.323 -1.2613  0.5935 -0.9776
 7398SOL     OW33655   1.125   0.174  13.873  0.4767  0.3271  0.2803
 7398SOL    HW133656   1.036   0.203  13.891  0.1348  0.5418 -1.7605
 7398SOL    HW233657   1.119   0.163  13.778  0.5683 -0.1497  0.3291
 7399SOL     OW33658   1.632   2.519  14.001 -0.6578 -0.6585  0.0572
 7399SOL    HW133659   1.671   2.567  14.075  4.0840 -1.3079 -1.9852
 7399SOL    HW233660   1.566   2.586  13.982 -1.1053 -1.4422 -1.1470
 7400SOL     OW33661   3.245   4.705   3.331 -0.4951 -0.0400  0.1176
 7400SOL    HW133662   3.227   4.629   3.386 -0.8891 -0.0718 -0.0529
 7400SOL    HW233663   3.257   4.673   3.241 -0.9953 -0.5540  0.2291
 7401SOL     OW33664   0.841   0.823  12.017  0.4035  0.4836 -0.4676
 7401SOL    HW133665   0.873   0.783  11.936  0.6538 -1.1087  0.4142
 7401SOL    HW233666   0.777   0.887  11.986 -1.4121 -0.4849  1.3396
 7402SOL     OW33667   2.401   3.219   5.470  0.3200 -0.1232 -0.2532
 7402SOL    HW133668   2.449   3.228   5.553 -0.7111 -2.1998  0.5525
 7402SOL    HW233669   2.310   3.225   5.499 -0.0818 -4.3762 -0.6603
 7403SOL     OW33670   2.086   0.202   5.229 -0.3148  0.3168 -0.3523
 7403SOL    HW133671   2.111   0.116   5.262 -0.4451  0.4552  0.0969
 7403SOL    HW233672   2.121   0.204   5.140 -2.8070 -0.0830 -1.3382
 7404SOL     OW33673   4.387   0.086   6.117  0.5257  0.3581 -0.2509
 7404SOL    HW133674   4.451   0.089   6.188  0.5749  0.9774 -0.3180
 7404SOL    HW233675   4.441   0.079   6.038  0.6961 -0.9390 -0.0208
 7405SOL     OW33676   2.532   0.382   0.151 -0.2393  0.0073  0.1868
 7405SOL    HW133677   2.528   0.469   0.111 -0.5947  0.3264  0.9069
 7405SOL    HW233678   2.499   0.325   0.082  1.0036 -1.1214  0.5312
 7406SOL     OW33679   0.259   1.171   8.338 -0.1418  0.0371  0.1954
 7406SOL    HW133680   0.260   1.253   8.289 -0.0639  1.1885  2.1211
 7406SOL    HW233681   0.238   1.196   8.428 -0.5509 -1.5116  0.5383
 7407SOL     OW33682   0.104   2.521   1.715  0.4753 -0.1704  0.1900
 7407SOL    HW133683   0.083   2.560   1.800  1.2337 -0.9442  0.7195
 7407SOL    HW233684   0.024   2.554   1.673  0.6961 -1.5917 -1.3062
 7408SOL     OW33685   4.608   0.037  17.550  0.6739 -0.1139  0.2145
 7408SOL    HW133686   4.614   4.697  17.622  0.8258  0.5881  0.8058
 7408SOL    HW233687   4.594   0.123  17.589  0.3744 -0.7007  1.3787
 7409SOL     OW33688   2.812   0.941  11.906 -0.4557 -0.2818 -0.0547
 7409SOL    HW133689   2.776   1.029  11.894  1.3402  0.3372 -0.9003
 7409SOL    HW233690   2.741   0.886  11.938 -1.9449  1.1015 -1.0302
 7410SOL     OW33691   3.012   3.156   1.908  0.2618  0.0181  0.5584
 7410SOL    HW133692   3.076   3.085   1.917  0.1892 -0.2778 -1.2117
 7410SOL    HW233693   3.057   3.218   1.851  0.7949  1.3990  2.4823
 7411SOL     OW33694   4.470   1.827   3.512  0.4427 -0.2442  0.1272
 7411SOL    HW133695   4.516   1.778   3.580 -0.0420 -1.6758 -0.6006
 7411SOL    HW233696   4.547   1.867   3.471 -0.9721 -0.0876 -2.3455
 7412SOL     OW33697   0.081   4.354   6.126 -0.3925 -0.1851 -0.5505
 7412SOL    HW133698   0.139   4.338   6.052 -0.9419  2.3465 -1.5422
 7412SOL    HW233699   0.064   4.448   6.121  1.0950  0.1275  0.4456
 7413SOL     OW33700   2.578   1.553   6.423  0.6546 -0.6396 -0.1344
 7413SOL    HW133701   2.540   1.594   6.501  0.6207  0.1512 -0.5616
 7413SOL    HW233702   2.521   1.477   6.408 -1.3531  1.5241 -3.6509
 7414SOL     OW33703   3.475   4.015   8.783 -0.5101 -0.1778 -0.2655
 7414SOL    HW133704   3.420   4.091   8.802 -0.1439 -0.3618  1.5385
 7414SOL    HW233705   3.524   4.048   8.708  0.1866  0.9369  0.6903
 7415SOL     OW33706   3.591   4.071  10.333  0.5600  0.2586  0.1628
 7415SOL    HW133707   3.651   4.052  10.260 -1.0896 -0.3537 -1.0472
 7415SOL    HW233708   3.632   4.027  10.407 -1.4937 -0.2623  0.9896
 7416SOL     OW33709   3.285   2.416   8.124  0.1441 -0.4247  0.6553
 7416SOL    HW133710   3.281   2.321   8.111 -0.4217 -0.4623  1.1190
 7416SOL    HW233711   3.317   2.416   8.215 -1.7302 -1.1301  1.3134
 7417SOL     OW33712   0.483   3.710  14.694 -0.1473 -0.6148 -0.0225
 7417SOL    HW133713   0.561   3.688  14.746  2.5589 -1.4552 -4.4319
 7417SOL    HW233714   0.427   3.756  14.757  0.4254  0.1476 -0.0564
 7418SOL     OW33715   3.804   0.481   0.362  0.8971 -0.5547  0.3754
 7418SOL    HW133716   3.764   0.537   0.428 -1.6740  0.8523 -2.3312
 7418SOL    HW233717   3.813   0.395   0.401 -0.7884 -0.6834  0.4862
 7419SOL     OW33718   1.056   1.079   5.111 -0.0225  0.0084  0.1961
 7419SOL    HW133719   1.045   0.984   5.111  0.3221 -0.0511 -2.3378
 7419SOL    HW233720   1.144   1.086   5.074 -0.2718  1.0605 -0.2050
 7420SOL     OW33721   0.671   2.360  15.310  0.2215 -0.1647 -0.1290
 7420SOL    HW133722   0.721   2.433  15.273 -0.1165 -0.1304 -0.5208
 7420SOL    HW233723   0.615   2.341  15.235 -0.4371 -0.9123  0.5501
 7421SOL     OW33724   0.151   4.679  15.338  0.0495  0.0450 -0.2872
 7421SOL    HW133725   0.214   0.026  15.357 -1.8450  1.5629  0.4884
 7421SOL    HW233726   0.077   0.018  15.334  0.5509  0.9045  3.6988
 7422SOL     OW33727   3.448   1.139   2.364 -0.2844 -0.6432 -0.1868
 7422SOL    HW133728   3.438   1.140   2.268  2.3279 -1.8556 -0.4642
 7422SOL    HW233729   3.486   1.053   2.383 -0.8732 -0.8177  0.2019
 7423SOL     OW33730   4.236   2.923   8.324  0.6658 -0.2056 -0.4551
 7423SOL    HW133731   4.193   2.887   8.247  1.7554 -0.6914 -0.8421
 7423SOL    HW233732   4.321   2.950   8.288  0.2991 -0.6762 -1.6707
 7424SOL     OW33733   1.382   2.696  11.563 -0.2102  0.5659 -0.2446
 7424SOL    HW133734   1.440   2.748  11.620 -1.0870  1.4625 -0.1559
 7424SOL    HW233735   1.426   2.611  11.563  0.2782  0.8242  3.2087
 7425SOL     OW33736   4.599   0.568  15.826  0.9923 -0.0893 -0.1749
 7425SOL    HW133737   4.617   0.659  15.850 -0.2125 -0.0363  0.5326
 7425SOL    HW233738   4.665   0.521  15.877 -0.4641 -1.4745  0.4076
 7426SOL     OW33739   0.434   3.856  12.193 -0.6564  0.1160  0.0742
 7426SOL    HW133740   0.443   3.927  12.129 -2.5104 -0.7974 -1.2126
 7426SOL    HW233741   0.453   3.776  12.144 -0.5441  1.1533 -1.5853
 7427SOL     OW33742   3.022   3.184   3.481 -0.3201  0.1032  0.4342
 7427SOL    HW133743   2.945   3.175   3.424  0.7676 -1.1535 -0.8461
 7427SOL    HW233744   3.019   3.260   3.539  0.6452  2.6846 -2.8934
 7428SOL     OW33745   0.304   0.697   6.499  0.1736  0.4949 -0.0272
 7428SOL    HW133746   0.319   0.791   6.493 -0.7085  0.6504  0.0900
 7428SOL    HW233747   0.366   0.678   6.429  1.0760 -1.3899  1.2801
 7429SOL     OW33748   1.144   0.929   8.973  0.0161  0.4464  0.3351
 7429SOL    HW133749   1.205   0.979   8.919  1.5268 -0.9197  0.7868
 7429SOL    HW233750   1.063   0.952   8.926 -0.1283  2.6105  1.6414
 7430SOL     OW33751   4.313   3.079   3.126 -0.2377 -0.0402 -0.0906
 7430SOL    HW133752   4.342   3.169   3.126 -0.0191 -0.1080 -1.4891
 7430SOL    HW233753   4.225   3.081   3.163  0.2958 -1.2471  1.2478
 7431SOL     OW33754   0.060   1.642  10.255 -0.1264 -0.3172  0.5894
 7431SOL    HW133755   0.029   1.674  10.170  1.0278  0.6029  0.5052
 7431SOL    HW233756   0.111   1.715  10.292 -1.7785  1.1849 -0.0792
 7432SOL     OW33757   2.431   4.714   5.104  0.3258 -1.0982 -0.4393
 7432SOL    HW133758   2.431   4.626   5.142 -1.2002 -1.8605 -2.2094
 7432SOL    HW233759   2.480   0.041   5.169  0.1999 -1.4804 -0.0595
 7433SOL     OW33760   2.191   3.700   2.999 -0.2914 -0.0164  0.0171
 7433SOL    HW133761   2.240   3.698   2.917  0.6078  0.7217  0.5337
 7433SOL    HW233762   2.219   3.620   3.044  1.3515  0.6221  0.1244
 7434SOL     OW33763   1.375   3.479   2.080  0.2051  0.0047  0.4594
 7434SOL    HW133764   1.317   3.511   2.011  1.6075  1.6711  0.0502
 7434SOL    HW233765   1.360   3.543   2.150  1.8929  3.1582 -2.0798
 7435SOL     OW33766   2.878   4.069   9.582  0.1051 -0.3470 -0.1771
 7435SOL    HW133767   2.971   4.090   9.588  0.5269 -1.9549 -1.2000
 7435SOL    HW233768   2.842   4.133   9.644 -2.1377 -1.7146 -0.0603
 7436SOL     OW33769   1.970   1.773   3.734  0.0888 -0.1135 -0.5876
 7436SOL    HW133770   1.980   1.862   3.699  1.2856 -0.1992 -0.4579
 7436SOL    HW233771   1.896   1.740   3.682 -1.5592 -0.0802  1.7464
 7437SOL     OW33772   0.463   2.158   6.693 -0.2893  0.1136  0.7004
 7437SOL    HW133773   0.444   2.146   6.600  3.1155  0.4723 -0.0448
 7437SOL    HW233774   0.529   2.092   6.716 -0.9076 -1.7124 -2.8367
 7438SOL     OW33775   2.520   4.139   2.680  0.8410 -0.7057  0.1868
 7438SOL    HW133776   2.567   4.165   2.760  0.6010 -1.4188  0.5629
 7438SOL    HW233777   2.560   4.206   2.625  1.9834 -1.0144  0.6329
 7439SOL     OW33778   0.426   2.226   9.845  0.3564 -0.2331  0.3562
 7439SOL    HW133779   0.512   2.213   9.886 -0.1858  1.4060  1.9915
 7439SOL    HW233780   0.447   2.214   9.752 -0.3811  0.4843  0.1033
 7440SOL     OW33781   1.667   0.122   4.255 -0.1652  0.5269  0.2509
 7440SOL    HW133782   1.718   0.065   4.199 -1.0629  0.3762 -0.4103
 7440SOL    HW233783   1.663   0.070   4.336 -1.3281 -0.1328 -0.2334
 7441SOL     OW33784   2.525   4.640   1.067 -0.5981  0.3361  0.0686
 7441SOL    HW133785   2.571   4.688   0.998  0.4139 -0.6193  0.0715
 7441SOL    HW233786   2.523   4.551   1.031 -0.2113  0.4612 -0.2545
 7442SOL     OW33787   0.319   2.533   4.443 -0.5954  0.1549 -0.5342
 7442SOL    HW133788   0.374   2.538   4.521 -1.0241 -2.6482 -0.0570
 7442SOL    HW233789   0.231   2.541   4.478 -0.9226  0.7390 -1.4880
 7443SOL     OW33790   1.413   3.305   7.845 -0.3380 -0.0403 -0.0842
 7443SOL    HW133791   1.387   3.214   7.861 -0.9038  0.0998 -0.2051
 7443SOL    HW233792   1.364   3.339   7.770  0.0639 -1.3723 -0.9544
 7444SOL     OW33793   0.416   1.991  12.093  0.5411 -0.3907 -0.4563
 7444SOL    HW133794   0.337   2.044  12.105 -0.7652 -2.2459 -0.7789
 7444SOL    HW233795   0.447   1.971  12.182 -1.3444 -0.8382  0.1015
 7445SOL     OW33796   2.871   1.733   5.075 -1.0742 -0.4960  0.1026
 7445SOL    HW133797   2.910   1.817   5.048 -1.2331 -0.1112  1.0889
 7445SOL    HW233798   2.914   1.703   5.155  1.9307 -0.6545 -1.5515
 7446SOL     OW33799   1.191   3.789   4.818  0.0846 -0.6273 -0.4529
 7446SOL    HW133800   1.188   3.883   4.804 -0.2998 -0.6861 -0.7461
 7446SOL    HW233801   1.225   3.787   4.908  0.7609 -0.4796 -0.7071
 7447SOL     OW33802   3.648   3.513   6.362  0.1859 -0.2630  0.0593
 7447SOL    HW133803   3.688   3.485   6.280 -0.2645  1.9236 -0.9175
 7447SOL    HW233804   3.678   3.444   6.422 -0.6656  0.0393  0.8236
 7448SOL     OW33805   4.701   2.423   3.120 -0.5736 -0.0279 -0.2005
 7448SOL    HW133806   4.670   2.484   3.187  0.3399 -0.6378  0.7785
 7448SOL    HW233807   0.072   2.445   3.112 -0.6087 -0.3730 -1.5158
 7449SOL     OW33808   0.642   4.287  14.064  0.5022  0.2791 -0.3301
 7449SOL    HW133809   0.661   4.205  14.019  0.6146 -0.9952  2.0520
 7449SOL    HW233810   0.590   4.328  13.995  0.5595  1.0111  0.0645
 7450SOL     OW33811   4.329   0.311  17.639 -0.4332  0.0006 -0.3672
 7450SOL    HW133812   4.342   0.228  17.593 -0.6539  1.6728 -3.4456
 7450SOL    HW233813   4.234   0.304  17.648 -0.3503 -0.7759 -0.1230
 7451SOL     OW33814   3.536   3.911  13.732  0.1633 -0.9710  0.1077
 7451SOL    HW133815   3.554   3.951  13.647 -0.1297  0.0605  0.5403
 7451SOL    HW233816   3.479   3.975  13.774 -0.6893 -0.9451 -1.0769
 7452SOL     OW33817   3.166   4.032   7.468  0.3078  0.3544 -0.2088
 7452SOL    HW133818   3.215   3.955   7.499  0.9562  1.2937  1.0970
 7452SOL    HW233819   3.153   4.083   7.548 -1.1550 -0.3981  0.0471
 7453SOL     OW33820   0.947   2.836  14.183  0.4395  0.0164  0.2849
 7453SOL    HW133821   0.986   2.898  14.245  0.0931  1.2282 -0.7062
 7453SOL    HW233822   0.858   2.826  14.216  1.7629 -1.8438  3.1953
 7454SOL     OW33823   4.252   4.418   6.935  0.2190  0.0070 -0.1217
 7454SOL    HW133824   4.217   4.448   7.019 -2.1459 -1.4094 -0.6068
 7454SOL    HW233825   4.284   4.502   6.903  0.8307  0.6851  2.2356
 7455SOL     OW33826   1.855   0.316  12.680  0.1463  0.7323  0.2187
 7455SOL    HW133827   1.922   0.324  12.612 -0.5025 -0.9190 -0.6057
 7455SOL    HW233828   1.793   0.259  12.635  0.6138  1.0958 -0.8852
 7456SOL     OW33829   2.051   3.746   4.780  0.0849 -0.8472  0.3904
 7456SOL    HW133830   2.129   3.698   4.752  1.6178  1.6452  0.3582
 7456SOL    HW233831   2.027   3.693   4.856 -2.1366  1.5259  1.3455
 7457SOL     OW33832   1.068   4.458   4.412 -0.1209  0.5778  0.3840
 7457SOL    HW133833   0.979   4.426   4.427  0.3156 -1.0112 -0.4403
 7457SOL    HW233834   1.106   4.417   4.489  1.9331 -0.5940 -1.2602
 7458SOL     OW33835   4.479   0.054   1.745  0.0994  0.2169 -1.4374
 7458SOL    HW133836   4.485   4.708   1.813 -0.8941  1.6706  0.1070
 7458SOL    HW233837   4.520   0.014   1.669 -1.0192 -2.5672 -0.5949
 7459SOL     OW33838   4.307   4.453   4.465  0.0724  0.1528  0.2733
 7459SOL    HW133839   4.329   4.501   4.545 -0.7026 -1.0755  1.2203
 7459SOL    HW233840   4.263   4.526   4.423  1.7321 -0.3492 -2.3076
 7460SOL     OW33841   1.512   3.730  17.537  0.0624  0.2753 -0.5103
 7460SOL    HW133842   1.484   3.771  17.619 -0.6152  2.2141 -1.7266
 7460SOL    HW233843   1.599   3.698  17.562 -0.9718 -0.7441  1.8404
 7461SOL     OW33844   1.506   0.402   8.807 -0.9143  0.2080 -0.4896
 7461SOL    HW133845   1.546   0.488   8.819 -1.7669  0.4339  0.7337
 7461SOL    HW233846   1.589   0.356   8.795 -0.0476  1.2185  1.8071
 7462SOL     OW33847   3.163   0.715   6.105 -0.3224 -0.1630 -0.6521
 7462SOL    HW133848   3.204   0.761   6.178  0.0033 -2.9490  0.9245
 7462SOL    HW233849   3.135   0.636   6.152  0.2900 -0.4117 -0.7052
 7463SOL     OW33850   1.667   4.098   8.101  0.0912 -0.7397 -0.3074
 7463SOL    HW133851   1.652   4.187   8.069  1.2025  0.1977  1.8146
 7463SOL    HW233852   1.598   4.053   8.052 -1.8935  1.3457  0.5792
 7464SOL     OW33853   0.832   3.677   4.507  0.1573 -0.8758 -0.4658
 7464SOL    HW133854   0.898   3.690   4.439  0.4647 -1.1795 -0.2275
 7464SOL    HW233855   0.876   3.646   4.587  0.5072  1.7159  0.3625
 7465SOL     OW33856   2.459   4.615   5.987 -0.4611  0.3319  0.5709
 7465SOL    HW133857   2.471   4.704   6.021  2.5895 -0.1738  0.8267
 7465SOL    HW233858   2.533   4.572   6.031  0.9689  3.0230  0.8052
 7466SOL     OW33859   3.423   3.185   2.648 -0.0836 -0.3287  0.4703
 7466SOL    HW133860   3.357   3.254   2.661  0.1189  0.0394 -0.3958
 7466SOL    HW233861   3.390   3.140   2.570 -0.0813  2.5090 -1.2129
 7467SOL     OW33862   0.974   3.957   6.888 -0.3357 -0.0153  0.1773
 7467SOL    HW133863   1.013   4.043   6.904 -1.1622  0.5614 -0.8864
 7467SOL    HW233864   0.888   3.996   6.903 -0.1764  0.1099  0.7599
 7468SOL     OW33865   0.935   4.245  11.840 -0.1919 -0.1165  0.2428
 7468SOL    HW133866   1.030   4.249  11.834 -0.1863 -0.4152  0.1418
 7468SOL    HW233867   0.924   4.151  11.854  3.5833 -0.3359  1.6821
 7469SOL     OW33868   1.628   2.584   6.386 -0.1309  0.9072  0.6469
 7469SOL    HW133869   1.614   2.672   6.422 -2.7119 -0.0310  1.9624
 7469SOL    HW233870   1.545   2.545   6.414  0.2974 -1.0201 -0.8295
 7470SOL     OW33871   2.611   3.484  10.708 -0.0137 -0.4062  0.0937
 7470SOL    HW133872   2.620   3.575  10.738  0.5748 -0.5652  0.3980
 7470SOL    HW233873   2.661   3.437  10.774 -0.8460  1.0713  1.7847
 7471SOL     OW33874   2.440   0.446   3.373 -0.3667 -0.5262  0.6570
 7471SOL    HW133875   2.384   0.456   3.296  0.8118 -1.5705 -0.3177
 7471SOL    HW233876   2.383   0.466   3.448 -1.2157  0.8088 -0.3368
 7472SOL     OW33877   1.007   2.816   8.393  0.0541 -0.5407  0.2444
 7472SOL    HW133878   1.039   2.892   8.442 -1.6612  0.3800 -0.0616
 7472SOL    HW233879   0.934   2.791   8.450 -0.5404 -0.5018 -0.5012
 7473SOL     OW33880   4.340   1.100  16.547  0.3520  1.0821  0.0608
 7473SOL    HW133881   4.414   1.122  16.603 -0.7124  0.3485  1.7486
 7473SOL    HW233882   4.274   1.161  16.580 -0.9600 -0.7094  0.7553
 7474SOL     OW33883   3.407   0.134   3.511  0.1749 -0.2358  0.5285
 7474SOL    HW133884   3.447   0.047   3.521 -2.1126 -1.4128 -0.5429
 7474SOL    HW233885   3.352   0.106   3.438  2.2278  1.9395 -1.8300
 7475SOL     OW33886   2.448   3.626   5.992  0.5210 -0.2833 -0.3562
 7475SOL    HW133887   2.503   3.702   6.011  0.0868 -0.4955  1.7363
 7475SOL    HW233888   2.441   3.583   6.077  3.3186 -1.9650 -0.9774
 7476SOL     OW33889   3.615   0.786  15.259  0.2828 -0.1071 -0.3204
 7476SOL    HW133890   3.614   0.711  15.199 -0.4000 -2.4085  2.5714
 7476SOL    HW233891   3.617   0.863  15.202  0.8373 -1.2052 -1.8032
 7477SOL     OW33892   4.363   0.371   1.569  0.6391 -0.4139 -0.2457
 7477SOL    HW133893   4.326   0.336   1.651  1.0930  1.0616  0.6010
 7477SOL    HW233894   4.366   0.300   1.505 -3.6410  0.2441 -1.1792
 7478SOL     OW33895   0.082   2.598   9.344 -0.6371  0.1470 -0.2982
 7478SOL    HW133896   0.061   2.543   9.269  1.5744  1.1689 -1.6745
 7478SOL    HW233897   0.061   2.685   9.309  3.8193  0.7553 -1.4161
 7479SOL     OW33898   1.154   4.702   7.281  0.2782 -0.1102 -0.5792
 7479SOL    HW133899   1.061   4.696   7.302  0.4873  2.8634  1.1912
 7479SOL    HW233900   1.178   0.051   7.340 -1.3981 -0.1380  0.1178
 7480SOL     OW33901   2.459   3.666  13.293  0.2399  0.4105 -0.0903
 7480SOL    HW133902   2.444   3.689  13.201 -0.9298  2.9004  0.7034
 7480SOL    HW233903   2.550   3.636  13.297 -0.0155 -0.2262  0.8763
 7481SOL     OW33904   0.991   3.120   9.749  0.1429  0.1195 -0.0195
 7481SOL    HW133905   1.079   3.111   9.713 -0.2112 -0.8489 -0.6174
 7481SOL    HW233906   0.938   3.052   9.708  2.7892 -1.1602 -1.2985
 7482SOL     OW33907   4.657   0.443   8.661  0.3368  0.6171  0.9829
 7482SOL    HW133908   4.664   0.489   8.744 -2.4707 -0.2926  1.7214
 7482SOL    HW233909   4.686   0.515   8.604  1.7318 -0.5261  0.2354
 7483SOL     OW33910   3.376   0.872   9.672 -0.1284 -0.5462 -0.2783
 7483SOL    HW133911   3.374   0.810   9.745  1.3130  0.4068  0.5669
 7483SOL    HW233912   3.406   0.822   9.595  0.7467  1.7770 -1.4432
 7484SOL     OW33913   2.392   3.189  17.329 -0.1199  0.7360 -0.9289
 7484SOL    HW133914   2.380   3.200  17.423 -0.8175 -1.8080 -0.7119
 7484SOL    HW233915   2.388   3.093  17.322 -1.1825  0.7847 -0.9248
 7485SOL     OW33916   2.010   1.213   8.235  0.2644  0.1213 -0.6582
 7485SOL    HW133917   1.918   1.193   8.253 -0.7481  0.8489 -4.9828
 7485SOL    HW233918   2.003   1.239   8.143 -1.7337  1.4094 -0.1349
 7486SOL     OW33919   3.060   3.164  15.929 -0.6409  0.0140 -0.3412
 7486SOL    HW133920   3.105   3.248  15.915  0.6992 -0.2162  2.5796
 7486SOL    HW233921   3.002   3.159  15.853 -0.5043  2.0203 -0.5761
 7487SOL     OW33922   4.695   0.278  10.878  0.7100 -0.1341 -0.9305
 7487SOL    HW133923   0.062   0.247  10.857  0.6748  0.6961 -2.3211
 7487SOL    HW233924   4.659   0.191  10.859  1.3224 -0.1576 -2.0379
 7488SOL     OW33925   1.699   3.097   4.384  0.2016  0.7131  0.1693
 7488SOL    HW133926   1.691   3.123   4.292  0.5544  1.5337  0.3734
 7488SOL    HW233927   1.663   3.179   4.417 -3.2822 -0.3524 -0.9267
 7489SOL     OW33928   3.035   4.653   7.527 -0.5751 -0.1858 -0.1223
 7489SOL    HW133929   2.975   4.652   7.601 -0.2756  2.3192  0.1512
 7489SOL    HW233930   3.096   4.721   7.554 -1.2811  0.8969 -1.2706
 7490SOL     OW33931   2.001   2.017   1.825  0.4062 -0.0476 -0.3610
 7490SOL    HW133932   2.077   1.962   1.842  1.2196  1.7776  1.7953
 7490SOL    HW233933   2.008   2.049   1.735 -2.2026  1.9385  0.1574
 7491SOL     OW33934   2.609   0.508  11.014  0.6645  1.0083  0.0440
 7491SOL    HW133935   2.670   0.579  11.034 -0.0155  1.3949  0.7566
 7491SOL    HW233936   2.597   0.478  11.104  0.8575 -0.3536 -0.3749
 7492SOL     OW33937   4.650   4.369   0.591  0.6044  0.0330 -0.3469
 7492SOL    HW133938   4.664   4.464   0.594 -0.5769  0.1908  0.1357
 7492SOL    HW233939   4.613   4.351   0.677  1.7844  0.6136  0.2780
 7493SOL     OW33940   4.257   4.680  12.334  0.2560 -0.0463  0.2724
 7493SOL    HW133941   4.243   4.602  12.388  2.2532 -0.6626 -0.1200
 7493SOL    HW233942   4.177   4.677  12.281  0.4801 -0.9089 -0.0067
 7494SOL     OW33943   2.905   4.433   7.114  0.3658  0.0031 -0.7033
 7494SOL    HW133944   2.977   4.444   7.053  1.9911 -3.0993  0.6390
 7494SOL    HW233945   2.929   4.488   7.188 -0.4116 -1.0194  0.3079
 7495SOL     OW33946   4.220   2.845   9.099  0.1483 -0.1635  0.0515
 7495SOL    HW133947   4.180   2.919   9.145 -0.4954  0.0576 -0.8472
 7495SOL    HW233948   4.152   2.834   9.033 -0.5973  1.3910  0.5600
 7496SOL     OW33949   0.365   1.563  16.578 -0.2083  0.2544 -0.2446
 7496SOL    HW133950   0.314   1.575  16.497 -1.3912  1.8158  0.7321
 7496SOL    HW233951   0.374   1.649  16.619 -1.3487 -0.1773  0.9297
 7497SOL     OW33952   3.683   3.824   3.784  0.3040  0.1743  0.2142
 7497SOL    HW133953   3.674   3.737   3.823 -1.1504  0.1737 -0.1446
 7497SOL    HW233954   3.714   3.880   3.855  2.6474 -1.3054  0.3644
 7498SOL     OW33955   0.446   2.214   8.610  0.2424 -0.1414  0.1849
 7498SOL    HW133956   0.461   2.136   8.556 -2.5170 -0.9031  0.5039
 7498SOL    HW233957   0.515   2.204   8.676  0.3688  0.0124  0.0750
 7499SOL     OW33958   2.983   3.036   0.758  0.0873 -0.2626 -0.4634
 7499SOL    HW133959   3.047   3.099   0.724  0.3969 -0.6745 -0.6336
 7499SOL    HW233960   3.000   2.958   0.705  1.1940  0.0364 -0.5631
 7500SOL     OW33961   2.861   3.273   4.924  0.1824  0.6650 -0.1563
 7500SOL    HW133962   2.864   3.269   5.020  1.2991 -1.6845 -0.2648
 7500SOL    HW233963   2.953   3.251   4.906  0.2612  1.0380 -0.2136
 7501SOL     OW33964   2.598   1.576  15.368 -0.2382  0.1910 -0.4828
 7501SOL    HW133965   2.559   1.641  15.310 -1.6798 -0.3091 -0.0751
 7501SOL    HW233966   2.680   1.616  15.397  0.7129 -2.6021  0.6169
 7502SOL     OW33967   1.204   3.649   6.334 -0.0544  0.2903 -0.6221
 7502SOL    HW133968   1.288   3.614   6.363  0.2474  1.9177  0.4278
 7502SOL    HW233969   1.153   3.568   6.336  2.1747 -1.0489  1.5647
 7503SOL     OW33970   3.568   1.280   8.579 -0.1826  0.4371 -0.1051
 7503SOL    HW133971   3.662   1.262   8.582  0.0172  1.5816  0.6350
 7503SOL    HW233972   3.544   1.247   8.665 -4.5898  0.4084 -1.3639
 7504SOL     OW33973   2.331   3.396   4.755  0.2034  0.2593 -0.4730
 7504SOL    HW133974   2.409   3.343   4.772  0.7176  1.3986  0.7417
 7504SOL    HW233975   2.267   3.346   4.806  1.2824 -4.0233 -3.2899
 7505SOL     OW33976   3.989   2.977   4.938  0.0430  0.4075 -0.5271
 7505SOL    HW133977   4.077   2.963   4.972  0.1641  2.0483 -0.1593
 7505SOL    HW233978   3.942   2.977   5.021 -0.8853  0.9046 -1.0598
 7506SOL     OW33979   2.582   2.757   5.262 -0.2113 -0.5659 -0.1526
 7506SOL    HW133980   2.545   2.843   5.244 -2.1931 -1.5226 -0.5632
 7506SOL    HW233981   2.512   2.722   5.317 -1.2359  0.1250 -1.0278
 7507SOL     OW33982   3.001   2.817   7.855  0.6842  0.8265  0.1552
 7507SOL    HW133983   3.057   2.772   7.919  1.2941  1.9036  0.3820
 7507SOL    HW233984   2.919   2.834   7.901 -1.0983 -2.2495 -1.9334
 7508SOL     OW33985   0.654   2.375   5.135 -0.2388  0.0167  0.1920
 7508SOL    HW133986   0.627   2.414   5.219  0.0423  0.1070  0.2410
 7508SOL    HW233987   0.592   2.304   5.118  0.1947 -0.3895  0.3227
 7509SOL     OW33988   2.983   0.379   8.468  0.1841  0.3428 -0.0752
 7509SOL    HW133989   3.078   0.385   8.477  0.1364  1.8176 -0.5872
 7509SOL    HW233990   2.957   0.381   8.560  3.2014 -0.3543  0.7560
 7510SOL     OW33991   1.698   0.110  16.887 -0.0718  0.0046 -0.0976
 7510SOL    HW133992   1.686   0.199  16.920  1.6418 -0.1192  0.8320
 7510SOL    HW233993   1.701   0.108  16.791  0.2517  1.7681 -0.1181
 7511SOL     OW33994   3.418   4.124   4.262  0.5367 -0.1727 -0.3835
 7511SOL    HW133995   3.467   4.157   4.337 -0.7848 -0.1238  0.4669
 7511SOL    HW233996   3.366   4.057   4.307  3.5719 -1.6791  0.8759
 7512SOL     OW33997   0.908   2.251   3.201  0.0423  0.7092  0.4104
 7512SOL    HW133998   0.859   2.237   3.120  1.6187 -0.8826 -0.2913
 7512SOL    HW233999   0.990   2.279   3.161  0.7135 -2.7767 -0.7367
 7513SOL     OW34000   4.517   4.374  13.401 -0.6020 -0.0868  0.2103
 7513SOL    HW134001   4.458   4.358  13.328 -0.7039  1.4443 -0.0414
 7513SOL    HW234002   4.475   4.453  13.434  0.8059  0.5078  0.6173
 7514SOL     OW34003   3.433   4.399   6.511  0.0905  0.1965 -0.1355
 7514SOL    HW134004   3.481   4.479   6.490  0.8360  0.1885  1.5280
 7514SOL    HW234005   3.487   4.378   6.587 -0.2442  0.7503  0.2555
 7515SOL     OW34006   4.224   2.088   6.126  0.4105 -0.3056  0.6167
 7515SOL    HW134007   4.204   2.038   6.047 -0.9025  1.3552 -0.1052
 7515SOL    HW234008   4.301   2.140   6.104 -0.9349  1.1864 -0.5871
 7516SOL     OW34009   3.359   3.821   9.479 -0.2221 -0.1554 -0.0901
 7516SOL    HW134010   3.343   3.752   9.542 -1.2718  0.0075 -0.1707
 7516SOL    HW234011   3.351   3.772   9.397  2.0644 -0.1066 -0.3263
 7517SOL     OW34012   4.496   2.103  17.180  0.2891 -0.1716  0.6452
 7517SOL    HW134013   4.525   2.087  17.090  2.0288 -1.8430  1.4852
 7517SOL    HW234014   4.409   2.138  17.167 -0.7280 -1.7577  3.0678
 7518SOL     OW34015   0.552   0.689   8.578  0.3515 -0.8253 -0.1875
 7518SOL    HW134016   0.624   0.701   8.640  1.2772 -0.1063 -1.3865
 7518SOL    HW234017   0.598   0.655   8.502 -0.4133  1.0591 -1.5029
 7519SOL     OW34018   4.267   4.335  13.290  0.0444  0.0325 -0.0520
 7519SOL    HW134019   4.198   4.401  13.286 -0.2584 -0.1176  3.2336
 7519SOL    HW234020   4.263   4.291  13.205  1.8911 -1.7247  0.7780
 7520SOL     OW34021   1.171   3.056  17.088  0.0475  0.1683 -0.0125
 7520SOL    HW134022   1.186   3.139  17.132  1.5878  0.2396 -0.6716
 7520SOL    HW234023   1.221   3.075  17.008  2.0658  0.7008  1.3918
 7521SOL     OW34024   0.159   2.568   6.008  0.3564  0.4875 -0.1285
 7521SOL    HW134025   0.183   2.628   5.937  1.5985 -0.5180 -0.5505
 7521SOL    HW234026   0.107   2.501   5.966  1.9867 -0.4351 -0.6655
 7522SOL     OW34027   0.915   0.391   7.380 -0.5801  0.2302 -0.2783
 7522SOL    HW134028   0.832   0.440   7.376 -1.7915 -1.6388  1.8031
 7522SOL    HW234029   0.883   0.311   7.422 -0.3013  1.4835  2.3475
 7523SOL     OW34030   1.415   4.150  12.260  0.2070  0.0374 -0.0989
 7523SOL    HW134031   1.377   4.069  12.227  1.2440 -0.3722 -0.2998
 7523SOL    HW234032   1.413   4.132  12.353 -1.1385 -0.3198 -0.2073
 7524SOL     OW34033   1.847   0.568  15.630  0.1764  0.0709 -0.1583
 7524SOL    HW134034   1.870   0.494  15.574 -1.6403 -0.7245  0.1332
 7524SOL    HW234035   1.752   0.567  15.621  0.2314  0.9530 -0.8575
 7525SOL     OW34036   1.352   2.729   2.206 -0.0964 -0.6658  0.2763
 7525SOL    HW134037   1.403   2.666   2.154  0.4796  1.0721 -1.2856
 7525SOL    HW234038   1.409   2.806   2.202  0.7008 -1.4476 -4.0146
 7526SOL     OW34039   2.047   1.102  13.183  0.4735  0.0568  0.0255
 7526SOL    HW134040   1.987   1.176  13.189 -0.5689 -0.8283  0.4919
 7526SOL    HW234041   2.122   1.129  13.129 -1.1826  0.7739 -1.8983
 7527SOL     OW34042   2.804   3.106   6.597 -0.5386  0.4288 -0.4230
 7527SOL    HW134043   2.845   3.158   6.528  1.7585 -0.5333  0.2337
 7527SOL    HW234044   2.713   3.109   6.567 -0.1128 -1.8469 -1.9689
 7528SOL     OW34045   0.072   4.439   0.201  0.1736 -0.3474  0.2720
 7528SOL    HW134046   0.148   4.404   0.153 -0.9254 -0.6783 -1.2184
 7528SOL    HW234047   0.088   4.403   0.289 -0.8041  0.6153  0.8265
 7529SOL     OW34048   2.182   0.386  11.897 -0.9113  0.2205 -0.4372
 7529SOL    HW134049   2.257   0.440  11.870 -2.0944  0.5457 -3.0602
 7529SOL    HW234050   2.175   0.423  11.985 -0.7000  1.4227 -0.9304
 7530SOL     OW34051   3.360   1.760   8.481 -0.0352 -0.0222  0.5124
 7530SOL    HW134052   3.400   1.690   8.532  0.4693 -1.1324 -1.3902
 7530SOL    HW234053   3.323   1.808   8.555  0.7988 -1.9840  2.2017
 7531SOL     OW34054   2.653   0.947   4.990 -0.3820 -0.0213  0.1569
 7531SOL    HW134055   2.610   0.972   4.908  1.3559  1.0322 -0.4408
 7531SOL    HW234056   2.705   1.026   5.007  0.4296 -0.8951  1.7969
 7532SOL     OW34057   1.975   4.009   1.238 -0.0100  0.3151 -0.3642
 7532SOL    HW134058   1.970   4.065   1.315 -2.8312 -0.4193  0.0117
 7532SOL    HW234059   2.064   4.031   1.211  0.0584  2.8958  1.9955
 7533SOL     OW34060   0.123   4.163   8.561  0.3811  0.4647 -0.3578
 7533SOL    HW134061   0.205   4.214   8.564  0.0722  1.0759 -2.0550
 7533SOL    HW234062   0.132   4.127   8.473 -0.0601 -0.1585 -0.1476
 7534SOL     OW34063   3.606   3.701   2.793  0.0867 -0.1002 -0.0003
 7534SOL    HW134064   3.519   3.688   2.831 -0.4118 -0.5197 -1.2809
 7534SOL    HW234065   3.598   3.631   2.729  2.2995 -0.2803 -0.0946
 7535SOL     OW34066   3.545   4.115   2.538 -0.2523  0.4656 -0.0910
 7535SOL    HW134067   3.490   4.166   2.598  1.3422  1.3311  0.6069
 7535SOL    HW234068   3.588   4.057   2.600  0.9423  0.4844 -0.9147
 7536SOL     OW34069   1.872   0.296  15.940 -0.1487 -0.0764  0.3171
 7536SOL    HW134070   1.950   0.329  15.983 -0.8858 -0.1247  1.6746
 7536SOL    HW234071   1.805   0.361  15.960 -0.0573 -0.2258  1.1201
 7537SOL     OW34072   1.478   2.384   8.153 -0.3100  0.0278  0.0633
 7537SOL    HW134073   1.550   2.432   8.194  0.7108 -1.0954 -0.3934
 7537SOL    HW234074   1.422   2.346   8.220  0.3982 -3.2855 -1.1913
 7538SOL     OW34075   4.044   2.508   6.500 -0.3301 -0.1876 -0.3830
 7538SOL    HW134076   4.060   2.461   6.582  1.5169  0.4024 -0.4027
 7538SOL    HW234077   4.018   2.441   6.437 -1.0089  0.3233 -0.6449
 7539SOL     OW34078   0.051   1.275   9.236 -0.1335 -0.4161  0.4746
 7539SOL    HW134079   4.689   1.321   9.229  0.0147 -0.5002 -1.7629
 7539SOL    HW234080   0.080   1.298   9.324  0.4828 -0.0409  0.1825
 7540SOL     OW34081   1.542   0.552   5.521  0.1183 -0.1178 -0.0790
 7540SOL    HW134082   1.596   0.573   5.598 -0.8253 -1.5754  0.9986
 7540SOL    HW234083   1.500   0.469   5.545  0.4602 -0.0913  0.6246
 7541SOL     OW34084   1.413   3.514   2.544  0.0458 -0.7168  0.1546
 7541SOL    HW134085   1.403   3.587   2.606  1.5232  0.7016 -1.3039
 7541SOL    HW234086   1.369   3.448   2.598  0.5016 -0.0517  1.3307
 7542SOL     OW34087   4.340   2.855   5.124 -0.4055  0.0095  0.2922
 7542SOL    HW134088   4.293   2.887   5.200 -0.6147  0.0342  0.1530
 7542SOL    HW234089   4.416   2.808   5.158 -0.6876  2.8368  4.7973
 7543SOL     OW34090   4.429   4.312  12.101 -0.0318 -0.1422 -0.1414
 7543SOL    HW134091   4.428   4.402  12.068 -1.6599 -0.3547 -0.6507
 7543SOL    HW234092   4.442   4.314  12.196 -3.0386 -0.3914  0.2843
 7544SOL     OW34093   2.366   3.208   2.365 -0.2948 -0.0462  0.6288
 7544SOL    HW134094   2.377   3.115   2.346 -0.5152  0.1443 -0.4164
 7544SOL    HW234095   2.274   3.219   2.341 -0.9271  0.1851  3.1335
 7545SOL     OW34096   2.722   2.639   7.190  0.3009  0.2071 -0.6533
 7545SOL    HW134097   2.667   2.717   7.189 -2.1128 -1.5038 -0.3916
 7545SOL    HW234098   2.672   2.580   7.246  0.8660 -0.5224 -0.9202
 7546SOL     OW34099   0.764   0.220   5.261 -0.1449  0.1208 -0.0641
 7546SOL    HW134100   0.755   0.216   5.356 -1.1688  0.8087 -0.1443
 7546SOL    HW234101   0.738   0.310   5.241 -1.6464 -0.5621 -1.1438
 7547SOL     OW34102   2.676   0.839   2.035  0.8461 -0.3427  0.7135
 7547SOL    HW134103   2.664   0.747   2.010 -3.7080  0.4736 -0.0796
 7547SOL    HW234104   2.711   0.821   2.122  0.4141 -2.0307  0.5283
 7548SOL     OW34105   2.505   1.275   2.218 -0.0726  0.0711  0.4397
 7548SOL    HW134106   2.489   1.199   2.162  0.9508 -0.7562  1.2635
 7548SOL    HW234107   2.601   1.277   2.221 -0.0202 -1.2568 -0.5662
 7549SOL     OW34108   3.365   3.811  12.507  0.6571  0.4923 -0.2195
 7549SOL    HW134109   3.440   3.753  12.521 -1.2186 -1.3055  2.3395
 7549SOL    HW234110   3.401   3.862  12.434  1.2862 -1.5599 -1.3353
 7550SOL     OW34111   3.515   1.759   1.371  0.0779 -0.0239  0.5308
 7550SOL    HW134112   3.448   1.827   1.382  1.0676  1.3177 -1.7438
 7550SOL    HW234113   3.594   1.811   1.353  0.5366 -0.7433  0.4453
 7551SOL     OW34114   0.890   4.209  11.556  0.4839 -0.0934 -0.2958
 7551SOL    HW134115   0.985   4.205  11.544  0.2238 -1.5441 -1.8064
 7551SOL    HW234116   0.877   4.176  11.645  1.5608 -1.8150 -0.7785
 7552SOL     OW34117   3.538   4.374   0.321 -0.4065  0.4393  0.0283
 7552SOL    HW134118   3.542   4.282   0.298  0.8202  0.2463  1.0036
 7552SOL    HW234119   3.523   4.409   0.233 -1.7762  0.7340  0.3706
 7553SOL     OW34120   4.319   3.856   8.887 -0.9950  0.1246  0.6017
 7553SOL    HW134121   4.305   3.949   8.900 -1.4628  0.2227 -0.6699
 7553SOL    HW234122   4.255   3.840   8.818 -0.2493  0.3849 -0.1532
 7554SOL     OW34123   3.010   4.143   6.532 -0.0187  0.1168 -0.1750
 7554SOL    HW134124   3.105   4.147   6.521 -0.1606  1.2001 -1.0776
 7554SOL    HW234125   2.988   4.163   6.623 -0.3793 -0.0894 -0.2169
 7555SOL     OW34126   1.493   1.932   3.735 -0.1157 -0.4037 -0.3163
 7555SOL    HW134127   1.552   2.003   3.710 -0.3514  0.0708  0.4848
 7555SOL    HW234128   1.429   1.976   3.791  0.4972 -0.4001  0.3806
 7556SOL     OW34129   1.957   1.720   8.213 -0.4604 -0.1552  0.3582
 7556SOL    HW134130   2.030   1.782   8.214 -2.2620  1.9809 -0.0127
 7556SOL    HW234131   1.996   1.647   8.165  0.3517 -0.4295  1.4408
 7557SOL     OW34132   0.148   1.272  11.856  0.1614 -0.3718  0.2218
 7557SOL    HW134133   0.114   1.183  11.841  0.5486 -0.8873  2.4248
 7557SOL    HW234134   0.194   1.285  11.773 -1.1522  1.6494 -0.1943
 7558SOL     OW34135   0.380   4.504   0.288  0.4392  0.4514 -0.2966
 7558SOL    HW134136   0.396   4.435   0.224 -0.7765  0.6507 -0.8122
 7558SOL    HW234137   0.315   4.468   0.348 -0.9262  1.7765 -0.9652
 7559SOL     OW34138   1.893   0.111   3.766  0.2546  0.0243 -0.2385
 7559SOL    HW134139   1.877   0.193   3.813 -1.6553  0.4375 -1.6377
 7559SOL    HW234140   1.885   0.142   3.676  1.2041 -0.3790 -0.4681
 7560SOL     OW34141   0.770   0.365  10.134  0.2733  0.2619  0.6177
 7560SOL    HW134142   0.747   0.401  10.049  2.4457 -2.3885 -1.0970
 7560SOL    HW234143   0.834   0.304  10.098 -2.0259 -2.3225  0.9502
 7561SOL     OW34144   3.535   3.294  15.947  0.1060 -0.0542 -0.2483
 7561SOL    HW134145   3.619   3.261  15.915 -0.1856  0.2602 -1.3400
 7561SOL    HW234146   3.553   3.383  15.978  0.4228 -0.5953  1.1184
 7562SOL     OW34147   1.566   3.990   6.795 -0.1865  0.4954  0.0756
 7562SOL    HW134148   1.484   4.016   6.755 -0.6796  1.2417  1.5748
 7562SOL    HW234149   1.547   4.016   6.885 -0.0168  0.9188 -0.0124
 7563SOL     OW34150   0.122   2.511   8.144 -1.0003  0.5537  0.1268
 7563SOL    HW134151   0.117   2.440   8.209  0.2255  0.9736  0.6979
 7563SOL    HW234152   0.215   2.530   8.160 -0.2907 -2.7406  0.0211
 7564SOL     OW34153   2.177   4.052   8.280  0.8686 -0.7732  0.1462
 7564SOL    HW134154   2.151   4.107   8.354 -0.3710 -0.8242 -0.2444
 7564SOL    HW234155   2.101   3.993   8.278  0.8206 -0.6316 -1.8516
 7565SOL     OW34156   3.854   4.146   8.442  0.1543  0.3056  0.2092
 7565SOL    HW134157   3.883   4.115   8.527  1.5242  0.1485 -0.3108
 7565SOL    HW234158   3.831   4.238   8.452  1.2737  0.7983 -1.7231
 7566SOL     OW34159   3.377   2.089   6.248  0.4076 -0.1014 -0.0235
 7566SOL    HW134160   3.463   2.127   6.266  0.9030 -1.4761  0.5160
 7566SOL    HW234161   3.395   1.996   6.229 -1.1367 -0.4115  0.0671
 7567SOL     OW34162   2.771   1.651   4.829  0.3530  0.2746 -0.0026
 7567SOL    HW134163   2.779   1.683   4.918  0.8202  1.9447 -0.6407
 7567SOL    HW234164   2.861   1.659   4.799  0.6161 -0.8659  0.4847
 7568SOL     OW34165   1.617   1.668   3.825 -0.4255  0.0738 -0.3957
 7568SOL    HW134166   1.557   1.706   3.889 -1.3673 -0.8600 -0.7211
 7568SOL    HW234167   1.639   1.739   3.764 -0.1752 -1.5605 -2.2050
 7569SOL     OW34168   3.517   0.796   4.845  0.6005  0.4557 -0.1703
 7569SOL    HW134169   3.470   0.865   4.798 -1.4544 -0.1773  0.9287
 7569SOL    HW234170   3.550   0.749   4.768  2.8793 -0.1924  1.1923
 7570SOL     OW34171   1.881   1.742   5.068 -0.3606 -0.0158  0.3976
 7570SOL    HW134172   1.950   1.734   5.002 -1.4746  2.1204 -1.0189
 7570SOL    HW234173   1.819   1.671   5.053  0.9487 -0.7096 -1.7815
 7571SOL     OW34174   2.329   3.504  12.302 -0.1286  0.2284  0.3260
 7571SOL    HW134175   2.369   3.591  12.310  1.9960 -0.7910  0.8741
 7571SOL    HW234176   2.263   3.517  12.234  1.0736 -0.2322 -0.9358
 7572SOL     OW34177   3.762   2.124   8.559  0.1153  0.1146 -0.1314
 7572SOL    HW134178   3.830   2.170   8.610  1.1047  0.4897 -1.7832
 7572SOL    HW234179   3.720   2.070   8.626 -0.4860 -0.8001 -1.2649
 7573SOL     OW34180   3.959   0.043  12.428  0.3964 -0.6043  0.4966
 7573SOL    HW134181   4.008   0.116  12.391 -0.2241 -0.8459 -0.8067
 7573SOL    HW234182   3.881   0.095  12.446  0.5040 -0.6395  1.0431
 7574SOL     OW34183   3.454   0.241   4.762 -0.1390 -0.3215 -0.1895
 7574SOL    HW134184   3.537   0.289   4.761 -0.3144 -0.0289 -1.0443
 7574SOL    HW234185   3.453   0.177   4.691  0.7429 -1.8977  1.2249
 7575SOL     OW34186   4.474   1.627  11.547  0.2400 -0.1072 -0.3305
 7575SOL    HW134187   4.552   1.621  11.603  0.2560 -1.4446 -0.4998
 7575SOL    HW234188   4.471   1.715  11.509  2.0775  0.9064  1.8754
 7576SOL     OW34189   4.306   4.350   0.620  0.4483 -0.5349  0.3581
 7576SOL    HW134190   4.290   4.370   0.712 -0.5206  3.8089 -0.7882
 7576SOL    HW234191   4.217   4.366   0.589  0.0192  0.0474  1.8553
 7577SOL     OW34192   1.184   1.739   6.040  0.0515  0.3296 -0.2677
 7577SOL    HW134193   1.237   1.807   5.997  3.6237 -1.9080  0.6318
 7577SOL    HW234194   1.239   1.709   6.112 -2.1324 -0.5937  1.0099
 7578SOL     OW34195   2.559   1.146   5.361  0.2608 -0.0167 -0.0764
 7578SOL    HW134196   2.491   1.131   5.295 -1.7140  1.0890  1.6960
 7578SOL    HW234197   2.514   1.115   5.439 -0.5706  0.2001 -0.4677
 7579SOL     OW34198   3.462   4.037  12.243 -0.0760 -0.3956 -0.2283
 7579SOL    HW134199   3.483   4.069  12.330  2.1280  1.0776 -1.2863
 7579SOL    HW234200   3.531   4.073  12.186 -0.9994  0.8575 -0.5398
 7580SOL     OW34201   3.417   3.560   7.830 -0.5267 -0.2576  0.0067
 7580SOL    HW134202   3.374   3.645   7.823 -0.1674 -0.1343 -0.6783
 7580SOL    HW234203   3.353   3.521   7.890 -0.3772 -0.1439  0.2395
 7581SOL     OW34204   0.447   3.984   3.918 -0.3696  0.2488 -0.0098
 7581SOL    HW134205   0.529   4.032   3.908 -0.8170  1.1169  0.5225
 7581SOL    HW234206   0.474   3.906   3.967  0.7200 -0.3679 -1.5748
 7582SOL     OW34207   2.869   3.285   5.509  0.0488  0.0619 -0.3038
 7582SOL    HW134208   2.796   3.345   5.525  0.1998 -0.2159  1.4864
 7582SOL    HW234209   2.918   3.336   5.445  0.9772  1.3307  1.4020
 7583SOL     OW34210   1.970   3.000   4.038 -0.7475 -0.3865  0.9133
 7583SOL    HW134211   2.006   2.923   4.084  2.2423  0.4024 -0.1204
 7583SOL    HW234212   2.036   3.029   3.975  0.1911  0.4263  2.2772
 7584SOL     OW34213   0.579   3.509   2.803 -0.0504  0.6459  0.3955
 7584SOL    HW134214   0.495   3.515   2.757  0.2583 -0.6116 -0.3395
 7584SOL    HW234215   0.593   3.601   2.825 -1.6328  0.7013  1.2009
 7585SOL     OW34216   0.527   3.679   6.702  0.5425 -0.0024 -0.0410
 7585SOL    HW134217   0.559   3.768   6.716 -0.5857  0.6771 -1.9324
 7585SOL    HW234218   0.584   3.645   6.633  0.3554 -0.7975  0.1872
 7586SOL     OW34219   0.376   1.833   8.489 -0.4519 -0.4639 -0.5868
 7586SOL    HW134220   0.426   1.911   8.466 -0.7477  0.1544  0.8732
 7586SOL    HW234221   0.290   1.873   8.476  0.2596  0.8739 -1.1955
 7587SOL     OW34222   2.487   0.439   5.399 -0.5926 -0.0558 -0.4141
 7587SOL    HW134223   2.516   0.471   5.484  0.7911 -1.3287 -0.4107
 7587SOL    HW234224   2.450   0.356   5.430  0.0949 -0.0301  0.4498
 7588SOL     OW34225   3.832   0.617   2.233  0.0749  0.2697  0.4214
 7588SOL    HW134226   3.796   0.645   2.317  2.2277  0.7789  1.1727
 7588SOL    HW234227   3.814   0.523   2.244 -2.4020  0.7819  0.5553
 7589SOL     OW34228   1.360   0.099  11.523 -0.1632  0.1905 -0.0795
 7589SOL    HW134229   1.294   0.167  11.537  0.7789  1.2500 -0.8548
 7589SOL    HW234230   1.441   0.134  11.560  0.4056 -1.0403 -0.1559
 7590SOL     OW34231   1.104   2.735  15.021  0.0598 -0.2039  0.1434
 7590SOL    HW134232   1.167   2.807  15.020  0.0483 -0.2063 -0.7471
 7590SOL    HW234233   1.108   2.713  14.929 -1.5478 -0.9334  0.2484
 7591SOL     OW34234   2.649   1.117   7.905 -0.6598  0.3303  0.0142
 7591SOL    HW134235   2.739   1.150   7.896  0.2248 -1.2532  2.9434
 7591SOL    HW234236   2.662   1.041   7.962 -0.2902  1.4508  1.4249
 7592SOL     OW34237   2.258   3.485  10.259 -0.1382 -0.1092 -0.0431
 7592SOL    HW134238   2.183   3.520  10.307 -0.5622 -1.4069  0.2409
 7592SOL    HW234239   2.325   3.504  10.325  1.4629  2.6235 -2.4003
 7593SOL     OW34240   0.465   1.434  12.529  0.4168 -0.0205  0.2116
 7593SOL    HW134241   0.429   1.501  12.587  1.9242  0.2544  0.8155
 7593SOL    HW234242   0.442   1.456  12.439  1.5196  2.0308  0.4466
 7594SOL     OW34243   0.869   0.236   2.325 -0.1344 -0.0107  0.7428
 7594SOL    HW134244   0.799   0.192   2.372 -1.3351  0.8958 -0.1751
 7594SOL    HW234245   0.931   0.165   2.307  2.3397  2.7332 -1.7358
 7595SOL     OW34246   4.211   1.172  16.327  0.3451  0.6430  0.4279
 7595SOL    HW134247   4.271   1.126  16.385 -0.9995 -0.3689  0.9956
 7595SOL    HW234248   4.238   1.263  16.343  0.2344  0.8848 -0.7851
 7596SOL     OW34249   1.676   3.590  17.321  1.1313  0.0473  0.0036
 7596SOL    HW134250   1.630   3.614  17.240  0.2195 -1.4716  0.0704
 7596SOL    HW234251   1.612   3.528  17.357 -0.3730  0.7685 -1.4164
 7597SOL     OW34252   4.400   4.626   4.674  0.1196  0.0010  0.1748
 7597SOL    HW134253   4.357   4.694   4.727  0.0576  0.3297 -0.2959
 7597SOL    HW234254   4.400   4.556   4.739 -0.8523 -1.1331 -1.0465
 7598SOL     OW34255   0.656   3.276   5.485 -0.4652 -0.7022 -0.3012
 7598SOL    HW134256   0.703   3.327   5.550  0.1436 -1.2080 -0.3494
 7598SOL    HW234257   0.731   3.236   5.441  1.2052  2.6874 -0.5129
 7599SOL     OW34258   3.029   4.028   4.478 -0.4106  0.5591 -0.1093
 7599SOL    HW134259   2.977   4.103   4.448 -0.2418  0.9715  0.6424
 7599SOL    HW234260   3.080   4.000   4.402 -1.2253  0.4677 -0.6280
 7600SOL     OW34261   2.535   2.757   2.577 -0.2312 -0.2850 -0.4627
 7600SOL    HW134262   2.543   2.719   2.489 -0.0654 -0.2437 -0.4655
 7600SOL    HW234263   2.445   2.789   2.569 -0.0308  0.9368  2.1045
 7601SOL     OW34264   2.559   1.501  11.943  0.7057 -0.0640 -0.0802
 7601SOL    HW134265   2.541   1.571  11.880 -1.6303 -1.6591 -1.1826
 7601SOL    HW234266   2.653   1.512  11.961  0.2285 -0.2381  2.5297
 7602SOL     OW34267   0.395   2.093   6.426 -0.2437 -0.4415  0.5055
 7602SOL    HW134268   0.324   2.124   6.370  1.6476  2.8854 -0.0071
 7602SOL    HW234269   0.475   2.118   6.380 -0.7909  0.9860  0.3372
 7603SOL     OW34270   3.378   3.174   3.963 -0.1229 -0.1050  0.2890
 7603SOL    HW134271   3.468   3.174   3.996  0.5467 -0.6568 -1.5426
 7603SOL    HW234272   3.386   3.242   3.896  0.9293  0.2761  0.8083
 7604SOL     OW34273   2.563   3.280   3.111 -0.0154  0.5973  0.8570
 7604SOL    HW134274   2.595   3.306   3.025 -1.6627 -2.6545 -0.7467
 7604SOL    HW234275   2.633   3.309   3.169  1.0713 -0.4422  0.0570
 7605SOL     OW34276   2.902   3.735  15.283  0.1410 -0.1054 -0.2724
 7605SOL    HW134277   2.979   3.688  15.318 -0.8962  0.1964  2.4295
 7605SOL    HW234278   2.934   3.823  15.263 -0.0809  0.0053 -0.1423
 7606SOL     OW34279   2.486   0.221  16.411  0.3709  0.1281  0.2256
 7606SOL    HW134280   2.580   0.207  16.401  0.0832 -0.9708 -0.8497
 7606SOL    HW234281   2.451   0.140  16.376  0.0312  0.6600 -0.6608
 7607SOL     OW34282   3.204   2.873   5.691  0.7988  0.0087  0.7542
 7607SOL    HW134283   3.197   2.864   5.786  0.3348 -1.4194  0.5729
 7607SOL    HW234284   3.110   2.878   5.672  1.3068  0.5448 -1.6753
 7608SOL     OW34285   3.884   4.677  14.814  0.2600 -0.3367  0.5009
 7608SOL    HW134286   3.800   4.713  14.844  0.2525  0.0167  0.0531
 7608SOL    HW234287   3.924   0.036  14.781 -1.9308  1.5276  2.3734
 7609SOL     OW34288   4.092   2.304   7.467 -0.4051  0.0721  0.5245
 7609SOL    HW134289   4.002   2.333   7.452  0.1222  0.4647 -1.8377
 7609SOL    HW234290   4.126   2.391   7.485 -0.2714  0.5993 -2.2738
 7610SOL     OW34291   4.145   0.928   3.781 -0.6456  0.0148 -0.0259
 7610SOL    HW134292   4.070   0.986   3.776 -0.7559 -0.2550 -1.3474
 7610SOL    HW234293   4.139   0.880   3.699  0.8882  1.3969 -0.9590
 7611SOL     OW34294   2.126   2.174   0.834  0.0325 -0.5284 -0.3811
 7611SOL    HW134295   2.043   2.146   0.874  0.0149 -0.7956 -0.6034
 7611SOL    HW234296   2.108   2.235   0.763 -0.8874  2.6479  2.6150
 7612SOL     OW34297   0.768   0.918  15.049  0.1846  0.2114  0.3435
 7612SOL    HW134298   0.709   0.888  14.980 -1.3352  2.7677  0.5436
 7612SOL    HW234299   0.738   1.008  15.058 -1.5811 -0.3883  0.3750
 7613SOL     OW34300   0.782   0.212   3.809 -0.1909  0.6220  0.1468
 7613SOL    HW134301   0.855   0.153   3.790  0.3265  1.0010  0.9544
 7613SOL    HW234302   0.821   0.272   3.872  2.3692 -2.6605  1.6850
 7614SOL     OW34303   4.649   4.637   8.309 -0.1423  0.7024  0.4555
 7614SOL    HW134304   4.591   4.607   8.380 -0.7032 -2.9171 -1.5042
 7614SOL    HW234305   0.006   4.670   8.351  0.2056 -1.3657  1.4362
 7615SOL     OW34306   1.976   0.952   8.357  0.5136 -0.2561 -0.0872
 7615SOL    HW134307   2.024   1.034   8.348 -0.5531  0.8140  4.2674
 7615SOL    HW234308   1.902   0.987   8.307  0.2892 -1.2512 -0.4561
 7616SOL     OW34309   1.023   3.923   8.734  0.4603 -0.4062  0.2837
 7616SOL    HW134310   1.049   3.874   8.657 -0.1637 -0.0917 -0.1192
 7616SOL    HW234311   1.017   4.010   8.695 -1.8869 -0.0846  1.3888
 7617SOL     OW34312   3.226   0.392   3.664  0.1291  0.4065 -0.2854
 7617SOL    HW134313   3.259   0.454   3.599 -0.5285 -1.6765 -2.5940
 7617SOL    HW234314   3.305   0.379   3.717 -0.0583 -0.7279 -0.2767
 7618SOL     OW34315   0.993   3.014   7.805  0.6513 -0.6240 -0.2989
 7618SOL    HW134316   0.949   3.011   7.891  0.9923 -2.4984 -0.1872
 7618SOL    HW234317   0.921   2.983   7.751  0.3233 -2.0589  0.9582
 7619SOL     OW34318   1.580   1.603  15.759  0.9249 -0.6271  0.1648
 7619SOL    HW134319   1.589   1.698  15.761  1.4015 -0.6956  1.6018
 7619SOL    HW234320   1.666   1.583  15.721  0.7505  2.0032 -1.5982
 7620SOL     OW34321   0.167   0.179   7.657  0.6120  0.0666 -0.1494
 7620SOL    HW134322   0.177   0.131   7.575 -0.2671 -0.6402  0.1626
 7620SOL    HW234323   0.241   0.144   7.707 -0.7751 -1.2996  0.9346
 7621SOL     OW34324   0.737   2.907   0.559  0.3026  0.1305 -0.6679
 7621SOL    HW134325   0.786   2.889   0.479 -1.6268  1.2603 -2.0939
 7621SOL    HW234326   0.700   2.993   0.537  0.8232  0.4832 -0.1765
 7622SOL     OW34327   3.273   3.788   7.316 -0.3004  0.4127 -0.0146
 7622SOL    HW134328   3.239   3.702   7.340  0.3642 -0.5992 -2.7315
 7622SOL    HW234329   3.363   3.772   7.287  0.5084  2.6540  1.2836
 7623SOL     OW34330   1.582   2.798   0.883 -0.1001  0.4598  0.2488
 7623SOL    HW134331   1.573   2.891   0.863  0.2472  0.4783  0.1836
 7623SOL    HW234332   1.516   2.795   0.953 -0.1169  0.8074  0.2465
 7624SOL     OW34333   3.377   3.140   3.366 -0.4066 -0.2655  0.3812
 7624SOL    HW134334   3.387   3.206   3.298 -2.0038  0.0777  0.4813
 7624SOL    HW234335   3.466   3.136   3.400 -0.5695  1.4225  1.0036
 7625SOL     OW34336   0.809   2.106   5.888  0.3748  0.1566 -0.5540
 7625SOL    HW134337   0.893   2.061   5.901  0.1712  0.1814  0.7588
 7625SOL    HW234338   0.817   2.150   5.803  0.7012  0.8155 -0.1841
 7626SOL     OW34339   2.160   2.685   9.920 -0.4330  0.1603  0.2214
 7626SOL    HW134340   2.124   2.700  10.007 -1.6969 -1.3772 -0.0554
 7626SOL    HW234341   2.213   2.765   9.919 -0.8939  0.4946  3.5437
 7627SOL     OW34342   1.383   0.759   9.059  0.4426 -0.3893  0.1177
 7627SOL    HW134343   1.430   0.813   9.122 -0.6550 -0.3659  0.9109
 7627SOL    HW234344   1.300   0.806   9.066  1.1151  0.4408  2.4653
 7628SOL     OW34345   2.712   2.993   2.335 -0.3536 -0.3143  0.2393
 7628SOL    HW134346   2.782   3.028   2.280  0.5392 -1.8295  0.4038
 7628SOL    HW234347   2.726   3.047   2.414 -1.2937  0.4791 -0.1427
 7629SOL     OW34348   0.390   2.777   0.784 -0.0122 -0.1950 -0.5602
 7629SOL    HW134349   0.426   2.857   0.822  1.5223 -0.8790 -0.5686
 7629SOL    HW234350   0.338   2.819   0.715 -0.9339 -1.0415 -0.3796
 7630SOL     OW34351   3.641   3.893  16.242  0.3426 -0.2354 -0.2155
 7630SOL    HW134352   3.546   3.901  16.234  0.1501 -1.3487  0.9649
 7630SOL    HW234353   3.646   3.879  16.336 -0.7028  2.4393  0.2155
 7631SOL     OW34354   4.625   0.130   6.241 -0.7775  0.1699 -0.2112
 7631SOL    HW134355   4.664   0.109   6.326 -0.6461  1.3509  0.0265
 7631SOL    HW234356   4.667   0.216   6.229 -0.5370  0.3654  2.0957
 7632SOL     OW34357   1.098   0.147  10.462 -0.0907  0.0570  0.2848
 7632SOL    HW134358   1.007   0.142  10.492 -0.0754 -0.2500  0.2809
 7632SOL    HW234359   1.101   0.212  10.391 -1.1753  0.7559  0.8737
 7633SOL     OW34360   2.036   2.821  10.850 -0.2433 -0.6115 -0.0034
 7633SOL    HW134361   2.114   2.774  10.880  0.2603 -0.1433 -0.5759
 7633SOL    HW234362   1.983   2.831  10.929  2.5331 -0.3540  1.8054
 7634SOL     OW34363   1.393   4.672   5.389 -0.0028 -0.3330 -0.2676
 7634SOL    HW134364   1.391   4.695   5.296 -1.5065 -0.6226 -0.2950
 7634SOL    HW234365   1.327   4.604   5.398 -1.7927  1.6734  1.5404
 7635SOL     OW34366   0.764   2.548  14.191  0.3797  0.3592 -0.6557
 7635SOL    HW134367   0.709   2.472  14.209  0.1622  0.3415 -1.3936
 7635SOL    HW234368   0.807   2.563  14.275 -1.4002 -2.0879  0.6778
 7636SOL     OW34369   3.584   2.795   7.876 -0.2392 -0.0877 -0.0613
 7636SOL    HW134370   3.620   2.879   7.846  1.8863 -0.1519  2.3015
 7636SOL    HW234371   3.537   2.811   7.959  0.9920  1.0200  0.4309
 7637SOL     OW34372   3.190   2.899  10.489  0.0521  0.3100  0.3444
 7637SOL    HW134373   3.266   2.930  10.538 -0.2337 -1.3061  1.7816
 7637SOL    HW234374   3.138   2.979  10.480  0.2896  0.4778  0.4884
 7638SOL     OW34375   0.498   0.149   6.771  0.6248 -0.3877  0.1422
 7638SOL    HW134376   0.523   0.231   6.729 -0.3865 -0.4384 -0.5688
 7638SOL    HW234377   0.582   0.110   6.795 -0.1213 -2.4304 -0.5198
 7639SOL     OW34378   1.812   0.405  10.455 -0.4128  0.8653 -0.0463
 7639SOL    HW134379   1.725   0.406  10.496 -0.9847  1.9314 -1.2956
 7639SOL    HW234380   1.857   0.380  10.536  1.0873 -1.0687 -1.4728
 7640SOL     OW34381   1.658   1.742   9.172  0.4013  0.3372  0.0867
 7640SOL    HW134382   1.706   1.793   9.238 -0.4136 -0.0521  0.9743
 7640SOL    HW234383   1.692   1.652   9.179  1.1025  0.5763 -0.1902
 7641SOL     OW34384   1.608   4.233   1.348 -0.2761  0.6258 -0.1843
 7641SOL    HW134385   1.578   4.320   1.320 -1.1601  0.8590  1.4727
 7641SOL    HW234386   1.532   4.178   1.331  1.1478 -1.0218 -1.1990
 7642SOL     OW34387   0.515   1.813   2.737 -0.3273  0.5886 -0.4499
 7642SOL    HW134388   0.482   1.865   2.810 -1.5274 -1.6488  0.5967
 7642SOL    HW234389   0.588   1.761   2.771 -0.4589 -0.2316 -1.4165
 7643SOL     OW34390   1.254   2.720   5.090  0.1573  0.2241 -0.6199
 7643SOL    HW134391   1.170   2.751   5.055 -0.4250 -2.3392 -1.4450
 7643SOL    HW234392   1.271   2.660   5.018 -0.2795  0.0850 -0.6043
 7644SOL     OW34393   4.122   2.733   5.772  0.3310 -0.3443 -0.1105
 7644SOL    HW134394   4.120   2.683   5.691  0.4524 -1.7217  0.7494
 7644SOL    HW234395   4.028   2.743   5.788  0.2596 -1.1896 -0.0443
 7645SOL     OW34396   1.120   0.177   7.463  0.5680  0.4417 -0.0917
 7645SOL    HW134397   1.183   0.197   7.532  0.8945  0.3422 -0.3658
 7645SOL    HW234398   1.045   0.233   7.485 -0.0258  0.5021 -2.3379
 7646SOL     OW34399   3.000   1.775  16.765 -0.3404 -0.3856  0.7088
 7646SOL    HW134400   2.929   1.722  16.803  0.0697 -1.2204  0.3095
 7646SOL    HW234401   3.067   1.708  16.779  2.0335  2.0680  0.9017
 7647SOL     OW34402   4.607   4.592  13.725 -0.7413  0.6556  0.7399
 7647SOL    HW134403   4.663   4.666  13.748  1.9024 -1.8410  2.4155
 7647SOL    HW234404   4.671   4.524  13.749 -0.6711 -0.1945 -1.8768
 7648SOL     OW34405   1.804   0.504   5.669  0.1119 -0.0178 -0.4433
 7648SOL    HW134406   1.758   0.429   5.632  0.6987 -1.1358  1.1143
 7648SOL    HW234407   1.854   0.459   5.737  0.7511  1.2721 -0.0507
 7649SOL     OW34408   4.168   2.656   0.974 -0.0068  0.0835  0.6504
 7649SOL    HW134409   4.100   2.589   0.984  0.7432 -0.2981  3.2068
 7649SOL    HW234410   4.141   2.687   0.887 -0.3572 -0.1547  0.6756
 7650SOL     OW34411   4.558   1.646  13.075 -0.0524 -0.3573  0.6026
 7650SOL    HW134412   4.487   1.600  13.030  0.7978 -2.0445  0.9883
 7650SOL    HW234413   4.611   1.640  12.996 -0.5621 -0.9479  0.3033
 7651SOL     OW34414   0.148   0.937   3.809 -0.4771 -0.8092 -0.6006
 7651SOL    HW134415   0.123   0.925   3.718 -0.1168  0.1731 -0.8386
 7651SOL    HW234416   0.242   0.954   3.796 -0.2116 -1.6239  0.2432
 7652SOL     OW34417   1.730   2.549  13.125 -0.1972 -0.0808  0.1197
 7652SOL    HW134418   1.683   2.548  13.208  0.1486  0.1127  0.3166
 7652SOL    HW234419   1.665   2.534  13.056  0.3876 -1.8181 -0.0492
 7653SOL     OW34420   0.076   0.920   8.563  0.1280 -0.2268  0.1037
 7653SOL    HW134421   0.140   0.869   8.613 -1.7609 -0.7066  2.0424
 7653SOL    HW234422   0.118   1.005   8.563 -0.0551 -0.1386 -3.0322
 7654SOL     OW34423   2.759   2.843   2.721 -0.5768  0.2367  0.0483
 7654SOL    HW134424   2.836   2.823   2.667 -0.4710  1.4265 -0.2313
 7654SOL    HW234425   2.691   2.832   2.655  1.0888 -3.3715 -1.0982
 7655SOL     OW34426   3.644   3.105   5.793 -0.3099 -0.0574 -0.0077
 7655SOL    HW134427   3.604   3.139   5.713  0.0198 -0.8157 -0.5001
 7655SOL    HW234428   3.582   3.153   5.848 -2.2322 -0.7693 -1.5461
 7656SOL     OW34429   1.403   2.933   5.256 -0.0510 -0.2685 -0.3094
 7656SOL    HW134430   1.368   2.875   5.189 -1.8493  1.2032 -0.6200
 7656SOL    HW234431   1.319   2.968   5.286  1.4184  2.0464  1.1275
 7657SOL     OW34432   4.387   3.784   0.634  0.1001  0.1775  0.6365
 7657SOL    HW134433   4.292   3.787   0.632  0.0804 -2.0078 -1.0997
 7657SOL    HW234434   4.407   3.854   0.696 -4.6714 -1.1316  3.5913
 7658SOL     OW34435   4.250   0.114  16.407  0.3070  0.8110  0.1697
 7658SOL    HW134436   4.160   0.115  16.373  0.7372 -0.5256 -1.0368
 7658SOL    HW234437   4.291   0.050  16.349 -1.0380  1.0806 -1.0760
 7659SOL     OW34438   4.051   0.017   3.971 -0.5696 -0.0126 -0.2223
 7659SOL    HW134439   4.114   0.063   3.916  0.5242 -0.1235  0.9483
 7659SOL    HW234440   4.085   4.650   3.961 -0.7270 -0.2206  1.1290
 7660SOL     OW34441   4.002   4.274  12.525 -0.6094 -0.4199  0.4560
 7660SOL    HW134442   4.039   4.279  12.437  0.3763 -1.1601  0.8220
 7660SOL    HW234443   3.909   4.282  12.503  0.3032  3.2778 -2.0448
 7661SOL     OW34444   4.223   2.157   6.386 -0.0993 -0.0940 -0.4210
 7661SOL    HW134445   4.244   2.126   6.298  0.0827 -1.1948  0.0167
 7661SOL    HW234446   4.134   2.188   6.371  0.0290  0.1691 -0.6508
 7662SOL     OW34447   0.164   2.067   2.563  0.3105 -0.3078 -0.2011
 7662SOL    HW134448   0.070   2.068   2.582 -0.0690  1.5428 -2.2353
 7662SOL    HW234449   0.160   1.986   2.512  0.4346 -0.9373  0.7729
 7663SOL     OW34450   2.612   3.274   1.423 -0.4517  0.4162 -0.2295
 7663SOL    HW134451   2.528   3.239   1.452  0.5966 -3.3733 -1.8217
 7663SOL    HW234452   2.675   3.212   1.459 -0.8975 -0.5435 -1.0992
 7664SOL     OW34453   3.092   2.511   1.745  0.4963  0.3413 -0.3683
 7664SOL    HW134454   3.134   2.551   1.821 -0.0426  1.5632 -0.7233
 7664SOL    HW234455   3.092   2.585   1.684 -0.8454  0.6036 -0.0287
 7665SOL     OW34456   0.351   1.361  16.760 -0.3720 -0.1174 -0.4312
 7665SOL    HW134457   0.342   1.409  16.842  1.4928 -1.0995  0.3489
 7665SOL    HW234458   0.341   1.436  16.702  2.5223 -1.4142 -2.6659
 7666SOL     OW34459   0.865   4.015   5.415  0.3515  0.7717 -0.5808
 7666SOL    HW134460   0.772   4.028   5.434  0.6431 -0.0754  1.4358
 7666SOL    HW234461   0.887   3.934   5.460  0.0076  0.7799 -0.3973
 7667SOL     OW34462   1.187   1.703   0.380  0.1145  0.6385  0.3783
 7667SOL    HW134463   1.215   1.628   0.434 -0.2705  0.4899  0.3701
 7667SOL    HW234464   1.190   1.769   0.449 -0.2596  1.1528 -0.1078
 7668SOL     OW34465   0.705   0.536   6.066 -0.0613 -0.2527 -0.0875
 7668SOL    HW134466   0.756   0.556   5.988  2.1378 -0.2753  1.3589
 7668SOL    HW234467   0.620   0.577   6.049 -1.0425 -2.0512  0.4032
 7669SOL     OW34468   3.412   4.318   1.514 -0.2341  0.0349  0.2320
 7669SOL    HW134469   3.329   4.316   1.466  0.9968 -0.3623 -1.8504
 7669SOL    HW234470   3.384   4.303   1.605 -2.1318 -1.9525 -0.6462
 7670SOL     OW34471   2.701   3.855  16.901  0.4208  0.7173  0.3852
 7670SOL    HW134472   2.670   3.827  16.815  0.9973 -0.7396  0.6482
 7670SOL    HW234473   2.619   3.866  16.949 -0.0113 -1.3895  0.0990
 7671SOL     OW34474   2.052   1.105  12.555  0.2328 -0.0577 -0.2697
 7671SOL    HW134475   2.103   1.043  12.502 -2.5677 -0.2555 -2.6897
 7671SOL    HW234476   2.118   1.121  12.623 -0.2465 -0.7020  0.3500
 7672SOL     OW34477   0.896   2.961   5.958  0.0766  0.5190  0.3531
 7672SOL    HW134478   0.890   3.015   6.037 -1.3599  0.8183  0.0388
 7672SOL    HW234479   0.809   2.944   5.923  0.4903  0.9275 -0.8875
 7673SOL     OW34480   3.763   4.625   8.236  0.3263 -0.2590 -0.0808
 7673SOL    HW134481   3.799   4.682   8.304  1.7158 -1.2545  0.0079
 7673SOL    HW234482   3.697   4.577   8.286 -0.3746  1.5958  0.7872
 7674SOL     OW34483   1.463   2.250  11.177  0.6318 -0.6038  0.9114
 7674SOL    HW134484   1.528   2.271  11.110 -0.0265 -1.5400 -0.0172
 7674SOL    HW234485   1.400   2.321  11.170 -0.8017 -2.1890 -2.0947
 7675SOL     OW34486   4.685   4.017   2.208 -0.0831 -0.1327  0.2265
 7675SOL    HW134487   4.593   4.030   2.184 -0.3809  1.1309  2.0458
 7675SOL    HW234488   4.684   3.930   2.168 -0.0809 -0.2073  0.3873
 7676SOL     OW34489   0.164   1.835   2.436 -0.1848 -0.2032 -0.0528
 7676SOL    HW134490   0.245   1.785   2.447 -0.2121 -1.0715 -3.8215
 7676SOL    HW234491   0.101   1.764   2.423 -2.1232  1.9794 -2.4169
 7677SOL     OW34492   3.859   4.524  12.836 -0.5546  0.4368  0.3077
 7677SOL    HW134493   3.948   4.519  12.801 -1.2749  0.7211 -1.5339
 7677SOL    HW234494   3.809   4.487  12.763  1.5056 -0.0942 -0.8285
 7678SOL     OW34495   1.680   3.263  15.312 -0.4729  0.1224  0.1077
 7678SOL    HW134496   1.619   3.194  15.289  0.2080 -0.7666  0.9557
 7678SOL    HW234497   1.628   3.309  15.378 -0.6132  0.1387 -0.0145
 7679SOL     OW34498   0.787   3.178   3.092 -0.2212  0.0984 -0.1415
 7679SOL    HW134499   0.767   3.242   3.023  0.5237  0.2816 -0.1839
 7679SOL    HW234500   0.814   3.105   3.035 -0.9143 -1.0347  0.9851
 7680SOL     OW34501   2.898   4.158   9.309 -0.8177  0.1497  0.1444
 7680SOL    HW134502   2.875   4.075   9.268  0.4587 -0.0123 -0.2462
 7680SOL    HW234503   2.870   4.153   9.400 -0.0122 -1.3651  0.3029
 7681SOL     OW34504   1.100   1.986   3.619 -0.5941  0.1888 -0.0501
 7681SOL    HW134505   1.157   2.062   3.616 -0.7503  0.2897 -0.4023
 7681SOL    HW234506   1.080   1.980   3.526  2.3847 -3.2896 -0.4660
 7682SOL     OW34507   3.889   3.339   7.402 -0.1654 -0.0925 -0.5921
 7682SOL    HW134508   3.876   3.246   7.382  0.5617  0.0276 -1.6784
 7682SOL    HW234509   3.982   3.339   7.425 -0.8645  0.9527  2.1434
 7683SOL     OW34510   1.439   1.941   4.805 -0.5699 -0.2021  0.1770
 7683SOL    HW134511   1.423   2.035   4.818 -2.0583 -0.1672 -1.9510
 7683SOL    HW234512   1.464   1.945   4.713  1.3283  0.1362  0.6968
 7684SOL     OW34513   4.606   0.839   1.544  0.6323 -0.1847  0.3185
 7684SOL    HW134514   4.585   0.746   1.539 -0.7491  0.3468 -3.6798
 7684SOL    HW234515   4.688   0.849   1.496  0.5745  2.4730  0.7474
 7685SOL     OW34516   0.299   1.400  10.485 -0.1478  0.2457  0.2618
 7685SOL    HW134517   0.276   1.346  10.409  1.5739  1.9220 -1.4385
 7685SOL    HW234518   0.314   1.327  10.546  2.7770  0.4098 -0.2963
 7686SOL     OW34519   1.154   3.092  15.499 -0.1086  0.7681  0.5321
 7686SOL    HW134520   1.064   3.062  15.487 -0.4383  0.6902  3.1060
 7686SOL    HW234521   1.140   3.177  15.541 -1.4564  1.5632 -1.5590
 7687SOL     OW34522   1.687   3.063   3.729  0.3728 -0.2190  0.5734
 7687SOL    HW134523   1.739   2.983   3.738 -0.9238 -1.0869  0.2495
 7687SOL    HW234524   1.758   3.128   3.727  2.3452 -2.3223  1.9495
 7688SOL     OW34525   2.884   2.033   5.122 -0.0421 -0.2320 -0.2880
 7688SOL    HW134526   2.939   2.064   5.194 -0.2267 -0.5302 -0.0179
 7688SOL    HW234527   2.831   2.112   5.113  1.2973  0.4043 -2.4791
 7689SOL     OW34528   3.949   3.149   6.173 -0.8220 -0.4635  0.3981
 7689SOL    HW134529   4.018   3.093   6.209  0.1647 -0.2571 -1.1874
 7689SOL    HW234530   3.927   3.099   6.095  0.9501 -0.1640 -0.2853
 7690SOL     OW34531   1.585   1.674   7.265  0.2571  0.7599 -0.4476
 7690SOL    HW134532   1.662   1.716   7.226  0.5560  2.1382  1.6006
 7690SOL    HW234533   1.588   1.708   7.355 -0.3609  2.6476 -1.1318
 7691SOL     OW34534   0.847   3.799  15.327 -0.4331 -0.6061  0.0832
 7691SOL    HW134535   0.881   3.776  15.241  1.1095  0.3416  0.4246
 7691SOL    HW234536   0.755   3.817  15.309 -0.2947  0.8741  0.7950
 7692SOL     OW34537   2.035   3.408   8.967 -0.0467  0.0733  0.1220
 7692SOL    HW134538   1.981   3.422   8.889  0.6845  0.7935 -0.2542
 7692SOL    HW234539   2.058   3.315   8.965 -2.0286 -0.3859 -0.4107
 7693SOL     OW34540   0.397   0.460   0.010 -0.4151  0.0494  0.1047
 7693SOL    HW134541   0.342   0.405  17.643 -1.8367 -0.0962  1.6419
 7693SOL    HW234542   0.341   0.466   0.087 -0.0455  2.1529  0.1987
 7694SOL     OW34543   0.619   3.403   6.025  0.3495  0.1531  0.2105
 7694SOL    HW134544   0.684   3.473   6.036  2.0241 -0.9148 -2.8784
 7694SOL    HW234545   0.608   3.379   6.117 -0.6002 -0.9223 -0.1945
 7695SOL     OW34546   0.572   0.470  15.538 -0.3065 -0.0025  0.2880
 7695SOL    HW134547   0.643   0.527  15.506 -0.1202  0.1351  0.9508
 7695SOL    HW234548   0.504   0.508  15.483 -2.3705 -1.3829  1.9198
 7696SOL     OW34549   1.359   3.673  13.087  0.0785  0.0167  0.1833
 7696SOL    HW134550   1.308   3.727  13.147 -2.8327 -1.5977 -0.8416
 7696SOL    HW234551   1.424   3.653  13.154 -0.1596 -3.5453 -0.6294
 7697SOL     OW34552   1.050   0.838   2.402 -0.1551  0.6594 -0.0162
 7697SOL    HW134553   1.034   0.883   2.319  0.8978  1.2291  0.0944
 7697SOL    HW234554   1.026   0.906   2.464  2.5574  1.0072  0.6336
 7698SOL     OW34555   0.194   1.226   3.813 -0.6198  0.2668 -0.5932
 7698SOL    HW134556   0.110   1.247   3.771 -0.5645 -0.2771 -0.9658
 7698SOL    HW234557   0.186   1.133   3.832 -2.5914  0.2981 -1.2924
 7699SOL     OW34558   4.604   1.453   3.695  0.3467 -0.2792  0.2238
 7699SOL    HW134559   4.646   1.373   3.662 -1.1967 -1.4830  1.1941
 7699SOL    HW234560   4.567   1.416   3.775 -0.0077 -0.6862 -0.1246
 7700SOL     OW34561   2.697   3.572   9.832 -0.3954 -0.3172  0.0934
 7700SOL    HW134562   2.633   3.525   9.885 -1.3684  0.9557  0.0505
 7700SOL    HW234563   2.771   3.513   9.847 -0.1586 -0.1587 -0.4630
 7701SOL     OW34564   0.752   0.410   3.394  0.0784 -0.0580  0.4040
 7701SOL    HW134565   0.718   0.335   3.443 -0.5296 -0.0236  0.0388
 7701SOL    HW234566   0.743   0.482   3.456 -0.8325 -0.7277  1.0533
 7702SOL     OW34567   3.372   3.297  15.073 -0.6093 -0.4446 -0.2359
 7702SOL    HW134568   3.420   3.252  15.005 -0.4260  2.7541 -2.2296
 7702SOL    HW234569   3.439   3.296  15.142 -0.7473 -1.2504 -0.1207
 7703SOL     OW34570   4.578   3.264   4.532 -0.5417  0.4487  0.2522
 7703SOL    HW134571   4.668   3.287   4.512 -0.7562 -0.1524 -1.4417
 7703SOL    HW234572   4.543   3.294   4.448 -0.4404 -0.4107 -0.0892
 7704SOL     OW34573   0.496   0.040   4.263  0.5277 -0.2915  0.2164
 7704SOL    HW134574   0.511   0.006   4.351  1.0155 -2.2576 -0.6244
 7704SOL    HW234575   0.416   4.711   4.251 -0.0553  0.4457  0.9797
 7705SOL     OW34576   1.532   3.143  11.299  0.2347  0.4270 -0.7118
 7705SOL    HW134577   1.591   3.136  11.375  2.0409 -1.9094 -2.3468
 7705SOL    HW234578   1.523   3.048  11.294  2.4017  0.1618  0.2303
 7706SOL     OW34579   2.052   4.524   9.302  0.1440  0.0043 -0.6349
 7706SOL    HW134580   1.991   4.467   9.256 -1.2479  0.0366  1.1542
 7706SOL    HW234581   2.047   4.496   9.394 -1.4040 -0.5756 -0.9110
 7707SOL     OW34582   2.767   4.719  12.281 -0.8818 -0.2813  0.4530
 7707SOL    HW134583   2.835   0.061  12.259 -0.1310 -1.8845 -1.8101
 7707SOL    HW234584   2.747   4.679  12.197 -2.3380 -1.6834  1.4579
 7708SOL     OW34585   2.005   2.095   4.743  0.0935  0.8274  0.5588
 7708SOL    HW134586   2.062   2.149   4.797 -1.1555  0.4698  2.2511
 7708SOL    HW234587   2.055   2.087   4.662 -0.7325  0.3017  0.0980
 7709SOL     OW34588   1.949   0.512   3.702 -0.1391 -0.5250  0.5225
 7709SOL    HW134589   1.953   0.542   3.793 -0.0819  1.0354  0.0119
 7709SOL    HW234590   1.903   0.430   3.717  1.2697 -1.6099 -1.1662
 7710SOL     OW34591   2.455   1.081   6.249  0.4114  0.0581 -0.2204
 7710SOL    HW134592   2.477   1.173   6.261  0.8283 -0.2490  1.3888
 7710SOL    HW234593   2.542   1.041   6.253  0.5928  0.6147  1.5134
 7711SOL     OW34594   2.393   2.435   1.290  0.8477  0.0057 -0.1704
 7711SOL    HW134595   2.433   2.435   1.377  2.6963  0.8432 -1.0162
 7711SOL    HW234596   2.342   2.355   1.288  0.7403  0.0169  2.0160
 7712SOL     OW34597   1.972   1.262   1.558 -0.4549  0.0624 -0.0842
 7712SOL    HW134598   2.055   1.236   1.519 -1.1770  0.1903 -1.6868
 7712SOL    HW234599   1.912   1.216   1.499 -1.9938  0.9527  0.7649
 7713SOL     OW34600   0.199   2.077   3.254  0.1811  0.3088  0.2194
 7713SOL    HW134601   0.187   2.094   3.347 -2.8397  0.2137 -0.1676
 7713SOL    HW234602   0.261   2.147   3.232  0.5223 -0.2289 -0.5135
 7714SOL     OW34603   0.383   3.430   4.252  0.1633  0.9023  0.6456
 7714SOL    HW134604   0.422   3.404   4.168  0.6746  0.3367  1.0613
 7714SOL    HW234605   0.463   3.465   4.290  0.6476  0.7781 -0.2442
 7715SOL     OW34606   4.167   4.523   8.743  0.3586  0.0876 -0.0453
 7715SOL    HW134607   4.075   4.536   8.768 -0.1569 -0.4838 -1.6500
 7715SOL    HW234608   4.174   4.607   8.699 -3.7419  0.8939  0.8412
 7716SOL     OW34609   4.125   0.919  13.183 -0.2717 -0.3039 -0.0782
 7716SOL    HW134610   4.122   0.904  13.089  0.4480  1.2706 -0.3594
 7716SOL    HW234611   4.191   0.855  13.212 -1.1264 -1.0660  0.1670
 7717SOL     OW34612   3.551   3.451  13.171  0.3637 -0.2081 -0.0460
 7717SOL    HW134613   3.465   3.490  13.157  0.2023 -0.7019 -0.4157
 7717SOL    HW234614   3.600   3.459  13.089 -1.3119 -1.2284 -1.1317
 7718SOL     OW34615   0.855   2.761   2.744  0.2869 -0.0665  0.1412
 7718SOL    HW134616   0.887   2.696   2.806 -1.6922  0.5705  1.8559
 7718SOL    HW234617   0.836   2.709   2.666 -0.1492 -0.1265  0.2873
 7719SOL     OW34618   2.018   2.122   8.818 -0.2231 -0.9327 -0.3773
 7719SOL    HW134619   2.001   2.045   8.765 -1.5112 -1.0253  0.1774
 7719SOL    HW234620   2.015   2.196   8.757  2.3596  0.4830  1.1927
 7720SOL     OW34621   1.238   1.615   5.071  0.7335  0.2038 -0.1833
 7720SOL    HW134622   1.323   1.657   5.054  0.5398 -0.0920 -1.8702
 7720SOL    HW234623   1.211   1.585   4.984  2.0216  0.2638 -0.6045
 7721SOL     OW34624   2.469   0.088   9.340  0.1671  0.0831 -0.3119
 7721SOL    HW134625   2.382   0.125   9.352  0.2727  0.3314 -0.3219
 7721SOL    HW234626   2.516   0.169   9.321 -2.6240  1.0854 -2.9311
 7722SOL     OW34627   2.155   1.385  17.660  0.6523  0.7270  0.3904
 7722SOL    HW134628   2.194   1.420   0.051  0.7002 -2.1283  1.6183
 7722SOL    HW234629   2.062   1.399  17.678  0.1251 -1.2673 -0.7684
 7723SOL     OW34630   4.042   0.016  16.901  0.3224  0.2073  0.6040
 7723SOL    HW134631   4.092   0.063  16.969 -0.9533  1.7122  0.5013
 7723SOL    HW234632   4.103   4.672  16.867 -0.4903  0.6250 -1.5925
 7724SOL     OW34633   0.704   0.618   1.715 -0.2370 -0.8906 -0.0597
 7724SOL    HW134634   0.613   0.646   1.710 -0.1493 -0.8204 -1.4063
 7724SOL    HW234635   0.720   0.628   1.621 -0.9464 -1.4932 -0.2423
 7725SOL     OW34636   2.285   2.860   2.494  0.0103  0.4143 -0.3485
 7725SOL    HW134637   2.241   2.795   2.439 -2.1348  0.8996  0.8145
 7725SOL    HW234638   2.333   2.906   2.425 -0.5036  0.0044 -0.9764
 7726SOL     OW34639   4.561   3.674   1.510  0.8860  0.0138  0.2747
 7726SOL    HW134640   4.497   3.719   1.566  0.7794  1.4019 -0.9546
 7726SOL    HW234641   4.571   3.587   1.550  0.9558  0.1250  0.5002
 7727SOL     OW34642   0.646   0.463   7.404 -0.2712 -0.1425  0.3199
 7727SOL    HW134643   0.593   0.538   7.378 -0.9341 -0.4067  0.9128
 7727SOL    HW234644   0.603   0.386   7.366 -1.6898 -0.2335  2.1458
 7728SOL     OW34645   0.813   2.698  15.694  0.1526 -1.0327 -0.2251
 7728SOL    HW134646   0.892   2.719  15.645  0.5804 -0.7837  0.5574
 7728SOL    HW234647   0.772   2.633  15.638 -1.1906  0.4509 -0.9480
 7729SOL     OW34648   2.312   1.944   0.763  0.0104  0.0161  0.2000
 7729SOL    HW134649   2.349   1.945   0.851  0.1278 -1.6817  0.1830
 7729SOL    HW234650   2.247   2.013   0.772  0.0020  0.2565 -1.6154
 7730SOL     OW34651   3.175   0.607   2.111 -0.0741  0.2414 -0.3088
 7730SOL    HW134652   3.258   0.644   2.139 -0.7041  0.7767  0.8673
 7730SOL    HW234653   3.200   0.547   2.040 -0.0878 -0.2943  0.1422
 7731SOL     OW34654   0.656   0.819   3.711 -0.2067  0.2699  0.4832
 7731SOL    HW134655   0.635   0.889   3.649 -1.2337  1.8626  2.6294
 7731SOL    HW234656   0.683   0.867   3.790  1.8162  1.0755 -0.6952
 7732SOL     OW34657   2.598   4.418   0.181 -0.4337  0.4631  0.0586
 7732SOL    HW134658   2.552   4.357   0.123  0.1799 -0.7345  0.8452
 7732SOL    HW234659   2.604   4.354   0.252  0.7856 -0.4944 -0.9087
 7733SOL     OW34660   0.897   3.254   4.841  1.0047  0.2344 -0.2414
 7733SOL    HW134661   0.852   3.175   4.813 -1.8715  1.6499  0.4540
 7733SOL    HW234662   0.882   3.270   4.934  1.7142  3.3052 -0.6459
 7734SOL     OW34663   1.414   4.520   4.563 -0.5087 -0.2088 -0.0411
 7734SOL    HW134664   1.372   4.597   4.525  1.1270  0.5173 -0.3845
 7734SOL    HW234665   1.507   4.541   4.558 -0.9596  1.6862 -0.8740
 7735SOL     OW34666   2.444   3.848  14.399 -0.2664  0.9048 -0.1267
 7735SOL    HW134667   2.411   3.800  14.474  0.4782  2.1521  0.9964
 7735SOL    HW234668   2.537   3.837  14.419 -0.5077 -3.2508 -1.4365
 7736SOL     OW34669   1.391   1.211   2.376  0.6064 -0.1461 -0.0834
 7736SOL    HW134670   1.440   1.235   2.297  0.5690  2.6208  0.7406
 7736SOL    HW234671   1.296   1.218   2.366  0.4165  0.3202  2.0011
 7737SOL     OW34672   3.141   0.281   6.884  0.1224  0.1758  0.2714
 7737SOL    HW134673   3.156   0.210   6.821 -1.2643 -0.5485  0.7658
 7737SOL    HW234674   3.226   0.323   6.896  0.0406  0.5044 -0.2485
 7738SOL     OW34675   2.671   2.106   4.413 -0.0641 -0.0554 -0.8405
 7738SOL    HW134676   2.740   2.080   4.352  0.3720 -1.2139  0.1336
 7738SOL    HW234677   2.718   2.130   4.493 -1.0689 -0.2550 -0.1867
 7739SOL     OW34678   1.358   3.711  13.501 -0.8704 -0.3135 -0.7308
 7739SOL    HW134679   1.370   3.630  13.451 -1.4106 -1.5475  1.1350
 7739SOL    HW234680   1.449   3.740  13.505 -0.8164 -0.6987  1.2024
 7740SOL     OW34681   4.506   4.072   6.737 -0.1225  0.5032  0.2095
 7740SOL    HW134682   4.413   4.051   6.727  0.1199 -0.8807  0.7578
 7740SOL    HW234683   4.544   4.020   6.667 -1.7531 -0.2164 -0.1336
 7741SOL     OW34684   1.365   2.474   3.299 -0.0262  0.6867 -0.1172
 7741SOL    HW134685   1.318   2.482   3.382 -0.0726 -1.4361  0.0594
 7741SOL    HW234686   1.341   2.546   3.239  0.7128  1.5858  0.6691
 7742SOL     OW34687   1.930   0.997  13.532  0.5119 -0.0755 -0.3453
 7742SOL    HW134688   2.002   0.974  13.591 -0.9042 -2.2692  0.5148
 7742SOL    HW234689   1.855   1.011  13.591  0.9403  2.3858 -0.3912
 7743SOL     OW34690   0.291   3.863  12.413 -0.1847 -0.2415 -0.2864
 7743SOL    HW134691   0.356   3.921  12.452  2.5442 -2.5435 -1.3748
 7743SOL    HW234692   0.334   3.855  12.328 -0.4538  0.6758 -0.5062
 7744SOL     OW34693   2.750   0.590   8.587  0.0253  0.1833 -0.2759
 7744SOL    HW134694   2.691   0.666   8.579 -2.6363 -1.9882 -1.4341
 7744SOL    HW234695   2.694   0.522   8.625 -0.3932 -0.1154 -1.4156
 7745SOL     OW34696   2.028   0.601   3.959  0.6266 -0.4629 -0.2053
 7745SOL    HW134697   2.066   0.687   3.974  1.8453 -1.0312 -0.0916
 7745SOL    HW234698   2.007   0.574   4.048 -0.8068  2.3878  0.3302
 7746SOL     OW34699   1.184   3.860   3.979 -0.7907 -0.0572  0.1473
 7746SOL    HW134700   1.152   3.895   4.063 -0.8235  2.0511 -0.7427
 7746SOL    HW234701   1.134   3.912   3.916  1.2182  0.1154 -1.2824
 7747SOL     OW34702   2.364   1.567   4.697  0.2711  0.3574 -0.1303
 7747SOL    HW134703   2.296   1.610   4.646 -0.3947 -0.3958  0.1105
 7747SOL    HW234704   2.418   1.638   4.731 -2.0436  2.0324 -0.0087
 7748SOL     OW34705   0.152   2.067   7.920  0.7212  0.6596 -0.4752
 7748SOL    HW134706   0.115   2.155   7.916  0.7086  0.6500 -0.5686
 7748SOL    HW234707   0.070   2.029   7.954  0.5379 -1.4064 -3.2271
 7749SOL     OW34708   2.294   1.391   7.691 -0.2548  0.1886 -0.2248
 7749SOL    HW134709   2.228   1.404   7.623  0.4552 -1.0077 -1.1419
 7749SOL    HW234710   2.256   1.454   7.753  0.0010  1.7007 -1.5920
 7750SOL     OW34711   2.887   0.984   1.559 -0.6647 -0.2279  0.9986
 7750SOL    HW134712   2.795   1.010   1.547 -0.8670 -1.3132  0.2395
 7750SOL    HW234713   2.925   1.067   1.530  0.3062 -1.4810 -1.2974
 7751SOL     OW34714   4.620   0.764   5.335 -0.2813 -0.3278  0.1889
 7751SOL    HW134715   4.585   0.712   5.263  2.3575  2.3689 -3.0208
 7751SOL    HW234716   4.714   0.744   5.332  0.1258  1.0813  3.6306
 7752SOL     OW34717   1.813   1.963   8.376  0.1814  0.3572 -0.3651
 7752SOL    HW134718   1.748   1.929   8.437 -0.0102  0.2377 -0.6342
 7752SOL    HW234719   1.859   1.886   8.343 -0.1093 -0.5119  1.2933
 7753SOL     OW34720   3.461   2.475   2.599  0.2051 -0.5644  0.1073
 7753SOL    HW134721   3.445   2.438   2.512 -1.3364  1.8083 -0.6183
 7753SOL    HW234722   3.504   2.559   2.586 -1.4260  0.3900  0.8938
 7754SOL     OW34723   2.046   4.420  11.802  0.0407 -0.0625 -0.1605
 7754SOL    HW134724   2.119   4.452  11.854 -0.7976  0.2612  0.8112
 7754SOL    HW234725   1.980   4.405  11.869  0.2217  1.7387  0.4028
 7755SOL     OW34726   0.710   2.649   0.699 -0.0289 -0.1264 -0.4594
 7755SOL    HW134727   0.709   2.741   0.671 -0.1588 -0.2765 -0.9465
 7755SOL    HW234728   0.740   2.655   0.789 -0.7712  0.6306 -0.2678
 7756SOL     OW34729   0.067   0.580   5.669  0.4084 -0.0582 -0.0266
 7756SOL    HW134730   0.005   0.651   5.653  3.0967  2.4237  0.5054
 7756SOL    HW234731   0.060   0.567   5.763 -0.0369  0.6285  0.0380
 7757SOL     OW34732   0.631   1.979   8.007  0.0501 -0.1010 -0.0466
 7757SOL    HW134733   0.713   1.979   8.056 -0.1809  2.7874  0.3119
 7757SOL    HW234734   0.606   1.891   8.037  0.1490  0.0308  0.4197
 7758SOL     OW34735   0.799   4.331   2.956  0.1895 -0.2128  0.0897
 7758SOL    HW134736   0.817   4.339   2.863  1.7315 -2.4823  0.1881
 7758SOL    HW234737   0.708   4.310   2.935 -0.7392  2.0862  1.7424
 7759SOL     OW34738   3.781   1.148   8.424 -0.1031 -0.4509 -0.0746
 7759SOL    HW134739   3.862   1.097   8.430 -0.4760 -0.7350  2.2523
 7759SOL    HW234740   3.789   1.184   8.335 -0.9088  1.2523  0.5469
 7760SOL     OW34741   3.559   3.953   8.152  0.5549  0.4579  0.0733
 7760SOL    HW134742   3.543   4.005   8.231  1.8845 -0.2279  0.7981
 7760SOL    HW234743   3.486   3.891   8.152  0.9621 -0.0169 -0.5974
 7761SOL     OW34744   0.461   2.051   0.713  0.0625  0.0056  0.4873
 7761SOL    HW134745   0.513   2.001   0.775  1.2490  0.4701 -0.1341
 7761SOL    HW234746   0.383   1.996   0.701  1.2335 -1.2248 -1.4009
 7762SOL     OW34747   1.193   1.391   5.979  0.1612 -0.2963  0.0867
 7762SOL    HW134748   1.188   1.300   6.007  0.5305  0.7542  3.5964
 7762SOL    HW234749   1.158   1.439   6.054  0.3611  2.1103 -1.3429
 7763SOL     OW34750   2.201   3.664   8.188 -0.7902 -0.1602 -0.5182
 7763SOL    HW134751   2.221   3.644   8.280 -1.8063  0.9028 -0.0553
 7763SOL    HW234752   2.124   3.721   8.196 -0.0860  0.9356 -1.7648
 7764SOL     OW34753   1.722   1.936  17.568  0.2959 -0.2379  0.7531
 7764SOL    HW134754   1.642   1.972  17.528  2.6130  1.8942 -1.9820
 7764SOL    HW234755   1.770   2.019  17.567  2.3760 -1.4713 -0.4368
 7765SOL     OW34756   3.800   0.346   3.394 -0.1723 -0.1351  0.4426
 7765SOL    HW134757   3.843   0.270   3.355  1.2040  1.9410 -2.0302
 7765SOL    HW234758   3.737   0.313   3.458 -0.7624 -0.4660 -0.3202
 7766SOL     OW34759   2.889   3.084   5.764 -0.5204 -0.0981  0.4899
 7766SOL    HW134760   2.905   3.008   5.707  2.3248  0.0827  1.0785
 7766SOL    HW234761   2.960   3.141   5.734 -0.7248 -0.3407 -0.4685
 7767SOL     OW34762   0.099   4.273  12.024  0.4946  0.2186  0.3312
 7767SOL    HW134763   0.028   4.209  12.032  0.2585  0.3498 -0.6815
 7767SOL    HW234764   0.122   4.264  11.932 -2.6487 -1.8075 -0.2788
 7768SOL     OW34765   4.632   0.548   6.019 -0.2871  0.0702  0.8354
 7768SOL    HW134766   4.674   0.492   6.083 -0.1944 -1.1522 -0.3041
 7768SOL    HW234767   4.707   0.605   6.002  1.2493 -2.7208 -1.6930
 7769SOL     OW34768   1.524   2.636   9.086 -0.2825 -0.3922 -0.2054
 7769SOL    HW134769   1.447   2.582   9.103 -0.1167 -1.2268 -2.1025
 7769SOL    HW234770   1.586   2.587   9.140 -0.0298  0.0222 -0.1216
 7770SOL     OW34771   0.965   0.080   3.207 -0.3308  0.0744 -0.1125
 7770SOL    HW134772   0.907   0.111   3.137  1.7503 -1.4658 -2.5089
 7770SOL    HW234773   1.039   0.037   3.164 -0.6216 -2.0338  1.4930
 7771SOL     OW34774   4.069   4.261  13.909  0.4021 -0.5945 -0.0454
 7771SOL    HW134775   4.103   4.315  13.838 -0.2400 -0.7207 -0.4449
 7771SOL    HW234776   4.101   4.173  13.890  2.2616  0.2124 -0.5729
 7772SOL     OW34777   1.535   1.441   9.026  0.3408 -0.1609  0.4980
 7772SOL    HW134778   1.624   1.446   9.060  0.2937 -0.4768  0.6734
 7772SOL    HW234779   1.535   1.498   8.949 -1.6399  0.9091  1.2802
 7773SOL     OW34780   3.777   1.089   9.616 -0.2384 -0.1030  0.5424
 7773SOL    HW134781   3.763   1.109   9.709 -0.8065 -0.1469  0.4680
 7773SOL    HW234782   3.870   1.069   9.622 -1.1753 -4.3089  0.6014
 7774SOL     OW34783   0.754   1.040   4.287  1.0617 -0.1659  0.0641
 7774SOL    HW134784   0.659   1.032   4.288  1.3395 -3.5674  0.3717
 7774SOL    HW234785   0.777   0.949   4.305 -1.7252 -0.4081  2.4899
 7775SOL     OW34786   2.124   1.678   4.605  0.5978 -0.0247 -0.0470
 7775SOL    HW134787   2.041   1.659   4.562 -0.9810  1.9992  2.0839
 7775SOL    HW234788   2.162   1.696   4.519 -4.2437 -0.3585 -2.2297
 7776SOL     OW34789   2.174   2.014  11.955 -0.1611  0.2042  0.5908
 7776SOL    HW134790   2.110   1.944  11.970 -0.3951  0.4862  0.9181
 7776SOL    HW234791   2.226   2.013  12.035 -0.1894 -2.3363  0.5870
 7777SOL     OW34792   2.196   2.986   7.924  0.0384  0.2548  0.3039
 7777SOL    HW134793   2.227   2.966   7.835  2.0953  1.6244  0.7110
 7777SOL    HW234794   2.196   2.900   7.965  0.1656 -0.6378 -1.5627
 7778SOL     OW34795   0.770   3.045   8.842  0.6279  0.0401  0.2928
 7778SOL    HW134796   0.822   2.968   8.817  0.3377 -1.2982  3.8575
 7778SOL    HW234797   0.710   3.007   8.905  0.0075  1.2098  0.3946
 7779SOL     OW34798   0.559   1.411  15.079 -0.2255  0.0373 -0.1148
 7779SOL    HW134799   0.527   1.377  14.996 -1.8884  1.5262 -0.1004
 7779SOL    HW234800   0.611   1.485  15.048 -0.9654  0.2671 -0.7960
 7780SOL     OW34801   2.514   2.080   0.609  0.2201 -0.5301  0.1341
 7780SOL    HW134802   2.421   2.092   0.627  0.6934 -0.1959  2.3588
 7780SOL    HW234803   2.551   2.050   0.693  1.0570 -1.1764 -0.4666
 7781SOL     OW34804   2.493   1.814   3.951  0.1124 -0.3805  0.0278
 7781SOL    HW134805   2.505   1.876   3.879  0.7686 -0.1982  0.2851
 7781SOL    HW234806   2.471   1.737   3.899 -2.0860  0.7462 -0.7242
 7782SOL     OW34807   2.105   1.792   2.112 -0.0416  0.2688  0.5226
 7782SOL    HW134808   2.165   1.841   2.056 -0.6015 -0.3057 -0.5753
 7782SOL    HW234809   2.070   1.732   2.046 -1.4150  3.2403 -1.4237
 7783SOL     OW34810   0.202   0.458  12.098  0.1242  0.0728 -0.2343
 7783SOL    HW134811   0.135   0.404  12.057  0.4591  0.0451 -0.7484
 7783SOL    HW234812   0.251   0.395  12.150  1.1049  2.8687  2.2916
 7784SOL     OW34813   1.992   0.665   5.935  0.0583 -0.3057  0.0687
 7784SOL    HW134814   1.981   0.754   5.901 -1.3987 -1.1344 -1.7019
 7784SOL    HW234815   2.059   0.630   5.876 -1.6264 -2.4797 -0.5738
 7785SOL     OW34816   1.966   2.133  15.602 -0.2329  0.3865  0.2866
 7785SOL    HW134817   1.935   2.224  15.611  1.3229  0.9916 -0.4385
 7785SOL    HW234818   2.016   2.146  15.521  1.3820  1.7274  1.4833
 7786SOL     OW34819   2.711   0.272  13.476 -0.1502  0.5100  0.1459
 7786SOL    HW134820   2.720   0.283  13.381  0.6542 -0.4407  0.1127
 7786SOL    HW234821   2.722   0.361  13.511 -0.0408  0.6750 -0.3059
 7787SOL     OW34822   1.469   4.386   5.966  0.2064 -0.1171  0.0055
 7787SOL    HW134823   1.521   4.338   5.901 -1.5363 -0.2891 -1.2573
 7787SOL    HW234824   1.502   4.338   6.041  0.0238 -0.0117  0.1525
 7788SOL     OW34825   0.461   3.367   1.453 -0.0151 -0.1762  0.4795
 7788SOL    HW134826   0.374   3.333   1.474  0.4468  0.6217  3.6240
 7788SOL    HW234827   0.473   3.443   1.510  0.6244  0.5752 -0.6672
 7789SOL     OW34828   2.879   2.733   7.623 -0.0801  0.0969 -0.0846
 7789SOL    HW134829   2.861   2.788   7.547  0.1272  0.9453  0.4791
 7789SOL    HW234830   2.892   2.795   7.695 -0.7073 -0.3012  0.3674
 7790SOL     OW34831   4.274   1.871   9.448  0.2166  0.1464 -0.7782
 7790SOL    HW134832   4.188   1.848   9.412 -0.8317  0.9644  1.2498
 7790SOL    HW234833   4.323   1.852   9.367 -0.3533  0.1445 -1.1210
 7791SOL     OW34834   1.567   1.044  17.199 -0.4624 -0.0772  0.0714
 7791SOL    HW134835   1.617   1.105  17.145  0.6928  0.8790  2.1915
 7791SOL    HW234836   1.507   1.021  17.128 -0.1530 -0.7438  0.0231
 7792SOL     OW34837   2.945   3.716   6.419  0.8364 -0.2331 -0.2015
 7792SOL    HW134838   3.027   3.725   6.468  1.3714  0.6331 -1.2578
 7792SOL    HW234839   2.887   3.703   6.494  0.4370  3.4758  0.1206
 7793SOL     OW34840   2.144   4.031   0.882  0.8224  0.5022 -0.5148
 7793SOL    HW134841   2.198   3.993   0.813  0.5002  2.5010 -1.9061
 7793SOL    HW234842   2.200   4.028   0.959  1.3747 -0.9272 -0.9962
 7794SOL     OW34843   3.088   0.199   1.869 -0.1698  0.2329 -0.1645
 7794SOL    HW134844   3.102   0.194   1.774 -1.2230 -0.4720 -0.2824
 7794SOL    HW234845   2.993   0.193   1.880 -0.1423  1.7626  0.8965
 7795SOL     OW34846   4.236   1.427  13.766 -0.5376  0.7596  0.1272
 7795SOL    HW134847   4.243   1.452  13.674 -1.9049 -1.2783 -0.5394
 7795SOL    HW234848   4.156   1.376  13.756  0.2479 -0.4413 -0.0802
 7796SOL     OW34849   0.436   1.529   4.933  0.1254  0.1617  0.1351
 7796SOL    HW134850   0.389   1.611   4.951  1.3669  0.3534  2.4274
 7796SOL    HW234851   0.472   1.495   5.014  0.6979  1.4058  0.4000
 7797SOL     OW34852   2.271   4.321   8.630  0.4457 -0.0670  0.0874
 7797SOL    HW134853   2.240   4.382   8.697 -1.6979 -0.8492 -0.1797
 7797SOL    HW234854   2.355   4.298   8.670 -0.7124  0.5269  2.9107
 7798SOL     OW34855   4.397   4.261   7.109  0.0686  0.0437 -0.3289
 7798SOL    HW134856   4.332   4.305   7.054 -0.8032  2.0728  2.3095
 7798SOL    HW234857   4.340   4.247   7.184 -1.0134  1.0859 -0.9595
 7799SOL     OW34858   0.481   3.239   8.866  0.3886  0.5285  0.0781
 7799SOL    HW134859   0.524   3.297   8.930 -1.3738  1.5801  0.3261
 7799SOL    HW234860   0.554   3.186   8.834 -0.8996 -1.8765  1.0922
 7800SOL     OW34861   1.657   0.618   7.617  0.1501  0.0011  0.4896
 7800SOL    HW134862   1.573   0.586   7.650  1.2949 -3.2515  0.2610
 7800SOL    HW234863   1.629   0.673   7.544  0.1737  1.1805  1.3622
 7801SOL     OW34864   1.189   1.865   0.605  0.4118  0.6342 -0.0455
 7801SOL    HW134865   1.221   1.955   0.614 -1.4237  1.3137 -0.2939
 7801SOL    HW234866   1.142   1.864   0.688  0.1339 -0.7484 -0.2246
 7802SOL     OW34867   0.286   2.386   2.592 -0.0680 -0.1607  0.5435
 7802SOL    HW134868   0.250   2.333   2.663 -1.4075  0.3607  0.2431
 7802SOL    HW234869   0.322   2.460   2.640  0.3479  0.1145 -0.1823
 7803SOL     OW34870   0.430   0.497   1.723 -0.1970  0.1859 -0.3821
 7803SOL    HW134871   0.444   0.591   1.734 -0.3156  0.0511  0.9035
 7803SOL    HW234872   0.491   0.463   1.789 -0.0426  0.3887 -0.4204
 7804SOL     OW34873   3.395   1.460   9.028  0.4859 -0.5637  0.1591
 7804SOL    HW134874   3.323   1.518   9.001 -1.6053 -3.4960 -0.5190
 7804SOL    HW234875   3.346   1.421   9.100  0.4146 -0.0373  0.3962
 7805SOL     OW34876   2.742   3.325  12.216  0.3721  0.2228  0.3470
 7805SOL    HW134877   2.678   3.257  12.194  0.3978 -0.4744  2.4534
 7805SOL    HW234878   2.759   3.317  12.310 -2.1769 -0.4805  0.7588
 7806SOL     OW34879   3.408   3.710   4.195  0.4791  0.0441 -0.1498
 7806SOL    HW134880   3.430   3.796   4.160 -3.4232  0.0715 -2.5644
 7806SOL    HW234881   3.488   3.708   4.246  1.5450  0.9164 -1.8043
 7807SOL     OW34882   4.101   3.766   0.602 -0.0189 -0.2366 -0.1968
 7807SOL    HW134883   4.086   3.684   0.650  0.4273 -0.0465  0.2738
 7807SOL    HW234884   4.031   3.819   0.640  0.3198  0.6970 -0.8883
 7808SOL     OW34885   0.682   2.817   4.577  0.0369  0.2413 -0.7240
 7808SOL    HW134886   0.587   2.812   4.589 -0.2787  2.4789 -2.3595
 7808SOL    HW234887   0.710   2.728   4.557  0.0714  0.2955 -0.9135
 7809SOL     OW34888   2.198   1.687   5.329 -0.4707 -0.5049 -0.0447
 7809SOL    HW134889   2.232   1.732   5.251  0.1348 -1.4380 -0.3259
 7809SOL    HW234890   2.108   1.718   5.327 -0.7221 -1.1518  1.1769
 7810SOL     OW34891   0.675   1.472   8.052  0.0249  0.0169  0.1889
 7810SOL    HW134892   0.755   1.420   8.040 -0.8146 -1.5400  1.3311
 7810SOL    HW234893   0.696   1.511   8.137  0.2080 -0.3643  0.3195
 7811SOL     OW34894   4.434   1.009   9.736 -0.4404  0.3055 -0.3068
 7811SOL    HW134895   4.481   0.956   9.801  0.4732  1.2215 -0.2157
 7811SOL    HW234896   4.410   1.080   9.795  1.0704 -0.3862  1.1278
 7812SOL     OW34897   3.180   0.314   3.151  0.2663 -0.2760 -0.0272
 7812SOL    HW134898   3.243   0.244   3.135 -0.0308 -0.1300 -1.8341
 7812SOL    HW234899   3.118   0.260   3.200 -2.9015  2.6773 -0.7309
 7813SOL     OW34900   0.399   4.104   5.917  0.4599 -0.1770  0.1754
 7813SOL    HW134901   0.413   4.016   5.954 -1.9389  0.8165  3.4665
 7813SOL    HW234902   0.409   4.152   5.999 -2.8153  1.2268 -0.2413
 7814SOL     OW34903   3.864   4.258   4.058 -0.1065 -0.2418  0.0524
 7814SOL    HW134904   3.820   4.317   3.997  0.9367  1.2644  0.7505
 7814SOL    HW234905   3.842   4.293   4.144  0.3885 -1.9004  0.8473
 7815SOL     OW34906   3.581   2.224  17.040  0.0144 -0.0431  0.0107
 7815SOL    HW134907   3.495   2.183  17.036 -0.0369  0.2899 -2.4168
 7815SOL    HW234908   3.587   2.267  16.955 -0.0269 -0.3498 -0.1471
 7816SOL     OW34909   0.900   4.555   6.537  0.0365  0.5907 -0.9336
 7816SOL    HW134910   0.860   4.504   6.467  2.3344 -0.2416 -1.6685
 7816SOL    HW234911   0.862   4.520   6.617  2.0642  1.2882  0.3522
 7817SOL     OW34912   1.429   0.460  12.677  0.1956 -0.3431  0.3174
 7817SOL    HW134913   1.437   0.374  12.718 -0.9923 -0.5674  0.0871
 7817SOL    HW234914   1.385   0.440  12.594  0.7620  0.1653 -0.1049
 7818SOL     OW34915   4.564   2.115   7.387 -0.3350  0.3856 -0.1694
 7818SOL    HW134916   4.578   2.093   7.295  1.8187  5.0135 -0.9244
 7818SOL    HW234917   4.483   2.067   7.405  0.4281 -1.4991 -1.7611
 7819SOL     OW34918   4.184   1.753   2.500  0.3162 -0.4690 -0.3176
 7819SOL    HW134919   4.110   1.728   2.555  0.6368 -4.2138 -1.5654
 7819SOL    HW234920   4.176   1.682   2.436 -0.6753 -0.3504 -0.3307
 7820SOL     OW34921   0.349   0.234   7.135  0.4152  0.0216  0.1805
 7820SOL    HW134922   0.376   0.325   7.146  0.1180 -0.0137  1.3056
 7820SOL    HW234923   0.427   0.186   7.164  0.3974  1.5103  2.7595
 7821SOL     OW34924   2.351   3.888   6.587  0.0201  0.2254 -0.0735
 7821SOL    HW134925   2.271   3.871   6.537 -0.5591  2.7475 -0.0090
 7821SOL    HW234926   2.425   3.868   6.530 -0.4593 -2.1303  0.1250
 7822SOL     OW34927   2.370   4.169  10.409  0.2879  0.2349 -0.0629
 7822SOL    HW134928   2.360   4.169  10.314  0.8017  0.8886 -0.1203
 7822SOL    HW234929   2.459   4.202  10.417 -0.0207  0.8264  0.9369
 7823SOL     OW34930   4.378   2.041   0.067 -0.2992 -0.4979  0.3414
 7823SOL    HW134931   4.302   2.060   0.122  0.0918 -0.7188  0.9629
 7823SOL    HW234932   4.453   2.050   0.126 -0.3881 -2.0114  0.6743
 7824SOL     OW34933   1.103   3.925   5.850  0.4161 -0.5634 -0.2069
 7824SOL    HW134934   1.132   3.953   5.764  1.8067  0.2446  0.5338
 7824SOL    HW234935   1.077   3.833   5.838 -0.5789 -0.0278 -2.1076
 7825SOL     OW34936   1.358   4.659  14.751  0.4688 -0.0163  0.4837
 7825SOL    HW134937   1.352   4.644  14.846  0.3529 -0.5508  0.3913
 7825SOL    HW234938   1.424   4.593  14.729  1.4242  0.6579  1.3010
 7826SOL     OW34939   1.224   0.840   8.702 -0.0850  0.5439 -0.0552
 7826SOL    HW134940   1.238   0.927   8.739  3.1430 -0.5728  1.3599
 7826SOL    HW234941   1.312   0.820   8.671 -0.1682 -0.1625  0.1517
 7827SOL     OW34942   3.184   2.838  10.199 -0.3582  0.3351 -0.1736
 7827SOL    HW134943   3.218   2.927  10.191 -1.1706  0.7645  1.1954
 7827SOL    HW234944   3.139   2.857  10.280 -0.4849  1.7513 -0.5843
 7828SOL     OW34945   0.066   0.998   4.637  0.2077  0.0322  0.2327
 7828SOL    HW134946   0.155   1.034   4.642 -0.5398  1.9086 -0.2260
 7828SOL    HW234947   0.049   0.981   4.729  1.2856  0.0117  0.4330
 7829SOL     OW34948   3.814   3.805  15.096  0.0636 -0.1688 -0.0365
 7829SOL    HW134949   3.869   3.802  15.018  1.8097  2.2296  1.1166
 7829SOL    HW234950   3.871   3.804  15.173 -1.3013 -0.5044  0.9818
 7830SOL     OW34951   0.142   0.961   3.144  0.1181  0.0764 -0.0974
 7830SOL    HW134952   0.097   0.977   3.062 -0.9470 -1.6050  0.1521
 7830SOL    HW234953   0.083   0.892   3.175 -1.4328  0.2864 -2.6450
 7831SOL     OW34954   2.313   0.085   0.683 -0.1204  0.3056 -0.0293
 7831SOL    HW134955   2.265   0.153   0.730 -0.7995 -1.1317  1.3702
 7831SOL    HW234956   2.317   0.017   0.751 -0.0136  1.0815  0.7445
 7832SOL     OW34957   2.843   2.950   7.297  0.1623  0.1802  0.4397
 7832SOL    HW134958   2.840   3.045   7.293 -0.6910  0.1580  0.5310
 7832SOL    HW234959   2.758   2.933   7.338 -0.4562  0.7722 -0.6043
 7833SOL     OW34960   3.214   0.403   4.793  0.2574  0.0883  0.7130
 7833SOL    HW134961   3.183   0.435   4.708  1.4877  0.2535  0.3359
 7833SOL    HW234962   3.298   0.368   4.764 -0.2316 -0.7427  0.2938
 7834SOL     OW34963   3.632   4.052   3.157  0.5882  0.1950 -0.5227
 7834SOL    HW134964   3.681   4.130   3.182  0.4626 -0.5591  2.1160
 7834SOL    HW234965   3.585   4.023   3.236 -1.5409  2.0262 -1.1413
 7835SOL     OW34966   2.912   0.958   4.848  0.4648  0.2839  0.4828
 7835SOL    HW134967   2.913   1.035   4.905 -2.7693  0.2178  0.6620
 7835SOL    HW234968   2.819   0.963   4.824  0.2690 -1.5291  0.8845
 7836SOL     OW34969   0.821   0.346   7.903  0.7452 -0.0819 -0.6194
 7836SOL    HW134970   0.831   0.374   7.994 -3.1338  1.2113 -0.5642
 7836SOL    HW234971   0.730   0.369   7.885  0.5622 -0.0108  0.3704
 7837SOL     OW34972   3.212   2.063   5.762  0.2485 -0.2361  0.2079
 7837SOL    HW134973   3.127   2.102   5.743  1.4899  1.0916 -2.6656
 7837SOL    HW234974   3.226   2.077   5.856 -0.3136 -1.2182  0.4311
 7838SOL     OW34975   4.500   4.580   7.704 -0.1386 -0.0466 -0.3033
 7838SOL    HW134976   4.562   4.628   7.760 -1.2023 -0.2831  1.0906
 7838SOL    HW234977   4.478   4.656   7.649  3.1209  0.9893 -0.1859
 7839SOL     OW34978   3.600   1.829   2.518  0.0633  0.2403  0.7513
 7839SOL    HW134979   3.521   1.823   2.464  0.7131 -0.8368 -0.0681
 7839SOL    HW234980   3.577   1.794   2.604  1.2778 -1.0369  0.5510
 7840SOL     OW34981   3.116   1.091  10.951 -0.4022  0.2458  0.5317
 7840SOL    HW134982   3.038   1.035  10.950 -1.5638  1.8880  0.5806
 7840SOL    HW234983   3.176   1.016  10.957 -0.7730 -0.0579  0.4250
 7841SOL     OW34984   0.754   3.454   7.417  0.1127  0.3892 -0.1747
 7841SOL    HW134985   0.659   3.459   7.406 -0.1457 -1.5705  1.1695
 7841SOL    HW234986   0.760   3.547   7.437 -0.9013  0.2670  0.7068
 7842SOL     OW34987   2.016   0.188   6.674 -0.3124  0.5313  0.2552
 7842SOL    HW134988   1.953   0.248   6.714 -2.4642 -1.0001 -0.8114
 7842SOL    HW234989   1.999   0.198   6.580  2.1950 -0.4280 -0.3022
 7843SOL     OW34990   1.406   3.453  17.664 -0.2872 -0.0962  0.2594
 7843SOL    HW134991   1.328   3.507  17.663  0.0163  0.3396  0.2455
 7843SOL    HW234992   1.441   3.481   0.060  0.0219  0.3884 -0.0294
 7844SOL     OW34993   3.241   3.959   2.719 -0.0999 -0.0125 -0.0390
 7844SOL    HW134994   3.297   3.931   2.792  1.5272  0.4733 -1.1108
 7844SOL    HW234995   3.241   3.880   2.664  1.8280 -0.2425  0.3065
 7845SOL     OW34996   3.200   2.968  16.361 -0.4518 -0.1723  0.2258
 7845SOL    HW134997   3.256   3.023  16.305 -2.6179  0.1678 -1.6200
 7845SOL    HW234998   3.164   3.037  16.416  1.8628  0.3143  1.1487
 7846SOL     OW34999   3.489   4.647  15.710 -0.2381 -0.5295 -0.1578
 7846SOL    HW135000   3.429   4.696  15.653 -1.4129 -1.2197  0.4766
 7846SOL    HW235001   3.526   4.719  15.761  1.3817 -0.3926 -1.5417
 7847SOL     OW35002   1.685   4.133   9.087  0.0921  0.2705 -0.2342
 7847SOL    HW135003   1.711   4.052   9.130  0.5338  0.1521 -0.7350
 7847SOL    HW235004   1.590   4.125   9.100  0.0045  0.3685 -0.8090
 7848SOL     OW35005   0.401   1.348   5.608 -0.5475  0.4298 -0.5182
 7848SOL    HW135006   0.426   1.376   5.696  1.1280  0.2836 -0.9446
 7848SOL    HW235007   0.315   1.387   5.592 -0.3237  1.9108  1.8804
 7849SOL     OW35008   0.187   4.169   9.612  0.4271  0.1884 -0.1206
 7849SOL    HW135009   0.219   4.120   9.535  0.0889 -2.6833  1.5644
 7849SOL    HW235010   0.216   4.105   9.677  0.1255 -1.0402 -1.1731
 7850SOL     OW35011   3.905   4.234   6.959  0.1986 -0.1574 -0.0478
 7850SOL    HW135012   3.906   4.327   6.983  0.9060  0.2028 -1.4400
 7850SOL    HW235013   3.974   4.237   6.893  0.1316  4.1383  0.0709
 7851SOL     OW35014   1.909   3.338   2.002  0.1239  0.2846  0.1166
 7851SOL    HW135015   1.944   3.280   2.069 -0.1540 -0.2758 -0.2292
 7851SOL    HW235016   1.820   3.350   2.036 -0.4777  1.4083 -1.8686
 7852SOL     OW35017   3.574   0.930   2.623  0.1389 -0.3769 -0.3471
 7852SOL    HW135018   3.515   0.855   2.609 -0.5909 -0.0637  1.1638
 7852SOL    HW235019   3.589   0.921   2.717  2.6148  1.0407 -0.6191
 7853SOL     OW35020   2.410   1.525   8.924  0.4830  0.4382  0.1703
 7853SOL    HW135021   2.502   1.530   8.899  0.9609  0.9187  2.0029
 7853SOL    HW235022   2.413   1.452   8.985  3.9733  0.1672 -0.2932
 7854SOL     OW35023   0.444   1.371   3.904  0.0451  0.2898 -0.6010
 7854SOL    HW135024   0.362   1.359   3.858 -0.7470 -2.1579  1.4300
 7854SOL    HW235025   0.496   1.307   3.856 -3.6669 -0.6750 -3.2845
 7855SOL     OW35026   3.775   4.351   9.192  0.0563  0.1752 -0.4826
 7855SOL    HW135027   3.758   4.257   9.185  1.5933 -0.2446  1.4277
 7855SOL    HW235028   3.687   4.388   9.187 -0.4370 -1.1139 -1.2293
 7856SOL     OW35029   0.949   1.558   2.364  0.0731 -0.3372 -0.5082
 7856SOL    HW135030   1.028   1.607   2.340  0.0484  1.4963  3.1374
 7856SOL    HW235031   0.973   1.554   2.457  0.8363 -0.6243 -0.7147
 7857SOL     OW35032   1.412   4.118   3.354 -0.2538  0.5274  0.7020
 7857SOL    HW135033   1.385   4.044   3.300 -1.3957  1.5808 -0.1802
 7857SOL    HW235034   1.474   4.154   3.291 -0.2455 -2.0315 -0.7704
 7858SOL     OW35035   3.712   0.362   5.244  0.2363 -0.5308  0.3268
 7858SOL    HW135036   3.699   0.313   5.163  0.1117 -1.8420  1.1264
 7858SOL    HW235037   3.771   0.431   5.215 -0.1313 -0.1924  0.3886
 7859SOL     OW35038   2.421   4.198  10.138  0.2346 -0.4863 -0.3519
 7859SOL    HW135039   2.513   4.220  10.124 -0.1830  1.4373 -0.0700
 7859SOL    HW235040   2.384   4.276  10.096 -0.1739 -0.6365 -0.2700
 7860SOL     OW35041   0.241   2.806   6.923 -0.1049  0.6317  0.1147
 7860SOL    HW135042   0.209   2.831   6.837  0.2817  1.3330  0.1702
 7860SOL    HW235043   0.313   2.745   6.906 -1.3059 -0.2694 -1.6172
 7861SOL     OW35044   0.150   4.706  12.181  0.1965 -0.1127  0.5312
 7861SOL    HW135045   0.084   0.002  12.114 -0.9036 -3.1021  0.8107
 7861SOL    HW235046   0.177   0.072  12.208 -0.5987 -0.3150  1.9613
 7862SOL     OW35047   1.919   3.372  13.938 -0.1354 -0.2910 -0.2572
 7862SOL    HW135048   1.939   3.463  13.959 -0.7586 -0.5126  1.2511
 7862SOL    HW235049   1.964   3.332  14.012 -0.0025 -1.0280 -0.7330
 7863SOL     OW35050   3.079   4.394  12.757 -0.0529 -0.3315  0.2143
 7863SOL    HW135051   3.101   4.422  12.668 -0.1766  0.3031  0.3852
 7863SOL    HW235052   3.064   4.299  12.757 -3.0844  0.1482  0.9031
 7864SOL     OW35053   2.651   1.290   1.589 -0.1131 -0.0584 -0.3110
 7864SOL    HW135054   2.676   1.367   1.539  0.2207  0.0456  0.0118
 7864SOL    HW235055   2.652   1.218   1.527 -1.5193 -0.0162 -0.3829
 7865SOL     OW35056   1.777   4.397  13.090 -0.0245 -0.2062 -0.2789
 7865SOL    HW135057   1.830   4.415  13.167 -3.3424 -0.6160  2.0636
 7865SOL    HW235058   1.802   4.305  13.079  0.3206 -0.1636  0.1541
 7866SOL     OW35059   0.630   2.203   6.341  0.5346 -0.1013 -0.2851
 7866SOL    HW135060   0.693   2.261   6.383  0.2406  0.9109 -1.2240
 7866SOL    HW235061   0.652   2.207   6.248 -1.8143  0.4767 -0.8270
 7867SOL     OW35062   3.486   0.952   5.103 -0.1914  0.1923 -0.3295
 7867SOL    HW135063   3.499   1.015   5.032  0.7728  1.1799  0.7311
 7867SOL    HW235064   3.496   0.867   5.061 -1.1029  1.0528 -2.2807
 7868SOL     OW35065   0.109   0.294   8.037  0.2164 -0.3442 -0.1278
 7868SOL    HW135066   0.083   0.346   8.114 -1.5262 -1.1351 -0.1791
 7868SOL    HW235067   0.031   0.318   7.987  0.5978 -1.3435 -1.2097
 7869SOL     OW35068   0.836   1.299   2.415  0.1040 -0.7098  0.1419
 7869SOL    HW135069   0.763   1.356   2.437 -0.2261 -0.8515 -0.5857
 7869SOL    HW235070   0.898   1.361   2.376 -1.0345  0.2638 -0.0913
 7870SOL     OW35071   1.591   4.274   6.855 -0.1455  0.0343  0.4591
 7870SOL    HW135072   1.546   4.235   6.780  0.2388 -3.5627  2.1417
 7870SOL    HW235073   1.526   4.314   6.912  1.0736  0.7599  1.3627
 7871SOL     OW35074   1.935   0.866   7.232 -0.4808 -0.2169 -0.5795
 7871SOL    HW135075   1.894   0.860   7.318 -1.3647 -1.2870 -1.0808
 7871SOL    HW235076   2.019   0.821   7.241  0.4191  1.7188  0.6912
 7872SOL     OW35077   0.368   2.339  16.386 -0.1458 -0.4338  0.0108
 7872SOL    HW135078   0.298   2.356  16.448  0.0455  1.3682 -0.2546
 7872SOL    HW235079   0.434   2.297  16.441  0.7364 -0.3326 -0.9654
 7873SOL     OW35080   1.026   0.697   3.060  0.1725  0.1696  0.2289
 7873SOL    HW135081   1.061   0.689   3.148  0.0940  0.1577  0.2586
 7873SOL    HW235082   0.932   0.716   3.062 -0.7504 -4.5237  1.2408
 7874SOL     OW35083   2.112   3.769   9.145 -0.1849 -0.2362 -1.0586
 7874SOL    HW135084   2.145   3.738   9.229 -2.0625 -0.6965 -0.4917
 7874SOL    HW235085   2.043   3.703   9.139 -1.7508  1.3808 -0.6433
 7875SOL     OW35086   1.917   2.514   8.582 -0.4323 -0.3656 -0.4637
 7875SOL    HW135087   1.948   2.544   8.667  0.8754 -1.4545 -0.5515
 7875SOL    HW235088   1.857   2.585   8.558  0.1264 -0.8421 -3.3273
 7876SOL     OW35089   2.174   0.123   2.912  0.3025 -0.0181  1.1000
 7876SOL    HW135090   2.223   0.205   2.924  1.0592 -0.0342 -1.8997
 7876SOL    HW235091   2.117   0.127   2.989 -0.1807 -0.4683  0.7603
 7877SOL     OW35092   2.969   2.303   4.497  0.2398  0.4201 -0.1291
 7877SOL    HW135093   2.940   2.313   4.587  0.6715  1.7401 -0.1298
 7877SOL    HW235094   2.887   2.337   4.460  0.9087  1.2912 -0.8360
 7878SOL     OW35095   2.650   2.285   3.391 -0.0082  0.0857  0.1713
 7878SOL    HW135096   2.672   2.375   3.416  1.9178 -0.7757  1.5331
 7878SOL    HW235097   2.658   2.288   3.295 -0.9985  0.9608  0.1169
 7879SOL     OW35098   4.391   4.462   5.363  0.0324  0.3265 -0.3090
 7879SOL    HW135099   4.375   4.441   5.456 -0.3821 -0.1559 -0.4888
 7879SOL    HW235100   4.441   4.382   5.351  0.4079  0.3654  0.9199
 7880SOL     OW35101   1.693   1.000   3.322  0.3332 -0.3544 -0.0438
 7880SOL    HW135102   1.761   0.986   3.256 -0.2056 -1.7422 -0.3127
 7880SOL    HW235103   1.620   0.995   3.260 -0.3169  0.7366  0.6316
 7881SOL     OW35104   1.942   3.343   7.083  0.3375 -0.5912 -0.6041
 7881SOL    HW135105   1.956   3.398   7.161  0.5105  0.5049 -1.4033
 7881SOL    HW235106   1.846   3.351   7.082  0.1227 -3.5381 -2.1916
 7882SOL     OW35107   0.311   0.109   8.771  0.1061 -0.0133  0.5255
 7882SOL    HW135108   0.400   0.074   8.760  1.3849  3.9137 -1.5078
 7882SOL    HW235109   0.332   0.149   8.855  0.7245 -1.1053  0.8922
 7883SOL     OW35110   4.360   1.187   9.953  0.6690 -0.0896 -0.5604
 7883SOL    HW135111   4.277   1.212   9.993  0.1255 -1.3545 -0.8897
 7883SOL    HW235112   4.418   1.257   9.983 -0.3804  0.6490 -0.2620
 7884SOL     OW35113   3.091   3.207  16.497 -0.2577 -0.4829 -0.1305
 7884SOL    HW135114   3.094   3.230  16.590 -0.8975 -0.2505 -0.1639
 7884SOL    HW235115   3.090   3.286  16.443  0.5136  1.0135  2.0334
 7885SOL     OW35116   4.159   4.000   6.754  0.7676  0.0051  0.3485
 7885SOL    HW135117   4.090   3.990   6.689 -0.7885 -0.3615  2.0552
 7885SOL    HW235118   4.132   3.941   6.825 -1.1020  1.1961  0.6239
 7886SOL     OW35119   1.713   3.389  11.212 -0.2040  0.1435  0.3107
 7886SOL    HW135120   1.762   3.427  11.139  0.8364 -1.2330  0.3097
 7886SOL    HW235121   1.661   3.320  11.170  1.8573 -0.9930 -0.3483
 7887SOL     OW35122   2.897   3.384  13.438  0.2169 -0.0587 -0.2310
 7887SOL    HW135123   2.845   3.361  13.361 -1.2084  1.1276  0.3629
 7887SOL    HW235124   2.890   3.304  13.489  0.7390  0.6835  1.0189
 7888SOL     OW35125   3.836   1.398   5.810  0.5833 -0.0691  0.0489
 7888SOL    HW135126   3.898   1.362   5.874  0.3038 -3.4949 -1.5856
 7888SOL    HW235127   3.893   1.422   5.737 -1.5785  0.6684 -1.3746
 7889SOL     OW35128   1.573   3.033   5.912  0.2412 -0.1376  0.3549
 7889SOL    HW135129   1.666   3.032   5.936  0.2354 -2.3367  0.3085
 7889SOL    HW235130   1.572   3.097   5.841  2.5663  0.8781  1.2078
 7890SOL     OW35131   4.551   1.374   6.292 -0.2865 -0.1688  0.4683
 7890SOL    HW135132   4.541   1.469   6.280  2.4275 -0.0457 -0.8659
 7890SOL    HW235133   4.533   1.364   6.385 -0.1757 -0.1983  0.4863
 7891SOL     OW35134   2.297   1.064   8.296 -0.3124  0.3239 -0.3743
 7891SOL    HW135135   2.348   1.089   8.219 -1.5015  0.8259 -1.0025
 7891SOL    HW235136   2.209   1.098   8.277 -0.3800 -0.1671 -0.9268
 7892SOL     OW35137   0.657   2.496   8.833 -0.2106 -0.4112  0.3077
 7892SOL    HW135138   0.609   2.414   8.850 -0.5905 -0.0702  0.8846
 7892SOL    HW235139   0.600   2.562   8.871  1.0811  0.9307 -0.0892
 7893SOL     OW35140   3.823   0.734  16.526 -0.0095  0.2570 -0.1708
 7893SOL    HW135141   3.858   0.647  16.505  0.1352 -0.3899  2.7347
 7893SOL    HW235142   3.903   0.786  16.533 -0.0144 -0.1157  2.5547
 7894SOL     OW35143   2.864   3.974   2.127 -0.5713  0.4081 -0.0408
 7894SOL    HW135144   2.894   3.896   2.174 -2.6318  0.9701  2.2080
 7894SOL    HW235145   2.788   3.998   2.179 -0.8353  1.1879 -0.7773
 7895SOL     OW35146   0.529   0.940  14.370  0.0759 -0.1026 -0.6118
 7895SOL    HW135147   0.525   0.959  14.464 -1.0262 -0.4823 -0.5815
 7895SOL    HW235148   0.621   0.949  14.349  0.6354 -2.6821  0.7440
 7896SOL     OW35149   1.889   1.723  10.903 -0.2745 -0.1785  0.5748
 7896SOL    HW135150   1.978   1.721  10.869 -0.4386  1.0734  0.0726
 7896SOL    HW235151   1.906   1.700  10.994  1.2674 -0.6848  0.1525
 7897SOL     OW35152   0.270   1.936   5.493 -0.0506  0.2227 -0.3930
 7897SOL    HW135153   0.237   1.905   5.409  0.0526 -1.3042  0.1314
 7897SOL    HW235154   0.245   1.864   5.552 -2.1671  2.7131  1.7895
 7898SOL     OW35155   0.239   2.964   8.528 -0.0108  0.2934  0.0184
 7898SOL    HW135156   0.309   2.948   8.465 -1.8790 -1.3926 -1.6131
 7898SOL    HW235157   0.197   3.037   8.483 -1.2691 -0.4430  0.0074
 7899SOL     OW35158   4.335   0.670  16.071  0.5424  0.1860  0.5850
 7899SOL    HW135159   4.286   0.718  16.138  0.4551  0.6373  0.1982
 7899SOL    HW235160   4.311   0.727  15.997 -0.1415 -1.7056 -0.6377
 7900SOL     OW35161   0.439   1.444   9.457 -0.0026  0.4365 -0.0243
 7900SOL    HW135162   0.516   1.394   9.484 -0.8216 -0.5166  0.5464
 7900SOL    HW235163   0.479   1.515   9.407 -1.5089  0.2076 -1.5591
 7901SOL     OW35164   0.594   4.704   5.822  0.7374 -0.5620 -0.0168
 7901SOL    HW135165   0.588   4.663   5.736  0.2841  0.2545 -0.3789
 7901SOL    HW235166   0.649   0.057   5.798  1.0184 -0.6027  0.5051
 7902SOL     OW35167   0.802   1.177  12.046  0.5011  0.6344 -0.2017
 7902SOL    HW135168   0.730   1.182  12.108  0.7565 -2.1226  0.2784
 7902SOL    HW235169   0.769   1.108  11.989 -0.3604  2.0643 -1.4668
 7903SOL     OW35170   0.382   0.026   6.007 -0.8828 -0.0517 -0.5821
 7903SOL    HW135171   0.459   0.024   5.950 -2.2479 -1.0154 -2.3567
 7903SOL    HW235172   0.306   0.011   5.951 -0.8167 -0.0496 -0.6712
 7904SOL     OW35173   3.679   0.468  12.545 -0.8554 -0.3722 -0.3785
 7904SOL    HW135174   3.586   0.485  12.529 -0.8198  1.2097  1.1025
 7904SOL    HW235175   3.691   0.487  12.639 -1.2445  0.9146 -0.5879
 7905SOL     OW35176   1.685   1.365  13.789  0.3158  0.4315 -0.3153
 7905SOL    HW135177   1.695   1.440  13.730  0.7946  1.7684  1.4707
 7905SOL    HW235178   1.590   1.358  13.801  0.8838 -3.9566  1.6225
 7906SOL     OW35179   2.252   1.612   7.850  0.2653  0.5066  0.0163
 7906SOL    HW135180   2.341   1.583   7.873 -0.5838 -0.2692  2.3148
 7906SOL    HW235181   2.209   1.609   7.935  1.6011  1.1377  0.7207
 7907SOL     OW35182   4.546   2.395   4.047  0.0971 -0.3473  0.5082
 7907SOL    HW135183   4.482   2.456   4.009  0.2394  0.6834  1.9379
 7907SOL    HW235184   4.518   2.327   3.985  1.1595 -0.8314  0.5670
 7908SOL     OW35185   4.201   0.608  10.461 -0.2216 -0.1712  0.1296
 7908SOL    HW135186   4.234   0.544  10.525 -0.5479 -1.1983 -0.7156
 7908SOL    HW235187   4.279   0.625  10.408  0.5932  0.6990  1.5939
 7909SOL     OW35188   1.220   3.931   8.113 -0.1198 -0.6459 -0.1186
 7909SOL    HW135189   1.144   3.881   8.141  0.3816 -0.6887  1.1571
 7909SOL    HW235190   1.280   3.907   8.183 -0.3418 -1.8249 -0.3430
 7910SOL     OW35191   4.229   1.055   1.981 -0.3667  0.1077 -0.0084
 7910SOL    HW135192   4.289   1.014   1.919  0.3895 -1.5288  1.7989
 7910SOL    HW235193   4.200   0.973   2.020 -2.2228  0.9952  0.4972
 7911SOL     OW35194   1.490   3.666   1.496 -0.2585 -0.3062  0.3775
 7911SOL    HW135195   1.569   3.634   1.541  0.1471  0.6953  0.3804
 7911SOL    HW235196   1.533   3.689   1.414 -0.7418  1.4008  0.5988
 7912SOL     OW35197   1.161   2.310   3.012  0.6730 -0.0686 -0.0288
 7912SOL    HW135198   1.245   2.315   3.058  0.0776  0.7462  0.9523
 7912SOL    HW235199   1.159   2.222   2.973  0.4691 -0.5020  0.9539
 7913SOL     OW35200   3.697   2.358  17.520 -0.3162 -0.6039  0.2260
 7913SOL    HW135201   3.688   2.318  17.433 -0.5269  0.3071 -0.1721
 7913SOL    HW235202   3.619   2.327  17.566  0.3113 -0.7901  1.1585
 7914SOL     OW35203   2.618   1.216   6.614  0.3854  0.1556  0.0477
 7914SOL    HW135204   2.632   1.121   6.612 -0.9516 -0.0005 -1.1148
 7914SOL    HW235205   2.523   1.220   6.616  0.2863 -2.7758  2.1597
 7915SOL     OW35206   2.079   1.026   9.689  0.5009  0.1344 -0.2212
 7915SOL    HW135207   2.094   0.982   9.772 -2.7845 -0.1190  0.2519
 7915SOL    HW235208   1.994   0.996   9.656  0.4422 -0.3446  0.3673
 7916SOL     OW35209   1.455   3.488  15.792  0.2033 -0.2919  0.0963
 7916SOL    HW135210   1.459   3.572  15.837 -1.2105 -0.3411  0.3152
 7916SOL    HW235211   1.439   3.432  15.868  1.0307 -2.5947 -1.4360
 7917SOL     OW35212   2.480   3.973   6.106  0.5736  0.3343  0.6717
 7917SOL    HW135213   2.396   3.928   6.110  0.8017 -0.1909 -0.7057
 7917SOL    HW235214   2.544   3.903   6.096 -2.0268 -1.8061 -0.5460
 7918SOL     OW35215   0.618   3.887   0.904 -0.1547  0.0403  0.2039
 7918SOL    HW135216   0.633   3.915   0.994  0.8115 -0.0649  0.0745
 7918SOL    HW235217   0.683   3.818   0.892 -0.2872  0.0030 -0.3122
 7919SOL     OW35218   2.875   4.300   5.467 -0.2373  0.3024 -0.4172
 7919SOL    HW135219   2.866   4.231   5.401 -0.2226  0.1652 -0.2764
 7919SOL    HW235220   2.787   4.337   5.460 -0.5166 -0.2939 -0.0850
 7920SOL     OW35221   1.352   3.371  16.014 -0.2570 -0.5803  0.5191
 7920SOL    HW135222   1.357   3.365  16.109  0.4710  1.8698  0.6370
 7920SOL    HW235223   1.258   3.368  15.996 -0.2106 -1.1034  0.3593
 7921SOL     OW35224   0.693   3.325  14.897 -0.3865  0.3731  0.3902
 7921SOL    HW135225   0.713   3.397  14.838  0.0303 -2.2194 -2.6609
 7921SOL    HW235226   0.605   3.356  14.917 -0.6954 -0.3845  0.2340
 7922SOL     OW35227   3.017   0.157   3.335  0.0652  0.0850  0.0965
 7922SOL    HW135228   2.951   0.101   3.295  0.6977  1.2716 -2.6792
 7922SOL    HW235229   3.084   0.089   3.341  0.6104  0.7468  1.3303
 7923SOL     OW35230   2.843   4.376  14.294 -0.5818 -0.1873 -0.1836
 7923SOL    HW135231   2.856   4.433  14.371  0.1033 -1.2793  0.5086
 7923SOL    HW235232   2.799   4.426  14.226 -1.7360 -1.3115 -0.2473
 7924SOL     OW35233   4.688   1.014   9.168  0.2680  0.0919 -0.0557
 7924SOL    HW135234   4.708   1.099   9.206  1.9584 -0.1286 -0.4193
 7924SOL    HW235235   0.030   0.959   9.213  0.3956  0.8497  0.6817
 7925SOL     OW35236   3.299   0.179   9.055  0.1550 -0.2412 -0.0752
 7925SOL    HW135237   3.365   0.197   9.121  0.2591  0.7307 -0.4528
 7925SOL    HW235238   3.326   0.093   9.023  0.3982  0.1065 -0.8045
 7926SOL     OW35239   3.619   1.765   8.021 -0.0062  0.1082  0.0366
 7926SOL    HW135240   3.556   1.815   7.970 -0.2451  0.8796  1.0944
 7926SOL    HW235241   3.582   1.784   8.108  1.9713 -0.3682  0.9901
 7927SOL     OW35242   2.705   3.375   2.880 -0.1975  0.7159  0.5473
 7927SOL    HW135243   2.797   3.396   2.863 -0.5005 -0.3735 -2.3823
 7927SOL    HW235244   2.670   3.464   2.880  0.5549  1.0129  0.0675
 7928SOL     OW35245   2.910   3.397   9.585  0.3984  0.1515 -0.0956
 7928SOL    HW135246   2.971   3.455   9.539  0.0178  0.0772 -0.7046
 7928SOL    HW235247   2.961   3.358   9.655 -2.0660  0.5961  1.9341
 7929SOL     OW35248   0.685   2.776   7.167 -0.3339  0.4684  0.1613
 7929SOL    HW135249   0.595   2.805   7.152 -0.2770  0.7346  0.3311
 7929SOL    HW235250   0.683   2.760   7.261 -0.7460  0.2887  0.1188
 7930SOL     OW35251   4.519   2.694   7.698 -0.1438  0.0418 -0.1254
 7930SOL    HW135252   4.615   2.699   7.705 -0.2226  0.5981  0.5172
 7930SOL    HW235253   4.512   2.663   7.607  1.3224  1.8987 -0.8910
 7931SOL     OW35254   3.410   0.946   2.970  0.4420 -0.5375  0.0630
 7931SOL    HW135255   3.494   0.920   2.932 -0.1416 -0.4343 -1.2914
 7931SOL    HW235256   3.357   0.884   2.921  0.0942  1.2210 -1.8085
 7932SOL     OW35257   2.341   4.044   3.157 -0.2436 -0.2715  0.5671
 7932SOL    HW135258   2.363   4.131   3.190  1.1617 -1.0005  1.5658
 7932SOL    HW235259   2.348   3.998   3.241 -1.6690  0.0008  0.8411
 7933SOL     OW35260   0.639   1.844   0.854 -0.4685 -0.2553 -0.0495
 7933SOL    HW135261   0.693   1.822   0.930 -1.1070 -2.8615 -0.3407
 7933SOL    HW235262   0.680   1.804   0.777 -1.9155 -2.5782  0.3609
 7934SOL     OW35263   2.934   4.408  10.185 -0.4734 -0.6630 -0.4241
 7934SOL    HW135264   2.963   4.495  10.211 -1.1379 -0.6690  0.3622
 7934SOL    HW235265   3.000   4.344  10.210  0.9670  0.8164 -0.4438
 7935SOL     OW35266   3.589   1.226   7.066  0.4049  0.1861 -0.2325
 7935SOL    HW135267   3.620   1.237   7.156 -3.3288 -0.3319  1.0953
 7935SOL    HW235268   3.513   1.170   7.082 -0.1956  0.6729 -1.3949
 7936SOL     OW35269   2.188   1.324   9.351 -0.3108 -0.4456 -0.0006
 7936SOL    HW135270   2.229   1.324   9.264  1.1295 -0.3164  0.6676
 7936SOL    HW235271   2.179   1.230   9.368 -1.1224 -0.0292  1.8426
 7937SOL     OW35272   2.560   0.010   2.997 -0.0198  0.2436 -0.0836
 7937SOL    HW135273   2.497   4.692   2.937 -2.4996  1.0841  1.9737
 7937SOL    HW235274   2.516   0.092   3.022  0.4621  0.0961  1.2792
 7938SOL     OW35275   1.644   1.303   8.635 -0.0391 -0.0595 -0.0027
 7938SOL    HW135276   1.612   1.218   8.605 -0.8044  0.1469  0.2464
 7938SOL    HW235277   1.739   1.289   8.625 -0.0341 -0.4510  0.5734
 7939SOL     OW35278   0.469   4.588   7.435 -0.7444  0.3400 -0.2817
 7939SOL    HW135279   0.524   4.524   7.390 -0.8970  0.1271 -0.1673
 7939SOL    HW235280   0.429   4.536   7.506 -1.5484  0.5010 -0.6139
 7940SOL     OW35281   3.565   2.494   7.011  0.0591 -0.0761 -0.3940
 7940SOL    HW135282   3.509   2.556   6.965  2.0742 -0.2319 -3.0687
 7940SOL    HW235283   3.556   2.423   6.947 -1.5914 -0.0491 -0.1969
 7941SOL     OW35284   4.438   4.447   2.568  0.1195 -0.3066  0.6997
 7941SOL    HW135285   4.483   4.372   2.528 -1.9586 -0.5891 -1.1364
 7941SOL    HW235286   4.353   4.452   2.524  1.3157  2.5970 -1.3250
 7942SOL     OW35287   0.350   2.658   9.244  0.3898  0.0759  0.0666
 7942SOL    HW135288   0.260   2.629   9.258 -0.5186  1.9585 -1.8476
 7942SOL    HW235289   0.327   2.751   9.235 -0.2584 -0.1303 -0.4107
 7943SOL     OW35290   2.494   0.898   7.641  0.5764  0.4350 -0.7407
 7943SOL    HW135291   2.408   0.859   7.654  0.9601  1.1987  4.0582
 7943SOL    HW235292   2.464   0.989   7.640 -0.5533  0.0722  0.2632
 7944SOL     OW35293   2.394   3.255  14.040  0.0208  0.1399  0.3940
 7944SOL    HW135294   2.480   3.272  14.002  0.7055 -1.0840  1.4163
 7944SOL    HW235295   2.330   3.285  13.975 -1.8772 -0.6539  1.9163
 7945SOL     OW35296   3.431   2.751   2.414 -0.8396 -0.2912 -0.3494
 7945SOL    HW135297   3.517   2.709   2.414 -0.2467  0.8970  0.8356
 7945SOL    HW235298   3.383   2.698   2.350 -0.1480 -0.2529 -0.9062
 7946SOL     OW35299   0.798   2.454  10.691  0.0822 -0.2625 -0.1524
 7946SOL    HW135300   0.786   2.509  10.768 -0.4272  1.0754 -1.1889
 7946SOL    HW235301   0.704   2.441  10.676  0.1789  1.4556 -2.2351
 7947SOL     OW35302   0.121   4.523  15.582 -0.1249  0.0935 -0.3702
 7947SOL    HW135303   0.057   4.581  15.622  0.1775 -1.5924  2.5017
 7947SOL    HW235304   0.127   4.554  15.491 -0.4961  2.1916  0.3173
 7948SOL     OW35305   2.797   2.396   2.083 -0.1080  0.2206 -0.2110
 7948SOL    HW135306   2.864   2.348   2.035 -1.1984 -1.9550  0.4738
 7948SOL    HW235307   2.777   2.467   2.022 -0.0401  0.8065  0.4390
 7949SOL     OW35308   3.543   3.309  10.626 -0.3528  0.3239  0.0529
 7949SOL    HW135309   3.496   3.340  10.548 -2.6466 -0.2362  1.2129
 7949SOL    HW235310   3.557   3.395  10.667 -0.5604  0.9901 -1.2383
 7950SOL     OW35311   2.981   2.315   7.504 -0.2098  0.0428 -0.0055
 7950SOL    HW135312   2.896   2.273   7.496 -0.1009 -0.4077  1.0965
 7950SOL    HW235313   3.004   2.323   7.597 -0.7763  0.6171  0.0857
 7951SOL     OW35314   1.520   0.833   6.319  0.2795 -0.2070  0.1119
 7951SOL    HW135315   1.506   0.867   6.230  0.4637 -0.1089  0.1204
 7951SOL    HW235316   1.577   0.899   6.358  0.4559 -1.1394  1.3969
 7952SOL     OW35317   2.103   2.087   2.750  0.0873 -0.0338 -0.3908
 7952SOL    HW135318   2.036   2.064   2.815  0.1825  1.8192  0.3663
 7952SOL    HW235319   2.091   2.009   2.695  2.2857 -0.1208 -0.7409
 7953SOL     OW35320   3.140   2.851  15.624 -0.3751 -0.3338  0.2869
 7953SOL    HW135321   3.123   2.855  15.530 -0.6726 -1.2275  0.2987
 7953SOL    HW235322   3.155   2.757  15.630 -2.9055 -0.9836 -3.2823
 7954SOL     OW35323   4.696   4.469   1.670  0.1994  0.8373 -0.0044
 7954SOL    HW135324   4.686   4.502   1.759 -2.0093  0.1696  0.0010
 7954SOL    HW235325   4.650   4.533   1.616 -2.0097 -1.9816 -1.4800
 7955SOL     OW35326   1.950   1.915   4.332 -0.0925 -0.1117  0.7166
 7955SOL    HW135327   1.974   1.892   4.243  1.4024 -0.7058  1.2821
 7955SOL    HW235328   1.876   1.858   4.355 -0.6568 -0.6525 -2.5288
 7956SOL     OW35329   0.455   2.570   0.611  0.2683 -0.8470  0.1031
 7956SOL    HW135330   0.546   2.593   0.625  0.3799 -0.3344 -1.3746
 7956SOL    HW235331   0.420   2.617   0.686 -1.5468  0.6644 -1.6656
 7957SOL     OW35332   3.348   0.533   4.470 -0.1390 -0.0884 -0.2114
 7957SOL    HW135333   3.275   0.471   4.476  0.2133 -0.1046  3.9722
 7957SOL    HW235334   3.347   0.546   4.375 -1.3370 -0.3855 -0.2377
 7958SOL     OW35335   4.625   2.000   2.589  0.0186  0.4917 -0.0292
 7958SOL    HW135336   4.586   1.964   2.509 -1.6792  0.7044  0.6988
 7958SOL    HW235337   4.619   1.916   2.635  0.8449  0.6413  0.3611
 7959SOL     OW35338   2.066   4.382  10.766 -0.0772  0.1567  0.0017
 7959SOL    HW135339   2.037   4.473  10.775 -0.6439  0.1769 -2.0491
 7959SOL    HW235340   2.047   4.349  10.854  3.0259  0.3187  0.7371
 7960SOL     OW35341   2.491   3.213   6.735 -0.2124 -0.2731  0.3842
 7960SOL    HW135342   2.547   3.163   6.795 -0.6637  0.7290  1.6241
 7960SOL    HW235343   2.493   3.164   6.653 -1.5456  1.8535 -0.9338
 7961SOL     OW35344   1.285   1.413   8.125 -0.6443 -0.3240 -0.5307
 7961SOL    HW135345   1.342   1.397   8.049  1.2944  1.3480  0.5601
 7961SOL    HW235346   1.258   1.505   8.116  0.4578 -0.0572 -1.1683
 7962SOL     OW35347   2.807   4.196   5.927 -0.1101  0.7179 -0.1175
 7962SOL    HW135348   2.784   4.254   5.854  0.3626 -0.9609 -1.6056
 7962SOL    HW235349   2.849   4.265   5.978  4.0732 -1.3489 -0.7175
 7963SOL     OW35350   3.892   0.103   3.259 -0.2558 -0.6022  0.0829
 7963SOL    HW135351   3.934   0.125   3.176  0.7212 -1.4108  0.3630
 7963SOL    HW235352   3.868   0.012   3.244 -0.1273 -0.9275  1.8156
 7964SOL     OW35353   2.567   1.424  13.630 -0.0972 -0.1779 -0.4855
 7964SOL    HW135354   2.554   1.368  13.707 -0.1758  0.5967  0.0693
 7964SOL    HW235355   2.480   1.463  13.625 -0.0017  0.0350 -0.4721
 7965SOL     OW35356   2.469   3.473   2.030 -0.9061 -0.2380  0.7479
 7965SOL    HW135357   2.382   3.475   2.071 -1.8993  1.1220 -1.4332
 7965SOL    HW235358   2.529   3.449   2.101 -0.8060 -0.3576  0.6229
 7966SOL     OW35359   1.322   4.575   7.101 -0.1777 -0.1461 -0.6638
 7966SOL    HW135360   1.279   4.622   7.173  0.4967 -0.1136 -0.2740
 7966SOL    HW235361   1.269   4.608   7.029 -0.3755  1.7293  0.3092
 7967SOL     OW35362   2.216   0.208   2.209  0.2068  0.0046  0.7338
 7967SOL    HW135363   2.193   0.249   2.125 -0.9019 -0.3708  0.8581
 7967SOL    HW235364   2.301   0.252   2.211  0.7610 -1.0351  0.2171
 7968SOL     OW35365   1.460   2.912   0.594  0.4692 -0.3709 -0.1342
 7968SOL    HW135366   1.504   2.996   0.601  0.6425 -0.6530  2.1886
 7968SOL    HW235367   1.397   2.932   0.664  0.4649 -3.1185  0.6608
 7969SOL     OW35368   3.565   2.638  10.435 -0.2588  0.2654 -0.6376
 7969SOL    HW135369   3.471   2.644  10.420 -0.7501  0.4456  2.5421
 7969SOL    HW235370   3.561   2.644  10.530  1.6078  0.8975 -0.6038
 7970SOL     OW35371   0.580   4.715   8.746 -0.1484  0.0810 -0.6339
 7970SOL    HW135372   0.589   4.622   8.769 -0.2395  0.8365  2.4981
 7970SOL    HW235373   0.651   0.033   8.797 -0.1544  1.0709 -1.4209
 7971SOL     OW35374   3.785   0.037   9.365 -0.1655  0.1636 -0.3432
 7971SOL    HW135375   3.828   0.021   9.449  0.0538 -3.0087 -1.0796
 7971SOL    HW235376   3.828   4.693   9.309  0.1904  0.1766 -0.0876
 7972SOL     OW35377   1.911   0.138  11.026  0.7053  0.0925 -0.0795
 7972SOL    HW135378   1.982   0.143  11.090  1.6142 -4.6584 -0.7043
 7972SOL    HW235379   1.946   0.197  10.960  1.4653 -2.4999 -1.9802
 7973SOL     OW35380   0.546   0.188  14.671 -0.1392 -0.3316 -0.0992
 7973SOL    HW135381   0.474   0.217  14.615 -0.6896  0.0742  0.8182
 7973SOL    HW235382   0.614   0.237  14.626  0.4440  0.9979  2.2375
 7974SOL     OW35383   3.429   1.460   9.514  0.4787  0.0809  0.5339
 7974SOL    HW135384   3.468   1.376   9.488 -0.9162 -0.1351 -0.8066
 7974SOL    HW235385   3.425   1.454   9.610  0.9344  0.4893  0.5800
 7975SOL     OW35386   0.577   2.960   9.054 -0.0054  0.3144 -0.3053
 7975SOL    HW135387   0.487   2.944   9.083  0.4602 -1.3473  0.1810
 7975SOL    HW235388   0.605   3.022   9.122  0.0979  0.2679 -0.3056
 7976SOL     OW35389   0.167   3.326   5.486  0.1822  0.3665 -0.0052
 7976SOL    HW135390   0.219   3.305   5.408  0.7364 -0.9237  0.7038
 7976SOL    HW235391   0.233   3.305   5.552 -1.3215 -0.8159  1.1320
 7977SOL     OW35392   0.112   3.497   1.426  0.3458 -1.0157  0.1089
 7977SOL    HW135393   0.079   3.419   1.470 -1.2396 -0.3688  0.0609
 7977SOL    HW235394   0.099   3.567   1.491 -1.0916 -0.6321 -0.5829
 7978SOL     OW35395   4.353   3.705  14.385 -0.3575  0.0977  0.0363
 7978SOL    HW135396   4.373   3.733  14.296 -1.9051  0.7204 -0.1090
 7978SOL    HW235397   4.258   3.716  14.391 -0.4350 -1.4217  1.4654
 7979SOL     OW35398   0.875   0.011   4.320  0.3245 -0.3897 -0.8486
 7979SOL    HW135399   0.955   0.023   4.269 -0.2733 -0.7514 -1.8790
 7979SOL    HW235400   0.829   4.664   4.273  0.7547 -1.2509 -0.0260
 7980SOL     OW35401   1.444   4.042   7.390  0.0004  0.3768  0.2786
 7980SOL    HW135402   1.513   4.077   7.447  0.2134  0.5831 -0.1065
 7980SOL    HW235403   1.449   3.947   7.399  0.7886  0.3277 -0.6745
 7981SOL     OW35404   4.281   4.713   2.366 -0.5433  0.0673  0.0105
 7981SOL    HW135405   4.194   0.013   2.400 -0.2145  0.3031  0.7100
 7981SOL    HW235406   4.254   4.647   2.303 -0.6723 -1.3677  1.5800
 7982SOL     OW35407   1.671   2.205   3.043 -0.6374 -0.1116 -0.5520
 7982SOL    HW135408   1.581   2.196   3.075 -0.5674 -0.0669 -0.3403
 7982SOL    HW235409   1.694   2.249   3.125  2.4319 -0.7271 -1.0926
 7983SOL     OW35410   0.706   0.510   4.245 -0.0307  0.4184  0.4525
 7983SOL    HW135411   0.637   0.472   4.300 -1.0883  0.6915 -0.6991
 7983SOL    HW235412   0.777   0.485   4.304  0.5539 -1.1036 -0.8814
 7984SOL     OW35413   2.425   4.699  15.702  0.3894 -0.1271  0.4044
 7984SOL    HW135414   2.344   4.686  15.652 -0.1579 -0.2577  1.3139
 7984SOL    HW235415   2.398   4.671  15.790  0.9632 -0.5240  0.4536
 7985SOL     OW35416   3.169   4.548   5.791 -0.2369  0.1389 -0.3845
 7985SOL    HW135417   3.149   4.642   5.791  0.0329  0.1901 -1.7996
 7985SOL    HW235418   3.088   4.520   5.749  0.1418 -2.7153  0.8024
 7986SOL     OW35419   0.689   4.711   2.928 -0.2434 -0.2115 -0.5647
 7986SOL    HW135420   0.613   0.013   2.981 -1.5277 -2.0568 -1.5700
 7986SOL    HW235421   0.736   4.646   2.981 -1.0887 -0.2273  0.1547
 7987SOL     OW35422   4.527   2.453   1.913 -0.3799  0.8018  0.0041
 7987SOL    HW135423   4.564   2.477   1.828 -0.6816 -1.2749 -0.7147
 7987SOL    HW235424   4.441   2.496   1.905  0.5554  2.2928 -1.8693
 7988SOL     OW35425   2.458   4.651   7.334 -0.7800 -0.2647 -0.1354
 7988SOL    HW135426   2.543   4.626   7.369  0.1629  3.6784  0.3250
 7988SOL    HW235427   2.472   4.596   7.257  0.6301 -1.2260  0.8086
 7989SOL     OW35428   1.273   1.437   6.513  0.9698  0.6127  1.1090
 7989SOL    HW135429   1.284   1.440   6.608 -0.2384  0.9626  1.2413
 7989SOL    HW235430   1.214   1.363   6.501  1.8289  0.0773  0.1752
 7990SOL     OW35431   2.898   0.198   3.006  0.2060  0.0594 -0.0870
 7990SOL    HW135432   2.858   0.190   2.919 -0.2703 -1.0914  0.2424
 7990SOL    HW235433   2.877   0.110   3.038  0.7828  0.0387  0.2189
 7991SOL     OW35434   3.231   3.177   8.108 -0.4767  0.0510 -0.2055
 7991SOL    HW135435   3.155   3.119   8.124 -0.3063  0.1756  1.1161
 7991SOL    HW235436   3.196   3.218   8.029  0.1208  0.5438 -0.2107
 7992SOL     OW35437   0.994   3.162   5.733  0.7855 -0.1413  0.2239
 7992SOL    HW135438   1.040   3.109   5.668  1.1684  0.1792  0.2305
 7992SOL    HW235439   0.953   3.097   5.790 -1.3059  1.8942  1.0360
 7993SOL     OW35440   4.017   3.766   7.949  0.3211 -0.5667 -0.5885
 7993SOL    HW135441   4.088   3.712   7.985 -0.4441 -1.4523 -0.3946
 7993SOL    HW235442   3.955   3.784   8.020  0.6603  0.7618 -0.6405
 7994SOL     OW35443   0.693   2.562   7.368 -0.0684 -0.5159  0.4660
 7994SOL    HW135444   0.758   2.627   7.396 -0.0994 -0.3680  0.1926
 7994SOL    HW235445   0.703   2.504   7.444  0.4446 -1.0432  0.0034
 7995SOL     OW35446   0.022   4.166   3.867  0.2131  0.0733 -0.1386
 7995SOL    HW135447   4.691   4.246   3.872 -0.1739 -0.4163  3.6666
 7995SOL    HW235448   0.104   4.213   3.854  0.1044 -0.0653 -1.3568
 7996SOL     OW35449   3.364   3.864   3.862 -0.2072  1.0419 -0.0304
 7996SOL    HW135450   3.410   3.885   3.943  1.3832 -0.6562 -0.4884
 7996SOL    HW235451   3.438   3.816   3.825 -0.7283 -0.1259  0.4494
 7997SOL     OW35452   1.428   2.485   4.635  0.1639  0.3391 -0.3515
 7997SOL    HW135453   1.359   2.533   4.589  1.2848 -0.2393 -2.6333
 7997SOL    HW235454   1.499   2.488   4.570  1.0295  2.0115  0.6808
 7998SOL     OW35455   1.201   1.143   6.116 -0.0437 -0.1473  0.6095
 7998SOL    HW135456   1.269   1.171   6.177 -0.8817 -0.1482  1.5358
 7998SOL    HW235457   1.137   1.099   6.172 -3.0626  0.0493 -2.6889
 7999SOL     OW35458   2.841   2.838   2.061 -0.2932 -0.9320  0.2403
 7999SOL    HW135459   2.904   2.904   2.090  0.1847 -1.1064 -0.4245
 7999SOL    HW235460   2.807   2.879   1.981  1.2976 -0.7245 -0.3242
 8000SOL     OW35461   4.529   3.512   2.196  1.3582 -0.1622 -0.1632
 8000SOL    HW135462   4.442   3.473   2.196  2.1885 -2.0194  0.1202
 8000SOL    HW235463   4.594   3.443   2.186  1.0457 -0.6145  0.9001
 8001SOL     OW35464   1.130   3.494   7.200  0.3425 -0.3561 -0.6004
 8001SOL    HW135465   1.202   3.440   7.168  0.7544 -0.7326  0.9844
 8001SOL    HW235466   1.179   3.576   7.210  1.0716 -0.9024  0.2644
 8002SOL     OW35467   0.194   2.184   5.840  0.3619  0.5253  0.0247
 8002SOL    HW135468   0.229   2.095   5.851 -0.7308  0.2979  1.7131
 8002SOL    HW235469   0.111   2.167   5.884 -0.7531 -0.4506 -2.4355
 8003SOL     OW35470   3.138   0.977   6.456  0.3051 -0.2301  0.0172
 8003SOL    HW135471   3.089   0.896   6.441  0.1700 -0.2454  0.5307
 8003SOL    HW235472   3.183   0.961   6.539  0.0041  2.8711  0.7791
 8004SOL     OW35473   0.818   4.260   7.180  0.5378 -0.2181 -0.0220
 8004SOL    HW135474   0.889   4.235   7.239 -0.0270  1.3728  1.3084
 8004SOL    HW235475   0.790   4.172   7.153  0.1850  0.2576 -1.2014
 8005SOL     OW35476   2.584   1.480   3.152  1.1825 -0.4248 -0.3118
 8005SOL    HW135477   2.537   1.470   3.235  3.1394 -1.2458  0.6891
 8005SOL    HW235478   2.577   1.386   3.136  3.2392 -0.8478  1.2977
 8006SOL     OW35479   0.293   3.846   5.995 -0.8415 -0.5507  0.3657
 8006SOL    HW135480   0.382   3.845   6.030 -0.4772  0.8605 -0.4936
 8006SOL    HW235481   0.277   3.754   5.973  1.3128 -0.2163 -2.5600
 8007SOL     OW35482   4.313   4.285   1.321 -0.1786  0.0779 -0.5642
 8007SOL    HW135483   4.222   4.313   1.323  0.4447  2.0799  0.0928
 8007SOL    HW235484   4.312   4.193   1.349  0.3296  0.3096  0.2421
 8008SOL     OW35485   4.472   1.315   5.057  0.8548 -0.5961  0.2399
 8008SOL    HW135486   4.406   1.251   5.031 -0.8773  1.2895 -0.0339
 8008SOL    HW235487   4.481   1.369   4.979  2.9183 -0.6666  0.4131
 8009SOL     OW35488   0.544   3.179   4.192 -1.1363 -0.5970  0.9020
 8009SOL    HW135489   0.559   3.240   4.120 -1.4077  0.2063  1.5237
 8009SOL    HW235490   0.579   3.096   4.160 -0.9139  0.1382 -0.7334
 8010SOL     OW35491   2.442   3.297   1.013 -0.5890  0.3069  0.2330
 8010SOL    HW135492   2.462   3.252   0.931 -2.5563  0.0725 -0.1245
 8010SOL    HW235493   2.516   3.269   1.065 -1.0389 -0.1126  0.6409
 8011SOL     OW35494   2.525   4.107   4.895 -0.2041  1.4146  0.5539
 8011SOL    HW135495   2.608   4.120   4.848  0.7434 -2.3128  1.1502
 8011SOL    HW235496   2.503   4.022   4.857  0.9078  1.4808 -0.2452
 8012SOL     OW35497   2.803   2.185   4.048 -0.2842  0.0946 -0.1532
 8012SOL    HW135498   2.888   2.217   4.080 -0.6078  3.5547 -2.7455
 8012SOL    HW235499   2.742   2.189   4.122  0.5272 -1.5084  0.6131
 8013SOL     OW35500   4.288   1.260   3.947  0.2342  0.5071 -0.3087
 8013SOL    HW135501   4.194   1.260   3.965  0.1649  1.0383 -0.6588
 8013SOL    HW235502   4.315   1.260   4.039 -0.9084  0.3909  0.0297
 8014SOL     OW35503   0.739   3.682   5.542 -0.5782  0.3337 -0.4685
 8014SOL    HW135504   0.699   3.724   5.618 -1.0830  1.9358 -1.6156
 8014SOL    HW235505   0.659   3.656   5.496 -2.4903 -0.4294  3.3214
 8015SOL     OW35506   0.002   3.905  10.717  0.0128  0.7128  0.2716
 8015SOL    HW135507   0.003   3.994  10.684  0.1941  0.5482 -0.1755
 8015SOL    HW235508   0.056   3.855  10.655 -0.0649 -0.3961  1.0932
 8016SOL     OW35509   2.566   4.040  14.982 -0.0653  0.2181 -0.3458
 8016SOL    HW135510   2.537   4.129  15.003  2.6431  0.3750  2.7273
 8016SOL    HW235511   2.654   4.046  15.018 -0.2791  0.9300  0.0564
 8017SOL     OW35512   1.862   4.347   6.785 -0.8501  0.2136  0.2592
 8017SOL    HW135513   1.852   4.400   6.707  0.4400 -0.4568 -0.3636
 8017SOL    HW235514   1.776   4.305   6.791 -0.7360 -0.3299 -2.2565
 8018SOL     OW35515   3.719   1.140   7.405  0.2152  0.0577  0.5201
 8018SOL    HW135516   3.813   1.156   7.413  0.3538  1.7824 -4.6121
 8018SOL    HW235517   3.727   1.061   7.351 -0.2189 -0.6627  1.5145
 8019SOL     OW35518   2.627   4.467   3.796  0.2833  0.8300 -0.1004
 8019SOL    HW135519   2.573   4.476   3.718 -0.7976 -1.9655  0.3457
 8019SOL    HW235520   2.591   4.388   3.834  0.5002  0.3222 -0.9553
 8020SOL     OW35521   1.420   1.048  16.227 -0.6303 -0.4172 -0.7920
 8020SOL    HW135522   1.411   1.142  16.241  1.5469 -0.1794 -1.0958
 8020SOL    HW235523   1.332   1.029  16.195 -0.8942  0.8501 -0.8170
 8021SOL     OW35524   4.214   4.550   7.184 -0.3914  0.5037  0.5723
 8021SOL    HW135525   4.182   4.633   7.219  1.3417  1.0700  0.8002
 8021SOL    HW235526   4.169   4.490   7.243 -0.1853 -0.0268  0.1977
 8022SOL     OW35527   4.630   1.716   3.722  0.5797 -0.4537  0.1097
 8022SOL    HW135528   4.698   1.688   3.784 -0.3692 -1.2673  0.7831
 8022SOL    HW235529   4.611   1.626   3.696  1.5016 -0.1700 -1.5012
 8023SOL     OW35530   4.382   0.338   9.246  0.5535  0.1137 -0.1048
 8023SOL    HW135531   4.392   0.389   9.326 -0.3190 -0.6278  0.4788
 8023SOL    HW235532   4.471   0.325   9.213  1.7137  2.3634  2.1183
 8024SOL     OW35533   0.305   1.095  13.617  0.2617 -0.1565 -0.1825
 8024SOL    HW135534   0.289   1.186  13.644  2.5783 -0.0848  0.9166
 8024SOL    HW235535   0.217   1.063  13.596  0.5092 -0.0492 -1.4051
 8025SOL     OW35536   2.278   2.194   1.324  0.3035 -0.2562  0.3914
 8025SOL    HW135537   2.296   2.178   1.231  3.6396 -1.4309  1.2123
 8025SOL    HW235538   2.183   2.195   1.328  0.2742 -2.3413  0.4841
 8026SOL     OW35539   4.672   2.753  11.468  0.2883  0.5191 -0.1713
 8026SOL    HW135540   4.584   2.781  11.441  0.9191 -0.5415 -3.3203
 8026SOL    HW235541   4.654   2.730  11.560  3.7574  0.7077  0.5393
 8027SOL     OW35542   2.245   0.517   5.284  0.5805  0.0288 -0.2786
 8027SOL    HW135543   2.257   0.579   5.212 -0.5843  2.3588  1.5049
 8027SOL    HW235544   2.336   0.518   5.315  1.1821 -1.5193 -2.0356
 8028SOL     OW35545   4.291   0.722   3.544 -0.0965 -0.1545  0.1440
 8028SOL    HW135546   4.200   0.728   3.517  0.7757 -1.3314 -3.0933
 8028SOL    HW235547   4.331   0.690   3.463 -0.0480 -0.3356  0.2393
 8029SOL     OW35548   2.881   1.971   4.286  0.2831 -0.2251  0.0926
 8029SOL    HW135549   2.925   1.949   4.368  1.0325  0.4290 -0.1352
 8029SOL    HW235550   2.950   1.960   4.221  1.4623 -0.4407  1.3824
 8030SOL     OW35551   3.439   2.135  14.194  1.0418 -0.0569  0.1995
 8030SOL    HW135552   3.455   2.208  14.253 -0.4159  0.7561 -0.4165
 8030SOL    HW235553   3.348   2.154  14.175  0.6797 -0.6972  1.3053
 8031SOL     OW35554   1.382   0.778  14.742 -0.2256 -0.3651  0.3081
 8031SOL    HW135555   1.318   0.848  14.756 -2.4567 -2.1314 -1.0773
 8031SOL    HW235556   1.416   0.795  14.654 -0.6496  0.2741  0.2689
 8032SOL     OW35557   2.133   4.392  13.166  0.4066 -0.2062  0.7426
 8032SOL    HW135558   2.126   4.467  13.108 -1.1226 -1.1481 -0.3105
 8032SOL    HW235559   2.103   4.325  13.104 -1.4683  1.4863 -0.1973
 8033SOL     OW35560   1.586   2.858   9.334 -0.3238 -1.3352  0.3445
 8033SOL    HW135561   1.648   2.930   9.328 -0.2339 -1.4172  0.2976
 8033SOL    HW235562   1.632   2.802   9.397  1.0164 -0.5782  0.0425
 8034SOL     OW35563   3.468   2.533   3.516 -0.1820  0.7098  0.2398
 8034SOL    HW135564   3.382   2.564   3.488 -0.0370 -1.1689 -2.3245
 8034SOL    HW235565   3.509   2.620   3.520 -1.3486  1.2865 -0.1990
 8035SOL     OW35566   2.700   4.158  15.956  0.5109 -0.0139 -0.8822
 8035SOL    HW135567   2.750   4.124  15.882  1.0375  1.4072 -1.1867
 8035SOL    HW235568   2.743   4.243  15.968 -0.3889  0.2065  0.7852
 8036SOL     OW35569   4.609   3.150   6.900  0.4471  0.3640  0.2125
 8036SOL    HW135570   4.596   3.093   6.824  2.4775 -0.0232  0.1751
 8036SOL    HW235571   4.684   3.198   6.865  0.8926 -1.3732 -1.2351
 8037SOL     OW35572   4.105   0.794  12.933 -0.2686 -0.4550 -0.6916
 8037SOL    HW135573   4.172   0.732  12.906 -1.8613 -2.1218 -0.7656
 8037SOL    HW235574   4.026   0.741  12.928 -0.0764 -0.8027  0.1506
 8038SOL     OW35575   0.226   1.561   4.229 -0.1422 -0.4361 -0.5030
 8038SOL    HW135576   0.232   1.648   4.190  1.1342 -1.4523 -2.6460
 8038SOL    HW235577   0.150   1.521   4.188  0.7920 -0.5239 -2.1569
 8039SOL     OW35578   0.192   4.132   5.731 -0.2119 -0.1872  0.3163
 8039SOL    HW135579   0.279   4.139   5.768  0.0434  3.1481 -0.8918
 8039SOL    HW235580   0.137   4.141   5.808 -0.1919  0.6003  0.2404
 8040SOL     OW35581   2.575   3.330   4.344 -0.2199 -0.2663  0.6493
 8040SOL    HW135582   2.608   3.248   4.307  0.3639  0.1629  0.2116
 8040SOL    HW235583   2.623   3.335   4.427  1.4412  1.2752 -0.3943
 8041SOL     OW35584   2.812   2.367   6.644 -0.0163  0.8335  0.2487
 8041SOL    HW135585   2.723   2.331   6.641  0.7275 -1.1585  1.6993
 8041SOL    HW235586   2.822   2.388   6.737  0.6730  0.9912  0.1414
 8042SOL     OW35587   0.736   2.516   4.495 -0.0070 -0.4568 -0.0237
 8042SOL    HW135588   0.697   2.467   4.567 -0.2034 -1.9555 -1.1406
 8042SOL    HW235589   0.727   2.452   4.424  1.1766  0.3091 -0.8574
 8043SOL     OW35590   0.994   0.701   5.515  0.4539  1.1308  0.6046
 8043SOL    HW135591   1.080   0.718   5.477  0.2960 -2.4991 -1.3944
 8043SOL    HW235592   1.011   0.671   5.604  2.9583 -1.2720 -0.7091
 8044SOL     OW35593   3.976   0.851  16.070 -0.5461  0.5150 -0.2153
 8044SOL    HW135594   4.029   0.806  16.004 -1.4132 -1.3588  0.3642
 8044SOL    HW235595   4.033   0.839  16.146 -2.0355 -1.8440  0.5385
 8045SOL     OW35596   1.526   2.029   3.424 -0.6573 -0.0683 -0.6872
 8045SOL    HW135597   1.470   1.960   3.390 -1.1047 -1.1489  2.2896
 8045SOL    HW235598   1.512   2.100   3.361 -0.3053  0.3171 -0.3300
 8046SOL     OW35599   4.215   0.166   1.452 -0.2885  0.2690  0.1327
 8046SOL    HW135600   4.245   0.079   1.478  2.0541  0.6274 -1.3668
 8046SOL    HW235601   4.235   0.159   1.358 -1.4372 -1.9738  0.0606
 8047SOL     OW35602   4.068   1.595   8.718 -0.3734 -0.1818 -1.0415
 8047SOL    HW135603   4.064   1.521   8.777 -2.9846  0.5314 -0.3207
 8047SOL    HW235604   4.155   1.633   8.728 -0.7545 -0.7552  4.2297
 8048SOL     OW35605   2.430   3.599   8.068 -0.0498  0.4237 -0.3357
 8048SOL    HW135606   2.433   3.621   7.975 -2.8573  1.8219 -0.1031
 8048SOL    HW235607   2.336   3.615   8.080 -0.8197 -2.3970 -2.4828
 8049SOL     OW35608   1.511   2.486   9.478 -0.7635 -0.2163  0.1082
 8049SOL    HW135609   1.540   2.404   9.438  1.0492 -0.3645  1.7237
 8049SOL    HW235610   1.444   2.452   9.537  0.5477 -0.5156  1.4131
 8050SOL     OW35611   1.257   0.797  11.988  0.5914  0.3425 -0.5651
 8050SOL    HW135612   1.337   0.837  11.956  0.8377  1.3839  1.3341
 8050SOL    HW235613   1.191   0.866  11.977 -0.2887 -0.5153 -0.6426
 8051SOL     OW35614   3.787   1.023   9.902 -0.3856  0.4226 -0.2649
 8051SOL    HW135615   3.808   0.998   9.992  2.9201 -0.2094 -1.2152
 8051SOL    HW235616   3.842   0.957   9.861 -2.2895 -0.0778 -1.9843
 8052SOL     OW35617   3.976   2.171   8.993  0.0831 -1.1516 -0.1779
 8052SOL    HW135618   4.044   2.181   8.927 -0.8150 -0.6558 -1.0278
 8052SOL    HW235619   3.909   2.234   8.967  0.5158 -0.0493  1.3723
 8053SOL     OW35620   0.150   4.305   0.448  0.4408  0.4673 -0.4782
 8053SOL    HW135621   0.079   4.357   0.487 -1.1773 -1.5209 -0.7859
 8053SOL    HW235622   0.147   4.225   0.500  2.4618  2.7763  3.1726
 8054SOL     OW35623   2.070   4.202  13.019 -0.4183  0.5560  0.2553
 8054SOL    HW135624   2.059   4.125  12.963 -0.4248  2.2995 -2.1590
 8054SOL    HW235625   2.136   4.165  13.078  0.2823 -2.8912 -2.7315
 8055SOL     OW35626   0.498   0.954   4.882 -0.0583 -0.4071 -0.1695
 8055SOL    HW135627   0.489   1.049   4.891  2.3807 -0.0634 -1.3124
 8055SOL    HW235628   0.583   0.932   4.844  0.6195  1.4590  0.2512
 8056SOL     OW35629   0.946   1.679  10.691  0.5056  0.4020  0.5310
 8056SOL    HW135630   0.925   1.772  10.690 -2.4971 -0.2638  0.0135
 8056SOL    HW235631   0.866   1.645  10.650 -0.3028  1.7786  0.9848
 8057SOL     OW35632   3.576   2.402  12.107 -0.1577 -0.1528 -0.0256
 8057SOL    HW135633   3.619   2.337  12.163  0.2444 -1.7381 -2.2143
 8057SOL    HW235634   3.495   2.357  12.086  0.2736 -0.1416 -1.6547
 8058SOL     OW35635   3.234   2.641   3.435  0.4663 -0.3643  0.0248
 8058SOL    HW135636   3.223   2.661   3.342  0.1622  1.1079  0.3752
 8058SOL    HW235637   3.160   2.677   3.483  1.6461  0.7256  0.9982
 8059SOL     OW35638   3.287   2.055   5.496 -0.0100 -0.0815 -0.3371
 8059SOL    HW135639   3.268   2.016   5.582  1.6181  4.7036  2.1884
 8059SOL    HW235640   3.363   1.999   5.479 -0.1664 -0.4040  0.0114
 8060SOL     OW35641   2.097   4.156   6.114 -0.4261  0.4026 -0.0195
 8060SOL    HW135642   2.144   4.091   6.167 -1.1368  1.3707  1.8016
 8060SOL    HW235643   2.039   4.187   6.183 -0.4031  0.1632  0.1111
 8061SOL     OW35644   2.699   3.637   7.056 -0.8425  0.5031 -0.1474
 8061SOL    HW135645   2.729   3.590   6.978 -0.2876  0.0506  0.3315
 8061SOL    HW235646   2.754   3.715   7.054  0.1615 -0.1740  1.0979
 8062SOL     OW35647   3.162   1.638   6.962  0.5119 -0.6427 -0.5663
 8062SOL    HW135648   3.170   1.732   6.948 -0.2740 -0.2009  1.8765
 8062SOL    HW235649   3.188   1.592   6.882 -0.5582 -2.8819  0.3521
 8063SOL     OW35650   1.557   0.440   3.593 -0.0121  0.4370  0.2558
 8063SOL    HW135651   1.627   0.457   3.530  0.6948 -0.8801  0.6784
 8063SOL    HW235652   1.489   0.501   3.565  0.4402  1.2142  0.8608
 8064SOL     OW35653   3.245   2.158   6.022 -0.7667 -0.3153 -0.3689
 8064SOL    HW135654   3.158   2.171   6.061  0.1973 -2.3071  2.4385
 8064SOL    HW235655   3.303   2.135   6.094  1.4166 -0.0626 -2.0457
 8065SOL     OW35656   1.295   1.513   7.781 -0.0541 -0.1321  0.5523
 8065SOL    HW135657   1.217   1.459   7.767  0.4622  0.1186 -3.2472
 8065SOL    HW235658   1.357   1.442   7.769  0.7580  0.7929 -0.7523
 8066SOL     OW35659   2.579   0.892  14.951 -0.1477 -0.1187 -0.2035
 8066SOL    HW135660   2.624   0.830  14.894  0.9845  1.2420 -0.7788
 8066SOL    HW235661   2.627   0.877  15.032  0.5251  2.7116 -0.0986
 8067SOL     OW35662   0.140   0.392   5.156 -0.1169 -0.4533 -0.0229
 8067SOL    HW135663   0.130   0.392   5.251 -0.6734  3.1404 -0.0943
 8067SOL    HW235664   0.189   0.472   5.141  0.7470 -0.8268  0.8612
 8068SOL     OW35665   2.355   4.014   5.066 -0.2262 -0.0922 -0.2833
 8068SOL    HW135666   2.415   4.048   5.000  0.1354  2.7030  1.4420
 8068SOL    HW235667   2.400   4.042   5.146 -1.9907  1.7149  0.0829
 8069SOL     OW35668   3.137   2.653   0.707  0.2595  0.2591 -0.2663
 8069SOL    HW135669   3.108   2.726   0.653  0.5011 -0.1342 -0.9241
 8069SOL    HW235670   3.062   2.611   0.748 -0.9969  1.6168 -1.1911
 8070SOL     OW35671   1.876   3.252   0.291  0.0144  0.7349  0.0338
 8070SOL    HW135672   1.895   3.341   0.321 -1.6621  0.5328  1.6683
 8070SOL    HW235673   1.830   3.281   0.213  1.8123  1.7893 -0.6434
 8071SOL     OW35674   4.598   4.592   2.171 -0.1245  0.0314  0.3876
 8071SOL    HW135675   4.539   4.519   2.189  0.0985 -0.0237  0.9063
 8071SOL    HW235676   4.684   4.550   2.170 -0.2280 -0.1239 -2.7805
 8072SOL     OW35677   2.934   2.704   2.536 -0.2441  0.8487  0.3074
 8072SOL    HW135678   3.025   2.730   2.520  0.6168 -1.9391  0.6969
 8072SOL    HW235679   2.903   2.674   2.451  2.4976 -1.4142  0.1240
 8073SOL     OW35680   3.937   1.517   6.504 -0.7480  0.3567 -0.0562
 8073SOL    HW135681   3.903   1.431   6.531 -0.8096  0.3784 -0.0651
 8073SOL    HW235682   3.893   1.524   6.420  0.0345 -1.6035 -0.6375
 8074SOL     OW35683   1.012   0.902   7.769 -0.4227  0.0076  0.5889
 8074SOL    HW135684   0.975   0.981   7.808  1.0417  0.9493  0.0668
 8074SOL    HW235685   0.991   0.922   7.678  0.2851 -0.7377  0.2584
 8075SOL     OW35686   4.370   2.877   3.981 -0.4116 -0.5346  0.1906
 8075SOL    HW135687   4.432   2.810   3.953 -0.7603 -0.6992 -0.1796
 8075SOL    HW235688   4.306   2.817   4.021  0.6487 -1.2861  0.7538
 8076SOL     OW35689   0.729   4.683   4.840 -0.4277 -0.2203 -0.5374
 8076SOL    HW135690   0.759   4.693   4.750  1.5117 -3.4932 -0.2608
 8076SOL    HW235691   0.723   0.053   4.867  0.1881 -0.2594 -0.2618
 8077SOL     OW35692   0.903   2.407   2.037  0.3827 -0.8355 -0.1805
 8077SOL    HW135693   0.995   2.400   2.014  0.5674 -0.7406  0.5084
 8077SOL    HW235694   0.871   2.408   1.947  2.0757 -1.4983 -0.7944
 8078SOL     OW35695   0.889   1.128  14.038  0.1459  0.3535 -0.2551
 8078SOL    HW135696   0.833   1.133  13.960 -0.1479  3.2390  0.1330
 8078SOL    HW235697   0.888   1.034  14.058  1.1309  0.4774  0.3476
 8079SOL     OW35698   2.628   1.054   3.523 -0.2745  0.0448 -0.8793
 8079SOL    HW135699   2.590   1.025   3.605  1.2716 -2.6643 -1.1303
 8079SOL    HW235700   2.633   0.968   3.481  0.0950  0.4993 -1.7798
 8080SOL     OW35701   1.781   4.151   7.041 -0.2375  0.5189  0.4305
 8080SOL    HW135702   1.741   4.163   6.954 -0.3661  2.5652  0.7762
 8080SOL    HW235703   1.708   4.170   7.101 -1.6927  1.9260 -1.7639
 8081SOL     OW35704   1.209   3.184   8.969  0.0182 -0.5541 -0.2409
 8081SOL    HW135705   1.143   3.147   9.029 -1.5620  1.2721 -0.8354
 8081SOL    HW235706   1.222   3.109   8.911  1.4312  1.9093 -3.0977
 8082SOL     OW35707   0.097   4.552   7.547  0.2806  0.1221 -0.0689
 8082SOL    HW135708   0.077   4.505   7.466 -1.4691  0.6513  0.0583
 8082SOL    HW235709   0.063   4.640   7.528 -0.9491  0.1330  2.2175
 8083SOL     OW35710   3.547   2.489  15.767  0.5298 -0.7766 -0.1587
 8083SOL    HW135711   3.496   2.558  15.808  1.3655 -0.6341  0.6539
 8083SOL    HW235712   3.523   2.509  15.677 -1.2038  1.9282  0.9258
 8084SOL     OW35713   2.765   4.170   2.378  0.2519  0.2599  0.0787
 8084SOL    HW135714   2.833   4.187   2.443 -0.2540  1.2344  0.3605
 8084SOL    HW235715   2.715   4.251   2.385 -1.3279 -0.6967 -0.0365
 8085SOL     OW35716   1.064   3.775   2.418  0.4704 -0.1712 -0.6292
 8085SOL    HW135717   1.110   3.708   2.366  1.5982  0.4918 -0.4717
 8085SOL    HW235718   0.981   3.789   2.372 -0.2311 -0.3509  0.5818
 8086SOL     OW35719   0.077   3.600   3.139 -0.1010  0.2192  0.6840
 8086SOL    HW135720   0.120   3.582   3.055 -0.3280  0.1218  0.5911
 8086SOL    HW235721   0.129   3.673   3.173  1.5037 -2.0092  3.0784
 8087SOL     OW35722   1.670   0.673   2.382  0.4080 -0.1681  0.0235
 8087SOL    HW135723   1.647   0.585   2.351 -3.0990  0.8872 -0.4041
 8087SOL    HW235724   1.628   0.726   2.315  0.9669  0.5433  0.2412
 8088SOL     OW35725   3.838   0.371   9.553  0.3905  0.1340  0.3666
 8088SOL    HW135726   3.924   0.413   9.549  0.1509  0.6589  0.8141
 8088SOL    HW235727   3.842   0.347   9.645 -0.3143 -0.3229  0.2785
 8089SOL     OW35728   2.158   4.143  13.472  0.1114 -0.4016 -0.1284
 8089SOL    HW135729   2.106   4.068  13.500  0.1089 -0.5434 -0.5141
 8089SOL    HW235730   2.103   4.222  13.472  2.2875  1.1335  3.2857
 8090SOL     OW35731   4.152   1.574  15.928  0.6488 -0.3833  0.0033
 8090SOL    HW135732   4.219   1.599  15.864  0.6148 -1.2168 -0.3575
 8090SOL    HW235733   4.066   1.574  15.885  0.8850  0.3734 -0.4725
 8091SOL     OW35734   0.585   4.208   1.596  0.4843  0.3142 -0.5673
 8091SOL    HW135735   0.651   4.229   1.662 -0.2870  2.1962 -0.4056
 8091SOL    HW235736   0.514   4.253   1.641  0.2012 -0.5917 -0.1169
 8092SOL     OW35737   4.572   4.410   8.097 -0.3747 -0.0154 -0.0101
 8092SOL    HW135738   4.604   4.451   8.177  1.9240  1.1267 -1.4718
 8092SOL    HW235739   4.489   4.457   8.095 -1.2498 -1.6673 -3.2215
 8093SOL     OW35740   0.367   3.526   7.864  0.5320  0.4693 -0.3873
 8093SOL    HW135741   0.276   3.497   7.871  0.6192 -0.2197 -2.0823
 8093SOL    HW235742   0.352   3.600   7.806 -0.9577  0.6803  0.2627
 8094SOL     OW35743   1.641   4.303  14.083 -0.2191  0.7570  0.3926
 8094SOL    HW135744   1.569   4.344  14.036 -0.4689 -0.2462 -0.1085
 8094SOL    HW235745   1.713   4.341  14.034  0.3722 -1.2867 -0.3448
 8095SOL     OW35746   2.633   2.103   8.432  1.0101  0.2446  0.2843
 8095SOL    HW135747   2.542   2.109   8.403  2.4263  0.5556 -4.0255
 8095SOL    HW235748   2.643   2.024   8.486  2.7844  0.4961  0.3089
 8096SOL     OW35749   0.981   4.360   5.742 -0.3644 -0.2099  0.6053
 8096SOL    HW135750   1.075   4.371   5.758 -0.7699  2.3147  1.3008
 8096SOL    HW235751   0.950   4.405   5.820 -0.1750 -1.4432  1.3808
 8097SOL     OW35752   1.254   3.619  17.377  0.0358  0.1884  0.3098
 8097SOL    HW135753   1.335   3.570  17.359  0.4634  0.6070  1.0829
 8097SOL    HW235754   1.259   3.644  17.470  2.7444  1.5568 -0.1813
 8098SOL     OW35755   3.795   4.437   8.529  0.4159  0.2820 -0.0639
 8098SOL    HW135756   3.819   4.468   8.616  0.4069  2.6566 -0.8889
 8098SOL    HW235757   3.701   4.455   8.534 -0.0176 -1.9489 -0.1453
 8099SOL     OW35758   4.208   1.144   7.501 -0.4914  0.0172  0.6147
 8099SOL    HW135759   4.276   1.145   7.567  1.9176  0.2569 -1.8598
 8099SOL    HW235760   4.169   1.059   7.523  0.6640 -0.7375 -0.2593
 8100SOL     OW35761   4.169   3.563   8.082 -0.4938 -0.3182 -0.1556
 8100SOL    HW135762   4.118   3.484   8.103 -1.1178 -0.4527 -2.2209
 8100SOL    HW235763   4.261   3.539   8.089  0.0683  1.5219 -1.3226
 8101SOL     OW35764   2.745   0.466   6.358 -0.6193 -0.2360  0.3557
 8101SOL    HW135765   2.719   0.375   6.368  1.8632 -0.9360  0.6152
 8101SOL    HW235766   2.668   0.509   6.394  0.2161  1.1225  0.5431
 8102SOL     OW35767   2.611   1.908   6.473 -0.1992 -0.1853  0.0580
 8102SOL    HW135768   2.680   1.895   6.409 -0.3975 -2.5818  0.3429
 8102SOL    HW235769   2.654   1.873   6.551  1.1615 -0.2367 -0.7213
 8103SOL     OW35770   1.390   2.517   7.082 -0.2001  0.2163 -0.0587
 8103SOL    HW135771   1.337   2.545   7.008 -0.2327  1.5952  0.4841
 8103SOL    HW235772   1.474   2.491   7.043 -0.0626  1.1753 -0.3996
 8104SOL     OW35773   0.037   3.675   4.787  0.3487  0.1007 -0.1662
 8104SOL    HW135774   4.703   3.686   4.710 -0.0994 -0.7169  0.0493
 8104SOL    HW235775   0.102   3.613   4.753 -0.2412 -0.6329  0.0481
 8105SOL     OW35776   3.803   3.102   7.263  0.1375  0.2097  0.1441
 8105SOL    HW135777   3.804   3.020   7.312  0.5800 -0.3698 -0.8176
 8105SOL    HW235778   3.710   3.121   7.254 -0.0827 -1.4737 -1.1656
 8106SOL     OW35779   0.895   2.832  14.732  0.2308 -0.1993  0.0926
 8106SOL    HW135780   0.805   2.848  14.704 -0.6125 -0.6077  2.5937
 8106SOL    HW235781   0.900   2.911  14.787  1.7136 -0.7432  0.7558
 8107SOL     OW35782   1.983   1.039   2.378 -0.6453 -0.1283 -0.3056
 8107SOL    HW135783   2.015   0.995   2.457 -0.4523 -0.6012 -0.6543
 8107SOL    HW235784   2.008   1.130   2.396  0.4434 -0.6089  0.6019
 8108SOL     OW35785   1.822   1.900   4.047  0.4841 -0.0914  0.3056
 8108SOL    HW135786   1.847   1.962   3.979 -4.2046  1.2729 -0.2052
 8108SOL    HW235787   1.880   1.826   4.030 -1.3489 -1.4358 -0.0369
 8109SOL     OW35788   3.076   3.671   5.491  0.0646 -0.2933  0.7430
 8109SOL    HW135789   3.073   3.760   5.457 -0.8694 -0.4228  0.4999
 8109SOL    HW235790   3.165   3.660   5.523 -0.7378 -1.7530  2.4383
 8110SOL     OW35791   1.453   2.441   3.827 -0.1116 -0.0827  0.7774
 8110SOL    HW135792   1.410   2.527   3.824 -0.7873 -0.4065  1.2445
 8110SOL    HW235793   1.508   2.440   3.905 -0.8974 -1.7126  1.2991
 8111SOL     OW35794   2.208   4.188   6.677 -0.0843 -0.7759  0.3994
 8111SOL    HW135795   2.237   4.277   6.658  0.4799 -1.3199 -1.3496
 8111SOL    HW235796   2.288   4.144   6.647  0.3145 -0.3458  0.8294
 8112SOL     OW35797   1.122   2.155   4.613 -0.0989  0.1288  0.2409
 8112SOL    HW135798   1.191   2.189   4.670 -1.3466  0.2408  1.7065
 8112SOL    HW235799   1.141   2.209   4.536 -0.8819 -0.2045 -0.1881
 8113SOL     OW35800   2.392   0.909   7.946  0.4458 -0.4562  0.2497
 8113SOL    HW135801   2.459   0.933   8.011 -0.7783  0.4736  1.1575
 8113SOL    HW235802   2.414   0.978   7.883 -2.3157 -1.5538 -1.9050
 8114SOL     OW35803   1.336   0.470   4.153 -0.3340 -0.1486  0.1675
 8114SOL    HW135804   1.378   0.511   4.228 -0.3010 -0.4041  0.2906
 8114SOL    HW235805   1.393   0.393   4.147  0.0787  0.3154 -1.8879
 8115SOL     OW35806   2.728   4.690  16.305  0.4291  0.6764  0.1420
 8115SOL    HW135807   2.680   4.636  16.368  1.1431 -0.5081 -0.3378
 8115SOL    HW235808   2.755   0.032  16.371  0.1239  1.5464 -0.5800
 8116SOL     OW35809   0.930   3.113  16.903  0.2738  0.1074  0.0676
 8116SOL    HW135810   0.975   3.067  16.974  0.6436 -1.5889 -1.2750
 8116SOL    HW235811   1.001   3.146  16.848  0.0825  0.5173  0.0630
 8117SOL     OW35812   2.915   0.194  17.415 -0.6444  0.2564  0.3444
 8117SOL    HW135813   2.874   0.200  17.501 -1.2892 -0.2962  0.0781
 8117SOL    HW235814   2.891   0.108  17.381  0.4946  0.7642 -1.7863
 8118SOL     OW35815   0.097   3.349   5.051 -0.0373  1.0670  0.6220
 8118SOL    HW135816   0.115   3.255   5.053 -0.4175  0.9881  0.2825
 8118SOL    HW235817   0.169   3.376   4.994  0.8524 -3.1451 -0.2414
 8119SOL     OW35818   3.404   3.571   3.673 -0.1724 -0.4349  0.2402
 8119SOL    HW135819   3.353   3.544   3.750  0.1022  0.6401  0.8032
 8119SOL    HW235820   3.357   3.645   3.635 -0.7078 -1.1474 -0.4750
 8120SOL     OW35821   4.284   4.654   3.202  0.3321  0.4763 -0.3925
 8120SOL    HW135822   4.265   4.710   3.126 -1.5773  0.4438  0.0674
 8120SOL    HW235823   4.327   4.582   3.157 -0.4784  0.2030 -0.7220
 8121SOL     OW35824   0.712   0.607   8.108 -0.7266  0.1335 -0.0130
 8121SOL    HW135825   0.715   0.523   8.155  0.7486  0.1754 -0.0141
 8121SOL    HW235826   0.761   0.662   8.170  0.9341 -1.7853  0.3922
 8122SOL     OW35827   1.753   2.198  14.809 -0.1546  0.2508  0.4242
 8122SOL    HW135828   1.676   2.247  14.782 -1.9399 -1.8911  1.5975
 8122SOL    HW235829   1.713   2.113  14.826 -3.2211  1.9496  1.7765
 8123SOL     OW35830   1.289   1.206   2.874 -0.3649  0.2923  0.3380
 8123SOL    HW135831   1.315   1.250   2.794 -1.4008 -0.1626 -0.2462
 8123SOL    HW235832   1.230   1.142   2.833 -2.5932  1.8997  1.0523
 8124SOL     OW35833   2.394   1.362   2.440  0.7442  0.2073 -0.5762
 8124SOL    HW135834   2.435   1.339   2.357 -0.0874  0.9110 -1.1763
 8124SOL    HW235835   2.306   1.324   2.435  0.0779  1.7821 -0.8699
 8125SOL     OW35836   1.396   1.042  10.262 -0.2950  0.0427  0.3241
 8125SOL    HW135837   1.403   1.085  10.347  1.3288 -0.9719  0.7091
 8125SOL    HW235838   1.395   0.949  10.286 -0.3514 -0.0876 -0.1701
 8126SOL     OW35839   0.435   4.638   7.841 -0.2702 -0.3818  0.3561
 8126SOL    HW135840   0.366   4.685   7.888 -1.2020  0.8423 -2.2578
 8126SOL    HW235841   0.389   4.589   7.774  0.9655  0.3519 -1.0347
 8127SOL     OW35842   0.825   2.394   9.322 -0.3428  0.6233 -0.2211
 8127SOL    HW135843   0.901   2.451   9.318  0.8940 -0.9120  2.0734
 8127SOL    HW235844   0.869   2.314   9.294 -0.8351  0.6875 -1.1876
 8128SOL     OW35845   2.846   2.424  12.966  0.3722 -0.6218 -0.2234
 8128SOL    HW135846   2.912   2.475  13.012  0.3132  1.6977 -2.7306
 8128SOL    HW235847   2.876   2.433  12.876  1.7887 -1.2568  0.1917
 8129SOL     OW35848   3.293   0.163  15.816 -0.1164  0.3218  0.4839
 8129SOL    HW135849   3.258   0.247  15.785 -2.2406 -1.3781 -1.6798
 8129SOL    HW235850   3.346   0.199  15.887  1.3929 -0.6886 -0.1254
 8130SOL     OW35851   4.589   2.735   8.036 -0.2733 -0.5410 -0.0573
 8130SOL    HW135852   4.637   2.696   8.109 -0.5011 -3.8596 -1.6575
 8130SOL    HW235853   4.657   2.748   7.969  1.0080  0.2705  1.4056
 8131SOL     OW35854   2.644   2.592  15.822 -0.2411 -0.6458 -0.3999
 8131SOL    HW135855   2.668   2.663  15.762 -2.9941 -0.9878 -1.9134
 8131SOL    HW235856   2.701   2.526  15.783 -0.4531 -0.4951 -0.9817
 8132SOL     OW35857   3.804   3.218   3.206 -0.0781  0.1495 -0.0506
 8132SOL    HW135858   3.880   3.266   3.240 -1.4288  1.3892  1.2038
 8132SOL    HW235859   3.795   3.267   3.124  0.8189 -0.1754 -0.3407
 8133SOL     OW35860   3.477   0.827   5.946  0.2007 -0.6238 -0.1525
 8133SOL    HW135861   3.495   0.911   5.989 -2.1073  0.3257 -1.0167
 8133SOL    HW235862   3.418   0.788   6.010 -0.2053 -1.1194 -0.8326
 8134SOL     OW35863   2.713   1.676   8.969  0.3113 -0.1901 -0.0652
 8134SOL    HW135864   2.717   1.640   9.058  0.5774 -0.6530 -0.2588
 8134SOL    HW235865   2.807   1.690   8.954  0.0767 -0.9856 -2.2410
 8135SOL     OW35866   3.256   3.779  10.214  0.2761  0.3492 -0.1413
 8135SOL    HW135867   3.311   3.710  10.251 -2.1738 -0.9686  1.0512
 8135SOL    HW235868   3.230   3.735  10.133 -1.3023  4.8549 -2.0905
 8136SOL     OW35869   4.644   3.334   3.643  0.0254 -0.4017 -0.1277
 8136SOL    HW135870   4.592   3.286   3.578 -2.0242  0.0388  1.1864
 8136SOL    HW235871   4.620   3.290   3.725 -0.1817  1.5178  0.8324
 8137SOL     OW35872   4.568   3.098   0.725 -0.3112  0.1548 -0.4338
 8137SOL    HW135873   4.529   3.017   0.758 -0.1212 -0.1961 -1.0727
 8137SOL    HW235874   4.551   3.152   0.802  0.8663  0.3820 -0.3366
 8138SOL     OW35875   3.889   2.514  15.801  0.3871 -0.3709  0.4428
 8138SOL    HW135876   3.840   2.510  15.719  0.8359  0.8127  0.1240
 8138SOL    HW235877   3.934   2.429  15.801 -1.3013 -1.2838  2.1167
 8139SOL     OW35878   2.058   4.230   8.457 -0.1461  0.6946  0.2242
 8139SOL    HW135879   1.992   4.285   8.414 -2.8364 -2.1935  0.6962
 8139SOL    HW235880   2.113   4.297   8.498  0.6375  1.1215 -1.5307
 8140SOL     OW35881   1.668   4.397   9.482  0.0485  0.1566  0.0433
 8140SOL    HW135882   1.684   4.443   9.399  3.1201 -0.1814  0.4418
 8140SOL    HW235883   1.574   4.411   9.494 -0.0241  0.4948 -0.9641
 8141SOL     OW35884   4.030   0.469   3.469 -1.0578 -0.2915 -0.2385
 8141SOL    HW135885   4.061   0.406   3.534  1.2884  0.7739 -0.2976
 8141SOL    HW235886   3.942   0.434   3.455 -0.2388 -1.5576 -2.3051
 8142SOL     OW35887   2.308   1.012   4.862  0.6935  0.3188  0.0831
 8142SOL    HW135888   2.368   1.077   4.825  1.8869 -0.6938  0.2613
 8142SOL    HW235889   2.262   1.066   4.926 -2.0850 -2.2781  0.2494
 8143SOL     OW35890   0.683   1.565  16.479 -0.1036  0.0671 -0.0038
 8143SOL    HW135891   0.596   1.535  16.505 -0.4009  0.3240 -0.6857
 8143SOL    HW235892   0.694   1.634  16.544 -2.5630  0.9119 -0.4898
 8144SOL     OW35893   3.709   0.494   0.894  0.2406  0.3586  0.3665
 8144SOL    HW135894   3.613   0.483   0.890  0.1614  1.3893 -0.6341
 8144SOL    HW235895   3.723   0.584   0.924  0.2072  0.3253  0.4819
 8145SOL     OW35896   4.377   0.317   7.956  0.1786 -0.1969  0.8703
 8145SOL    HW135897   4.388   0.335   8.050 -0.6689  1.6316  0.6202
 8145SOL    HW235898   4.320   0.389   7.927 -0.0255 -0.1092  1.4781
 8146SOL     OW35899   4.502   0.006  14.707 -0.2068 -0.2160  0.2047
 8146SOL    HW135900   4.503   0.053  14.791  0.2177  1.8163 -0.9529
 8146SOL    HW235901   4.516   4.636  14.730 -0.8559  0.3293  2.8076
 8147SOL     OW35902   3.976   0.369   6.841  0.5291 -0.5886  0.0419
 8147SOL    HW135903   4.032   0.392   6.767 -0.8092  2.6754  0.0806
 8147SOL    HW235904   3.951   0.455   6.875 -0.0381 -1.2182  1.2333
 8148SOL     OW35905   1.266   0.408  13.818  0.7218  0.2424  0.5508
 8148SOL    HW135906   1.201   0.388  13.750 -0.2585 -0.1887  1.6239
 8148SOL    HW235907   1.225   0.377  13.899 -3.5536  1.6451 -1.0579
 8149SOL     OW35908   3.308   0.661   5.219 -0.3202  0.1113 -0.0280
 8149SOL    HW135909   3.253   0.633   5.146 -1.9377 -0.1942  1.3258
 8149SOL    HW235910   3.355   0.578   5.232  0.0683  0.1709 -1.0000
 8150SOL     OW35911   3.879   3.426  15.082 -0.0892 -0.7681 -0.3059
 8150SOL    HW135912   3.951   3.490  15.085  0.3428 -1.1814 -2.2153
 8150SOL    HW235913   3.873   3.400  15.174 -4.3777  1.5339  0.0767
 8151SOL     OW35914   1.849   1.639   4.623  0.1203 -0.5005  0.0539
 8151SOL    HW135915   1.753   1.638   4.617  0.0290  0.0973  1.5583
 8151SOL    HW235916   1.867   1.621   4.715  0.7324  2.1268  0.4622
 8152SOL     OW35917   0.916   1.557   6.753  0.2031  0.2941 -0.1012
 8152SOL    HW135918   0.962   1.586   6.832 -2.0048  0.0155  1.2976
 8152SOL    HW235919   0.934   1.463   6.753  2.4722  0.7311 -0.6504
 8153SOL     OW35920   4.134   0.694  15.863  0.1440 -0.6012  0.5565
 8153SOL    HW135921   4.142   0.751  15.787  2.6574 -0.0178  1.2812
 8153SOL    HW235922   4.197   0.625  15.842  1.4462  1.4335 -2.0695
 8154SOL     OW35923   2.665   2.922  17.534 -0.2573  0.0095 -0.1652
 8154SOL    HW135924   2.667   2.912  17.629  0.4344  1.0741 -0.0658
 8154SOL    HW235925   2.742   2.977  17.516  0.3134  0.0698  2.4892
 8155SOL     OW35926   0.238   3.032   9.887 -0.3028  0.2007 -0.0419
 8155SOL    HW135927   0.205   2.960   9.833 -2.8599 -0.2665  2.1853
 8155SOL    HW235928   0.159   3.041   9.940 -0.9116 -2.2871 -0.4968
 8156SOL     OW35929   0.212   4.502   2.889 -0.0364 -0.2345 -0.0709
 8156SOL    HW135930   0.241   4.571   2.948  0.1175 -1.0310  0.8011
 8156SOL    HW235931   0.215   4.428   2.950  1.9894  1.9538  2.4950
 8157SOL     OW35932   2.634   1.800   7.729  0.9562  0.2587  0.1406
 8157SOL    HW135933   2.672   1.814   7.642 -2.2832  0.0406 -1.3404
 8157SOL    HW235934   2.596   1.883   7.758  1.1674  1.5603 -3.2852
 8158SOL     OW35935   2.949   4.622   7.289 -0.4891  0.3102 -0.4311
 8158SOL    HW135936   2.990   4.643   7.373  0.5111  1.6614 -1.2477
 8158SOL    HW235937   3.002   4.674   7.228  0.0251  0.4311  0.1160
 8159SOL     OW35938   0.324   2.967   5.607  0.4473  0.0500  0.3600
 8159SOL    HW135939   0.338   2.998   5.696  1.3836 -0.3674  0.3631
 8159SOL    HW235940   0.240   3.006   5.584  1.2910  0.5121 -1.9331
 8160SOL     OW35941   4.399   3.105   0.231 -0.1047 -0.3677  0.0519
 8160SOL    HW135942   4.438   3.095   0.318  0.3389 -0.8692 -0.2045
 8160SOL    HW235943   4.460   3.049   0.182  1.0906 -0.3365  1.4956
 8161SOL     OW35944   4.640   3.353  10.448  0.0831  0.3482  0.5292
 8161SOL    HW135945   4.612   3.441  10.473  0.1325  1.1090 -2.1073
 8161SOL    HW235946   0.010   3.368  10.429  0.3531 -0.6177  1.0466
 8162SOL     OW35947   3.006   2.579   1.130 -0.5152 -0.3297  0.8617
 8162SOL    HW135948   2.982   2.668   1.105  2.4931  0.2529 -0.0297
 8162SOL    HW235949   2.999   2.547   1.040 -1.7771 -0.6612  1.0851
 8163SOL     OW35950   2.885   4.269   2.120  0.0829  0.3698 -0.2689
 8163SOL    HW135951   2.844   4.189   2.152 -3.5340  1.7342 -1.4401
 8163SOL    HW235952   2.962   4.260   2.175  0.2975  1.6410 -0.3616
 8164SOL     OW35953   3.323   2.432   3.167  0.0875 -0.3163  0.0133
 8164SOL    HW135954   3.304   2.526   3.162 -0.0672 -0.3851 -0.6726
 8164SOL    HW235955   3.312   2.409   3.075 -0.9934 -0.6301  0.2212
 8165SOL     OW35956   4.562   0.467   3.127  0.1643  0.3087 -0.1848
 8165SOL    HW135957   4.472   0.484   3.155  0.3672  1.5262 -0.2946
 8165SOL    HW235958   4.546   0.446   3.035 -3.0903 -1.2026  0.7175
 8166SOL     OW35959   4.503   0.836   9.559 -0.3000  0.9110  0.2335
 8166SOL    HW135960   4.598   0.832   9.574 -0.4092 -1.3567  0.2879
 8166SOL    HW235961   4.479   0.913   9.611 -0.6884  0.9592 -0.0223
 8167SOL     OW35962   3.319   1.828   7.204  0.0396  0.0662  0.4430
 8167SOL    HW135963   3.334   1.856   7.294 -0.7646  0.7535  0.3603
 8167SOL    HW235964   3.237   1.784   7.225 -0.0018 -0.7376 -1.3099
 8168SOL     OW35965   2.868   1.970   0.680  0.3170  0.1808  0.1281
 8168SOL    HW135966   2.839   1.971   0.772 -1.4598  5.0957 -0.5158
 8168SOL    HW235967   2.807   1.911   0.635 -1.4585  2.5999 -0.6203
 8169SOL     OW35968   2.781   0.722  11.027 -0.3115  0.0973  0.2724
 8169SOL    HW135969   2.874   0.742  11.040 -0.1177 -1.4878  1.3450
 8169SOL    HW235970   2.733   0.754  11.104  2.5715  1.1110  1.6460
 8170SOL     OW35971   4.305   4.560   3.690 -0.1056 -0.4780 -0.8170
 8170SOL    HW135972   4.287   4.548   3.597 -1.4861  2.3472 -0.9061
 8170SOL    HW235973   4.289   4.469   3.717  0.8502 -0.9785 -1.9102
 8171SOL     OW35974   0.186   4.655   9.094  0.3605 -0.2886 -0.3829
 8171SOL    HW135975   0.099   4.680   9.124  0.9071  0.6407  0.4486
 8171SOL    HW235976   0.205   4.566   9.122  0.9173 -0.1084 -0.1737
 8172SOL     OW35977   0.685   4.089   8.744 -0.4617 -0.2130  0.3832
 8172SOL    HW135978   0.716   4.109   8.656 -0.8090  0.0621  0.3229
 8172SOL    HW235979   0.687   3.994   8.740 -0.2184 -0.1912  0.0162
 8173SOL     OW35980   0.897   2.391   3.460  0.2482  0.0782 -0.0626
 8173SOL    HW135981   0.891   2.339   3.540  1.4924  1.5817  1.0071
 8173SOL    HW235982   0.930   2.329   3.394  1.6939  0.3456  0.4003
 8174SOL     OW35983   1.841   3.721   8.848  0.1675  0.3564  0.5811
 8174SOL    HW135984   1.770   3.694   8.790  0.3928  0.0273  0.4610
 8174SOL    HW235985   1.806   3.691   8.932  0.6111  0.9573  0.9788
 8175SOL     OW35986   1.943   3.577   5.351 -0.2501  0.4111 -0.1301
 8175SOL    HW135987   1.972   3.654   5.302 -0.0289  0.0391 -0.5848
 8175SOL    HW235988   1.924   3.523   5.274  0.3823  1.5537 -1.0998
 8176SOL     OW35989   1.814   3.557   4.734 -0.4280 -1.0320  0.0038
 8176SOL    HW135990   1.782   3.582   4.821 -0.6428  0.0145 -0.3678
 8176SOL    HW235991   1.886   3.620   4.720 -0.9028 -0.4035  0.3800
 8177SOL     OW35992   0.076   0.516   6.467  0.2930 -0.2644 -0.5491
 8177SOL    HW135993   0.085   0.466   6.549  0.8281  0.0809 -0.3927
 8177SOL    HW235994   0.163   0.553   6.450  0.3465  0.8540  2.0796
 8178SOL     OW35995   4.422   1.219   2.283  0.3957  0.1722 -0.0479
 8178SOL    HW135996   4.495   1.187   2.336 -0.6052  0.3619  1.4630
 8178SOL    HW235997   4.358   1.217   2.354 -0.4256  3.5039 -0.7149
 8179SOL     OW35998   3.768   4.025   6.653 -0.0384 -0.2261  0.6513
 8179SOL    HW135999   3.758   4.119   6.665 -0.5865 -0.1161 -0.5741
 8179SOL    HW236000   3.851   4.018   6.606  0.3127  0.5866  1.1550
 8180SOL     OW36001   2.815   1.966   3.875  0.2583  0.0901  0.1389
 8180SOL    HW136002   2.824   2.040   3.934 -1.3826  0.2569  0.1903
 8180SOL    HW236003   2.872   1.997   3.805  0.7570  0.4666  0.7184
 8181SOL     OW36004   3.575   1.904  10.846 -0.3569 -0.0906 -0.3565
 8181SOL    HW136005   3.551   1.830  10.902 -0.3033  0.1224 -0.0516
 8181SOL    HW236006   3.670   1.891  10.844 -0.3042  0.3666 -0.7862
 8182SOL     OW36007   0.245   2.350   2.208 -0.0946  0.1383  0.6324
 8182SOL    HW136008   0.278   2.416   2.147 -1.8880  0.6844  0.2409
 8182SOL    HW236009   0.204   2.287   2.147  0.8638 -0.0839  0.2116
 8183SOL     OW36010   3.050   2.410   6.942 -0.0461 -0.4212  0.4055
 8183SOL    HW136011   2.965   2.451   6.960 -0.0106 -0.7105  1.2189
 8183SOL    HW236012   3.103   2.453   7.009 -0.0868 -0.5656  0.5307
 8184SOL     OW36013   3.962   3.617  13.300 -0.1846  0.6744 -0.0895
 8184SOL    HW136014   3.889   3.649  13.352 -0.7705 -4.8003  2.4100
 8184SOL    HW236015   3.986   3.547  13.360 -1.8146  0.3994  0.2380
 8185SOL     OW36016   3.940   1.628   6.755 -0.6239 -0.1383 -0.1040
 8185SOL    HW136017   3.922   1.597   6.666  2.4640 -0.2330 -0.7121
 8185SOL    HW236018   3.944   1.544   6.801 -0.0879  0.5834  1.1732
 8186SOL     OW36019   3.503   1.906  17.197  0.2634 -0.2500  0.2179
 8186SOL    HW136020   3.414   1.872  17.206  0.7377 -1.9258 -1.1910
 8186SOL    HW236021   3.476   1.983  17.147 -0.5775  0.2413  1.4514
 8187SOL     OW36022   1.906   3.609   7.616  0.2414  0.1384  0.1959
 8187SOL    HW136023   1.911   3.530   7.562  0.7143  1.2985 -1.4846
 8187SOL    HW236024   1.824   3.608   7.664  0.5657  0.7510  0.7572
 8188SOL     OW36025   1.864   1.961   7.476  0.4211  0.3984 -0.4087
 8188SOL    HW136026   1.782   1.938   7.521  1.3609 -1.4663  0.3581
 8188SOL    HW236027   1.890   2.048   7.505  0.8898  0.1141  0.0145
 8189SOL     OW36028   1.715   0.634   8.479  1.0411  0.3200  0.2868
 8189SOL    HW136029   1.805   0.629   8.450  1.6082 -1.3648  2.3255
 8189SOL    HW236030   1.728   0.614   8.572  1.7026  1.2109  0.3884
 8190SOL     OW36031   1.861   0.396   8.314  0.2424 -0.0024  0.2451
 8190SOL    HW136032   1.913   0.477   8.308 -1.9247  1.3918  0.3374
 8190SOL    HW236033   1.892   0.345   8.389  1.6718 -2.0262 -1.7280
 8191SOL     OW36034   1.161   4.105  10.365  0.2823 -0.1051 -0.3468
 8191SOL    HW136035   1.228   4.134  10.427  1.3183  0.3982 -1.7173
 8191SOL    HW236036   1.213   4.089  10.286  0.0188  0.1753 -0.5736
 8192SOL     OW36037   3.161   4.004   1.976 -0.4328 -0.5054  0.1352
 8192SOL    HW136038   3.119   3.947   2.040 -2.6177  1.9894  0.8944
 8192SOL    HW236039   3.191   3.932   1.920  0.0746 -1.1984  1.3199
 8193SOL     OW36040   4.212   4.110   8.981  0.1608 -0.1053 -0.0898
 8193SOL    HW136041   4.245   4.127   9.069 -1.9696  2.2325  0.2620
 8193SOL    HW236042   4.172   4.195   8.962  0.2685 -0.1897 -0.6857
 8194SOL     OW36043   1.052   1.368   4.607  0.2340  0.3623  0.0123
 8194SOL    HW136044   1.041   1.439   4.544  2.6545  0.2549 -0.5447
 8194SOL    HW236045   0.998   1.300   4.567  0.5360 -1.0616  2.0033
 8195SOL     OW36046   3.544   1.049   6.774  0.0085  0.6905  0.7330
 8195SOL    HW136047   3.569   1.071   6.863  1.2803  0.9282  0.3141
 8195SOL    HW236048   3.607   0.977   6.774  0.4647  1.0931  4.0044
 8196SOL     OW36049   3.490   1.948  12.274  0.9919  0.3358 -0.2960
 8196SOL    HW136050   3.407   1.952  12.226  0.1627 -2.4375  0.9111
 8196SOL    HW236051   3.464   2.001  12.350  1.9412  1.1208 -0.5211
 8197SOL     OW36052   3.288   2.647  10.036  0.2003 -0.4277  0.8425
 8197SOL    HW136053   3.255   2.695  10.112 -1.1222 -0.4598  0.2806
 8197SOL    HW236054   3.318   2.566  10.077  1.5524 -0.4402 -0.1737
 8198SOL     OW36055   4.328   1.507   5.216  0.6034 -0.7011  0.2996
 8198SOL    HW136056   4.368   1.453   5.148 -0.0336 -0.8517  0.0449
 8198SOL    HW236057   4.323   1.442   5.286  0.5144 -0.3183  0.6466
 8199SOL     OW36058   1.938   1.027   9.392 -0.1301 -0.2175 -0.3811
 8199SOL    HW136059   1.878   1.059   9.459  1.3992  0.9096  0.4540
 8199SOL    HW236060   1.903   0.938   9.387  0.6586 -0.3828 -3.2577
 8200SOL     OW36061   4.322   3.115   9.499 -0.3270 -0.0176  0.6208
 8200SOL    HW136062   4.315   3.125   9.404  2.0157  1.7163  0.6298
 8200SOL    HW236063   4.228   3.118   9.519 -0.5009  2.2401 -0.5264
 8201SOL     OW36064   1.605   3.890  15.505  0.2997 -0.8047 -0.1847
 8201SOL    HW136065   1.659   3.812  15.494 -0.0608 -0.9370 -1.0186
 8201SOL    HW236066   1.525   3.842  15.527  0.5802 -1.1250  0.1314
 8202SOL     OW36067   1.440   3.957   3.640  0.2030  0.2809 -0.3543
 8202SOL    HW136068   1.534   3.947   3.623  0.3914 -0.5875  1.1609
 8202SOL    HW236069   1.443   3.930   3.732 -2.5415 -0.7638 -0.5977
 8203SOL     OW36070   3.516   2.221  16.116  0.4636  0.5874  0.7889
 8203SOL    HW136071   3.570   2.260  16.046  2.7167 -0.0188  2.1785
 8203SOL    HW236072   3.435   2.241  16.070  0.8097  1.3040  0.4873
 8204SOL     OW36073   1.749   2.055   5.686  0.1118 -0.0954 -0.5305
 8204SOL    HW136074   1.799   1.989   5.639  0.2138 -0.7549  0.5022
 8204SOL    HW236075   1.794   2.136   5.662 -2.0588  1.6666  1.2652
 8205SOL     OW36076   1.328   3.696   7.172  0.3429 -0.1413 -0.0893
 8205SOL    HW136077   1.409   3.686   7.223  0.5061  0.7297 -0.1720
 8205SOL    HW236078   1.362   3.677   7.085 -0.2797  0.2273 -0.4090
 8206SOL     OW36079   0.020   4.122   3.145 -0.4900 -0.2059  0.2889
 8206SOL    HW136080   0.027   4.142   3.238  2.7093 -1.2762  0.3054
 8206SOL    HW236081   0.058   4.034   3.147 -1.7081 -0.6885  1.8087
 8207SOL     OW36082   4.601   0.646  16.180  0.1397 -0.4470 -0.1189
 8207SOL    HW136083   4.511   0.646  16.147 -0.2279  0.8759  0.8648
 8207SOL    HW236084   4.599   0.729  16.229  2.1514  0.2324 -1.1963
 8208SOL     OW36085   0.712   1.241   5.201 -0.0042 -0.1937  0.1699
 8208SOL    HW136086   0.745   1.178   5.266 -2.3955 -2.1146 -0.5037
 8208SOL    HW236087   0.710   1.186   5.123 -0.4980  0.8847 -0.5801
 8209SOL     OW36088   2.856   0.694   6.082 -0.2967 -0.6627  0.5049
 8209SOL    HW136089   2.856   0.697   6.178 -1.7135  3.8527  0.3927
 8209SOL    HW236090   2.943   0.727   6.061  0.1038 -2.4128 -0.5259
 8210SOL     OW36091   1.291   2.258   6.403  0.0641  0.3953  0.3719
 8210SOL    HW136092   1.370   2.223   6.444  0.5338 -0.8424 -1.6131
 8210SOL    HW236093   1.301   2.221   6.316  1.4284  1.3653  0.1219
 8211SOL     OW36094   0.197   2.000   6.810 -0.6780  0.2354  0.1584
 8211SOL    HW136095   0.264   2.061   6.841  0.9849 -1.4140 -0.2314
 8211SOL    HW236096   0.117   2.053   6.818 -0.9618 -0.2958  0.8533
 8212SOL     OW36097   4.330   2.880   2.305  0.1836  0.0337 -0.4568
 8212SOL    HW136098   4.334   2.826   2.384  0.9196  0.2841 -0.3229
 8212SOL    HW236099   4.254   2.938   2.315  0.1463 -0.2869  1.1208
 8213SOL     OW36100   0.884   3.293   9.066  0.0309 -0.3035  0.0232
 8213SOL    HW136101   0.895   3.388   9.066  1.7391 -0.5102  0.9667
 8213SOL    HW236102   0.802   3.283   9.017  0.6318  1.4096 -1.3308
 8214SOL     OW36103   0.286   0.662   3.528  0.2206  0.5468 -0.3234
 8214SOL    HW136104   0.318   0.576   3.555  0.2569  0.1027 -1.7471
 8214SOL    HW236105   0.356   0.722   3.557  1.1341 -0.9759  0.6206
 8215SOL     OW36106   3.576   2.530   8.799  0.5700  0.3081 -0.7399
 8215SOL    HW136107   3.606   2.618   8.820 -0.7108  0.1115  1.9665
 8215SOL    HW236108   3.602   2.513   8.708 -4.0321  0.7958 -2.1543
 8216SOL     OW36109   3.596   3.670  14.882  0.1068 -0.5374  0.1760
 8216SOL    HW136110   3.555   3.644  14.964 -0.2429  0.6783  0.3826
 8216SOL    HW236111   3.646   3.592  14.860  4.3253  2.6500 -1.6037
 8217SOL     OW36112   2.949   1.995  16.555  0.2209  0.2043 -0.0287
 8217SOL    HW136113   2.990   2.079  16.574 -1.5440  1.0764 -0.1258
 8217SOL    HW236114   2.960   1.945  16.636 -1.1470 -1.4819 -0.8679
 8218SOL     OW36115   1.813   4.241  10.407 -0.1421 -0.4263  0.0248
 8218SOL    HW136116   1.903   4.268  10.423 -0.4883  0.6793  0.0846
 8218SOL    HW236117   1.765   4.279  10.480  1.7827  0.9170  0.5764
 8219SOL     OW36118   4.639   0.488  17.357  0.0838 -0.3213 -0.3060
 8219SOL    HW136119   4.617   0.521  17.444  2.2220  2.1208 -0.6709
 8219SOL    HW236120   4.658   0.399  17.385  0.1666 -0.4623 -0.8008
 8220SOL     OW36121   3.626   4.294   8.212 -0.5875 -0.3044  0.1103
 8220SOL    HW136122   3.538   4.258   8.203 -2.2593  4.0740 -1.3806
 8220SOL    HW236123   3.623   4.374   8.159 -1.3539 -0.8795 -0.7137
 8221SOL     OW36124   3.067   3.291   7.377 -0.4972  0.4139  0.4899
 8221SOL    HW136125   3.146   3.238   7.380 -0.6281  0.2266  0.6395
 8221SOL    HW236126   3.004   3.228   7.344  2.0315 -0.9301 -1.7430
 8222SOL     OW36127   4.275   2.242  17.105 -0.3700 -0.2341 -0.3460
 8222SOL    HW136128   4.192   2.198  17.089 -2.6013  3.8994 -0.1261
 8222SOL    HW236129   4.244   2.323  17.146 -0.9915 -0.4254 -0.4428
 8223SOL     OW36130   1.782   1.670   6.663  0.6268 -0.1062  0.4555
 8223SOL    HW136131   1.796   1.751   6.711 -3.6556  0.3014  0.9438
 8223SOL    HW236132   1.822   1.693   6.579 -0.7967 -0.8383 -0.4120
 8224SOL     OW36133   2.246   1.053   2.000  0.1417 -0.0845 -0.1184
 8224SOL    HW136134   2.208   0.974   1.963 -2.1112  0.8681  0.1628
 8224SOL    HW236135   2.223   1.119   1.935  0.6185 -1.8813 -2.0810
 8225SOL     OW36136   1.861   1.469  16.135 -0.6101  0.5614 -0.5623
 8225SOL    HW136137   1.925   1.511  16.193 -0.9091 -1.0902  0.9611
 8225SOL    HW236138   1.901   1.490  16.050  0.3192 -1.2245 -0.5646
 8226SOL     OW36139   1.348   4.501  12.879 -0.5118 -0.1653  0.0218
 8226SOL    HW136140   1.367   4.408  12.895  0.3318  0.0818  0.4668
 8226SOL    HW236141   1.424   4.541  12.921 -0.2576 -0.4817 -0.1348
 8227SOL     OW36142   2.404   2.198  11.073  0.0869 -0.4603  0.5161
 8227SOL    HW136143   2.425   2.290  11.056 -2.0850 -0.4342 -2.1140
 8227SOL    HW236144   2.451   2.147  11.007 -3.2884  0.7313 -2.8285
 8228SOL     OW36145   0.415   4.534   8.519 -0.0136 -0.4096 -0.4663
 8228SOL    HW136146   0.410   4.555   8.613  2.6533  0.8315 -0.6088
 8228SOL    HW236147   0.503   4.496   8.523  0.5120  1.0697  2.9101
 8229SOL     OW36148   3.326   3.917   4.419  0.0556  0.1340  0.2512
 8229SOL    HW136149   3.388   3.864   4.469 -1.5551 -0.8171  1.2485
 8229SOL    HW236150   3.251   3.859   4.430  0.6596 -0.4993  1.1052
 8230SOL     OW36151   1.148   1.053   5.645  0.2048 -0.0838 -0.3177
 8230SOL    HW136152   1.120   0.987   5.582  0.1328 -0.6188  0.2818
 8230SOL    HW236153   1.129   1.138   5.604 -2.0619 -0.2906  0.2974
 8231SOL     OW36154   3.078   4.005   8.171 -0.2215  0.1713 -0.2563
 8231SOL    HW136155   3.154   3.975   8.220 -0.8710  0.9633  1.2294
 8231SOL    HW236156   3.038   4.052   8.243  0.2131 -2.3314  1.6152
 8232SOL     OW36157   0.024   2.464   9.117 -0.0601 -0.2984 -0.0259
 8232SOL    HW136158   0.083   2.441   9.044 -0.1655  2.0521 -0.8493
 8232SOL    HW236159   4.662   2.440   9.078  0.2010  0.8067 -1.3003
 8233SOL     OW36160   3.343   1.080   0.170  0.0085 -0.0612  0.6475
 8233SOL    HW136161   3.432   1.090   0.202  0.6157 -0.5068 -0.9174
 8233SOL    HW236162   3.339   0.984   0.170  0.4728 -0.0814 -0.9958
 8234SOL     OW36163   3.014   0.597   3.614  0.2588  0.2244  0.0701
 8234SOL    HW136164   2.976   0.576   3.529  1.9218  0.6655 -0.7847
 8234SOL    HW236165   3.040   0.507   3.631  1.6704  0.9211  1.5801
 8235SOL     OW36166   3.052   2.912  10.930  1.0469 -0.1165  0.0281
 8235SOL    HW136167   3.132   2.964  10.922  0.2211  0.7137 -2.7628
 8235SOL    HW236168   3.035   2.912  11.024 -2.3658 -1.4820 -0.5605
 8236SOL     OW36169   0.128   3.127   6.492 -0.1447 -0.5163  0.4542
 8236SOL    HW136170   0.047   3.120   6.442  0.9210 -1.2360 -1.1697
 8236SOL    HW236171   0.121   3.055   6.554 -0.5206  1.2573  2.4619
 8237SOL     OW36172   2.832   2.879   5.353  0.1316  0.3433 -1.3829
 8237SOL    HW136173   2.859   2.787   5.348 -0.2304  0.1272  0.5444
 8237SOL    HW236174   2.739   2.871   5.373  0.7925  3.0011  2.8517
 8238SOL     OW36175   0.986   3.372   2.841  0.1527 -0.2474  0.3697
 8238SOL    HW136176   0.893   3.354   2.834  0.2853 -0.2409 -1.5262
 8238SOL    HW236177   1.007   3.359   2.748 -1.3625 -0.6851  0.0981
 8239SOL     OW36178   0.045   3.788   3.448 -0.3248 -0.3179 -0.0883
 8239SOL    HW136179   0.042   3.820   3.538  1.7035  2.2893 -0.9497
 8239SOL    HW236180   4.688   3.737   3.429 -0.3188  0.3239 -1.8676
 8240SOL     OW36181   1.077   4.492   8.885  0.1285  0.0244 -0.0586
 8240SOL    HW136182   1.037   4.452   8.962  2.8953  0.6741  1.7303
 8240SOL    HW236183   1.169   4.470   8.901 -0.3388 -1.5107  0.5324
 8241SOL     OW36184   1.348   1.210   8.570 -0.4956  0.0129  0.6851
 8241SOL    HW136185   1.425   1.155   8.559 -1.2473 -1.2033  1.5034
 8241SOL    HW236186   1.302   1.221   8.486  1.1446 -0.7174 -0.2991
 8242SOL     OW36187   2.856   4.051   1.084 -0.2825 -0.2337 -0.6296
 8242SOL    HW136188   2.937   4.000   1.076  1.2587  2.0680  0.4588
 8242SOL    HW236189   2.836   4.029   1.175  2.1273  0.7731  0.1241
 8243SOL     OW36190   1.501   0.764   1.670  0.3793 -0.1445  0.0460
 8243SOL    HW136191   1.533   0.676   1.692 -2.2581 -0.5575  2.1233
 8243SOL    HW236192   1.407   0.748   1.682 -0.0568  1.4127 -1.2673
 8244SOL     OW36193   1.062   3.393  15.531 -0.0792  0.1930 -0.0157
 8244SOL    HW136194   0.984   3.445  15.511  0.8455  1.4512 -0.3002
 8244SOL    HW236195   1.099   3.383  15.444 -0.8109 -1.4412 -0.1480
 8245SOL     OW36196   1.370   4.188  10.183  0.4768 -0.5062 -0.3816
 8245SOL    HW136197   1.374   4.198  10.088  2.4166 -1.1293 -0.3770
 8245SOL    HW236198   1.460   4.199  10.215 -0.1467  2.4110  0.2857
 8246SOL     OW36199   3.110   1.607  14.430 -0.0139 -0.2276 -0.4996
 8246SOL    HW136200   3.196   1.625  14.470  0.1571  3.1330 -2.3583
 8246SOL    HW236201   3.063   1.605  14.514 -0.4518  0.0184 -0.7392
 8247SOL     OW36202   2.093   2.893   8.407 -0.1065  0.1995 -0.3707
 8247SOL    HW136203   2.087   2.925   8.497 -0.4404 -1.1441  0.0899
 8247SOL    HW236204   2.028   2.951   8.369 -0.6242 -2.1088 -3.0179
 8248SOL     OW36205   3.836   4.394   4.291 -0.1654 -0.8355 -0.2125
 8248SOL    HW136206   3.789   4.472   4.319  0.4453 -0.7574  0.6091
 8248SOL    HW236207   3.903   4.381   4.359 -3.3705 -1.5633  2.7944
 8249SOL     OW36208   0.752   4.301   3.258 -0.2792  0.6235 -0.2999
 8249SOL    HW136209   0.784   4.350   3.183  0.1506 -1.4207 -1.4687
 8249SOL    HW236210   0.815   4.331   3.324 -0.6350 -1.6052  1.0568
 8250SOL     OW36211   3.219   3.661   9.975 -0.1306 -0.1361  0.2256
 8250SOL    HW136212   3.137   3.622  10.004  1.1855  0.0504  4.1424
 8250SOL    HW236213   3.186   3.696   9.892 -0.7538 -0.1809  0.4589
 8251SOL     OW36214   4.652   3.527  14.111  0.0504  0.1277  0.0812
 8251SOL    HW136215   4.720   3.595  14.109 -1.1922  1.3643 -0.3431
 8251SOL    HW236216   4.658   3.491  14.199 -1.4077  0.2030  0.2189
 8252SOL     OW36217   3.230   3.885   3.484 -0.2985  0.0079 -0.4022
 8252SOL    HW136218   3.167   3.850   3.547 -0.7741  1.5027 -0.0376
 8252SOL    HW236219   3.169   3.909   3.414  0.4632 -0.9486 -1.3914
 8253SOL     OW36220   3.778   2.417   6.249  0.4545 -0.3766 -0.4375
 8253SOL    HW136221   3.804   2.509   6.248  2.2022 -0.8785 -0.1914
 8253SOL    HW236222   3.731   2.414   6.165  3.7308  1.7487 -2.3728
 8254SOL     OW36223   1.272   3.810   6.690 -0.1820 -0.1391 -0.2690
 8254SOL    HW136224   1.343   3.759   6.652 -0.4838  0.1926 -1.3034
 8254SOL    HW236225   1.234   3.742   6.745  1.7408  0.0343  1.2733
 8255SOL     OW36226   2.434   2.270   7.472 -0.0034  0.3023  0.0234
 8255SOL    HW136227   2.506   2.269   7.535 -1.0782  0.2514  1.2578
 8255SOL    HW236228   2.484   2.274   7.391 -1.3843  1.8527 -0.7427
 8256SOL     OW36229   3.255   0.421  12.895  0.0848 -0.0318  0.1090
 8256SOL    HW136230   3.315   0.495  12.888  2.0296 -1.4589  1.5792
 8256SOL    HW236231   3.274   0.383  12.809  0.3989  1.0121 -0.2814
 8257SOL     OW36232   0.029   2.187   6.054  0.0228  0.1974 -0.2607
 8257SOL    HW136233   4.708   2.265   6.091  0.9022  1.0434 -1.0331
 8257SOL    HW236234   0.093   2.174   6.124  0.3604 -1.6964 -0.9213
 8258SOL     OW36235   3.995   3.167   4.264 -0.1294 -0.0153 -0.6330
 8258SOL    HW136236   4.001   3.263   4.258  0.0049 -0.0098 -0.4131
 8258SOL    HW236237   3.931   3.150   4.332 -0.3243  0.2108 -0.7593
 8259SOL     OW36238   0.763   1.798   8.641  0.0889  0.4880 -0.6650
 8259SOL    HW136239   0.819   1.769   8.713 -0.0570  1.3543 -0.2097
 8259SOL    HW236240   0.697   1.729   8.651 -0.9415  1.5307 -0.2731
 8260SOL     OW36241   2.128   0.275   3.508 -0.1934 -0.1465  0.2768
 8260SOL    HW136242   2.163   0.362   3.531 -2.2984  0.5235  0.9772
 8260SOL    HW236243   2.045   0.267   3.555 -0.5547  2.2343  0.0656
 8261SOL     OW36244   4.422   4.428   8.789  0.4412  0.1128 -0.2080
 8261SOL    HW136245   4.489   4.468   8.843  0.0182  0.9721 -0.3226
 8261SOL    HW236246   4.350   4.487   8.766 -0.6541 -1.0561  0.2113
 8262SOL     OW36247   3.682   2.163  12.618  0.0162  0.7281 -0.3279
 8262SOL    HW136248   3.711   2.156  12.709  0.0414  0.7273 -0.3362
 8262SOL    HW236249   3.749   2.214  12.574  1.7979 -1.3711 -0.0432
 8263SOL     OW36250   1.062   2.823  17.120  0.1877  0.2210  0.1327
 8263SOL    HW136251   1.083   2.915  17.108  0.3056  0.2083  0.2352
 8263SOL    HW236252   1.040   2.818  17.213  0.4995  2.4043  0.3191
 8264SOL     OW36253   2.868   3.220   9.368  0.2248  0.4042  0.1585
 8264SOL    HW136254   2.852   3.266   9.286 -0.1972 -3.3795 -1.8694
 8264SOL    HW236255   2.875   3.293   9.430  1.3182  0.4574 -0.0289
 8265SOL     OW36256   4.650   0.147   5.730 -0.7651  0.1663  0.4461
 8265SOL    HW136257   4.633   0.155   5.636  1.7962 -1.1324 -0.1276
 8265SOL    HW236258   4.587   0.215   5.755 -0.8755  0.3127 -0.2205
 8266SOL     OW36259   1.925   2.637   3.790  0.0099  0.0325 -0.3705
 8266SOL    HW136260   1.922   2.557   3.841  0.9851 -1.2611 -2.3389
 8266SOL    HW236261   1.926   2.597   3.703 -1.5518 -2.8481  0.9574
 8267SOL     OW36262   0.202   3.999   0.278 -0.5919  0.1987 -0.0908
 8267SOL    HW136263   0.178   4.069   0.217 -0.7909  1.0541  0.9844
 8267SOL    HW236264   0.220   4.048   0.358  1.4120 -1.9277  0.7648
 8268SOL     OW36265   2.582   1.679   2.401 -0.2078  0.1058  0.6587
 8268SOL    HW136266   2.551   1.632   2.479 -1.4270  1.1602  0.8090
 8268SOL    HW236267   2.501   1.689   2.352 -1.0521 -0.6025  1.8815
 8269SOL     OW36268   0.461   2.310   3.942  0.6712 -0.1045  0.1264
 8269SOL    HW136269   0.491   2.269   4.023  1.1546  1.5128  0.7635
 8269SOL    HW236270   0.402   2.380   3.971 -1.5672 -2.2731  0.8196
 8270SOL     OW36271   4.055   4.190  14.650  0.0782 -0.4374  0.5556
 8270SOL    HW136272   4.091   4.220  14.734 -0.6739 -0.7930  1.0029
 8270SOL    HW236273   3.962   4.178  14.670 -0.0333 -2.4579 -1.2139
 8271SOL     OW36274   2.225   1.869   2.462  0.2278 -0.2499 -0.0564
 8271SOL    HW136275   2.193   1.780   2.450  1.2245 -0.7842  1.1595
 8271SOL    HW236276   2.256   1.858   2.552 -3.2244 -1.1211  0.9896
 8272SOL     OW36277   0.386   1.049   7.398  0.4289 -0.4135  0.2006
 8272SOL    HW136278   0.441   0.987   7.445  2.2819  0.8179 -0.3552
 8272SOL    HW236279   0.308   1.056   7.453  1.1355 -1.2823  1.3038
 8273SOL     OW36280   3.107   4.519   4.980 -0.4104 -0.0596  0.5389
 8273SOL    HW136281   3.095   4.426   4.958  0.9374 -0.7160  2.6362
 8273SOL    HW236282   3.190   4.517   5.027  0.2504 -0.7068 -0.6261
 8274SOL     OW36283   4.238   0.626   7.124  0.3783 -0.4731 -0.0575
 8274SOL    HW136284   4.157   0.587   7.158  0.5126 -0.6736  0.0371
 8274SOL    HW236285   4.239   0.701   7.184  0.6759  0.3879 -1.1548
 8275SOL     OW36286   2.651   4.228  16.359 -0.1330  0.5821  0.0812
 8275SOL    HW136287   2.592   4.184  16.297 -1.2458  1.6097  0.3998
 8275SOL    HW236288   2.668   4.149  16.409  0.5880 -0.2495 -1.4944
 8276SOL     OW36289   3.437   4.703   7.466  0.1331 -0.9615  0.2454
 8276SOL    HW136290   3.347   4.697   7.433 -0.3315 -2.3795  1.7376
 8276SOL    HW236291   3.463   4.611   7.457  2.3762 -0.4065  1.1431
 8277SOL     OW36292   2.073   4.641   6.760  0.5309  0.0388  0.0200
 8277SOL    HW136293   2.054   0.010   6.736 -1.9796 -0.6821 -0.7052
 8277SOL    HW236294   2.062   4.646   6.855  1.1157 -1.1025  0.1520
 8278SOL     OW36295   0.885   4.623   5.661  0.1614 -0.0069  0.4541
 8278SOL    HW136296   0.799   4.607   5.624 -0.2357  1.5891  0.6626
 8278SOL    HW236297   0.924   4.536   5.654  0.3735 -0.1863  4.0057
 8279SOL     OW36298   2.247   3.185   7.018 -0.3057 -0.4157 -0.5505
 8279SOL    HW136299   2.285   3.272   7.015 -1.4200  0.0482 -1.1489
 8279SOL    HW236300   2.157   3.203   7.047 -0.5280 -2.2083 -0.0745
 8280SOL     OW36301   0.424   2.952   2.396 -0.7546  0.0565 -0.3920
 8280SOL    HW136302   0.473   2.913   2.324 -1.7079  0.7694 -1.4181
 8280SOL    HW236303   0.386   2.871   2.431 -0.0889  0.9451  2.3939
 8281SOL     OW36304   0.311   0.701  12.106  0.2975  0.0881  0.3810
 8281SOL    HW136305   0.287   0.707  12.013  0.1100  1.1824  0.5000
 8281SOL    HW236306   0.282   0.613  12.130 -1.0822  0.0697 -1.3716
 8282SOL     OW36307   3.475   2.647  16.108  0.0596  0.0841  0.1382
 8282SOL    HW136308   3.447   2.695  16.030  0.7799 -2.4035 -1.6641
 8282SOL    HW236309   3.565   2.677  16.117 -0.7367  2.5593 -0.3176
 8283SOL     OW36310   0.196   4.195  12.403  0.5484 -0.0471 -0.2692
 8283SOL    HW136311   0.289   4.211  12.420  0.8042 -2.4579  0.7022
 8283SOL    HW236312   0.175   4.276  12.357  1.4947  1.0624  1.2454
 8284SOL     OW36313   2.891   4.345   9.105 -0.2032  0.1645  0.0382
 8284SOL    HW136314   2.898   4.274   9.168 -2.0802 -0.7290 -0.7482
 8284SOL    HW236315   2.929   4.306   9.026  2.2925  1.9570  0.3418
 8285SOL     OW36316   1.765   4.361   7.243  0.5148  0.4125  0.1509
 8285SOL    HW136317   1.695   4.426   7.229  0.0417 -0.4019 -1.2903
 8285SOL    HW236318   1.843   4.411   7.268  1.4060 -0.7244 -0.3653
 8286SOL     OW36319   3.362   1.015  10.036  0.0007 -0.1022  0.1416
 8286SOL    HW136320   3.313   1.082   9.989  1.1679 -0.6332 -1.8351
 8286SOL    HW236321   3.449   1.042  10.006 -0.5057 -0.4628 -1.6082
 8287SOL     OW36322   4.419   3.514   4.571 -0.0933  0.0412 -0.1689
 8287SOL    HW136323   4.453   3.434   4.611  0.4384  1.4931  2.2531
 8287SOL    HW236324   4.344   3.482   4.520 -0.1574  1.1921 -0.7963
 8288SOL     OW36325   3.053   2.117   6.998  0.1465 -0.2115 -0.1620
 8288SOL    HW136326   3.063   2.128   7.093  0.6545  0.0102 -0.2393
 8288SOL    HW236327   3.055   2.208   6.970 -1.3252 -0.2160 -0.2824
 8289SOL     OW36328   4.386   1.638   8.545 -0.1768  0.0330 -0.1343
 8289SOL    HW136329   4.378   1.546   8.569  2.1176 -0.2203 -0.3005
 8289SOL    HW236330   4.350   1.635   8.457  0.3219  0.9871 -0.3764
 8290SOL     OW36331   0.032   0.241   0.666 -0.0111  0.1247 -0.2566
 8290SOL    HW136332   0.021   0.182   0.590 -1.3584  0.4706 -0.3378
 8290SOL    HW236333   0.104   0.296   0.636  2.2939 -1.2895  2.7327
 8291SOL     OW36334   4.268   3.262   0.791  0.3486  0.3209 -0.3163
 8291SOL    HW136335   4.298   3.352   0.775 -1.8102  1.0647 -0.1967
 8291SOL    HW236336   4.343   3.226   0.838  1.7359  3.0580 -0.4552
 8292SOL     OW36337   3.443   2.316  13.034  0.1165 -0.6780 -0.3686
 8292SOL    HW136338   3.482   2.287  13.116  1.8740 -0.0384 -0.9770
 8292SOL    HW236339   3.453   2.233  12.988  2.8753 -0.3281 -0.3940
 8293SOL     OW36340   0.889   4.100   2.779  0.5176 -0.0079  0.4312
 8293SOL    HW136341   0.946   4.176   2.789  1.3042 -0.8200  2.1797
 8293SOL    HW236342   0.944   4.022   2.782  0.2737 -0.1412  1.3613
 8294SOL     OW36343   3.887   3.330   9.278  0.3081 -0.3235  0.0595
 8294SOL    HW136344   3.833   3.309   9.201 -1.7345  2.7352  0.6416
 8294SOL    HW236345   3.922   3.415   9.250  0.0566 -0.5090 -0.8247
 8295SOL     OW36346   0.972   0.727   4.820 -0.4779  0.1238  0.4456
 8295SOL    HW136347   0.907   0.706   4.753  0.0488  1.2338 -0.4005
 8295SOL    HW236348   0.954   0.658   4.884  0.7412  1.0679  1.7996
 8296SOL     OW36349   3.051   3.980   4.164 -0.1985  0.0617  0.4596
 8296SOL    HW136350   3.033   3.924   4.089 -1.7167 -0.6813  1.3683
 8296SOL    HW236351   3.073   4.055   4.109  0.2426  0.4307  1.1345
 8297SOL     OW36352   2.204   3.443   2.155 -0.2196 -0.3935 -0.0433
 8297SOL    HW136353   2.185   3.451   2.248  3.3007  1.8227  0.4958
 8297SOL    HW236354   2.144   3.381   2.114 -1.2598  0.9125 -0.4817
 8298SOL     OW36355   1.236   3.116   6.766  0.4695  0.2920 -0.5015
 8298SOL    HW136356   1.275   3.136   6.681 -3.6484  1.1233 -2.1836
 8298SOL    HW236357   1.265   3.027   6.786 -0.6999  0.0458  0.0934
 8299SOL     OW36358   1.632   3.557   1.254 -0.0604  0.4101 -0.0398
 8299SOL    HW136359   1.662   3.489   1.194  0.5311 -0.6952  1.5269
 8299SOL    HW236360   1.575   3.502   1.307  0.0987  1.8029  1.5907
 8300SOL     OW36361   2.453   3.664   1.846 -0.0178  0.3234  0.4576
 8300SOL    HW136362   2.484   3.592   1.901  1.8895 -0.8092 -2.0319
 8300SOL    HW236363   2.361   3.665   1.869 -0.0500  0.8235  0.3092
 8301SOL     OW36364   1.302   2.669   3.082  0.8635 -0.3247 -0.6482
 8301SOL    HW136365   1.384   2.644   3.039  1.4302 -0.0081  0.2499
 8301SOL    HW236366   1.262   2.702   3.001 -1.3789  1.5935  1.2458
 8302SOL     OW36367   3.346   1.806  17.486 -0.3566 -0.0447 -0.2323
 8302SOL    HW136368   3.373   1.891  17.453 -1.6482  0.8029  0.9271
 8302SOL    HW236369   3.270   1.817  17.543 -0.1710  3.0563 -0.5829
 8303SOL     OW36370   3.191   0.201   0.334 -0.7620 -0.1385  0.3320
 8303SOL    HW136371   3.268   0.257   0.343  0.7144 -1.9965 -0.4765
 8303SOL    HW236372   3.237   0.118   0.318 -2.1925 -0.4181 -2.3422
 8304SOL     OW36373   3.545   0.552   9.899  0.2241  0.1253  0.0053
 8304SOL    HW136374   3.526   0.458   9.895 -0.5331  0.1645  2.4417
 8304SOL    HW236375   3.491   0.575   9.975 -1.7679  0.1664 -1.4098
 8305SOL     OW36376   0.803   3.872  17.575  0.2263 -0.4268 -0.7470
 8305SOL    HW136377   0.838   3.887  17.663 -1.1048 -0.6463 -0.1843
 8305SOL    HW236378   0.877   3.909  17.527  0.7737 -0.3212  0.1760
 8306SOL     OW36379   2.135   0.155  16.168  0.0675 -0.3598  0.2241
 8306SOL    HW136380   2.110   0.203  16.247  1.6536  0.1914  0.3932
 8306SOL    HW236381   2.231   0.163  16.166 -0.1169  2.0540  0.7123
 8307SOL     OW36382   0.869   1.043   2.529  0.1890  0.1075 -0.6448
 8307SOL    HW136383   0.869   1.129   2.486  1.2944 -1.0790 -2.9909
 8307SOL    HW236384   0.830   1.068   2.613 -0.4036 -0.5240 -0.7341
 8308SOL     OW36385   2.599   1.847   9.225  0.4777  0.3010 -0.1307
 8308SOL    HW136386   2.644   1.766   9.248  0.3126  0.0071 -0.8288
 8308SOL    HW236387   2.669   1.906   9.251  2.3191 -1.3349 -1.3684
 8309SOL     OW36388   4.467   0.379   5.275 -0.5188 -0.4623  0.5719
 8309SOL    HW136389   4.394   0.440   5.275 -1.4662 -1.5888  0.7696
 8309SOL    HW236390   4.482   0.378   5.181  2.1833  1.3851  0.9827
 8310SOL     OW36391   1.759   4.708   4.043 -0.0150  0.5316  0.4980
 8310SOL    HW136392   1.795   4.718   3.954  0.4108  1.3162  0.7565
 8310SOL    HW236393   1.674   4.666   4.033  1.2652 -1.9550  0.1904
 8311SOL     OW36394   1.935   2.198   7.316 -0.0639  0.5502 -0.2889
 8311SOL    HW136395   1.982   2.165   7.239 -2.9905 -1.3426 -1.2422
 8311SOL    HW236396   2.010   2.211   7.374 -0.2170  0.2715 -0.0297
 8312SOL     OW36397   2.027   4.257   3.409  0.3143  0.4082 -0.2689
 8312SOL    HW136398   1.952   4.219   3.364  0.7109 -2.7583  1.7836
 8312SOL    HW236399   2.071   4.310   3.342 -1.4148  0.8744 -1.0350
 8313SOL     OW36400   4.678   3.055  16.279 -0.4023 -0.3643  0.3634
 8313SOL    HW136401   4.637   3.020  16.200  1.5507 -0.7092 -0.5140
 8313SOL    HW236402   0.045   3.045  16.244 -0.9202 -2.8472 -0.2715
 8314SOL     OW36403   3.093   2.164   7.312 -0.0844  0.2032 -0.0707
 8314SOL    HW136404   3.083   2.228   7.382  0.6981  0.1131  0.1231
 8314SOL    HW236405   3.002   2.141   7.295 -0.1642  0.2893  0.2362
 8315SOL     OW36406   0.993   2.091   0.917  0.5933  0.7383  0.0399
 8315SOL    HW136407   1.038   2.008   0.900 -2.2352 -0.4371 -1.5825
 8315SOL    HW236408   1.063   2.145   0.879 -0.7566  0.4310 -2.8671
 8316SOL     OW36409   1.361   0.885   5.223 -0.6302  0.0199  0.0281
 8316SOL    HW136410   1.404   0.812   5.268  1.5103  0.7346 -0.8693
 8316SOL    HW236411   1.306   0.844   5.156  1.3860  0.3133 -1.8014
 8317SOL     OW36412   1.097   2.043   2.902 -0.2375  0.5013  0.5099
 8317SOL    HW136413   1.170   1.982   2.895  2.3516  3.7945 -0.9720
 8317SOL    HW236414   1.019   1.988   2.908  1.0443 -1.2917  0.3623
 8318SOL     OW36415   1.786   3.336   0.024  0.4991 -0.3587 -0.5196
 8318SOL    HW136416   1.771   3.417  17.664 -0.7373 -0.6543 -0.6159
 8318SOL    HW236417   1.742   3.269  17.661  0.0322  1.3731 -2.3522
 8319SOL     OW36418   3.605   1.154   1.615 -0.3441  0.5256 -0.4030
 8319SOL    HW136419   3.652   1.146   1.698  0.4009 -0.5185 -0.9129
 8319SOL    HW236420   3.545   1.079   1.618  2.0771 -1.5008 -2.6513
 8320SOL     OW36421   3.310   3.516   4.596 -0.3249  0.1655 -0.3944
 8320SOL    HW136422   3.374   3.474   4.538 -0.1883 -0.0225 -0.1029
 8320SOL    HW236423   3.285   3.445   4.655  0.6517  0.3837  0.2849
 8321SOL     OW36424   1.061   3.169   1.053 -0.1568  0.3452  0.0392
 8321SOL    HW136425   1.037   3.092   1.002 -0.8385  0.8601 -0.4057
 8321SOL    HW236426   1.092   3.131   1.136  2.4244 -0.8905 -1.4999
 8322SOL     OW36427   2.469   2.674  11.529 -0.1216  0.3763 -0.6080
 8322SOL    HW136428   2.406   2.608  11.558 -1.3903  1.6719 -0.4734
 8322SOL    HW236429   2.419   2.755  11.530 -0.5835  0.0753  0.3991
 8323SOL     OW36430   2.658   3.086  13.363  0.4696 -0.3692 -0.1709
 8323SOL    HW136431   2.684   2.995  13.350  2.2759 -0.0999  1.6440
 8323SOL    HW236432   2.650   3.114  13.271 -1.4443  1.6700  0.6112
 8324SOL     OW36433   3.022   1.138   2.067  0.7253 -0.6709 -0.3714
 8324SOL    HW136434   3.073   1.194   2.126 -0.1967  0.4824 -0.6807
 8324SOL    HW236435   3.046   1.047   2.084  3.5291  0.5040  2.1333
 8325SOL     OW36436   4.607   1.095   6.262  0.1584 -0.4194  0.1449
 8325SOL    HW136437   4.641   1.185   6.261  0.4896 -0.5501  0.1017
 8325SOL    HW236438   4.524   1.101   6.310 -0.3172 -2.9186 -0.3763
 8326SOL     OW36439   3.435   0.203   8.417  0.1937  0.1419  0.4217
 8326SOL    HW136440   3.442   0.297   8.433  0.5096  0.0976  0.5619
 8326SOL    HW236441   3.470   0.193   8.329 -0.7102 -0.7940  0.1798
 8327SOL     OW36442   0.582   1.026  12.647  0.3257 -1.2573 -0.1604
 8327SOL    HW136443   0.655   0.991  12.697  0.7447  0.6415  0.5750
 8327SOL    HW236444   0.613   1.064  12.565  3.9251  0.6807  2.1045
 8328SOL     OW36445   2.842   1.361  15.751  0.0592 -0.0920  0.3115
 8328SOL    HW136446   2.874   1.442  15.712 -0.4673  0.5896  1.3139
 8328SOL    HW236447   2.811   1.313  15.675  2.4311 -1.4913  0.2143
 8329SOL     OW36448   1.097   0.399   2.945  0.1435 -0.1433  0.4538
 8329SOL    HW136449   1.176   0.443   2.978  1.0870 -1.4548 -0.0345
 8329SOL    HW236450   1.036   0.400   3.018  0.8844 -0.7273  1.0840
 8330SOL     OW36451   1.679   1.917   1.421  0.1801  0.2259 -0.3824
 8330SOL    HW136452   1.596   1.943   1.379 -0.2127  1.5112  1.2024
 8330SOL    HW236453   1.654   1.960   1.503 -0.1694 -0.9711  0.1402
 8331SOL     OW36454   3.143   2.526   7.436  0.4336  0.4762  0.0484
 8331SOL    HW136455   3.080   2.458   7.457 -0.3729 -0.0511 -3.9229
 8331SOL    HW236456   3.080   2.586   7.395 -0.0163 -0.8276 -1.1614
 8332SOL     OW36457   0.955   1.687  10.949 -0.1170 -0.3181  0.0270
 8332SOL    HW136458   0.965   1.690  10.854  1.0638 -0.0093  0.1638
 8332SOL    HW236459   1.003   1.606  10.967  0.1831  0.0157  0.7113
 8333SOL     OW36460   0.729   2.208   4.849  0.2896 -0.2405  0.1526
 8333SOL    HW136461   0.696   2.281   4.901  1.5268 -1.2878  2.4096
 8333SOL    HW236462   0.649   2.182   4.803  1.7296 -2.9770 -0.7978
 8334SOL     OW36463   4.673   0.411   9.122 -0.1074  0.3462 -0.2258
 8334SOL    HW136464   4.612   0.456   9.063  2.0378  0.4414 -2.3463
 8334SOL    HW236465   4.701   0.340   9.064  0.6602 -1.9069  2.8990
 8335SOL     OW36466   2.061   3.722   3.986  0.0150  0.5403  0.8818
 8335SOL    HW136467   2.083   3.739   3.895 -0.7041 -1.5383  0.3194
 8335SOL    HW236468   2.093   3.632   3.997  0.3288  0.4192 -1.0002
 8336SOL     OW36469   4.623   3.703  12.022  0.5264 -0.1854  0.5253
 8336SOL    HW136470   4.633   3.771  11.955 -1.3374 -2.5689 -2.1892
 8336SOL    HW236471   4.613   3.629  11.962 -0.4947  0.7957 -0.5126
 8337SOL     OW36472   1.136   1.661   8.321  0.0756  0.2118  0.5853
 8337SOL    HW136473   1.042   1.656   8.339  0.0570 -0.6482  0.2217
 8337SOL    HW236474   1.182   1.593   8.369  1.1035  0.5160  0.0306
 8338SOL     OW36475   3.089   4.368   2.726  0.3654  0.2161  0.4074
 8338SOL    HW136476   3.040   4.381   2.645 -0.5444 -0.6941  0.8189
 8338SOL    HW236477   3.053   4.284   2.753  2.8096 -0.7524  0.6133
 8339SOL     OW36478   4.529   3.637   2.420  0.5313  0.0353  0.7218
 8339SOL    HW136479   4.620   3.664   2.432  0.2179  1.1318  0.6411
 8339SOL    HW236480   4.541   3.586   2.340  1.3972  1.2881  0.0524
 8340SOL     OW36481   1.234   2.226   7.703 -0.0062  0.0775  0.0445
 8340SOL    HW136482   1.285   2.308   7.709 -0.5492  0.2828  1.6613
 8340SOL    HW236483   1.281   2.175   7.636 -0.7035  0.8944 -1.0813
 8341SOL     OW36484   1.008   2.935   6.614 -0.2214 -0.3631 -0.2180
 8341SOL    HW136485   0.999   3.031   6.615 -1.0914 -0.4510  0.9164
 8341SOL    HW236486   1.104   2.935   6.613 -0.2286  0.9791 -1.5503
 8342SOL     OW36487   2.949   2.367   2.621 -0.3650 -0.6737  0.4866
 8342SOL    HW136488   2.917   2.456   2.609  0.3198 -0.5394 -0.3027
 8342SOL    HW236489   2.884   2.335   2.684 -0.6173 -0.5368  0.3004
 8343SOL     OW36490   4.243   4.537   3.442 -0.1674  0.0034 -0.6992
 8343SOL    HW136491   4.271   4.564   3.355 -0.8806 -1.5526 -1.4163
 8343SOL    HW236492   4.147   4.533   3.439 -0.2270  1.6310 -0.7900
 8344SOL     OW36493   3.119   4.353   9.916 -0.0564 -0.4477  0.2009
 8344SOL    HW136494   3.163   4.416   9.973 -0.9264 -0.1731  0.5610
 8344SOL    HW236495   3.082   4.403   9.843  0.4533 -1.6527 -0.8773
 8345SOL     OW36496   3.830   1.953   5.471 -0.2521 -0.7842  0.3952
 8345SOL    HW136497   3.908   1.938   5.417 -0.7114 -0.7082 -0.2838
 8345SOL    HW236498   3.839   1.869   5.517 -1.4173 -0.5771  0.9925
 8346SOL     OW36499   2.844   4.672   8.345 -0.7975 -0.0914  0.1671
 8346SOL    HW136500   2.885   4.695   8.261 -0.4391  0.0652  0.3872
 8346SOL    HW236501   2.783   4.610   8.305 -1.4109  1.4720 -1.3235
 8347SOL     OW36502   4.590   1.951   9.812  0.2127 -0.0987 -0.2355
 8347SOL    HW136503   4.622   1.909   9.891  0.5861 -0.2364 -0.4625
 8347SOL    HW236504   4.660   2.015   9.799 -0.8518  1.2709  0.7153
 8348SOL     OW36505   2.938   0.517   8.954  0.3835 -0.0100  0.7434
 8348SOL    HW136506   2.986   0.569   9.019  2.0705 -0.0471 -0.4808
 8348SOL    HW236507   2.956   0.426   8.978  2.8732  0.3612  0.2947
 8349SOL     OW36508   3.397   1.259   4.559 -0.2782 -0.6017  0.0290
 8349SOL    HW136509   3.314   1.276   4.515 -0.2087  1.5069  0.7166
 8349SOL    HW236510   3.453   1.235   4.485  1.5568 -1.1771  1.5975
 8350SOL     OW36511   1.685   1.548   5.048  0.1291 -0.2286  0.2891
 8350SOL    HW136512   1.646   1.507   5.126  1.1790  2.1004  2.0528
 8350SOL    HW236513   1.619   1.613   5.023 -1.1328 -0.0287  4.1732
 8351SOL     OW36514   4.501   1.123  16.964  0.0358 -0.0511 -0.1274
 8351SOL    HW136515   4.501   1.209  17.006  0.6753  0.3973 -1.0242
 8351SOL    HW236516   4.476   1.061  17.032 -0.8744  2.1591  1.5560
 8352SOL     OW36517   3.731   2.228   3.051 -0.0420  0.2914  0.0549
 8352SOL    HW136518   3.820   2.261   3.062 -0.1318  0.7217 -0.4786
 8352SOL    HW236519   3.708   2.225   2.958 -2.7908 -0.1142  0.7583
 8353SOL     OW36520   3.725   1.336   2.123 -0.2386  0.0997  0.0296
 8353SOL    HW136521   3.686   1.413   2.164  0.4618  1.5987 -2.1263
 8353SOL    HW236522   3.813   1.373   2.127  0.3735 -1.4096  0.3921
 8354SOL     OW36523   1.530   3.020   8.962 -0.4053 -0.9842  0.0378
 8354SOL    HW136524   1.563   3.086   9.023 -0.9436  0.7922 -1.5725
 8354SOL    HW236525   1.540   3.076   8.885 -2.6597 -2.2681 -1.1997
 8355SOL     OW36526   1.216   3.317   7.617 -0.2158  0.4487 -0.1454
 8355SOL    HW136527   1.123   3.339   7.619 -0.4798 -0.5588 -1.0986
 8355SOL    HW236528   1.196   3.226   7.599  0.6915 -0.4454  3.3607
 8356SOL     OW36529   1.866   2.409   6.454 -0.6653 -0.3443 -0.4905
 8356SOL    HW136530   1.923   2.412   6.378  1.0236 -3.8174  0.6289
 8356SOL    HW236531   1.784   2.452   6.428 -0.7756  0.5443  1.3010
 8357SOL     OW36532   2.497   4.076   5.294 -0.2009 -0.4679  0.3365
 8357SOL    HW136533   2.579   4.121   5.274 -1.0545  0.5208 -0.9610
 8357SOL    HW236534   2.532   3.990   5.314  2.2303  1.1859  3.3190
 8358SOL     OW36535   2.919   3.339   4.494  0.2077  0.6098  0.3542
 8358SOL    HW136536   2.969   3.419   4.508 -0.5679  1.3448 -1.0716
 8358SOL    HW236537   2.838   3.353   4.543 -1.2812 -2.1598 -1.2968
 8359SOL     OW36538   1.515   1.200   0.977  0.1571 -0.0526 -0.3598
 8359SOL    HW136539   1.422   1.224   0.985 -0.6811 -3.1039 -0.6943
 8359SOL    HW236540   1.520   1.130   0.912 -0.6193 -0.1130 -0.3621
 8360SOL     OW36541   2.081   3.643   6.704 -0.2516  0.3475 -0.4661
 8360SOL    HW136542   2.099   3.575   6.769 -0.1787  0.5763 -0.2489
 8360SOL    HW236543   2.007   3.676   6.756  0.1307  0.3539  0.0798
 8361SOL     OW36544   3.276   3.131  14.475  0.5646 -0.1499  0.4106
 8361SOL    HW136545   3.291   3.184  14.396 -1.7390 -0.4983 -0.2823
 8361SOL    HW236546   3.182   3.136  14.455  0.0756 -1.2838  2.5177
 8362SOL     OW36547   1.584   2.871   4.472 -0.6437  0.1445 -0.2660
 8362SOL    HW136548   1.543   2.898   4.554 -0.1815  1.3625 -0.4227
 8362SOL    HW236549   1.619   2.955   4.440  0.7560 -0.1010  0.6018
 8363SOL     OW36550   2.051   2.893  11.225 -0.2055  0.1436  0.3816
 8363SOL    HW136551   2.075   2.802  11.239 -1.8414 -0.2892  0.3919
 8363SOL    HW236552   1.956   2.893  11.238 -0.2481 -1.2806  0.0900
 8364SOL     OW36553   4.638   2.973   5.930  0.9670  0.2011  0.2001
 8364SOL    HW136554   4.558   2.955   5.881  1.2925 -0.9301  0.0938
 8364SOL    HW236555   4.618   3.061   5.963  1.3824  0.2288  0.3697
 8365SOL     OW36556   0.470   2.340   8.297 -0.5055  0.3005 -0.2985
 8365SOL    HW136557   0.549   2.291   8.277  0.6705  1.9834  0.2380
 8365SOL    HW236558   0.411   2.266   8.288 -2.6230  2.0145 -0.5944
 8366SOL     OW36559   4.432   0.995   4.174 -0.1655  0.3022  0.2928
 8366SOL    HW136560   4.436   0.940   4.096  0.4000 -0.4857  0.8733
 8366SOL    HW236561   4.521   0.997   4.210  0.4457  1.4092 -1.2501
 8367SOL     OW36562   0.751   2.002   6.587 -0.0221  0.0265 -0.7503
 8367SOL    HW136563   0.797   2.050   6.518 -0.8205  2.6681  0.5476
 8367SOL    HW236564   0.683   1.961   6.533  0.3644  0.5341 -1.6315
 8368SOL     OW36565   0.763   0.689  13.179 -0.2814 -0.0257  0.2191
 8368SOL    HW136566   0.773   0.597  13.154  0.0269  0.4024 -1.2168
 8368SOL    HW236567   0.847   0.705  13.221 -1.3735 -2.6398  3.3903
 8369SOL     OW36568   2.300   0.763   8.721 -0.3281 -0.1397  0.4093
 8369SOL    HW136569   2.255   0.771   8.805 -1.3182 -0.0764 -0.1349
 8369SOL    HW236570   2.388   0.746   8.754 -0.0377  1.7704  0.6528
 8370SOL     OW36571   1.272   4.290   5.140 -0.5391 -0.4099  0.0421
 8370SOL    HW136572   1.229   4.253   5.217  2.4407 -1.2366  1.2955
 8370SOL    HW236573   1.212   4.361   5.116 -0.8158 -0.7903 -0.3957
 8371SOL     OW36574   2.175   0.954  13.785  0.0665  0.6969  0.2268
 8371SOL    HW136575   2.270   0.964  13.788 -0.0050  1.0033  1.2459
 8371SOL    HW236576   2.155   0.988  13.872 -0.2018 -1.1894  0.9151
 8372SOL     OW36577   1.268   2.615   5.376 -0.0592 -0.0965  0.4430
 8372SOL    HW136578   1.176   2.620   5.399 -0.1141 -2.4556  0.7558
 8372SOL    HW236579   1.270   2.628   5.281  0.8566  2.1851  0.7733
 8373SOL     OW36580   0.137   0.571  14.247  0.3128  0.0364  0.4041
 8373SOL    HW136581   0.075   0.580  14.319  0.4330  1.2490  0.3687
 8373SOL    HW236582   0.193   0.647  14.265  0.4386  0.9797 -3.9113
 8374SOL     OW36583   1.967   3.368   3.162 -0.7611 -0.0595  0.6374
 8374SOL    HW136584   1.905   3.441   3.167  0.1749  0.8587 -0.8676
 8374SOL    HW236585   1.988   3.362   3.069 -0.9249  0.8279  0.5407
 8375SOL     OW36586   4.229   0.650   8.534 -0.4416 -0.1545 -0.2817
 8375SOL    HW136587   4.300   0.588   8.520 -0.9615 -0.5452 -1.2178
 8375SOL    HW236588   4.278   0.727   8.505 -0.8603  1.1049  2.3552
 8376SOL     OW36589   1.232   3.173  10.232 -0.0020  0.4288 -0.3475
 8376SOL    HW136590   1.212   3.246  10.175  0.3722  0.3000 -0.6507
 8376SOL    HW236591   1.209   3.096  10.181 -1.1608  0.3338  0.3328
 8377SOL     OW36592   3.130   0.355   2.583  0.0662  0.2158 -0.4928
 8377SOL    HW136593   3.115   0.286   2.518 -1.1613  0.3224 -0.3249
 8377SOL    HW236594   3.133   0.307   2.666 -1.3892 -1.0591 -1.1914
 8378SOL     OW36595   1.593   2.821   6.504 -0.1661  0.2650 -0.3890
 8378SOL    HW136596   1.626   2.910   6.504 -2.0105  0.9384  0.1651
 8378SOL    HW236597   1.502   2.837   6.528 -0.1615 -0.5407  0.1705
 8379SOL     OW36598   3.883   1.068   2.860  0.0839  0.3086 -0.6383
 8379SOL    HW136599   3.899   1.161   2.849 -0.8478  0.4425 -0.8234
 8379SOL    HW236600   3.913   1.049   2.949 -2.8460  1.9201  0.7004
 8380SOL     OW36601   2.356   0.219   5.497  0.2804 -0.4813 -0.0055
 8380SOL    HW136602   2.270   0.260   5.496  0.9076  0.7347 -2.3840
 8380SOL    HW236603   2.356   0.185   5.587  1.1317  0.2313  0.2684
 8381SOL     OW36604   4.505   3.101   0.485 -0.2793  0.5076 -0.1552
 8381SOL    HW136605   4.514   3.097   0.580  0.7335  1.7686 -0.1915
 8381SOL    HW236606   4.600   3.108   0.477 -0.0647 -1.6736  0.6265
 8382SOL     OW36607   1.861   3.138  12.701  0.2474 -0.1254 -0.3699
 8382SOL    HW136608   1.849   3.215  12.647  0.7866  0.7373  0.7323
 8382SOL    HW236609   1.939   3.158  12.753  0.1963  0.3855 -0.4964
 8383SOL     OW36610   2.673   1.819   5.773  0.7007 -0.0426 -0.1045
 8383SOL    HW136611   2.702   1.826   5.864  0.6531  1.9514 -0.2507
 8383SOL    HW236612   2.721   1.740   5.749  2.4524  0.9946  0.0084
 8384SOL     OW36613   1.332   2.934   5.637  0.5107  0.3719  0.2418
 8384SOL    HW136614   1.238   2.953   5.637  0.5203  0.4132 -0.2551
 8384SOL    HW236615   1.344   2.961   5.728 -0.2373  1.2614  0.0756
 8385SOL     OW36616   1.311   0.415  12.438 -0.8562  0.0002  0.0448
 8385SOL    HW136617   1.331   0.497  12.394  2.2743 -0.2924  0.9200
 8385SOL    HW236618   1.364   0.361  12.379  0.1599 -1.4376  2.2731
 8386SOL     OW36619   2.883   0.257  11.902 -0.5609 -0.5272 -0.1990
 8386SOL    HW136620   2.806   0.238  11.847  1.8333 -2.3014 -2.9737
 8386SOL    HW236621   2.950   0.213  11.849  0.6833  2.3109 -0.9624
 8387SOL     OW36622   2.486   3.048  15.610 -0.4777 -0.0140 -0.0706
 8387SOL    HW136623   2.458   3.092  15.691  1.9592  2.2502 -0.4377
 8387SOL    HW236624   2.402   3.017  15.576 -0.7017 -1.2044  1.5697
 8388SOL     OW36625   4.494   1.350  13.775  0.4089 -0.3170 -0.1440
 8388SOL    HW136626   4.417   1.406  13.764  1.1354  0.3131 -2.0137
 8388SOL    HW236627   4.456   1.273  13.817  2.7339 -0.9200  0.8497
 8389SOL     OW36628   4.340   2.558   3.901  0.0499 -0.5087 -0.5693
 8389SOL    HW136629   4.422   2.606   3.907  0.2875 -0.7137 -1.9672
 8389SOL    HW236630   4.276   2.603   3.845  1.5381  0.2305 -1.6586
 8390SOL     OW36631   2.989   3.767  13.842  0.1646 -0.3166 -0.0108
 8390SOL    HW136632   2.939   3.694  13.879 -0.3607  1.3142  2.5372
 8390SOL    HW236633   2.925   3.809  13.784  0.1945 -1.1662 -0.6592
 8391SOL     OW36634   0.427   0.903   5.891  0.4687  0.4711 -0.0666
 8391SOL    HW136635   0.339   0.926   5.922  0.9502  0.4185  1.3641
 8391SOL    HW236636   0.474   0.987   5.896 -0.1093  0.5732  4.2945
 8392SOL     OW36637   2.081   2.708   7.989 -0.5786 -0.0697 -0.4786
 8392SOL    HW136638   2.140   2.691   8.063  0.7623 -0.7082 -1.7060
 8392SOL    HW236639   2.111   2.644   7.925 -0.6287  0.7479 -1.3247
 8393SOL     OW36640   1.358   1.335   2.641 -0.5256 -0.5031 -0.6463
 8393SOL    HW136641   1.274   1.367   2.608 -1.0397 -2.4998 -1.2443
 8393SOL    HW236642   1.426   1.387   2.598 -1.1404  0.6005 -0.2968
 8394SOL     OW36643   3.436   3.983  13.230 -0.7233 -0.1428  0.5180
 8394SOL    HW136644   3.427   4.078  13.225 -0.4932 -0.2222 -1.2696
 8394SOL    HW236645   3.378   3.962  13.304 -1.8758 -2.0122 -0.9399
 8395SOL     OW36646   2.787   3.010   8.871 -0.4676  0.4293 -0.5912
 8395SOL    HW136647   2.759   2.918   8.868 -1.5907  0.7709 -0.6775
 8395SOL    HW236648   2.876   3.014   8.905 -0.5594 -2.6354  0.0187
 8396SOL     OW36649   1.880   0.930   5.909 -0.0509 -0.6623  0.6007
 8396SOL    HW136650   1.879   0.982   5.990 -0.2487  1.1900 -0.5993
 8396SOL    HW236651   1.894   0.992   5.838 -1.3921 -1.4745 -0.3591
 8397SOL     OW36652   1.237   0.019   8.095  0.1166 -0.2410 -0.1071
 8397SOL    HW136653   1.193   0.073   8.029  1.6702  0.7567 -0.3311
 8397SOL    HW236654   1.249   4.660   8.046  1.9773  1.3858 -2.3420
 8398SOL     OW36655   4.633   2.905   8.453  0.1788 -0.4358 -0.4447
 8398SOL    HW136656   4.591   2.820   8.453  1.0594 -0.8791  3.2854
 8398SOL    HW236657   0.005   2.889   8.469  0.1162 -0.1949  0.1851
 8399SOL     OW36658   1.718   1.557   3.077  0.4481 -0.6254  0.2192
 8399SOL    HW136659   1.767   1.533   2.998  1.0569  1.3687 -0.0190
 8399SOL    HW236660   1.781   1.617   3.117 -1.1303  0.6106  0.8252
 8400SOL     OW36661   1.465   3.338  12.630  0.0562 -0.1625  0.0965
 8400SOL    HW136662   1.555   3.368  12.635  0.1966 -0.7326  0.8654
 8400SOL    HW236663   1.479   3.246  12.652 -0.0219 -0.5224 -1.3176
 8401SOL     OW36664   2.048   3.419  11.254 -0.3952  0.4400 -0.0547
 8401SOL    HW136665   2.008   3.340  11.288  1.1134 -1.4865 -2.7123
 8401SOL    HW236666   2.119   3.377  11.206  0.2258  1.8614 -0.4033
 8402SOL     OW36667   4.501   4.319   3.809  0.4807  0.0992  0.6654
 8402SOL    HW136668   4.471   4.230   3.792  3.0035 -0.5025 -0.5670
 8402SOL    HW236669   4.443   4.345   3.881 -0.0006 -0.0493  0.3287
 8403SOL     OW36670   4.508   2.889   3.127  0.2183  0.3837 -0.0403
 8403SOL    HW136671   4.591   2.936   3.133 -0.4191  1.6948 -1.6533
 8403SOL    HW236672   4.447   2.962   3.118 -0.2690 -0.0380 -0.1686
 8404SOL     OW36673   2.001   2.209   4.361 -0.0168  0.1599 -0.1579
 8404SOL    HW136674   1.932   2.228   4.299 -0.9937 -0.2882  0.7922
 8404SOL    HW236675   1.990   2.115   4.370  1.1661 -0.1814 -2.1776
 8405SOL     OW36676   0.667   3.000   3.974 -0.1821 -0.5334 -0.6839
 8405SOL    HW136677   0.656   3.072   3.912  1.4708 -0.6975 -1.1583
 8405SOL    HW236678   0.599   2.938   3.947 -0.0849 -0.7025 -0.5432
 8406SOL     OW36679   2.675   1.019   4.706 -0.3101  0.4809 -0.3892
 8406SOL    HW136680   2.666   0.959   4.632 -0.8278 -0.1376  0.1752
 8406SOL    HW236681   2.729   1.086   4.665 -2.4832  0.8382 -2.6494
 8407SOL     OW36682   0.995   3.857   9.017  0.2648  0.4515  0.1562
 8407SOL    HW136683   1.012   3.858   8.923 -1.7341  1.3604 -0.1866
 8407SOL    HW236684   0.927   3.924   9.019 -0.3077 -0.1651  1.2093
 8408SOL     OW36685   2.834   1.317   7.168  0.5385  0.2373  0.1538
 8408SOL    HW136686   2.913   1.368   7.183  0.7674  0.2135 -1.0010
 8408SOL    HW236687   2.813   1.295   7.259  0.1954  1.0773  0.2722
 8409SOL     OW36688   0.072   3.361   4.236 -0.3308 -0.4704  0.5504
 8409SOL    HW136689   0.166   3.371   4.227 -0.7369  2.2515 -0.7691
 8409SOL    HW236690   0.066   3.335   4.328  0.2045 -1.4951  0.2928
 8410SOL     OW36691   0.091   0.248  11.229  0.0341  0.1653  0.3512
 8410SOL    HW136692   0.144   0.207  11.161 -0.0256 -1.2439  1.1444
 8410SOL    HW236693   0.152   0.236  11.302 -0.8439 -0.1316  1.0305
 8411SOL     OW36694   3.734   2.266   3.795  0.1034 -0.4187 -0.4118
 8411SOL    HW136695   3.740   2.347   3.744  0.4103  0.1604  0.5365
 8411SOL    HW236696   3.801   2.208   3.759 -0.3967 -0.0054 -2.0121
 8412SOL     OW36697   1.120   2.502   2.640  0.3530 -0.4438  0.1945
 8412SOL    HW136698   1.037   2.496   2.686  0.5245  0.6688  0.6576
 8412SOL    HW236699   1.108   2.573   2.576  1.0380  1.6176  2.3532
 8413SOL     OW36700   0.548   0.867   4.418 -0.0379 -0.3058 -0.3446
 8413SOL    HW136701   0.554   0.795   4.481  2.6080  1.5977  1.5708
 8413SOL    HW236702   0.462   0.864   4.376 -0.3166  0.1502  0.1990
 8414SOL     OW36703   3.599   2.947   5.222 -0.0757 -0.1758  0.7640
 8414SOL    HW136704   3.605   2.884   5.150  0.4135  1.0210 -0.2613
 8414SOL    HW236705   3.510   2.980   5.211  0.1517 -0.4717 -1.9343
 8415SOL     OW36706   3.463   2.056   2.878 -0.3695 -0.0435 -0.0128
 8415SOL    HW136707   3.489   2.135   2.831  0.4098 -0.6937 -0.6707
 8415SOL    HW236708   3.459   2.081   2.971 -0.4994 -1.4484  0.3663
 8416SOL     OW36709   2.616   0.111   6.739 -0.6856 -0.4226  1.1247
 8416SOL    HW136710   2.581   0.024   6.757 -1.5767 -0.2017  0.4766
 8416SOL    HW236711   2.705   0.097   6.706 -0.6052  0.9560  0.7604
 8417SOL     OW36712   2.297   1.319   3.763  0.0879 -0.4266 -0.0920
 8417SOL    HW136713   2.233   1.247   3.755 -0.4452  0.2420 -1.6750
 8417SOL    HW236714   2.385   1.285   3.751 -0.5905 -1.4128 -2.1690
 8418SOL     OW36715   2.541   0.030  16.780 -0.0429 -0.0738 -0.1386
 8418SOL    HW136716   2.520   4.660  16.765 -0.0742 -0.3081  1.4014
 8418SOL    HW236717   2.466   0.085  16.805 -0.3313 -2.2273  3.6897
 8419SOL     OW36718   1.550   3.395   5.030  0.0466 -0.2795  0.5394
 8419SOL    HW136719   1.456   3.390   5.012  0.5069 -1.8475 -1.3876
 8419SOL    HW236720   1.556   3.490   5.022 -0.4739 -0.1696  1.4585
 8420SOL     OW36721   3.007   1.488   4.216 -0.4632 -0.2135  0.3113
 8420SOL    HW136722   2.954   1.532   4.149  1.3234  0.7116 -0.4915
 8420SOL    HW236723   3.000   1.539   4.297  2.0305 -0.1627  0.4932
 8421SOL     OW36724   4.691   2.897  17.363 -0.1393  0.0308 -0.0842
 8421SOL    HW136725   0.032   2.835  17.325  1.8846  1.4281  0.9803
 8421SOL    HW236726   4.712   2.974  17.311 -0.8168  0.7229  0.6554
 8422SOL     OW36727   2.542   0.799   4.544  0.1031  0.0806 -0.0233
 8422SOL    HW136728   2.590   0.762   4.470  0.9303 -1.5634  1.3634
 8422SOL    HW236729   2.558   0.737   4.614  0.7166 -1.0694 -1.1864
 8423SOL     OW36730   0.156   2.998   2.299 -0.1350  0.1888  0.2180
 8423SOL    HW136731   0.224   2.959   2.354 -1.3949 -0.9133  0.9948
 8423SOL    HW236732   0.078   2.945   2.317 -1.0867  0.8775 -2.0155
 8424SOL     OW36733   4.362   4.538   5.881  0.0627  0.1535  0.0081
 8424SOL    HW136734   4.381   4.475   5.812  1.3443 -0.1448  0.6367
 8424SOL    HW236735   4.319   4.611   5.835 -0.7887  0.0148  0.5728
 8425SOL     OW36736   0.959   3.216   3.496  0.7069  0.3046 -0.3786
 8425SOL    HW136737   1.043   3.260   3.484  0.9619  0.2722  1.3164
 8425SOL    HW236738   0.893   3.257   3.440  0.9259 -1.3362 -1.8555
 8426SOL     OW36739   0.573   1.696   7.089  0.3212  0.3368 -0.3954
 8426SOL    HW136740   0.515   1.772   7.082 -1.2881 -0.9478 -0.9251
 8426SOL    HW236741   0.658   1.738   7.079  1.0116 -0.1124  3.5217
 8427SOL     OW36742   2.658   0.474   3.894  0.1655  0.3565 -0.4215
 8427SOL    HW136743   2.591   0.406   3.900  0.6123 -0.1429 -1.0286
 8427SOL    HW236744   2.670   0.480   3.799 -1.6400  0.0310 -0.6690
 8428SOL     OW36745   2.859   2.941   7.000  0.2931 -0.1417 -0.7445
 8428SOL    HW136746   2.868   2.938   7.096 -0.0389  0.1322 -0.7053
 8428SOL    HW236747   2.921   2.871   6.981 -0.6855 -1.3411  0.4526
 8429SOL     OW36748   4.209   1.411   6.829 -0.0551 -0.0154  0.5706
 8429SOL    HW136749   4.241   1.432   6.916 -1.9253  0.8210  1.0416
 8429SOL    HW236750   4.119   1.384   6.847 -0.4572  0.9585  0.0658
 8430SOL     OW36751   1.506   3.873   5.190  0.5460  0.3172 -0.1676
 8430SOL    HW136752   1.487   3.960   5.156 -0.2648 -0.4771 -1.7156
 8430SOL    HW236753   1.542   3.902   5.274 -0.0847  0.0720  0.1915
 8431SOL     OW36754   3.512   3.105   7.314  0.7303  0.4835  0.7098
 8431SOL    HW136755   3.461   3.182   7.339  0.7550  1.5118 -2.3679
 8431SOL    HW236756   3.461   3.030   7.343 -0.9921  0.8483 -1.3633
 8432SOL     OW36757   0.575   1.492  17.445  0.2726  0.0107 -0.1078
 8432SOL    HW136758   0.626   1.538  17.511 -2.2200  0.1911  1.6761
 8432SOL    HW236759   0.494   1.541  17.456 -0.0057 -0.5228  0.2465
 8433SOL     OW36760   3.648   1.944   8.715 -0.4817 -0.4028  0.1390
 8433SOL    HW136761   3.584   1.924   8.784  0.2179 -0.1334  0.8713
 8433SOL    HW236762   3.649   1.859   8.671 -1.9394 -1.2667  1.7312
 8434SOL     OW36763   0.411   2.850   4.434  0.9839  0.2480 -0.5102
 8434SOL    HW136764   0.441   2.845   4.343  0.5933  3.8640 -0.8387
 8434SOL    HW236765   0.357   2.771   4.443  0.3543  0.6439 -0.7873
 8435SOL     OW36766   0.270   3.242   1.997 -0.1138  0.2055 -0.3208
 8435SOL    HW136767   0.198   3.199   2.043 -0.9013  0.2970 -1.4867
 8435SOL    HW236768   0.227   3.317   1.956  1.3932  0.5054 -1.3346
 8436SOL     OW36769   1.628   1.839  15.331  0.4031 -0.1388  0.1070
 8436SOL    HW136770   1.678   1.883  15.262 -0.1210  0.3075  0.0121
 8436SOL    HW236771   1.656   1.887  15.409 -2.8850  0.8238  0.6943
 8437SOL     OW36772   4.677   0.799   3.199  0.4316  0.6956 -0.3698
 8437SOL    HW136773   4.582   0.794   3.194  0.4875 -0.8730 -0.0160
 8437SOL    HW236774   4.688   0.737   3.271 -0.6168  1.1390  0.1665
 8438SOL     OW36775   4.078   4.379   8.959  0.4281  0.4199 -0.1029
 8438SOL    HW136776   4.138   4.411   8.891 -0.0021  0.7562 -0.3295
 8438SOL    HW236777   4.015   4.329   8.906  0.4148  0.9597 -0.5928
 8439SOL     OW36778   1.739   2.018   4.796 -0.1361 -0.1369  0.3889
 8439SOL    HW136779   1.699   1.990   4.713  2.1972  0.7811 -1.0317
 8439SOL    HW236780   1.833   2.019   4.775 -0.6180 -2.0776 -1.9563
 8440SOL     OW36781   3.669   0.332  11.609  0.4542  0.6358  0.0543
 8440SOL    HW136782   3.594   0.383  11.640 -1.7538 -1.7703 -1.3834
 8440SOL    HW236783   3.625   0.281  11.542  0.5638 -1.3994  1.5434
 8441SOL     OW36784   3.467   3.763   4.574  0.3678 -0.4068 -0.8859
 8441SOL    HW136785   3.449   3.683   4.623 -0.9517 -1.1495 -2.6124
 8441SOL    HW236786   3.563   3.767   4.584  0.3050  1.1425 -0.8568
 8442SOL     OW36787   3.416   3.675  16.454  0.1407 -0.0012 -0.5299
 8442SOL    HW136788   3.362   3.751  16.473 -0.9693 -0.9312  0.0747
 8442SOL    HW236789   3.489   3.693  16.512  0.0670  0.6223 -0.6316
 8443SOL     OW36790   4.666   0.236  15.726  0.4791 -0.3991  0.4895
 8443SOL    HW136791   0.013   0.274  15.781  0.8868 -0.3682 -0.0411
 8443SOL    HW236792   4.713   0.227  15.643  0.1884  3.5154 -0.1086
 8444SOL     OW36793   4.619   3.178   4.129  0.3654 -0.2656  0.0009
 8444SOL    HW136794   4.586   3.261   4.161 -0.5165 -1.1122  1.2788
 8444SOL    HW236795   4.705   3.218   4.113 -0.5926  1.6950 -0.2407
 8445SOL     OW36796   3.438   3.241   6.582 -0.2011 -0.0326 -0.2181
 8445SOL    HW136797   3.384   3.313   6.548  0.6092  0.1337 -1.1629
 8445SOL    HW236798   3.380   3.200   6.645 -0.2264 -1.3888 -1.1334
 8446SOL     OW36799   2.785   0.686   4.961 -0.1058 -0.0269 -0.2410
 8446SOL    HW136800   2.751   0.657   5.046 -0.4174  2.7591  0.5836
 8446SOL    HW236801   2.760   0.778   4.958 -0.2879 -0.0878 -0.5619
 8447SOL     OW36802   3.649   3.233   9.045  0.2372 -0.1193  0.0123
 8447SOL    HW136803   3.581   3.166   9.053 -1.8657  2.0129  0.3269
 8447SOL    HW236804   3.595   3.313   9.041 -1.0386 -1.0388 -1.3026
 8448SOL     OW36805   1.158   0.286  13.289  0.4511 -0.6929  0.1102
 8448SOL    HW136806   1.074   0.245  13.306 -0.6374  1.3997 -0.2058
 8448SOL    HW236807   1.214   0.211  13.271 -0.7529 -1.6606  0.4840
 8449SOL     OW36808   2.657   2.868   7.530  0.6139  0.5728  0.0126
 8449SOL    HW136809   2.660   2.780   7.567  0.9288  0.1540 -0.9916
 8449SOL    HW236810   2.650   2.919   7.610 -2.4787 -0.7029  0.5527
 8450SOL     OW36811   3.707   2.350  10.622 -0.0432 -0.3970 -0.3179
 8450SOL    HW136812   3.724   2.256  10.623 -0.3161 -0.4539 -1.0752
 8450SOL    HW236813   3.668   2.348  10.535 -0.4913  1.3633 -0.1599
 8451SOL     OW36814   1.566   2.505  12.916 -0.7761 -0.2564 -0.5248
 8451SOL    HW136815   1.587   2.429  12.862 -1.9307 -1.1157  0.2406
 8451SOL    HW236816   1.599   2.573  12.857  2.2025  0.5329  2.0331
 8452SOL     OW36817   3.349   3.009  10.928  0.1484  0.2281 -0.0621
 8452SOL    HW136818   3.388   2.956  10.858 -1.7771 -0.7583 -0.3977
 8452SOL    HW236819   3.402   3.088  10.938 -0.2766  0.2485  1.9527
 8453SOL     OW36820   3.666   0.333   6.895 -0.4033 -0.1995  0.7851
 8453SOL    HW136821   3.626   0.418   6.908 -1.8080 -0.7559  0.0687
 8453SOL    HW236822   3.718   0.328   6.976 -0.5066  0.6529  0.9008
 8454SOL     OW36823   2.233   3.092   6.752  0.1090 -0.5487 -0.2323
 8454SOL    HW136824   2.328   3.089   6.745  0.1935  0.2780  0.6080
 8454SOL    HW236825   2.225   3.115   6.845  0.3314  2.6057 -0.9839
 8455SOL     OW36826   0.646   4.301  15.126 -0.5988  0.1915 -0.0728
 8455SOL    HW136827   0.580   4.304  15.196 -0.5213 -1.1949  0.0588
 8455SOL    HW236828   0.624   4.380  15.078 -0.9696  0.9770  1.3824
 8456SOL     OW36829   3.163   3.541   2.897  0.0042 -0.1924  0.0125
 8456SOL    HW136830   3.241   3.530   2.952 -0.0964  0.1204  0.2230
 8456SOL    HW236831   3.127   3.625   2.928  0.7198  0.1004  0.0483
 8457SOL     OW36832   1.126   0.810   6.079 -0.0132 -0.6504 -0.0260
 8457SOL    HW136833   1.135   0.724   6.120 -0.3204 -0.9400 -0.5535
 8457SOL    HW236834   1.214   0.846   6.074 -0.5226  0.6089  0.1190
 8458SOL     OW36835   2.701   3.377   1.739  0.4264 -0.8986 -0.5009
 8458SOL    HW136836   2.734   3.340   1.821  0.9290 -2.1443 -1.2786
 8458SOL    HW236837   2.629   3.320   1.711  0.3475 -1.0355 -0.0150
 8459SOL     OW36838   0.698   3.142   9.220  0.6316 -0.5006  0.2019
 8459SOL    HW136839   0.649   3.186   9.289 -0.5054 -0.5139 -0.6050
 8459SOL    HW236840   0.735   3.218   9.174  2.1525 -1.2210  0.2158
 8460SOL     OW36841   4.023   4.641   7.403  0.1990 -0.0244 -0.5249
 8460SOL    HW136842   3.972   4.678   7.331  1.5355  3.1248  0.1508
 8460SOL    HW236843   4.006   4.547   7.402 -0.7073  0.1322 -0.6724
 8461SOL     OW36844   4.707   1.122   8.219 -0.2362 -0.1533  0.1811
 8461SOL    HW136845   4.690   1.200   8.271  0.7906  0.1148  0.1267
 8461SOL    HW236846   0.080   1.121   8.206  0.0719  3.4002  2.2059
 8462SOL     OW36847   0.245   2.648   4.916 -0.5383 -0.0214  0.5074
 8462SOL    HW136848   0.162   2.690   4.940 -0.5290  0.0583  0.3989
 8462SOL    HW236849   0.241   2.563   4.959  1.6248  0.6355  2.0036
 8463SOL     OW36850   4.290   2.449   9.163  0.1141 -0.7109 -0.1311
 8463SOL    HW136851   4.201   2.455   9.197 -0.9281 -0.8863 -2.7751
 8463SOL    HW236852   4.303   2.354   9.155  1.2987 -0.6026  0.4612
 8464SOL     OW36853   0.017   1.243   3.052 -0.0081  0.2955  0.4428
 8464SOL    HW136854   0.063   1.245   3.135 -0.8279  0.2187  0.9010
 8464SOL    HW236855   0.075   1.299   2.999  1.2176  0.7578  2.2908
 8465SOL     OW36856   4.298   4.439   4.904  0.5042 -0.7766 -0.0737
 8465SOL    HW136857   4.279   4.369   4.842 -0.5364  1.0274 -1.7905
 8465SOL    HW236858   4.328   4.384   4.976  0.4345 -0.4162  0.2295
 8466SOL     OW36859   0.415   4.564   6.787 -0.1347 -0.5002  0.5020
 8466SOL    HW136860   0.437   4.656   6.804 -1.6089 -0.0871  0.1812
 8466SOL    HW236861   0.435   4.552   6.694  0.4785 -0.1161  0.5824
 8467SOL     OW36862   3.788   2.292   4.077 -0.1215  0.0331 -0.1147
 8467SOL    HW136863   3.773   2.302   3.983  1.3758  1.6454 -0.1899
 8467SOL    HW236864   3.860   2.230   4.066  0.0251  0.1099  0.3937
 8468SOL     OW36865   3.513   1.794   2.822  0.1339  0.4391 -0.9500
 8468SOL    HW136866   3.462   1.771   2.899  2.1632  1.5712  0.7370
 8468SOL    HW236867   3.503   1.889   2.819 -1.7812  0.1881 -2.5948
 8469SOL     OW36868   2.820   0.572   8.314 -0.3851  0.0376 -0.1255
 8469SOL    HW136869   2.820   0.567   8.410  1.6573 -0.3485 -0.1471
 8469SOL    HW236870   2.775   0.489   8.295  1.6283 -0.6298 -1.9122
 8470SOL     OW36871   0.572   1.114  12.190  0.1600 -0.3057 -0.0109
 8470SOL    HW136872   0.582   1.019  12.201 -1.2314 -0.2490  1.6560
 8470SOL    HW236873   0.550   1.102  12.098  0.4241  0.0761 -0.1232
 8471SOL     OW36874   0.327   0.170  15.698  0.5156  0.0690 -0.1242
 8471SOL    HW136875   0.268   0.210  15.634 -0.0625  0.0677  0.4087
 8471SOL    HW236876   0.292   0.200  15.782  0.1759 -1.1140  0.1545
 8472SOL     OW36877   4.532   2.731   6.138  1.1172  0.2759 -0.0650
 8472SOL    HW136878   4.626   2.722   6.153  0.6157 -2.1004  1.5147
 8472SOL    HW236879   4.528   2.802   6.074  0.7628  1.4683  1.2909
 8473SOL     OW36880   0.579   4.658  17.143 -0.1369 -0.9159  0.4664
 8473SOL    HW136881   0.511   4.715  17.177 -1.0099 -1.2275 -0.7389
 8473SOL    HW236882   0.661   4.697  17.171  0.0790 -0.5235 -0.7180
 8474SOL     OW36883   1.570   0.224   0.446  0.4474  0.4167 -0.2997
 8474SOL    HW136884   1.628   0.279   0.392  0.2600  2.4078  1.5449
 8474SOL    HW236885   1.608   0.223   0.534 -1.6056  0.7038  0.5823
 8475SOL     OW36886   2.075   2.302   8.485 -0.5949 -0.9138  0.5081
 8475SOL    HW136887   2.022   2.361   8.538 -1.2391  0.3248 -1.5019
 8475SOL    HW236888   2.162   2.330   8.513 -0.3490 -0.4361 -0.7369
 8476SOL     OW36889   3.678   0.737   6.331 -0.4103 -0.3285  0.0416
 8476SOL    HW136890   3.663   0.645   6.309  0.9184 -0.6043  0.2745
 8476SOL    HW236891   3.610   0.771   6.272 -0.6336  0.9228  1.0140
 8477SOL     OW36892   1.881   2.063   9.046 -0.7098 -0.3202  0.4403
 8477SOL    HW136893   1.932   2.120   9.103 -1.0018 -1.9359  2.3218
 8477SOL    HW236894   1.933   2.073   8.966 -0.1709 -0.2488  0.8005
 8478SOL     OW36895   4.376   0.798   5.748 -0.1494 -0.1829  0.2077
 8478SOL    HW136896   4.386   0.713   5.791  0.3953 -0.0368  0.3696
 8478SOL    HW236897   4.454   0.803   5.694 -0.1785 -0.2039  0.1637
 8479SOL     OW36898   2.550   3.396   2.550 -0.6717  0.1051 -0.2380
 8479SOL    HW136899   2.474   3.450   2.527 -0.1009  0.5633 -1.0262
 8479SOL    HW236900   2.509   3.347   2.622 -0.4892 -1.7781 -1.4069
 8480SOL     OW36901   4.687   0.843  11.002  0.4529  0.4882 -0.1759
 8480SOL    HW136902   0.021   0.825  11.078  0.2818  1.9821  0.2991
 8480SOL    HW236903   4.696   0.936  10.985 -0.0729  0.6122  0.2432
 8481SOL     OW36904   3.229   4.394   7.181  0.1333  0.0465  0.3058
 8481SOL    HW136905   3.162   4.408   7.247 -2.1311 -1.4533 -1.6578
 8481SOL    HW236906   3.300   4.363   7.237  0.4414 -0.1185 -0.1736
 8482SOL     OW36907   0.605   2.773   3.690 -0.3878 -0.0648  0.3689
 8482SOL    HW136908   0.616   2.855   3.641  1.9888  0.4351  1.7355
 8482SOL    HW236909   0.687   2.732   3.663  0.5158  1.9842 -0.0738
 8483SOL     OW36910   1.269   3.703   7.798 -0.2993  0.1049  0.0170
 8483SOL    HW136911   1.264   3.798   7.795 -1.2971  0.1117  2.0492
 8483SOL    HW236912   1.178   3.678   7.810 -0.4649 -0.0684 -1.6485
 8484SOL     OW36913   1.245   1.623   3.949  0.3338 -0.0945 -0.0426
 8484SOL    HW136914   1.262   1.540   3.905 -0.2264 -0.2232 -0.0242
 8484SOL    HW236915   1.211   1.677   3.877  0.1809  0.2335  0.2706
 8485SOL     OW36916   4.485   1.186   3.128  0.4689 -0.0271  0.0906
 8485SOL    HW136917   4.470   1.277   3.153  2.6321  0.1846  0.5610
 8485SOL    HW236918   4.571   1.190   3.085 -0.5921  3.4443 -1.7686
 8486SOL     OW36919   3.753   0.257   4.971  0.7756  0.6248 -0.3231
 8486SOL    HW136920   3.707   0.174   4.976 -1.9562  2.2322  1.3300
 8486SOL    HW236921   3.751   0.279   4.878 -1.2543  1.1610 -0.1549
 8487SOL     OW36922   1.068   3.321   1.806 -0.3625 -0.2699  0.3145
 8487SOL    HW136923   1.083   3.260   1.879 -1.5575  0.4520  1.1604
 8487SOL    HW236924   0.973   3.326   1.809 -0.3035  0.6776  0.5049
 8488SOL     OW36925   1.784   4.612  13.456  0.0263 -0.5103 -0.9681
 8488SOL    HW136926   1.822   4.532  13.419 -0.8334 -2.0771  1.5095
 8488SOL    HW236927   1.746   4.576  13.537  1.9704 -0.7154 -0.1509
 8489SOL     OW36928   3.885   3.617   6.944  0.6838 -0.3450 -0.1447
 8489SOL    HW136929   3.803   3.667   6.942  0.3178 -0.9234  0.0516
 8489SOL    HW236930   3.873   3.541   6.887  3.7600 -0.1490 -1.0016
 8490SOL     OW36931   4.223   3.478   8.381 -0.5053  0.1625  0.9128
 8490SOL    HW136932   4.224   3.502   8.289  0.0043 -0.3926  0.7724
 8490SOL    HW236933   4.232   3.383   8.381  0.1000  0.2171 -0.5858
 8491SOL     OW36934   2.600   3.383   8.184 -0.7881 -0.1843  0.0582
 8491SOL    HW136935   2.558   3.385   8.270 -1.7477 -1.6063 -0.3682
 8491SOL    HW236936   2.537   3.439   8.139 -0.5208  2.6043  3.1705
 8492SOL     OW36937   1.580   0.259   6.991  0.9379 -0.5638 -0.5605
 8492SOL    HW136938   1.634   0.334   7.016 -2.0693  1.3611  0.0991
 8492SOL    HW236939   1.525   0.255   7.069 -0.2390  1.2700 -1.3074
 8493SOL     OW36940   2.621   1.775  17.576  0.3031  0.1724 -0.1166
 8493SOL    HW136941   2.571   1.706  17.532  0.4516 -0.6053  0.9297
 8493SOL    HW236942   2.626   1.849  17.515  0.7257 -0.9995 -1.5343
 8494SOL     OW36943   1.580   2.780   6.821  0.8974 -0.5111 -0.0003
 8494SOL    HW136944   1.546   2.705   6.773  0.5298 -0.4654  0.1869
 8494SOL    HW236945   1.672   2.772   6.798  0.7885  2.4450 -1.4519
 8495SOL     OW36946   3.389   1.301   6.120  0.1436  0.1000  0.5102
 8495SOL    HW136947   3.450   1.300   6.195  1.3094 -2.5545 -0.4853
 8495SOL    HW236948   3.452   1.317   6.050  1.1104  0.0643  1.3691
 8496SOL     OW36949   4.324   0.824   6.244  0.0370  0.1838  0.2414
 8496SOL    HW136950   4.309   0.732   6.264 -0.0929 -0.1928 -1.6055
 8496SOL    HW236951   4.365   0.815   6.158  0.6387  0.9229  0.4432
 8497SOL     OW36952   2.209   3.367   0.249  0.3507 -0.3070 -0.1592
 8497SOL    HW136953   2.176   3.455   0.268 -1.2335 -0.7151 -0.9681
 8497SOL    HW236954   2.297   3.389   0.219  1.7522  0.0295  4.2477
 8498SOL     OW36955   2.260   2.843  17.115 -0.2978  0.2459  0.0324
 8498SOL    HW136956   2.291   2.925  17.074 -0.6375  0.1358 -0.4378
 8498SOL    HW236957   2.343   2.798  17.131  0.0328  0.7749 -0.1921
 8499SOL     OW36958   1.817   2.296   4.785 -0.5194  0.5231 -0.5733
 8499SOL    HW136959   1.741   2.259   4.740 -1.3735  0.1606  1.1808
 8499SOL    HW236960   1.880   2.224   4.775  0.9967  1.4799  1.9825
 8500SOL     OW36961   3.562   1.591  13.083  0.1344  0.5944 -0.1097
 8500SOL    HW136962   3.505   1.584  13.006 -0.5635 -3.5645  0.8087
 8500SOL    HW236963   3.627   1.525  13.059 -1.2364 -0.3429 -1.2012
 8501SOL     OW36964   2.657   1.050   8.414 -0.0504  0.0329 -0.0582
 8501SOL    HW136965   2.588   1.113   8.392 -0.8440 -0.0305  2.2365
 8501SOL    HW236966   2.715   1.113   8.456 -0.8418  0.9004 -0.2634
 8502SOL     OW36967   1.983   3.060   6.419  0.1743  0.3232 -0.0020
 8502SOL    HW136968   1.981   3.130   6.353  1.1406 -0.9020 -1.3090
 8502SOL    HW236969   2.052   3.100   6.471  0.0639  0.6860 -0.1301
 8503SOL     OW36970   1.732   0.448   7.092  0.1738 -0.3223 -0.5421
 8503SOL    HW136971   1.821   0.451   7.058  0.9329  1.4840  1.5715
 8503SOL    HW236972   1.718   0.541   7.109  1.0300  0.0564 -1.9073
 8504SOL     OW36973   2.285   2.350  10.532  0.3757  0.1248  0.6003
 8504SOL    HW136974   2.256   2.351  10.623  0.9398  0.6737  0.7735
 8504SOL    HW236975   2.347   2.423  10.535 -0.2117  0.6176  0.6639
 8505SOL     OW36976   1.969   0.194   5.471  0.5249 -0.2770 -0.5769
 8505SOL    HW136977   1.978   0.205   5.376 -0.4398 -2.3601 -0.9184
 8505SOL    HW236978   2.008   0.272   5.511 -1.7042  0.8312 -0.5027
 8506SOL     OW36979   4.406   1.576  15.780 -0.1970 -0.2414 -0.6595
 8506SOL    HW136980   4.334   1.592  15.719 -0.7039  1.3406  0.3532
 8506SOL    HW236981   4.466   1.516  15.736  2.1988  0.5634  1.5547
 8507SOL     OW36982   2.197   2.215  13.354  0.4807 -0.0138  0.1993
 8507SOL    HW136983   2.268   2.186  13.295  0.8997 -0.0348  0.7124
 8507SOL    HW236984   2.212   2.152  13.425 -3.1777 -0.1276  0.8409
 8508SOL     OW36985   4.546   3.182   3.849  0.1666  0.2560 -0.5981
 8508SOL    HW136986   4.479   3.250   3.859  2.1287  2.2908 -1.4374
 8508SOL    HW236987   4.534   3.142   3.936  0.4867  1.9890  0.2365
 8509SOL     OW36988   0.985   3.017   5.045 -0.0820  0.0581 -0.4861
 8509SOL    HW136989   1.055   3.074   5.014 -2.0467  2.5038 -0.5014
 8509SOL    HW236990   0.956   2.975   4.964 -0.9120 -1.7435  0.7481
 8510SOL     OW36991   0.341   1.647  14.198  0.3019 -0.4433 -0.2844
 8510SOL    HW136992   0.427   1.687  14.212 -0.4417  1.7334 -1.9157
 8510SOL    HW236993   0.361   1.554  14.210 -1.1062 -0.5022  1.7404
 8511SOL     OW36994   1.690   1.337   4.429 -0.3218 -0.8113  0.4727
 8511SOL    HW136995   1.696   1.407   4.363 -1.4247 -1.0802  0.0946
 8511SOL    HW236996   1.621   1.373   4.485  0.2503  0.7836  0.1773
 8512SOL     OW36997   3.777   3.840  14.773 -0.2217 -0.3135  0.3717
 8512SOL    HW136998   3.711   3.780  14.808 -1.4504  1.3049  0.8146
 8512SOL    HW236999   3.750   3.921  14.817 -0.3603 -0.0068 -0.2703
 8513SOL     OW37000   2.537   1.052  13.003  0.1933  0.2803  0.6545
 8513SOL    HW137001   2.607   1.063  12.938 -0.5723  0.6837 -0.0979
 8513SOL    HW237002   2.508   0.966  12.971 -1.1561 -0.1823  3.1589
 8514SOL     OW37003   0.768   3.307   2.105  0.2789  0.7689 -0.1092
 8514SOL    HW137004   0.680   3.273   2.123  0.5526  0.4157  0.5505
 8514SOL    HW237005   0.791   3.268   2.020  0.8499  0.7087  0.0740
 8515SOL     OW37006   4.208   3.536  16.331 -0.2576  0.8404 -0.3663
 8515SOL    HW137007   4.250   3.604  16.384  0.6842  0.9081 -1.2059
 8515SOL    HW237008   4.240   3.559  16.244 -0.1767  0.5933 -0.4041
 8516SOL     OW37009   1.791   0.069   8.953 -0.1993 -0.3996 -0.3826
 8516SOL    HW137010   1.716   0.112   8.911  0.5359 -1.0307 -2.3157
 8516SOL    HW237011   1.808   4.720   8.892  0.6163  0.5360 -1.2527
 8517SOL     OW37012   2.371   3.717   5.042  0.3143 -0.3361 -0.1998
 8517SOL    HW137013   2.348   3.809   5.058  1.8393  0.0474 -0.2816
 8517SOL    HW237014   2.415   3.693   5.123  1.0180  2.6047  0.3026
 8518SOL     OW37015   2.076   1.103   6.642 -0.3090  0.2041  0.3269
 8518SOL    HW137016   1.992   1.126   6.602 -0.6380  1.4226  1.7427
 8518SOL    HW237017   2.129   1.120   6.565 -1.4325 -0.6442 -0.6484
 8519SOL     OW37018   0.809   2.749   4.955  0.5432 -0.1220  0.5566
 8519SOL    HW137019   0.845   2.817   4.898  0.8053  0.2865  1.2066
 8519SOL    HW237020   0.733   2.802   4.979  0.9442  1.0443 -0.7599
 8520SOL     OW37021   0.756   0.268  17.092 -0.1024  0.2932  0.2047
 8520SOL    HW137022   0.840   0.281  17.049 -0.8667 -0.6061 -1.6098
 8520SOL    HW237023   0.773   0.194  17.150 -0.0612 -1.1012 -1.5644
 8521SOL     OW37024   1.091   2.439   5.535 -0.2354 -0.1344  0.1855
 8521SOL    HW137025   1.050   2.509   5.587  0.2637  0.0679  0.3097
 8521SOL    HW237026   1.038   2.431   5.456 -0.7907 -1.7931  0.7342
 8522SOL     OW37027   3.310   1.057   7.413  0.4006 -0.0852  0.1300
 8522SOL    HW137028   3.294   1.123   7.346 -3.2955 -0.3812  0.7484
 8522SOL    HW237029   3.229   1.007   7.412  0.1798  0.3232 -2.0187
 8523SOL     OW37030   4.654   1.880  14.285 -0.1852 -0.8245  0.0684
 8523SOL    HW137031   4.679   1.956  14.339  3.4895 -1.8203 -0.2073
 8523SOL    HW237032   4.563   1.904  14.267  0.4743  0.0536 -2.1304
 8524SOL     OW37033   4.651   1.682   5.518  0.3201 -0.6622 -0.4965
 8524SOL    HW137034   4.616   1.744   5.582  1.1485 -0.4078 -0.2873
 8524SOL    HW237035   4.637   1.601   5.568  0.7748  0.2496  1.0990
 8525SOL     OW37036   3.154   4.642  10.522  0.1168  0.3483  0.2212
 8525SOL    HW137037   3.243   4.675  10.523 -0.6369  2.4303 -1.3050
 8525SOL    HW237038   3.154   4.565  10.466 -0.8758  1.2714 -1.0451
 8526SOL     OW37039   4.629   1.500  15.565 -0.1503 -0.0580  0.0656
 8526SOL    HW137040   4.604   1.585  15.528  1.5473  0.8640  1.0608
 8526SOL    HW237041   4.708   1.513  15.617  0.1338 -0.7667 -0.1958
 8527SOL     OW37042   0.436   1.349   7.521  0.2480 -1.1220 -0.3724
 8527SOL    HW137043   0.343   1.332   7.511 -0.0484  0.6104 -0.5567
 8527SOL    HW237044   0.453   1.297   7.599 -0.8790 -0.0890  0.5560
 8528SOL     OW37045   4.700   2.167   6.850 -0.1897  0.2367  0.4794
 8528SOL    HW137046   0.008   2.254   6.877 -0.5987  0.5475 -0.0523
 8528SOL    HW237047   4.605   2.180   6.850 -0.3381 -0.8328  0.5694
 8529SOL     OW37048   0.874   4.247   7.752  0.6715  0.2512  0.2160
 8529SOL    HW137049   0.967   4.228   7.739  0.8290  0.0803  1.6212
 8529SOL    HW237050   0.880   4.342   7.740  1.6365  0.3613  1.5173
 8530SOL     OW37051   1.112   3.412   8.217  0.0669  0.5621  0.3890
 8530SOL    HW137052   1.153   3.326   8.225 -0.6188  0.0496 -1.5748
 8530SOL    HW237053   1.104   3.438   8.308 -0.3166  4.4537 -0.7433
 8531SOL     OW37054   4.328   1.736  12.487 -0.4983  0.0046 -0.1262
 8531SOL    HW137055   4.248   1.788  12.497 -0.4049 -0.4717  3.0120
 8531SOL    HW237056   4.364   1.724  12.575  0.1651  1.7424 -0.1579
 8532SOL     OW37057   2.068   1.664   5.579 -0.0802 -0.2695  0.4416
 8532SOL    HW137058   2.144   1.660   5.521  0.3833  0.3529  0.9996
 8532SOL    HW237059   2.038   1.574   5.582 -1.6883  0.2684  0.2487
 8533SOL     OW37060   3.226   0.739   7.302  0.4676  0.2165  0.7301
 8533SOL    HW137061   3.250   0.698   7.386  1.0100  0.9405  0.9327
 8533SOL    HW237062   3.149   0.791   7.328  1.4677  1.8175  0.4981
 8534SOL     OW37063   3.490   1.572   1.870 -0.1634  0.1998  0.1807
 8534SOL    HW137064   3.541   1.621   1.806 -0.0727  1.1266  0.9645
 8534SOL    HW237065   3.544   1.494   1.876 -0.0941  0.3426  1.2954
 8535SOL     OW37066   4.640   4.088   8.085  0.3065  0.2537  0.0683
 8535SOL    HW137067   4.645   4.000   8.122  0.4137 -0.6158 -2.0117
 8535SOL    HW237068   4.650   4.135   8.167  1.3060 -0.1146  0.1536
 8536SOL     OW37069   1.316   4.502  11.017 -0.3174  0.1450  0.1354
 8536SOL    HW137070   1.368   4.572  10.979  1.4904 -1.4933 -0.3869
 8536SOL    HW237071   1.382   4.481  11.084 -0.4770 -1.8234 -0.3057
 8537SOL     OW37072   2.431   3.205   1.943 -0.0041 -0.4238 -0.0924
 8537SOL    HW137073   2.449   3.286   1.992 -4.1871  0.1752  0.4050
 8537SOL    HW237074   2.516   3.164   1.928  0.2168 -0.4238  1.1061
 8538SOL     OW37075   4.057   2.989   5.554 -0.0721 -0.3671 -0.2089
 8538SOL    HW137076   3.985   3.047   5.578  0.0747  0.3669 -1.5088
 8538SOL    HW237077   4.074   2.941   5.635  0.1467 -2.3071 -1.4028
 8539SOL     OW37078   1.049   0.787   5.120  0.2308 -0.2217  0.4595
 8539SOL    HW137079   0.988   0.716   5.102 -0.0120  0.6389 -2.0366
 8539SOL    HW237080   1.116   0.758   5.058 -3.4180  0.4993 -3.8202
 8540SOL     OW37081   1.703   2.555   4.716 -0.3690  0.2892  0.3479
 8540SOL    HW137082   1.725   2.482   4.772  2.4989  1.0570  0.2227
 8540SOL    HW237083   1.715   2.622   4.784  0.6666 -0.9347  1.3604
 8541SOL     OW37084   2.452   3.860  16.081  0.0158 -0.9596 -0.2882
 8541SOL    HW137085   2.441   3.954  16.072 -0.8926 -1.0202  0.2356
 8541SOL    HW237086   2.385   3.835  16.017 -0.6278 -1.0137  0.4095
 8542SOL     OW37087   1.732   3.657  15.462 -0.4379  0.0671  0.4522
 8542SOL    HW137088   1.688   3.594  15.520  1.2319 -0.8750  0.6865
 8542SOL    HW237089   1.811   3.677  15.512 -0.4312  1.7855 -0.2451
 8543SOL     OW37090   1.970   0.671   8.369 -0.1995 -0.4945 -0.5505
 8543SOL    HW137091   2.063   0.656   8.387 -0.1438  1.1942  0.6057
 8543SOL    HW237092   1.968   0.766   8.369  2.7417 -0.4402 -0.3185
 8544SOL     OW37093   3.116   0.782   4.866  0.3701 -0.3725 -0.1024
 8544SOL    HW137094   3.164   0.786   4.784  3.0312  1.5959  1.5371
 8544SOL    HW237095   3.049   0.849   4.853  1.3243  0.4790 -0.6422
 8545SOL     OW37096   1.869   4.508  14.881 -0.1677  0.0054  0.0292
 8545SOL    HW137097   1.813   4.564  14.827 -2.8181 -0.6092  2.1093
 8545SOL    HW237098   1.895   4.569  14.951  0.1545  1.2265 -1.1408
 8546SOL     OW37099   0.583   2.064   2.651 -0.1545 -0.3029 -0.7795
 8546SOL    HW137100   0.666   2.062   2.604  0.1170  1.2236 -0.3399
 8546SOL    HW237101   0.547   1.975   2.660 -2.1190  0.4131 -1.5785
 8547SOL     OW37102   4.339   3.203   9.168  0.0657  0.5383  0.5288
 8547SOL    HW137103   4.330   3.261   9.093  2.9904 -0.4403 -0.5701
 8547SOL    HW237104   4.247   3.176   9.176  0.0388  0.7869  1.0625
 8548SOL     OW37105   1.699   2.122   3.618 -0.0082 -0.2568  0.6186
 8548SOL    HW137106   1.655   2.207   3.621  0.0519 -0.1847 -0.4917
 8548SOL    HW237107   1.647   2.089   3.545  0.3550  0.1499  0.1796
 8549SOL     OW37108   0.725   1.291   6.376  0.0144 -0.3328 -0.6769
 8549SOL    HW137109   0.647   1.321   6.424 -0.6280 -0.8233 -1.4063
 8549SOL    HW237110   0.708   1.312   6.284 -1.3794  0.0920 -0.3253
 8550SOL     OW37111   3.202   0.913   9.331  0.0613 -0.1340  0.1661
 8550SOL    HW137112   3.160   0.907   9.417  1.2238  0.3869  0.7616
 8550SOL    HW237113   3.145   0.985   9.304 -2.5622 -1.7450  1.4117
 8551SOL     OW37114   4.213   4.164   5.966  0.0658  0.2728  0.1115
 8551SOL    HW137115   4.194   4.239   6.022 -1.3349  0.1501 -0.2037
 8551SOL    HW237116   4.271   4.110   6.019  0.3792  0.5194  0.0179
 8552SOL     OW37117   2.985   4.153   0.723 -0.4610 -0.2508 -0.3345
 8552SOL    HW137118   3.047   4.089   0.688 -0.6140 -1.1826  1.0830
 8552SOL    HW237119   3.028   4.234   0.696  0.3344 -0.5842 -0.0763
 8553SOL     OW37120   2.312   3.280  16.254 -0.0717  0.6219 -0.4384
 8553SOL    HW137121   2.320   3.199  16.203  1.9396  0.9967 -0.7267
 8553SOL    HW237122   2.337   3.342  16.185  0.0036  0.3410 -0.6670
 8554SOL     OW37123   3.983   2.131   9.409  0.1590 -0.3783 -0.0236
 8554SOL    HW137124   4.006   2.043   9.381  0.1838  0.1543 -1.7152
 8554SOL    HW237125   3.955   2.117   9.499  0.8596 -2.0068 -0.0644
 8555SOL     OW37126   2.993   1.843   8.650 -0.3347 -0.1934  0.1261
 8555SOL    HW137127   3.034   1.923   8.682 -1.3395  1.1531 -1.9549
 8555SOL    HW237128   2.903   1.856   8.677 -0.6029  0.6980 -1.1829
 8556SOL     OW37129   2.773   3.107   2.894  0.0244  0.2589 -0.5876
 8556SOL    HW137130   2.748   3.062   2.813 -0.4742 -0.6385  0.0664
 8556SOL    HW237131   2.740   3.197   2.889  2.0842  1.1791  2.6470
 8557SOL     OW37132   4.596   2.172   3.626  0.6151  0.1323  0.2776
 8557SOL    HW137133   4.634   2.087   3.648 -2.6015 -0.5911  3.1880
 8557SOL    HW237134   4.601   2.180   3.531  1.5084 -4.8774 -0.0868
 8558SOL     OW37135   2.597   3.297   4.863  0.1114  0.5234 -0.0636
 8558SOL    HW137136   2.686   3.310   4.894  0.2965  1.1221 -0.8664
 8558SOL    HW237137   2.580   3.216   4.912 -2.1652  2.2000  1.9386
 8559SOL     OW37138   1.685   3.101  13.681  0.1605 -0.1112  0.1182
 8559SOL    HW137139   1.694   3.135  13.592  2.8492  0.9147  0.7712
 8559SOL    HW237140   1.605   3.049  13.682 -0.2752  0.6140  3.0059
 8560SOL     OW37141   0.920   2.070   5.572 -0.3078 -0.2807  0.9247
 8560SOL    HW137142   0.951   2.017   5.498  1.9220  0.5823  1.2311
 8560SOL    HW237143   1.004   2.094   5.612  0.5411  1.4843 -1.9097
 8561SOL     OW37144   2.933   3.423   9.923 -0.2379  0.1092  0.4311
 8561SOL    HW137145   2.961   3.469  10.002  1.1727 -1.2218  0.7249
 8561SOL    HW237146   3.004   3.362   9.905 -2.0839 -1.9487  0.1518
 8562SOL     OW37147   2.485   0.633   4.094  0.8888  0.5208  0.2395
 8562SOL    HW137148   2.474   0.595   4.181 -0.2026 -2.4745 -1.1971
 8562SOL    HW237149   2.574   0.599   4.082 -0.1888 -1.0137 -3.4152
 8563SOL     OW37150   2.457   2.696   7.715  0.1597 -0.5766  0.2263
 8563SOL    HW137151   2.362   2.691   7.727  0.0308 -0.7289 -0.8821
 8563SOL    HW237152   2.467   2.790   7.734 -0.3402 -1.1192  3.2562
 8564SOL     OW37153   0.140   4.242  11.742 -0.0675 -0.3198  0.6125
 8564SOL    HW137154   0.228   4.205  11.752 -1.0632 -2.5126  1.2793
 8564SOL    HW237155   0.142   4.273  11.652 -1.4743  0.9233  1.0097
 8565SOL     OW37156   2.249   4.692  11.431  0.0095  0.5781  0.3503
 8565SOL    HW137157   2.219   4.666  11.518  0.4073  0.0805  0.3426
 8565SOL    HW237158   2.206   4.627  11.375  0.3148  0.4756  0.2320
 8566SOL     OW37159   3.277   0.992  15.150  0.2175 -0.5576  0.3300
 8566SOL    HW137160   3.230   0.944  15.081 -0.0512 -0.7097  0.6179
 8566SOL    HW237161   3.307   0.921  15.208 -1.4196 -1.5235 -0.0003
 8567SOL     OW37162   2.166   4.158   9.358  0.1012 -0.0029  0.2348
 8567SOL    HW137163   2.070   4.152   9.353  0.1849 -1.5831  0.4493
 8567SOL    HW237164   2.181   4.240   9.404 -1.1264  0.3504  0.0172
 8568SOL     OW37165   4.158   1.035  12.793  0.5276  0.0577  0.1163
 8568SOL    HW137166   4.115   0.951  12.811  0.3060  0.4703  1.5948
 8568SOL    HW237167   4.238   1.019  12.844  0.6661  1.4768  0.3470
 8569SOL     OW37168   1.244   0.034  13.192 -0.2392 -0.1607 -0.1078
 8569SOL    HW137169   1.319   0.024  13.133  0.9329 -0.1568  1.3620
 8569SOL    HW237170   1.175   4.720  13.136 -1.4111 -0.7313  1.6931
 8570SOL     OW37171   4.421   2.685   5.447 -0.1347  0.0266  0.2031
 8570SOL    HW137172   4.340   2.735   5.456  0.8650  1.5739  0.6182
 8570SOL    HW237173   4.486   2.756   5.450  0.0032  0.2131 -5.7187
 8571SOL     OW37174   2.621   3.292  15.550 -0.3174 -0.2302  0.5743
 8571SOL    HW137175   2.544   3.236  15.555  1.7371 -3.1566 -0.5150
 8571SOL    HW237176   2.609   3.342  15.630 -0.9728  2.2690 -1.0720
 8572SOL     OW37177   0.174   1.275   4.532  0.0729 -0.5142  0.3259
 8572SOL    HW137178   0.250   1.324   4.503 -0.6018 -1.0321 -2.2840
 8572SOL    HW237179   0.192   1.278   4.626  1.4075  2.5644 -0.0341
 8573SOL     OW37180   1.004   2.028   3.366  0.3134 -0.9618 -0.4104
 8573SOL    HW137181   1.039   1.947   3.328  2.7774  0.4749 -1.1479
 8573SOL    HW237182   1.001   2.083   3.288 -2.5074  0.0744  0.4269
 8574SOL     OW37183   0.294   4.144   9.131  0.2839 -0.2910  0.2770
 8574SOL    HW137184   0.203   4.124   9.112  0.1998  1.2705 -1.0112
 8574SOL    HW237185   0.339   4.137   9.046 -1.7708 -1.3249 -0.7047
 8575SOL     OW37186   0.674   3.040   2.522 -0.0305  0.9514  0.0277
 8575SOL    HW137187   0.615   2.988   2.467  0.1505  1.6319 -0.8228
 8575SOL    HW237188   0.760   3.009   2.493 -0.1712  0.6539 -0.0713
 8576SOL     OW37189   1.731   1.082  13.756  0.3743  0.9622 -0.1022
 8576SOL    HW137190   1.749   1.071  13.849 -3.7910 -0.6365  0.4923
 8576SOL    HW237191   1.725   1.178  13.750 -2.1954  0.7699 -0.4669
 8577SOL     OW37192   3.047   3.318  14.147 -0.2065 -0.2087 -0.1593
 8577SOL    HW137193   3.092   3.298  14.229 -1.4828 -2.1143  0.0741
 8577SOL    HW237194   3.031   3.412  14.156 -1.7464 -0.3368 -1.5699
 8578SOL     OW37195   3.101   1.019  11.947  0.1319 -0.0879 -0.4218
 8578SOL    HW137196   3.010   1.038  11.969 -0.1011  0.0570 -1.5545
 8578SOL    HW237197   3.115   1.095  11.890 -1.9073  0.6683  0.0853
 8579SOL     OW37198   1.758   0.558   9.423  0.3639 -0.0827 -0.6415
 8579SOL    HW137199   1.792   0.471   9.404 -3.8758 -1.4847 -1.8158
 8579SOL    HW237200   1.686   0.560   9.360 -2.4877 -2.2546  2.5364
 8580SOL     OW37201   1.396   2.035   7.590 -0.6606  0.5966  0.0841
 8580SOL    HW137202   1.416   2.070   7.503 -1.9237  0.9359 -0.0696
 8580SOL    HW237203   1.469   2.068   7.643  0.4551 -0.7363 -0.6100
 8581SOL     OW37204   1.496   0.613  13.311 -0.3690  0.6567 -0.1315
 8581SOL    HW137205   1.446   0.630  13.391  1.5373 -1.5959  1.5281
 8581SOL    HW237206   1.426   0.577  13.257  0.1246 -0.9633  0.3160
 8582SOL     OW37207   2.149   3.372   7.823 -0.5210  0.1719  0.2172
 8582SOL    HW137208   2.106   3.454   7.847  0.4323  0.9038 -0.5463
 8582SOL    HW237209   2.160   3.330   7.909 -0.5204 -0.1138  0.0772
 8583SOL     OW37210   1.847   1.020   8.612  0.9383 -0.0475  0.4043
 8583SOL    HW137211   1.903   0.985   8.543 -0.4776 -1.3417 -0.0863
 8583SOL    HW237212   1.879   1.110   8.618  1.5055 -0.2926  1.0729
 8584SOL     OW37213   2.751   2.687   6.125  0.1610 -0.1479 -0.3551
 8584SOL    HW137214   2.718   2.598   6.113 -1.7001  0.6233 -0.8645
 8584SOL    HW237215   2.796   2.702   6.042 -1.1593 -1.1111 -1.2238
 8585SOL     OW37216   2.162   2.844  15.291  0.1114 -0.5987 -0.0509
 8585SOL    HW137217   2.071   2.869  15.310  0.1868 -0.9202  0.7275
 8585SOL    HW237218   2.167   2.864  15.198 -0.9614  1.1351  0.2594
 8586SOL     OW37219   1.611   3.198  13.406  0.1999  0.2229  0.0773
 8586SOL    HW137220   1.595   3.203  13.311  2.7708  0.9263 -0.3114
 8586SOL    HW237221   1.657   3.114  13.405 -1.2888 -0.6225  3.4927
 8587SOL     OW37222   0.903   3.480  12.322 -0.1328  0.1382  0.2290
 8587SOL    HW137223   0.858   3.410  12.275  2.1189 -0.8706 -0.4395
 8587SOL    HW237224   0.928   3.438  12.404 -2.9615 -2.2444 -0.1421
 8588SOL     OW37225   1.212   2.985  15.009  0.7526  0.0920  0.6756
 8588SOL    HW137226   1.306   2.992  14.995  0.5774 -0.8042 -0.9059
 8588SOL    HW237227   1.196   3.055  15.074  0.6846  0.6730  0.0308
 8589SOL     OW37228   0.270   1.848   0.700  0.3263  0.5316 -0.3526
 8589SOL    HW137229   0.214   1.776   0.670 -0.9654  1.8236 -1.0283
 8589SOL    HW237230   0.209   1.916   0.673  0.8574 -0.2578 -3.5666
 8590SOL     OW37231   2.362   2.063   2.178 -0.0964 -0.8026  0.1564
 8590SOL    HW137232   2.419   2.070   2.254 -0.2849  0.8871  0.1398
 8590SOL    HW237233   2.423   2.076   2.105 -0.9756  0.7515 -0.3157
 8591SOL     OW37234   0.794   1.374   7.652 -1.2795 -0.2346 -0.6498
 8591SOL    HW137235   0.857   1.333   7.592 -1.0276 -1.5159  0.4788
 8591SOL    HW237236   0.727   1.308   7.632 -0.3079 -2.2160  2.4867
 8592SOL     OW37237   3.494   0.880   2.325  0.1015  0.3632 -0.3259
 8592SOL    HW137238   3.480   0.802   2.272  0.6931  0.2662 -0.3375
 8592SOL    HW237239   3.567   0.915   2.272  0.8913 -1.9534 -0.7810
 8593SOL     OW37240   4.617   0.759   6.704  0.1932 -0.0486  0.2002
 8593SOL    HW137241   4.674   0.758   6.781  0.5415  0.5723 -0.0433
 8593SOL    HW237242   4.640   0.842   6.661 -0.5204 -0.5565 -1.1623
 8594SOL     OW37243   3.246   2.524   7.884  0.0900 -0.1945 -0.3321
 8594SOL    HW137244   3.264   2.482   7.968 -1.7771  0.7794  0.5570
 8594SOL    HW237245   3.238   2.612   7.921 -2.0084 -0.8792  0.8100
 8595SOL     OW37246   1.602   4.688   7.436 -0.1045 -0.3755 -0.2471
 8595SOL    HW137247   1.691   4.721   7.441 -0.6133  0.9149  0.3164
 8595SOL    HW237248   1.596   4.654   7.347 -0.7162  0.5643 -0.5670
 8596SOL     OW37249   0.034   0.659   3.417  0.1002 -0.0124  0.2394
 8596SOL    HW137250   4.707   0.597   3.471  0.0154  2.5348  3.1217
 8596SOL    HW237251   0.121   0.656   3.455 -0.1124 -0.3827  0.6973
 8597SOL     OW37252   1.819   0.150   7.356 -0.3864  0.4887 -0.0965
 8597SOL    HW137253   1.790   0.229   7.311 -2.4018 -0.1014  0.1734
 8597SOL    HW237254   1.912   0.170   7.363 -0.5096 -0.2219  3.3777
 8598SOL     OW37255   2.281   2.175   9.066 -0.5294  0.1300  0.1280
 8598SOL    HW137256   2.327   2.216   9.139 -1.3313 -1.5785  1.5970
 8598SOL    HW237257   2.312   2.085   9.080  1.0165  0.3179 -2.0655
 8599SOL     OW37258   4.177   1.383  13.115  0.3613 -0.0324  0.3375
 8599SOL    HW137259   4.185   1.421  13.028  0.9996 -0.9002  0.0118
 8599SOL    HW237260   4.257   1.331  13.126 -0.7803 -2.0990 -1.2281
 8600SOL     OW37261   4.005   2.496   1.132  0.3475  0.4010  0.8703
 8600SOL    HW137262   3.967   2.582   1.153 -1.3046  0.1631 -1.1380
 8600SOL    HW237263   4.063   2.473   1.204  2.9752  0.5912 -1.2087
 8601SOL     OW37264   0.378   1.073   4.092 -0.4780 -0.0366 -0.0689
 8601SOL    HW137265   0.427   1.138   4.141 -1.2476  1.0568 -0.7490
 8601SOL    HW237266   0.364   1.005   4.157 -0.7523  0.7404  0.6820
 8602SOL     OW37267   0.788   3.597   8.236 -0.0298 -0.2135 -0.0167
 8602SOL    HW137268   0.737   3.548   8.301  0.5189 -2.7086 -1.4780
 8602SOL    HW237269   0.723   3.620   8.170 -2.2696  0.5585  2.4351
 8603SOL     OW37270   0.591   4.491  16.187  0.3384  1.0069 -0.3855
 8603SOL    HW137271   0.531   4.419  16.170 -0.0995  1.9697 -2.8292
 8603SOL    HW237272   0.645   4.461  16.261 -0.0266 -0.8558 -0.8789
 8604SOL     OW37273   2.264   0.417   8.168  0.8099 -0.1340 -0.4532
 8604SOL    HW137274   2.338   0.461   8.211  0.1943  1.0120 -0.5684
 8604SOL    HW237275   2.281   0.326   8.191 -1.8736 -0.2295  1.0657
 8605SOL     OW37276   1.804   2.618   2.319  0.0786 -0.1810  0.5031
 8605SOL    HW137277   1.811   2.713   2.319 -0.1347 -0.1715 -1.2978
 8605SOL    HW237278   1.822   2.615   2.225  1.3051  0.4379  0.7138
 8606SOL     OW37279   3.839   4.225   0.573 -0.0174  0.6074 -0.9388
 8606SOL    HW137280   3.851   4.189   0.661  0.3969 -0.3815 -1.4028
 8606SOL    HW237281   3.744   4.223   0.561  0.0577  1.9310 -1.7782
 8607SOL     OW37282   1.460   0.280  11.158  0.2181  0.0259  0.6735
 8607SOL    HW137283   1.479   0.189  11.181  0.4160  0.2722  1.4732
 8607SOL    HW237284   1.365   0.279  11.156  0.2573  0.6889 -1.4301
 8608SOL     OW37285   2.115   0.645  17.609 -0.3901  0.3025 -0.1548
 8608SOL    HW137286   2.039   0.702  17.595 -1.0333 -0.8832 -1.5452
 8608SOL    HW237287   2.070   0.582  17.665 -0.3421 -0.1106 -0.5786
 8609SOL     OW37288   1.626   2.650   6.130  0.9703  0.0922 -0.5243
 8609SOL    HW137289   1.619   2.563   6.091 -2.2803  0.0256  0.2088
 8609SOL    HW237290   1.629   2.637   6.225 -2.1995  0.7917 -0.3241
 8610SOL     OW37291   4.000   0.120   0.872 -0.4703 -0.1803 -0.1773
 8610SOL    HW137292   3.931   0.056   0.892 -0.4496 -0.0124  0.4554
 8610SOL    HW237293   3.957   0.188   0.820 -3.0443 -0.3703  1.6831
 8611SOL     OW37294   4.130   2.280  14.961 -0.2289 -0.1082 -0.6507
 8611SOL    HW137295   4.066   2.227  14.913 -2.5624 -0.0702  2.4614
 8611SOL    HW237296   4.085   2.364  14.974  0.4310  0.3283 -1.1663
 8612SOL     OW37297   1.898   1.117  14.974  0.2078  0.5650 -0.1767
 8612SOL    HW137298   1.832   1.114  15.043 -0.7376  1.4573 -1.0329
 8612SOL    HW237299   1.869   1.193  14.923  1.3134  0.0205 -1.6265
 8613SOL     OW37300   2.390   0.829  12.910  0.8302  0.0772  0.0228
 8613SOL    HW137301   2.306   0.847  12.953  1.2348 -0.9695  1.2189
 8613SOL    HW237302   2.409   0.748  12.957  0.9716  0.5991  0.8558
 8614SOL     OW37303   0.392   2.224  14.063 -0.0568  0.7842  0.1579
 8614SOL    HW137304   0.424   2.293  14.004  0.9493  0.8275  0.7564
 8614SOL    HW237305   0.339   2.282  14.118 -0.0864  0.6516  0.2695
 8615SOL     OW37306   1.550   1.293   7.252 -0.7347 -0.7634 -0.1586
 8615SOL    HW137307   1.541   1.387   7.268  0.3810 -0.6680 -0.1149
 8615SOL    HW237308   1.642   1.285   7.228 -0.7311  0.7558 -0.6613
 8616SOL     OW37309   0.229   3.664   4.414 -0.3091  0.4272 -0.1200
 8616SOL    HW137310   0.229   3.626   4.326  3.2172 -1.6807  0.7925
 8616SOL    HW237311   0.139   3.666   4.446 -0.5755  0.7177 -0.8803
 8617SOL     OW37312   3.748   3.723   4.604 -0.2378  0.0676  0.5402
 8617SOL    HW137313   3.792   3.641   4.584  0.1271  0.3401  0.2158
 8617SOL    HW237314   3.790   3.738   4.689  1.1029  0.4950 -0.1936
 8618SOL     OW37315   2.384   0.781   5.560 -0.1271  0.1160  0.0561
 8618SOL    HW137316   2.298   0.801   5.522 -0.2451  0.4875  0.5089
 8618SOL    HW237317   2.365   0.730   5.639 -0.6441 -0.8336 -0.6877
 8619SOL     OW37318   2.168   3.372   0.907 -0.2068 -0.2524  1.2309
 8619SOL    HW137319   2.251   3.353   0.952 -0.4767 -2.2402  0.8723
 8619SOL    HW237320   2.176   3.310   0.835  1.4439 -2.3140  3.2046
 8620SOL     OW37321   0.396   0.623  15.355  0.1534  0.4307  0.0265
 8620SOL    HW137322   0.463   0.677  15.313  0.0290 -0.0837 -0.8509
 8620SOL    HW237323   0.331   0.689  15.378  1.0826  1.7548 -1.1956
 8621SOL     OW37324   3.360   1.462   3.111 -0.0120 -0.0795 -0.4861
 8621SOL    HW137325   3.435   1.431   3.162  1.0768  1.4120 -1.1934
 8621SOL    HW237326   3.328   1.381   3.073 -1.0484 -1.0847  2.5443
 8622SOL     OW37327   2.447   2.977   5.277  0.3755  0.2838 -0.0161
 8622SOL    HW137328   2.363   2.939   5.249 -0.2272  0.8978  0.9635
 8622SOL    HW237329   2.429   3.070   5.262  1.8111  0.6727  0.6828
 8623SOL     OW37330   2.035   2.474   6.249 -0.0280 -0.0793  0.0614
 8623SOL    HW137331   2.076   2.558   6.230 -0.3465  0.2406  0.7986
 8623SOL    HW237332   2.090   2.404   6.215 -0.2670  0.0685 -0.6200
 8624SOL     OW37333   2.488   2.922  12.439 -0.2548 -0.3775  0.2421
 8624SOL    HW137334   2.466   2.938  12.531  0.3434 -0.6678  0.4403
 8624SOL    HW237335   2.559   2.984  12.421 -1.2885  0.7074 -0.0416
 8625SOL     OW37336   1.898   1.888   5.562  0.1349  0.1501 -0.1914
 8625SOL    HW137337   1.954   1.819   5.597 -0.1060 -1.2338 -2.5131
 8625SOL    HW237338   1.919   1.887   5.468  0.7394  1.4293 -0.0704
 8626SOL     OW37339   0.822   0.699   8.728 -0.2381  0.4817 -0.2827
 8626SOL    HW137340   0.909   0.694   8.689 -0.2147 -1.8326  0.0961
 8626SOL    HW237341   0.817   0.619   8.780 -0.5296  0.2767 -0.6259
 8627SOL     OW37342   3.990   1.283   9.703 -0.1685  0.4328 -0.5006
 8627SOL    HW137343   4.001   1.193   9.736  1.2316  0.4026 -1.0473
 8627SOL    HW237344   4.060   1.322   9.755 -0.9529 -1.6009  2.0732
 8628SOL     OW37345   4.364   2.791   4.403 -0.5552  0.5146 -0.6215
 8628SOL    HW137346   4.293   2.830   4.353 -0.7886  0.8226 -0.0448
 8628SOL    HW237347   4.440   2.840   4.371 -0.2750 -0.1015 -0.8965
 8629SOL     OW37348   1.151   1.818   4.634 -0.6275 -0.2796  0.0764
 8629SOL    HW137349   1.179   1.901   4.595  0.0654 -0.7405 -0.3960
 8629SOL    HW237350   1.151   1.834   4.728 -2.0165  0.2534 -0.0066
 8630SOL     OW37351   1.920   2.846  10.388 -0.2363 -0.0453  0.0734
 8630SOL    HW137352   1.853   2.907  10.359  2.2073  1.8310 -1.6360
 8630SOL    HW237353   1.955   2.882  10.470 -1.2343 -0.5091  0.7006
 8631SOL     OW37354   4.408   1.743   6.572  0.0043  0.1088  0.6371
 8631SOL    HW137355   4.472   1.792   6.624 -1.1910  1.4639  0.8166
 8631SOL    HW237356   4.346   1.706   6.634  0.8607  1.9499  2.5959
 8632SOL     OW37357   2.810   2.637   5.148 -0.7368  0.3265  0.5367
 8632SOL    HW137358   2.741   2.679   5.201 -0.5041  2.2974 -0.7481
 8632SOL    HW237359   2.790   2.670   5.060 -0.0862  0.4314  0.4339
 8633SOL     OW37360   3.937   1.599  12.270  0.0644  0.3362  0.2175
 8633SOL    HW137361   4.010   1.643  12.226 -0.8601  0.2175 -1.4323
 8633SOL    HW237362   3.903   1.552  12.194 -0.7747 -2.6096  2.4513
 8634SOL     OW37363   1.207   3.526   2.930 -0.0308 -0.4614 -0.0349
 8634SOL    HW137364   1.138   3.462   2.915  0.3215 -0.6388 -0.9013
 8634SOL    HW237365   1.270   3.478   2.984 -1.5286  0.2620  2.3402
 8635SOL     OW37366   2.474   1.644   1.661  0.4512 -0.0827  0.0505
 8635SOL    HW137367   2.549   1.603   1.618  0.6414  0.2624  0.0490
 8635SOL    HW237368   2.458   1.717   1.601 -0.8754 -0.6795 -0.3212
 8636SOL     OW37369   2.686   4.367   6.527 -0.6242 -0.7872  0.0812
 8636SOL    HW137370   2.716   4.447   6.484 -0.8261 -0.5931  0.3029
 8636SOL    HW237371   2.748   4.364   6.600  1.0461 -1.8856 -1.3764
 8637SOL     OW37372   0.130   2.395   6.944 -0.0817 -0.1030  0.4568
 8637SOL    HW137373   0.222   2.373   6.926  0.8499  1.6094  3.1287
 8637SOL    HW237374   0.111   2.465   6.883 -2.8439  0.7196  2.2843
 8638SOL     OW37375   1.897   2.813   6.442 -0.6028 -0.2417 -0.2377
 8638SOL    HW137376   1.915   2.904   6.415  1.3230 -0.8507 -1.0405
 8638SOL    HW237377   1.807   2.802   6.411 -1.1190  0.3634  1.0380
 8639SOL     OW37378   2.570   3.853   6.417  0.2817  0.1018  0.2005
 8639SOL    HW137379   2.578   3.941   6.382 -0.6367 -1.1508 -3.1948
 8639SOL    HW237380   2.648   3.846   6.471 -0.6511 -1.0434  1.4046
 8640SOL     OW37381   0.168   3.235   7.224 -1.1582 -0.2654 -1.2756
 8640SOL    HW137382   0.216   3.198   7.150  0.3417  0.2959 -0.6045
 8640SOL    HW237383   0.111   3.166   7.256 -1.4405  1.0933  1.2203
 8641SOL     OW37384   1.389   3.460   7.432  0.1212 -0.3726 -0.3020
 8641SOL    HW137385   1.381   3.416   7.348  1.1553 -0.4370 -0.3674
 8641SOL    HW237386   1.322   3.422   7.490 -0.9359 -0.0164 -1.2819
 8642SOL     OW37387   3.673   0.686   7.460  0.0035 -0.5983 -0.6488
 8642SOL    HW137388   3.729   0.710   7.534 -0.0370  1.3095 -1.2287
 8642SOL    HW237389   3.605   0.754   7.461  0.5394 -0.0590  1.6894
 8643SOL     OW37390   1.797   3.492   3.805 -0.1460  0.1856  0.6671
 8643SOL    HW137391   1.869   3.490   3.869  2.3567 -2.4652 -2.2584
 8643SOL    HW237392   1.851   3.510   3.728 -4.4429 -1.2766 -2.6802
 8644SOL     OW37393   0.991   2.135   6.940 -0.3558  0.2114  0.2447
 8644SOL    HW137394   1.000   2.100   7.029  1.7808 -0.0761 -0.0973
 8644SOL    HW237395   0.977   2.055   6.890 -0.6254  0.4193 -0.0074
 8645SOL     OW37396   0.443   3.988  16.180 -0.3006 -0.4767  0.1708
 8645SOL    HW137397   0.478   3.966  16.267  1.0049 -2.9539 -0.9611
 8645SOL    HW237398   0.497   3.932  16.124  1.3724  1.0487  0.2429
 8646SOL     OW37399   0.762   4.175   5.736  0.4099 -0.5663 -0.2327
 8646SOL    HW137400   0.849   4.209   5.758 -0.0159 -0.1511  0.8149
 8646SOL    HW237401   0.765   4.093   5.785 -0.9315  0.0752  0.9139
 8647SOL     OW37402   2.733   4.172   6.319 -0.3036 -0.7792 -1.1979
 8647SOL    HW137403   2.712   4.257   6.359 -4.0952 -1.0822 -2.5639
 8647SOL    HW237404   2.795   4.128   6.378 -1.0354 -0.5946 -0.3050
 8648SOL     OW37405   3.884   1.486   1.732  0.2522 -0.3792  0.3937
 8648SOL    HW137406   3.801   1.525   1.708  0.0006 -0.2979  1.4049
 8648SOL    HW237407   3.848   1.407   1.773  0.1694 -0.4321  0.2163
 8649SOL     OW37408   4.235   4.309   2.942 -1.1329  0.1037 -0.2133
 8649SOL    HW137409   4.185   4.241   2.897 -0.8163  0.0500 -0.4853
 8649SOL    HW237410   4.308   4.258   2.978 -1.3482  1.7633  2.5602
 8650SOL     OW37411   0.994   3.584   7.829 -0.3193  0.0031  0.3430
 8650SOL    HW137412   0.963   3.534   7.905 -1.7061  1.0621  0.4626
 8650SOL    HW237413   0.991   3.514   7.763  0.4551 -0.3136  0.6396
 8651SOL     OW37414   1.315   3.019  12.052 -0.0524 -0.0800  0.2123
 8651SOL    HW137415   1.229   3.014  12.094 -0.6580  2.1912 -0.7501
 8651SOL    HW237416   1.328   2.925  12.038  0.0239 -0.1207  0.5691
 8652SOL     OW37417   3.890   4.475   0.238 -0.1547 -0.2006 -0.2143
 8652SOL    HW137418   3.975   4.459   0.197 -0.5969 -1.0180 -0.7952
 8652SOL    HW237419   3.895   4.423   0.318 -0.4216  0.0903 -0.0097
 8653SOL     OW37420   1.629   2.534   1.668  0.1125 -0.9719  0.2208
 8653SOL    HW137421   1.704   2.524   1.727  0.9200 -2.7194 -1.1201
 8653SOL    HW237422   1.642   2.465   1.603  1.8754 -0.7011  0.2965
 8654SOL     OW37423   1.360   3.421   8.963  0.0027  0.5271 -0.2658
 8654SOL    HW137424   1.447   3.381   8.970 -0.7483 -1.6272 -2.9953
 8654SOL    HW237425   1.301   3.346   8.969  1.5895 -0.7109 -0.2245
 8655SOL     OW37426   4.531   1.284  13.483  0.0222  0.1091  0.2967
 8655SOL    HW137427   4.561   1.355  13.426 -0.6278  1.4210  1.6038
 8655SOL    HW237428   4.547   1.320  13.570  3.2065  2.1926 -1.1376
 8656SOL     OW37429   1.591   4.189   3.169 -0.0579  0.1407 -0.4275
 8656SOL    HW137430   1.641   4.109   3.189 -1.0561 -1.1215 -3.1064
 8656SOL    HW237431   1.640   4.216   3.091 -0.4499  1.0185 -0.3732
 8657SOL     OW37432   2.196   4.009   8.627  0.1567 -0.4988 -0.3681
 8657SOL    HW137433   2.104   4.014   8.601  0.1345 -1.2022 -0.4206
 8657SOL    HW237434   2.214   4.103   8.630  0.7023 -0.5870 -0.8508
 8658SOL     OW37435   0.473   3.544   9.433  0.3166 -0.2484 -0.1269
 8658SOL    HW137436   0.518   3.627   9.444  0.2403 -0.0514 -1.3522
 8658SOL    HW237437   0.419   3.527   9.511  0.7397  3.1741  0.9217
 8659SOL     OW37438   1.553   2.038  10.440  0.9115  0.5632 -0.5253
 8659SOL    HW137439   1.617   1.988  10.390  0.0628 -2.0679  1.0452
 8659SOL    HW237440   1.533   2.105  10.374  3.4167  0.1779 -1.6871
 8660SOL     OW37441   4.063   1.400  10.284 -0.4875  0.2971 -0.2871
 8660SOL    HW137442   4.110   1.454  10.348  1.5374  0.0299 -1.5475
 8660SOL    HW237443   3.997   1.359  10.341  0.2675 -1.6964 -0.8436
 8661SOL     OW37444   3.639   3.577   4.247  0.2833 -0.6217  0.0335
 8661SOL    HW137445   3.727   3.616   4.245  0.8798 -2.0541 -1.4659
 8661SOL    HW237446   3.620   3.573   4.153 -2.5348  1.8994  0.4882
 8662SOL     OW37447   1.670   4.271   3.476  0.2981 -0.2129  0.7679
 8662SOL    HW137448   1.719   4.242   3.553 -0.3397  0.2884  1.3627
 8662SOL    HW237449   1.585   4.228   3.484 -0.8280  2.1126  1.3393
 8663SOL     OW37450   2.832   4.518   7.996  0.2298  0.2478  0.0999
 8663SOL    HW137451   2.832   4.614   8.002  0.3893  0.3133 -0.8730
 8663SOL    HW237452   2.801   4.507   8.086 -0.7216 -0.2648 -0.3037
 8664SOL     OW37453   0.244   2.363   9.503  0.2711 -0.3452  0.3831
 8664SOL    HW137454   0.200   2.278   9.503 -0.4300  0.0221 -0.0308
 8664SOL    HW237455   0.324   2.351   9.452  1.0251 -2.2208  1.9785
 8665SOL     OW37456   1.278   3.765   5.076  0.2390  0.1731  0.1774
 8665SOL    HW137457   1.367   3.791   5.099  1.1184 -0.3337 -2.6289
 8665SOL    HW237458   1.229   3.817   5.139 -2.7400 -2.5299  0.1384
 8666SOL     OW37459   3.010   4.065   3.026 -0.0987  0.1207  0.3882
 8666SOL    HW137460   2.937   4.005   3.011  0.3689  0.6155 -4.0441
 8666SOL    HW237461   2.995   4.116   2.946  0.6852 -0.3153 -0.0374
 8667SOL     OW37462   3.496   3.330   7.071 -0.3779 -0.0385 -0.2759
 8667SOL    HW137463   3.505   3.329   7.167  0.9749 -2.1964 -0.4208
 8667SOL    HW237464   3.411   3.290   7.054  0.1613 -0.2967 -2.2784
 8668SOL     OW37465   0.057   4.423  13.814 -0.0063 -0.2443  0.7615
 8668SOL    HW137466   0.048   4.355  13.880 -0.9262 -1.2495 -0.3967
 8668SOL    HW237467   0.132   4.384  13.768 -0.2137  0.3172 -0.0711
 8669SOL     OW37468   1.784   0.956   7.476 -0.3470 -0.4957  0.5840
 8669SOL    HW137469   1.835   0.916   7.546  1.6747  1.4852  0.2341
 8669SOL    HW237470   1.776   1.047   7.504 -2.8609 -0.3795 -0.5210
 8670SOL     OW37471   0.879   4.069  15.354 -0.3633  0.3184  0.4933
 8670SOL    HW137472   0.902   3.976  15.362  1.8574  0.9521  1.3868
 8670SOL    HW237473   0.839   4.063  15.268 -2.1857 -0.3662  1.3832
 8671SOL     OW37474   2.011   1.590  17.020 -0.0060  0.0194  0.5392
 8671SOL    HW137475   1.986   1.519  16.961 -0.6706  2.2133 -1.8525
 8671SOL    HW237476   1.923   1.601  17.057  0.2410  0.5189  0.9842
 8672SOL     OW37477   2.296   0.455   8.981  0.1159  0.4947 -0.1810
 8672SOL    HW137478   2.328   0.475   9.069  0.7304 -2.4346  0.2823
 8672SOL    HW237479   2.270   0.540   8.947  2.5765  1.1103 -0.5404
 8673SOL     OW37480   0.518   1.128   5.500  0.2994  0.3884  0.8238
 8673SOL    HW137481   0.488   1.213   5.532 -0.4121  0.9066 -1.2287
 8673SOL    HW237482   0.593   1.105   5.555  0.4902 -0.0799  0.3686
 8674SOL     OW37483   4.339   0.131   1.207 -0.0458 -0.1304  0.2341
 8674SOL    HW137484   4.344   0.214   1.160  0.9052  0.7269  1.8630
 8674SOL    HW237485   4.370   0.074   1.137  0.5701  0.4044  0.0744
 8675SOL     OW37486   3.320   2.861  17.236  0.7292  0.5070 -0.5785
 8675SOL    HW137487   3.246   2.818  17.195  0.7814  0.6925 -0.8644
 8675SOL    HW237488   3.355   2.795  17.295  2.7426  3.0769  1.1418
 8676SOL     OW37489   4.095   1.014   8.723 -0.0641  0.0867 -0.5348
 8676SOL    HW137490   4.187   0.990   8.733 -0.4741 -0.7896  1.2543
 8676SOL    HW237491   4.101   1.082   8.656  1.7089  1.4025  0.9515
 8677SOL     OW37492   3.713   0.611   3.466  0.2224  0.0916 -0.1840
 8677SOL    HW137493   3.747   0.633   3.553  1.0644 -0.4351 -0.3815
 8677SOL    HW237494   3.745   0.521   3.461 -0.8186 -0.3216  0.6397
 8678SOL     OW37495   2.669   4.251   0.388  0.0432 -0.3912  0.2782
 8678SOL    HW137496   2.693   4.164   0.421  0.5692 -1.2489 -2.3756
 8678SOL    HW237497   2.671   4.308   0.464 -0.5267  0.7968 -0.6024
 8679SOL     OW37498   0.418   3.261   5.630  0.0788  0.2520 -0.6553
 8679SOL    HW137499   0.490   3.247   5.569  0.7367 -2.2214  0.6885
 8679SOL    HW237500   0.448   3.191   5.687  0.2285  0.8500  0.0056
 8680SOL     OW37501   1.112   0.031   8.415 -0.2918 -0.3968  1.0047
 8680SOL    HW137502   1.086   0.074   8.333 -0.5545 -2.6070 -0.0787
 8680SOL    HW237503   1.070   4.668   8.403  0.2996 -0.4628 -0.5729
 8681SOL     OW37504   3.793   3.233   0.542  0.9866  0.2085  0.5239
 8681SOL    HW137505   3.819   3.315   0.583  0.1412 -0.3368  2.1750
 8681SOL    HW237506   3.871   3.225   0.487  1.0348  0.9153  0.5016
 8682SOL     OW37507   2.962   2.037   2.794  0.9375 -0.1770 -0.1854
 8682SOL    HW137508   2.918   1.957   2.822  0.3836  0.0100 -0.5239
 8682SOL    HW237509   2.988   2.077   2.877  0.1853  1.8223 -0.9023
 8683SOL     OW37510   0.482   2.751  14.052 -0.1190  0.0952 -0.1102
 8683SOL    HW137511   0.448   2.836  14.026 -1.4500 -0.1067  0.9343
 8683SOL    HW237512   0.571   2.761  14.020  0.6687  1.2066  2.4526
 8684SOL     OW37513   4.127   1.571   3.926  0.0718  0.6238 -0.2744
 8684SOL    HW137514   4.133   1.625   3.847  1.4667  0.9463  0.0397
 8684SOL    HW237515   4.182   1.497   3.901 -0.8566  0.5586 -2.0546
 8685SOL     OW37516   2.190   2.696   4.809 -0.6363  0.5569  0.2543
 8685SOL    HW137517   2.218   2.659   4.726  1.2072 -0.2933  1.2531
 8685SOL    HW237518   2.229   2.782   4.793  1.0985 -0.0935  0.9190
 8686SOL     OW37519   2.337   4.480   7.523 -0.0729 -0.2701 -0.3263
 8686SOL    HW137520   2.360   4.535   7.448  0.2751 -0.7444 -0.5626
 8686SOL    HW237521   2.264   4.430   7.488 -0.2599 -0.7099  0.6898
 8687SOL     OW37522   2.458   4.070   8.998  0.2548 -0.4075 -0.8127
 8687SOL    HW137523   2.377   4.053   9.046 -0.9299  0.4994 -2.4878
 8687SOL    HW237524   2.498   4.147   9.037  0.5651  0.7303 -3.3684
 8688SOL     OW37525   3.296   2.454   3.993 -0.3720  0.1208 -0.5537
 8688SOL    HW137526   3.256   2.506   3.923  0.7317  1.3068 -0.3051
 8688SOL    HW237527   3.353   2.394   3.946  0.3967  0.3948  0.0349
 8689SOL     OW37528   3.220   1.456   4.768 -0.6899 -0.0709 -0.4647
 8689SOL    HW137529   3.241   1.495   4.853 -0.8803 -1.1582  0.0889
 8689SOL    HW237530   3.307   1.450   4.729 -0.1335  0.3110  0.7241
 8690SOL     OW37531   2.859   1.260   0.718  0.3617  0.0514  0.0728
 8690SOL    HW137532   2.927   1.283   0.781  1.8747 -1.1524 -1.1416
 8690SOL    HW237533   2.911   1.246   0.639 -0.9706  1.9282 -1.1538
 8691SOL     OW37534   0.135   4.510   6.562  0.2759 -0.7549  0.1133
 8691SOL    HW137535   0.174   4.478   6.481  1.2868 -1.2605  0.7992
 8691SOL    HW237536   0.136   4.440   6.627 -0.4359  0.0771  1.0372
 8692SOL     OW37537   2.932   0.784   5.209 -0.2760 -0.5335 -0.3132
 8692SOL    HW137538   2.963   0.835   5.134 -1.0250  0.5763  0.1380
 8692SOL    HW237539   2.988   0.816   5.280  0.3155 -0.9150 -0.6116
 8693SOL     OW37540   0.106   4.238   7.932 -0.3722  0.2415 -0.3864
 8693SOL    HW137541   0.044   4.195   7.991  1.4030 -2.7120 -0.6411
 8693SOL    HW237542   0.047   4.287   7.875  0.9094  2.1374 -0.0949
 8694SOL     OW37543   2.108   0.791  11.534  0.0010  0.3453 -0.2006
 8694SOL    HW137544   2.119   0.838  11.617  1.1987 -0.2593 -0.0136
 8694SOL    HW237545   2.098   0.700  11.563 -0.6283  0.9500  1.4838
 8695SOL     OW37546   3.270   0.546   1.644  0.1756 -0.5869  0.0458
 8695SOL    HW137547   3.244   0.563   1.553  1.4558 -2.1197 -0.5984
 8695SOL    HW237548   3.263   0.635   1.678  0.1535  0.7154 -3.3332
 8696SOL     OW37549   2.430   0.801   5.061 -0.1029 -0.0832 -0.0034
 8696SOL    HW137550   2.470   0.730   5.111 -0.5042 -0.7685 -0.6505
 8696SOL    HW237551   2.503   0.840   5.012 -0.8799  0.3544 -0.8171
 8697SOL     OW37552   2.385   2.136   8.355  0.0403 -0.2222  0.6157
 8697SOL    HW137553   2.345   2.214   8.394  2.7344  2.0959 -1.2678
 8697SOL    HW237554   2.327   2.064   8.380  0.0178 -0.3628  0.1597
 8698SOL     OW37555   0.753   4.454  11.801 -0.3358  0.0785  0.4226
 8698SOL    HW137556   0.823   4.389  11.801 -1.9844 -1.6944  0.9197
 8698SOL    HW237557   0.683   4.398  11.835  0.2532 -0.6892  0.3793
 8699SOL     OW37558   1.810   4.216   9.630  0.0311 -0.0588 -0.0820
 8699SOL    HW137559   1.778   4.278   9.564  2.1541  1.6617  0.5273
 8699SOL    HW237560   1.730   4.207   9.683  0.2377 -2.1088 -0.1122
 8700SOL     OW37561   0.687   3.257  16.847 -0.0958 -0.0006 -0.3955
 8700SOL    HW137562   0.657   3.206  16.772  1.4394 -0.9273 -0.3865
 8700SOL    HW237563   0.756   3.195  16.871 -0.0189  0.1800 -0.1522
 8701SOL     OW37564   3.701   2.995   3.286  0.1289  0.3548 -0.6699
 8701SOL    HW137565   3.683   3.021   3.376  0.7099  1.6631 -0.9276
 8701SOL    HW237566   3.754   3.071   3.260 -1.0250  1.1692 -0.6334
 8702SOL     OW37567   4.240   2.740  12.871 -0.4493 -0.4144  0.1566
 8702SOL    HW137568   4.323   2.699  12.847 -0.3999  0.5950 -1.4174
 8702SOL    HW237569   4.209   2.768  12.785  3.0028 -0.2266 -1.0330
 8703SOL     OW37570   0.837   2.571   2.531 -0.3217 -0.0777 -0.4806
 8703SOL    HW137571   0.901   2.553   2.461 -0.0261  2.4639 -0.8879
 8703SOL    HW237572   0.754   2.544   2.492  0.3407 -0.3479 -1.7069
 8704SOL     OW37573   2.931   3.456   3.498  0.2064 -0.0073  0.2053
 8704SOL    HW137574   2.984   3.511   3.440  1.8819 -1.0356  0.7636
 8704SOL    HW237575   2.924   3.498   3.583  1.3651  0.1536  0.2302
 8705SOL     OW37576   4.325   3.195   8.549  0.3704  0.2619 -0.0662
 8705SOL    HW137577   4.289   3.184   8.461  1.1363 -1.0537 -0.2118
 8705SOL    HW237578   4.318   3.104   8.578  0.4785  1.0458  2.4112
 8706SOL     OW37579   3.258   3.754   7.931  0.2422 -0.2125  0.2125
 8706SOL    HW137580   3.169   3.786   7.945  0.5108 -0.2257  1.9046
 8706SOL    HW237581   3.294   3.754   8.019 -0.1694  0.6043  0.3879
 8707SOL     OW37582   2.551   0.845  13.227 -0.1448 -0.0514 -0.3630
 8707SOL    HW137583   2.590   0.926  13.193 -0.5060 -0.1580 -1.0415
 8707SOL    HW237584   2.514   0.897  13.298 -0.4400  0.9616 -1.2621
 8708SOL     OW37585   3.088   4.188   3.965 -0.1617  0.2223  0.0743
 8708SOL    HW137586   3.157   4.253   3.980 -0.3862  0.8157 -1.5370
 8708SOL    HW237587   3.074   4.183   3.871  1.5224 -0.2896 -0.1421
 8709SOL     OW37588   3.850   4.327  15.198  0.0435  0.3036  0.2367
 8709SOL    HW137589   3.849   4.339  15.293 -0.7345 -0.4854  0.3242
 8709SOL    HW237590   3.760   4.298  15.184  0.3534 -0.7773  0.5268
 8710SOL     OW37591   2.336   2.217   3.482  0.3933  0.0819  0.4354
 8710SOL    HW137592   2.329   2.293   3.423  0.2232  1.3136  2.0458
 8710SOL    HW237593   2.428   2.225   3.505  0.7714  1.0941 -1.4043
 8711SOL     OW37594   1.264   0.221   7.689 -0.0500  0.4338 -0.2811
 8711SOL    HW137595   1.220   0.236   7.773 -0.9285 -2.4234 -0.2189
 8711SOL    HW237596   1.311   0.143   7.716 -0.4266  0.9094  1.7280
 8712SOL     OW37597   2.217   1.542  14.652 -0.2727  0.0011  0.3500
 8712SOL    HW137598   2.232   1.628  14.613 -0.2534  0.2535  0.9280
 8712SOL    HW237599   2.195   1.565  14.742 -0.0294  0.5984  0.2565
 8713SOL     OW37600   0.927   4.371   6.948  0.2406 -0.0253 -0.2878
 8713SOL    HW137601   0.867   4.356   7.021  3.0143  0.4621  2.1172
 8713SOL    HW237602   0.956   4.463   6.951  0.7097 -0.1681 -0.5161
 8714SOL     OW37603   3.498   1.423   8.098 -0.1867  0.7360  0.0264
 8714SOL    HW137604   3.544   1.463   8.172  1.8315  0.6378 -1.1586
 8714SOL    HW237605   3.538   1.336   8.100  2.8950  2.0258 -3.7314
 8715SOL     OW37606   2.780   1.154   6.016  0.8887 -0.3659 -0.6099
 8715SOL    HW137607   2.738   1.090   5.958 -0.6050  0.3789 -0.3365
 8715SOL    HW237608   2.839   1.209   5.964 -1.4086 -0.7259 -3.6314
 8716SOL     OW37609   4.257   1.081   9.553 -0.0702  0.1792 -0.0876
 8716SOL    HW137610   4.272   1.173   9.571  0.6339  0.5833 -2.6917
 8716SOL    HW237611   4.335   1.046   9.596 -1.4024 -2.5866  0.1136
 8717SOL     OW37612   1.168   1.358   3.275  0.1686  0.1007 -0.3209
 8717SOL    HW137613   1.200   1.448   3.272 -0.8233  0.4986  0.7883
 8717SOL    HW237614   1.164   1.336   3.368 -0.9884 -1.4298 -0.7354
 8718SOL     OW37615   3.081   0.153  11.728 -0.1795  0.0223  0.3583
 8718SOL    HW137616   3.175   0.157  11.745 -0.4083  0.0658  1.6288
 8718SOL    HW237617   3.080   0.122  11.637  4.7394  0.2025  0.2598
 8719SOL     OW37618   0.283   1.225  12.585 -0.0613 -0.1245  0.4640
 8719SOL    HW137619   0.352   1.278  12.546 -0.0892 -0.0897  0.4619
 8719SOL    HW237620   0.235   1.194  12.508  0.8474 -0.3982  0.0112
 8720SOL     OW37621   4.183   1.999   5.534  0.0179 -0.3501  0.3758
 8720SOL    HW137622   4.275   1.978   5.548 -0.3048 -1.6820  0.5248
 8720SOL    HW237623   4.160   2.048   5.613  0.5142 -2.5058  1.8565
 8721SOL     OW37624   0.311   3.737   7.670  0.5144  0.6606 -0.4898
 8721SOL    HW137625   0.307   3.816   7.725 -0.4468 -0.0277  0.4228
 8721SOL    HW237626   0.234   3.746   7.614  0.5356  0.7878 -0.4983
 8722SOL     OW37627   0.763   3.984   7.144  0.3167  0.0626  0.1319
 8722SOL    HW137628   0.729   3.901   7.111 -2.3291 -0.2998  3.8347
 8722SOL    HW237629   0.847   3.954   7.179  0.1893  2.2340  2.3276
 8723SOL     OW37630   2.159   1.257   1.773  0.7524  0.0583  0.3663
 8723SOL    HW137631   2.190   1.342   1.743 -0.3544  0.3752  0.1057
 8723SOL    HW237632   2.177   1.198   1.699  0.6344  1.8433 -1.0798
 8724SOL     OW37633   2.431   1.144   9.506 -0.0005 -0.3056  0.1759
 8724SOL    HW137634   2.347   1.104   9.484 -0.6183  0.8500  0.4919
 8724SOL    HW237635   2.422   1.199   9.583  1.1241  1.4944 -0.9577
 8725SOL     OW37636   3.670   0.881   8.450 -0.3021  0.3076 -0.9807
 8725SOL    HW137637   3.765   0.872   8.461 -0.2673  0.3814 -1.2210
 8725SOL    HW237638   3.665   0.977   8.449  1.5387  0.4119 -1.1656
 8726SOL     OW37639   4.396   3.866   7.528 -0.0024 -0.3791  0.0125
 8726SOL    HW137640   4.365   3.852   7.617 -1.2152  1.9489 -0.0357
 8726SOL    HW237641   4.395   3.780   7.486  0.7235 -0.5767  0.4155
 8727SOL     OW37642   2.654   2.682   8.148 -0.6837 -0.2582  0.2907
 8727SOL    HW137643   2.665   2.637   8.064  0.3945  0.9508 -0.2202
 8727SOL    HW237644   2.629   2.611   8.207  1.1085 -0.5526  0.6674
 8728SOL     OW37645   0.028   1.454  16.474  0.2872 -0.2472  0.0142
 8728SOL    HW137646   4.708   1.444  16.560  0.2567 -3.7176 -0.3894
 8728SOL    HW237647   4.694   1.400  16.418  0.5346 -0.4737 -0.0119
 8729SOL     OW37648   2.795   3.325   3.295  0.1045  0.1518  0.3031
 8729SOL    HW137649   2.741   3.279   3.360 -1.1146  0.8148 -0.2340
 8729SOL    HW237650   2.867   3.349   3.354 -0.1465 -1.3162  1.2030
 8730SOL     OW37651   0.863   2.779   3.326  0.5289 -0.8824  0.0782
 8730SOL    HW137652   0.806   2.765   3.251  1.3909  1.9702 -1.1117
 8730SOL    HW237653   0.951   2.765   3.291 -0.1710 -2.0142 -1.2389
 8731SOL     OW37654   2.594   1.886   8.613  0.3987  0.0457 -0.7285
 8731SOL    HW137655   2.597   1.889   8.708 -0.6432 -1.5125 -0.6501
 8731SOL    HW237656   2.506   1.921   8.599  0.7424  0.9510 -0.6560
 8732SOL     OW37657   3.589   1.771   2.138 -0.7408  0.1420  0.2678
 8732SOL    HW137658   3.678   1.796   2.110 -0.9024  0.9388  0.4620
 8732SOL    HW237659   3.608   1.689   2.183  2.4478  1.0378  0.5604
 8733SOL     OW37660   2.744   3.186   0.683  0.2822 -0.3390  0.5324
 8733SOL    HW137661   2.798   3.107   0.682  1.4393  0.4569  0.4359
 8733SOL    HW237662   2.760   3.226   0.768  0.0573 -0.3681  0.5889
 8734SOL     OW37663   2.799   0.247   0.501  0.9515 -0.0068 -0.0334
 8734SOL    HW137664   2.833   0.166   0.537  1.6444 -0.5462 -1.8681
 8734SOL    HW237665   2.733   0.217   0.438 -0.6162  3.1164  0.0871
 8735SOL     OW37666   4.403   3.816   6.381 -0.1655 -0.2468 -0.3282
 8735SOL    HW137667   4.478   3.870   6.408 -0.4067  0.1105 -0.3827
 8735SOL    HW237668   4.439   3.729   6.397 -1.8242 -0.5148  1.9413
 8736SOL     OW37669   0.816   3.378   5.677  0.0840 -0.1933  0.0366
 8736SOL    HW137670   0.899   3.335   5.697 -0.4590 -2.4305 -2.5324
 8736SOL    HW237671   0.850   3.465   5.696 -4.2004  0.9617  2.4049
 8737SOL     OW37672   3.136   1.869   9.125 -0.1587 -0.0784  0.0843
 8737SOL    HW137673   3.112   1.865   9.218 -1.0429  1.6102 -0.0666
 8737SOL    HW237674   3.231   1.875   9.136 -0.2167  0.7689  0.1261
 8738SOL     OW37675   1.132   1.255   3.519  0.6289 -0.4124 -0.0575
 8738SOL    HW137676   1.200   1.297   3.571  1.0273 -0.0891 -0.8297
 8738SOL    HW237677   1.103   1.200   3.592  1.1940  1.3638  1.5125
 8739SOL     OW37678   0.388   3.797   9.298 -0.2915  0.5832 -0.2478
 8739SOL    HW137679   0.326   3.766   9.231  0.7031 -0.6244 -0.6106
 8739SOL    HW237680   0.372   3.735   9.369 -0.4368  0.4718 -0.3768
 8740SOL     OW37681   0.851   2.866  17.333  0.3582  1.0533 -0.1633
 8740SOL    HW137682   0.842   2.957  17.362 -2.9608  0.3417  0.9923
 8740SOL    HW237683   0.767   2.845  17.294 -0.7777  2.4620  1.4996
 8741SOL     OW37684   2.430   3.851  15.128  0.1929 -0.2119 -0.2740
 8741SOL    HW137685   2.509   3.804  15.155  0.6575 -0.4979 -2.0786
 8741SOL    HW237686   2.478   3.913  15.072  2.1174 -2.1492 -0.7763
 8742SOL     OW37687   2.661   3.496   5.858 -0.7265  0.2574 -0.0278
 8742SOL    HW137688   2.690   3.418   5.905 -0.3948 -0.3834 -1.2997
 8742SOL    HW237689   2.600   3.543   5.915 -1.1993 -0.9400  0.4533
 8743SOL     OW37690   3.419   2.374   2.354  0.1784  0.4413  0.0471
 8743SOL    HW137691   3.324   2.387   2.359  0.1078 -0.6649  1.8454
 8743SOL    HW237692   3.439   2.417   2.271 -0.0081 -0.4656 -0.4661
 8744SOL     OW37693   3.058   4.001   8.460  0.1289  0.2203  0.1480
 8744SOL    HW137694   2.974   3.969   8.494 -0.2147  0.7685 -0.1768
 8744SOL    HW237695   3.127   3.967   8.517  0.1241 -2.6202 -1.5654
 8745SOL     OW37696   1.917   2.702   9.200  0.1452 -0.7027 -0.0280
 8745SOL    HW137697   1.846   2.747   9.154  0.3761 -0.8822 -0.5636
 8745SOL    HW237698   1.882   2.621   9.236 -0.0898 -0.8833 -0.6672
 8746SOL     OW37699   1.505   2.925   2.169  0.0186  0.5429  0.1926
 8746SOL    HW137700   1.587   2.961   2.134 -0.6961  0.6056 -1.4512
 8746SOL    HW237701   1.459   3.007   2.149 -1.0677  0.1543  1.1199
 8747SOL     OW37702   3.286   0.713   8.228 -0.3464  0.3036  0.2454
 8747SOL    HW137703   3.267   0.711   8.322 -1.1019 -0.1569  0.0779
 8747SOL    HW237704   3.201   0.685   8.196 -0.5733  0.5681  0.6162
 8748SOL     OW37705   3.611   4.223   4.452 -0.0517  0.5936 -0.2211
 8748SOL    HW137706   3.685   4.190   4.402 -0.1003  0.2918 -0.0935
 8748SOL    HW237707   3.652   4.281   4.516 -1.7974  1.4820  0.0892
 8749SOL     OW37708   4.374   3.236   6.594 -1.0228  0.4964  0.2241
 8749SOL    HW137709   4.279   3.242   6.587 -1.1772 -0.6926  1.3317
 8749SOL    HW237710   4.388   3.144   6.616 -1.6558  0.7706  1.7221
 8750SOL     OW37711   3.054   2.819   6.130 -0.2040 -0.7095 -0.5375
 8750SOL    HW137712   3.030   2.881   6.199  0.0229 -1.5730  0.3216
 8750SOL    HW237713   3.129   2.859   6.086  0.3756 -0.1504  0.9442
 8751SOL     OW37714   1.975   3.724   1.032 -0.1685 -0.1835  0.1483
 8751SOL    HW137715   1.897   3.779   1.032  0.8338  1.2363  1.3673
 8751SOL    HW237716   1.935   3.638   1.043 -2.8229  0.7925 -1.8609
 8752SOL     OW37717   4.344   2.374   8.087 -0.9608 -0.3835 -0.1913
 8752SOL    HW137718   4.409   2.361   8.156  1.3016 -1.9643 -2.6099
 8752SOL    HW237719   4.383   2.340   8.007 -1.9043  0.9253 -1.1902
 8753SOL     OW37720   3.834   3.997   7.087  0.1081 -0.7666 -0.3331
 8753SOL    HW137721   3.776   4.017   7.161  0.3667 -0.0745 -0.3193
 8753SOL    HW237722   3.858   4.082   7.052 -0.1640  0.5719  2.7504
 8754SOL     OW37723   2.039   3.129   2.444  0.1256 -0.0263 -0.5165
 8754SOL    HW137724   1.951   3.134   2.481  0.4590  1.9363  0.0359
 8754SOL    HW237725   2.085   3.089   2.519  0.4752  2.0220  0.3554
 8755SOL     OW37726   4.701   1.613  14.297 -0.3070  0.1791  0.8336
 8755SOL    HW137727   4.680   1.705  14.307 -1.7098 -0.0481  0.0548
 8755SOL    HW237728   4.617   1.575  14.270 -0.1223  0.5594 -0.2997
 8756SOL     OW37729   1.914   0.873   4.513 -0.2738  0.1580 -0.8907
 8756SOL    HW137730   1.933   0.860   4.420  0.1654  3.3628 -1.2704
 8756SOL    HW237731   1.995   0.909   4.550 -0.9936  0.0875  0.7564
 8757SOL     OW37732   3.903   3.073  11.835 -0.4896 -0.1325 -0.1301
 8757SOL    HW137733   3.829   3.013  11.849 -2.3085  2.5413  1.9075
 8757SOL    HW237734   3.925   3.076  11.928  3.1044 -1.0246 -0.9669
 8758SOL     OW37735   3.936   3.455   4.298 -0.1264  0.0629 -0.4208
 8758SOL    HW137736   3.886   3.443   4.379  1.0706  0.7441  0.4241
 8758SOL    HW237737   3.900   3.543   4.284 -0.1037  0.1218 -0.1094
 8759SOL     OW37738   2.083   1.559  11.708  0.1157 -0.2109 -0.3958
 8759SOL    HW137739   2.136   1.509  11.645 -2.1919 -3.1440 -0.0244
 8759SOL    HW237740   2.110   1.651  11.708 -2.3416  0.5042 -0.4061
 8760SOL     OW37741   2.436   2.559   6.616  0.1902 -0.2137  0.0205
 8760SOL    HW137742   2.345   2.555   6.642 -0.1799  1.9416 -0.9526
 8760SOL    HW237743   2.462   2.651   6.619 -1.4313  0.2858 -1.4440
 8761SOL     OW37744   1.278   3.177   9.421 -0.7149 -0.3222  0.4364
 8761SOL    HW137745   1.308   3.110   9.359  0.1450 -0.9185  1.5077
 8761SOL    HW237746   1.358   3.196   9.470 -1.0805 -0.2290  0.9855
 8762SOL     OW37747   1.017   4.642   3.669  0.0104 -0.1820 -0.5571
 8762SOL    HW137748   1.007   4.565   3.614 -1.1454 -1.4170  1.3895
 8762SOL    HW237749   1.095   4.624   3.721  0.2127 -1.7211 -1.4180
 8763SOL     OW37750   2.638   2.113  14.246  0.8474  1.3294 -0.0344
 8763SOL    HW137751   2.610   2.134  14.335 -1.5385  0.0096 -0.4409
 8763SOL    HW237752   2.579   2.165  14.191  0.1471  1.0030  0.4009
 8764SOL     OW37753   1.648   4.470  13.645 -0.0117 -0.2726  0.5403
 8764SOL    HW137754   1.668   4.381  13.673  3.1821  0.5196  0.8677
 8764SOL    HW237755   1.554   4.460  13.632  0.1416 -1.1583  0.1390
 8765SOL     OW37756   0.935   1.482   5.433 -0.2545 -0.4957 -0.4306
 8765SOL    HW137757   0.988   1.455   5.358  1.3759 -0.8570  0.8569
 8765SOL    HW237758   0.851   1.444   5.407  0.1191 -0.8689 -1.0798
 8766SOL     OW37759   3.268   0.760   2.843  0.2254  0.3834 -0.2652
 8766SOL    HW137760   3.205   0.703   2.888  1.1917 -0.0291  0.5636
 8766SOL    HW237761   3.244   0.714   2.762  0.1759 -0.8769  0.4583
 8767SOL     OW37762   3.839   2.401  10.043 -0.9982  0.2155 -0.4328
 8767SOL    HW137763   3.759   2.420  10.092  0.7451 -0.4720  2.6516
 8767SOL    HW237764   3.835   2.307  10.026  1.3177 -0.2971  1.9424
 8768SOL     OW37765   4.114   1.557  13.528  0.2329 -0.4124  0.6988
 8768SOL    HW137766   4.031   1.549  13.481  0.5363  1.9207 -0.2238
 8768SOL    HW237767   4.092   1.635  13.578 -0.7540  0.4288 -1.0555
 8769SOL     OW37768   0.140   2.243   3.957 -0.1745 -0.0767  0.5750
 8769SOL    HW137769   0.211   2.303   3.934 -0.2384  0.5701  2.0778
 8769SOL    HW237770   0.195   2.167   3.936  0.6761  1.3245 -2.3437
 8770SOL     OW37771   4.432   1.771   4.072  0.1472  0.4998  0.1993
 8770SOL    HW137772   4.513   1.732   4.104 -1.4862 -2.3721  0.7705
 8770SOL    HW237773   4.444   1.863   4.096 -0.8837 -0.2200  3.4717
 8771SOL     OW37774   0.541   2.806  11.136  0.2024 -0.2650  0.4083
 8771SOL    HW137775   0.537   2.899  11.160 -0.6791 -0.3092  0.4129
 8771SOL    HW237776   0.511   2.809  11.046 -0.8150  0.4919  0.7744
 8772SOL     OW37777   0.288   2.220   7.180 -0.1140 -0.3832 -0.2701
 8772SOL    HW137778   0.265   2.225   7.272 -1.7426  1.6936 -0.8053
 8772SOL    HW237779   0.214   2.178   7.137 -0.7576 -1.6221  2.0571
 8773SOL     OW37780   3.588   2.188   2.457 -0.3224  0.2175  0.2474
 8773SOL    HW137781   3.510   2.244   2.448 -0.1053  0.6108  0.8916
 8773SOL    HW237782   3.650   2.257   2.437  0.2927 -0.3266  0.2793
 8774SOL     OW37783   3.402   0.024   2.871  0.3455  0.1319 -0.1001
 8774SOL    HW137784   3.416   0.090   2.803  1.4718  1.4076  1.3666
 8774SOL    HW237785   3.495   0.012   2.890  0.8176  1.2013 -1.8099
 8775SOL     OW37786   3.033   3.667   2.510 -0.8505 -0.0522 -0.0632
 8775SOL    HW137787   3.128   3.665   2.515 -0.7570  1.1818 -1.1298
 8775SOL    HW237788   3.007   3.578   2.532  1.1889 -0.6183 -0.0021
 8776SOL     OW37789   2.288   1.087   1.222 -0.5036  0.2148 -0.1523
 8776SOL    HW137790   2.361   1.026   1.228 -1.9026 -1.5753 -1.4825
 8776SOL    HW237791   2.291   1.102   1.128  1.8002  0.6220 -0.0080
 8777SOL     OW37792   0.006   2.092  16.292 -1.3663  0.2677  0.0186
 8777SOL    HW137793   4.691   2.011  16.329 -0.9096 -0.1734 -0.4904
 8777SOL    HW237794   4.662   2.109  16.225  0.6350  1.7648 -1.5321
 8778SOL     OW37795   1.013   3.076   9.129  0.2675  0.5637 -0.2294
 8778SOL    HW137796   0.967   3.092   9.211 -1.1857 -1.8010 -0.5723
 8778SOL    HW237797   0.972   3.142   9.072  0.6716 -0.2175 -1.4295
 8779SOL     OW37798   0.479   4.252   3.264 -0.2082  0.2121 -0.4041
 8779SOL    HW137799   0.573   4.256   3.249 -0.1407 -1.0852 -0.3033
 8779SOL    HW237800   0.451   4.342   3.248  0.2668  0.2677 -0.9237
 8780SOL     OW37801   4.706   2.404   5.468 -0.1825  0.0777 -0.1799
 8780SOL    HW137802   0.042   2.479   5.456 -1.1191  1.1145  1.7688
 8780SOL    HW237803   0.044   2.334   5.442 -2.4713 -2.3764  1.1745
 8781SOL     OW37804   2.509   1.772   7.115  0.6587  0.2347 -0.1506
 8781SOL    HW137805   2.428   1.802   7.075  1.2050  0.4363 -1.0947
 8781SOL    HW237806   2.509   1.680   7.087  1.7189 -0.0527  0.7902
 8782SOL     OW37807   0.605   3.739  16.924 -0.2404 -0.4971  0.2584
 8782SOL    HW137808   0.515   3.710  16.909 -0.7101  1.8962 -1.4665
 8782SOL    HW237809   0.591   3.825  16.965  2.5378  0.9140 -1.8073
 8783SOL     OW37810   3.458   2.317  16.533  0.1879  0.5782  0.3389
 8783SOL    HW137811   3.393   2.264  16.487  1.6834 -0.8353 -0.1336
 8783SOL    HW237812   3.538   2.271  16.507  0.4649  1.0004  0.4478
 8784SOL     OW37813   0.307   3.623  12.542  0.6157  0.3436 -0.2468
 8784SOL    HW137814   0.305   3.564  12.467 -0.9870 -1.5710  1.2960
 8784SOL    HW237815   0.317   3.704  12.492  2.3606 -0.5347 -1.3361
 8785SOL     OW37816   0.069   0.289   3.107 -0.3126  0.6182  0.1530
 8785SOL    HW137817   0.121   0.331   3.039  1.3934  0.6098  1.4662
 8785SOL    HW237818   4.720   0.351   3.124 -0.6251  0.1577  0.5251
 8786SOL     OW37819   3.776   4.190   1.099  0.7790 -0.3226  0.7905
 8786SOL    HW137820   3.688   4.217   1.126  0.1227 -1.1893 -0.4955
 8786SOL    HW237821   3.808   4.169   1.186 -0.2414 -0.6522  1.0843
 8787SOL     OW37822   0.340   2.640   1.011 -0.2137 -0.2703  0.1623
 8787SOL    HW137823   0.359   2.686   0.929  1.1871 -1.0525  0.0392
 8787SOL    HW237824   0.267   2.697   1.037 -1.7387 -1.3765 -1.7603
 8788SOL     OW37825   1.936   3.528   0.296  0.3862  0.5872  0.7933
 8788SOL    HW137826   2.010   3.571   0.339  1.7798 -1.7247  0.6905
 8788SOL    HW237827   1.877   3.602   0.280  0.4249  0.6588  0.9788
 8789SOL     OW37828   2.524   2.909   1.265  0.3522  0.3708 -0.3342
 8789SOL    HW137829   2.600   2.879   1.216 -0.1439 -0.2722 -0.6921
 8789SOL    HW237830   2.460   2.842   1.241  0.3615 -0.2030  1.2235
 8790SOL     OW37831   1.532   3.632   3.012  0.1551  0.6819  0.0284
 8790SOL    HW137832   1.460   3.695   3.009  0.9078  1.6228  1.8338
 8790SOL    HW237833   1.534   3.598   2.922  0.0842  0.0593  0.2596
 8791SOL     OW37834   2.026   4.555   8.588 -0.3254 -0.2591  0.5866
 8791SOL    HW137835   2.099   4.560   8.651  1.2214  0.4190 -1.2780
 8791SOL    HW237836   2.064   4.618   8.527 -0.4574 -0.6426  0.1104
 8792SOL     OW37837   4.162   4.086  14.425  0.1639 -0.6366 -0.5370
 8792SOL    HW137838   4.112   4.007  14.447  0.4612 -0.0241  2.4168
 8792SOL    HW237839   4.134   4.135  14.502  0.9968  3.1062 -2.6449
 8793SOL     OW37840   1.983   3.789   1.388 -0.2120  0.2945 -0.2204
 8793SOL    HW137841   1.981   3.846   1.311  1.7190 -1.4106 -1.5465
 8793SOL    HW237842   2.002   3.852   1.458 -0.1869  1.0352 -0.8972
 8794SOL     OW37843   0.035   2.357   3.744  1.0063 -0.0189  0.5033
 8794SOL    HW137844   4.699   2.284   3.725  2.0222 -0.4854 -0.7439
 8794SOL    HW237845   0.078   2.323   3.823 -0.0562  0.1202  1.1451
 8795SOL     OW37846   1.640   2.974  11.046  0.4029  0.1108  0.0565
 8795SOL    HW137847   1.734   2.985  11.060  0.6461 -0.2490 -1.2801
 8795SOL    HW237848   1.630   3.067  11.028  1.1826  0.3610  0.9471
 8796SOL     OW37849   1.764   3.900   9.204  0.1600 -0.1273  0.2474
 8796SOL    HW137850   1.847   3.855   9.194 -0.0856 -0.1394 -1.8070
 8796SOL    HW237851   1.698   3.831   9.210  1.1118 -0.8576  2.0881
 8797SOL     OW37852   3.639   3.572   3.920 -0.2355  0.0787 -0.9966
 8797SOL    HW137853   3.562   3.515   3.924  1.0150 -1.5211  0.6636
 8797SOL    HW237854   3.707   3.511   3.949  0.6108  1.8137  0.7069
 8798SOL     OW37855   3.692   0.489   7.266  0.3534  0.0694  0.4194
 8798SOL    HW137856   3.679   0.578   7.299 -1.3233 -0.9209  2.3847
 8798SOL    HW237857   3.707   0.451   7.352  1.7963 -0.0595  0.1121
 8799SOL     OW37858   3.253   0.686   7.564  0.0233 -0.2600 -0.1213
 8799SOL    HW137859   3.184   0.730   7.614  0.0055 -2.2557  1.6232
 8799SOL    HW237860   3.288   0.628   7.632 -0.0857 -1.9199 -1.4954
 8800SOL     OW37861   3.866   4.252   7.334 -0.0909  0.1047  0.0194
 8800SOL    HW137862   3.897   4.312   7.266 -1.1348 -0.1576 -0.6880
 8800SOL    HW237863   3.923   4.292   7.400  0.2432  1.0121 -0.8323
 8801SOL     OW37864   0.933   0.171   7.039  0.3759  0.0071 -0.2985
 8801SOL    HW137865   0.863   0.225   7.074  2.2762  3.7599 -2.3621
 8801SOL    HW237866   1.010   0.214   7.077  1.1713 -2.8514  1.3345
 8802SOL     OW37867   1.227   1.900  16.110 -0.7645  0.0252  0.5622
 8802SOL    HW137868   1.183   1.975  16.071  0.3436  0.6157  0.4461
 8802SOL    HW237869   1.157   1.871  16.169 -1.8902  2.8032  0.5997
 8803SOL     OW37870   0.813   1.714  14.787  0.8289 -1.0166  0.2430
 8803SOL    HW137871   0.883   1.686  14.727 -0.1676 -1.7803 -0.5645
 8803SOL    HW237872   0.744   1.733  14.723  0.2642 -1.1706  0.8088
 8804SOL     OW37873   0.268   1.809   3.529 -0.2044  0.5560  0.1422
 8804SOL    HW137874   0.276   1.775   3.439 -0.9993 -1.3293  0.7789
 8804SOL    HW237875   0.360   1.831   3.544 -0.1279 -0.6276  1.3633
 8805SOL     OW37876   3.425   3.362   7.345  0.0807  0.1284  0.3547
 8805SOL    HW137877   3.360   3.432   7.336  0.9227  0.8953  0.1469
 8805SOL    HW237878   3.490   3.416   7.391 -0.7876 -0.1769  1.9288
 8806SOL     OW37879   1.850   1.462   1.391 -0.0343  0.1836  0.1307
 8806SOL    HW137880   1.908   1.507   1.453  0.8680  2.2643 -2.2174
 8806SOL    HW237881   1.785   1.430   1.454  0.8945  0.4575  1.2423
 8807SOL     OW37882   0.175   1.465   7.094  0.0702 -0.3693 -0.0222
 8807SOL    HW137883   0.231   1.522   7.146 -2.4731  1.9171  0.1927
 8807SOL    HW237884   0.227   1.387   7.111  0.7212 -0.0729 -0.6800
 8808SOL     OW37885   2.792   3.468   2.137  0.0388  0.4510  0.1130
 8808SOL    HW137886   2.808   3.540   2.198  0.7905 -1.4553  2.1863
 8808SOL    HW237887   2.714   3.429   2.176  0.7624  0.3753  1.4798
 8809SOL     OW37888   3.172   0.336   5.219 -0.0679 -0.1240 -0.1682
 8809SOL    HW137889   3.145   0.412   5.167  1.4419  0.1123 -0.6215
 8809SOL    HW237890   3.266   0.354   5.225 -0.1498  0.1816  0.2351
 8810SOL     OW37891   3.442   0.684   2.110 -0.2817  0.0112 -0.1283
 8810SOL    HW137892   3.443   0.728   2.025  1.4778 -2.2976 -1.3068
 8810SOL    HW237893   3.482   0.601   2.086 -1.0761  0.3563 -2.7573
 8811SOL     OW37894   2.362   2.457   4.858  0.1273  1.0473 -0.0784
 8811SOL    HW137895   2.331   2.542   4.827  1.2291  0.9650 -1.4110
 8811SOL    HW237896   2.394   2.475   4.946 -1.4301  1.4789  0.4117
 8812SOL     OW37897   0.619   4.430   8.827 -0.4009  0.1339 -0.5441
 8812SOL    HW137898   0.587   4.491   8.893 -0.8507  1.9455 -2.4437
 8812SOL    HW237899   0.661   4.366   8.885 -1.5371  0.1344  0.2997
 8813SOL     OW37900   3.942   1.281   4.853 -0.1795 -0.0219 -0.0394
 8813SOL    HW137901   4.011   1.344   4.873 -0.9222  2.0002 -3.8601
 8813SOL    HW237902   3.991   1.199   4.857 -0.3446 -0.1184  0.0404
 8814SOL     OW37903   2.028   4.177   7.168  0.0255 -0.2618 -0.3199
 8814SOL    HW137904   2.080   4.132   7.102  1.0291  1.0100 -0.3980
 8814SOL    HW237905   1.951   4.202   7.117  0.8796  1.1361 -0.9276
 8815SOL     OW37906   1.429   2.617   8.013 -0.1950  0.0539 -1.1618
 8815SOL    HW137907   1.388   2.586   7.932 -0.0665 -0.7089 -0.9417
 8815SOL    HW237908   1.446   2.534   8.058 -0.2996 -0.0287 -1.2749
 8816SOL     OW37909   0.550   3.590   3.584 -0.2232 -0.0957  0.0754
 8816SOL    HW137910   0.553   3.684   3.597 -1.3590  0.0721 -0.8914
 8816SOL    HW237911   0.483   3.572   3.650 -0.4543 -1.9370 -0.6569
 8817SOL     OW37912   0.808   3.568  15.510  0.2062  0.0053 -0.1039
 8817SOL    HW137913   0.846   3.638  15.457  0.6690 -2.0166 -2.4118
 8817SOL    HW237914   0.727   3.609  15.540 -0.0671 -0.6070 -0.0187
 8818SOL     OW37915   1.838   3.560   2.351  0.1951 -0.5854 -0.3850
 8818SOL    HW137916   1.773   3.492   2.336 -0.5326 -0.1002  0.5263
 8818SOL    HW237917   1.797   3.644   2.330  0.3088 -0.6108 -0.6971
 8819SOL     OW37918   3.446   1.525   8.649  0.4351 -0.5216  0.5480
 8819SOL    HW137919   3.490   1.443   8.624 -0.2935 -0.6696 -0.2298
 8819SOL    HW237920   3.422   1.501   8.739 -2.9841 -0.2665 -0.3052
 8820SOL     OW37921   3.403   2.663  16.394 -0.1720  0.2107  0.0316
 8820SOL    HW137922   3.410   2.583  16.446  0.4953 -0.1200 -0.5680
 8820SOL    HW237923   3.411   2.629  16.304  0.3693 -2.3890  1.0483
 8821SOL     OW37924   2.027   3.561   4.985  0.9428 -0.6889 -0.0371
 8821SOL    HW137925   1.992   3.497   5.048  0.1863 -2.1491 -1.9309
 8821SOL    HW237926   2.050   3.619   5.058 -1.9403  1.1705 -0.5728
 8822SOL     OW37927   2.082   0.479   6.091  0.2566 -0.0660 -0.6998
 8822SOL    HW137928   2.005   0.422   6.096 -1.3406  2.1252 -0.4275
 8822SOL    HW237929   2.049   0.547   6.033  2.3037  0.4900 -1.2025
 8823SOL     OW37930   0.139   2.856   8.209  0.1328  0.1498 -0.0090
 8823SOL    HW137931   0.233   2.871   8.202  0.4416 -2.2838 -0.9512
 8823SOL    HW237932   0.140   2.809   8.293  1.8086 -0.8888 -0.6206
 8824SOL     OW37933   1.552   0.397   1.512  0.0849  0.0027  0.2527
 8824SOL    HW137934   1.472   0.429   1.470 -0.8766 -2.7944 -0.0623
 8824SOL    HW237935   1.587   0.338   1.445 -0.9337 -0.9935  0.6073
 8825SOL     OW37936   0.488   0.077   5.464  0.1444 -0.1495  0.3128
 8825SOL    HW137937   0.476   0.043   5.375  1.6562  0.1575 -0.0192
 8825SOL    HW237938   0.434   0.155   5.474  0.4831  0.1735 -0.3357
 8826SOL     OW37939   0.517   0.258   3.865  0.0044 -0.2689 -0.6082
 8826SOL    HW137940   0.500   0.344   3.829 -3.7285 -1.1710 -0.9680
 8826SOL    HW237941   0.610   0.254   3.843  0.0054 -2.3578 -0.2426
 8827SOL     OW37942   4.535   1.552  16.037 -0.1175 -0.2958 -0.0165
 8827SOL    HW137943   4.491   1.539  15.953 -0.6273 -2.3083  0.5518
 8827SOL    HW237944   4.577   1.467  16.054 -1.5313 -0.8194  0.8775
 8828SOL     OW37945   1.083   1.688   6.995 -0.3665  0.0656  0.1071
 8828SOL    HW137946   1.125   1.703   6.910  2.6975 -0.1182  1.6009
 8828SOL    HW237947   1.132   1.742   7.057  1.0160 -2.2070  0.9704
 8829SOL     OW37948   0.500   4.559   9.032 -0.0833 -0.0573  0.3470
 8829SOL    HW137949   0.475   4.650   9.049  0.6104  0.0432  0.7832
 8829SOL    HW237950   0.415   4.525   9.061 -1.2508  1.4956 -1.2336
 8830SOL     OW37951   4.566   4.692   2.501  0.2931 -0.4472  0.1966
 8830SOL    HW137952   4.514   4.614   2.518 -0.7280  0.1547 -0.1019
 8830SOL    HW237953   4.573   0.009   2.588 -0.9447  0.2199  0.0004
 8831SOL     OW37954   1.466   0.040   1.280 -0.1125  0.4776 -0.0957
 8831SOL    HW137955   1.499   0.127   1.259  0.4729  0.3704  0.3798
 8831SOL    HW237956   1.475   0.052   1.375  2.4077 -0.4271 -0.2326
 8832SOL     OW37957   3.291   2.083   5.198  0.2577 -0.3803  0.2588
 8832SOL    HW137958   3.198   2.085   5.175 -0.0104 -1.1601  1.2725
 8832SOL    HW237959   3.295   2.040   5.283  1.1914 -0.0955  0.3649
 8833SOL     OW37960   0.223   2.876   6.597 -0.2864  0.3382 -0.3600
 8833SOL    HW137961   0.229   2.897   6.503  0.7057  0.9940 -0.1535
 8833SOL    HW237962   0.309   2.836   6.607  0.2325  1.6663  0.4939
 8834SOL     OW37963   3.849   0.348   9.835 -0.5170  0.4866  0.4289
 8834SOL    HW137964   3.936   0.317   9.859  0.8835  3.9139 -0.1756
 8834SOL    HW237965   3.841   0.430   9.884  3.3841 -0.4286  2.5974
 8835SOL     OW37966   2.107   1.150   4.556 -0.5755  0.2151 -0.1510
 8835SOL    HW137967   2.131   1.201   4.633  1.0897 -2.8750  1.3628
 8835SOL    HW237968   2.127   1.215   4.488 -1.6557 -0.0759 -0.7541
 8836SOL     OW37969   0.627   0.860   6.123  0.3905  0.3605  0.4343
 8836SOL    HW137970   0.571   0.870   6.046  2.0417 -0.3196 -0.8536
 8836SOL    HW237971   0.715   0.833   6.096 -0.2434 -0.3671 -0.9380
 8837SOL     OW37972   4.454   3.774   3.873  0.2583  0.6760 -0.4497
 8837SOL    HW137973   4.409   3.797   3.791 -0.1739  1.1349 -0.0860
 8837SOL    HW237974   4.455   3.679   3.861  1.8606  0.5341  0.8624
 8838SOL     OW37975   1.712   3.596   7.364  0.1104  0.0841  0.2705
 8838SOL    HW137976   1.804   3.591   7.339 -0.5435 -2.4381 -1.6370
 8838SOL    HW237977   1.697   3.691   7.365  2.1753  0.3905  0.8969
 8839SOL     OW37978   0.427   2.081  10.460  0.3689 -0.5361 -0.2227
 8839SOL    HW137979   0.364   2.028  10.508 -2.9781 -0.8305 -4.9977
 8839SOL    HW237980   0.481   2.124  10.526  0.4979 -0.5885 -0.2938
 8840SOL     OW37981   2.501   1.670   0.920 -0.5515 -0.4087 -0.3012
 8840SOL    HW137982   2.472   1.752   0.959  0.4397 -0.2531  0.1087
 8840SOL    HW237983   2.422   1.624   0.890  0.5800 -2.7695  0.3297
 8841SOL     OW37984   2.471   2.478  16.585 -0.0241 -0.3935  0.0153
 8841SOL    HW137985   2.434   2.546  16.641  0.7984 -0.2130  0.3371
 8841SOL    HW237986   2.399   2.417  16.599 -0.5197  0.4149  1.0302
 8842SOL     OW37987   1.455   1.676  11.663 -0.0939 -0.1386 -0.1540
 8842SOL    HW137988   1.422   1.716  11.743 -0.5028  2.5649 -1.6759
 8842SOL    HW237989   1.388   1.702  11.600 -0.8442 -1.5309  0.0592
 8843SOL     OW37990   1.533   3.704   7.797  0.3085  0.0561  0.4240
 8843SOL    HW137991   1.438   3.707   7.802  0.2422 -0.5440 -0.4833
 8843SOL    HW237992   1.541   3.620   7.751  0.1561  0.7034 -0.7757
 8844SOL     OW37993   0.212   0.504   3.860 -0.0608 -0.7957  0.9658
 8844SOL    HW137994   0.305   0.510   3.842  0.0064  2.4801  2.3669
 8844SOL    HW237995   0.182   0.419   3.830  0.8663 -0.5003 -0.8022
 8845SOL     OW37996   1.581   3.138   0.567 -0.3163  0.4464 -0.1601
 8845SOL    HW137997   1.564   3.231   0.554  1.0206  0.6025 -0.8145
 8845SOL    HW237998   1.630   3.119   0.487  0.7529  1.2546  0.3023
 8846SOL     OW37999   2.070   3.395   5.838 -0.2364  0.1371 -0.6385
 8846SOL    HW138000   2.028   3.406   5.753  0.1429  2.4493 -0.5257
 8846SOL    HW238001   1.999   3.374   5.900 -0.1211 -0.0343 -0.5673
 8847SOL     OW38002   2.519   2.251   3.977  0.4225 -0.0754  0.3042
 8847SOL    HW138003   2.503   2.232   3.884  1.3892  1.2875 -0.1454
 8847SOL    HW238004   2.502   2.168   4.022  1.6784 -0.0617  0.8085
 8848SOL     OW38005   2.022   0.435   9.081  0.1292  0.2231 -0.2240
 8848SOL    HW138006   2.108   0.409   9.050  1.3882  1.0566  2.5316
 8848SOL    HW238007   1.965   0.414   9.007 -0.4110 -1.3513  0.6264
 8849SOL     OW38008   1.918   0.196  10.624  0.4036  0.1303 -0.4318
 8849SOL    HW138009   1.842   0.137  10.628  1.2724 -0.9371  0.1022
 8849SOL    HW238010   1.939   0.213  10.716  2.4906 -0.9625 -0.7249
 8850SOL     OW38011   2.506   3.309   5.713 -0.4805  0.3657 -0.5701
 8850SOL    HW138012   2.562   3.233   5.730 -1.0922  0.2669  1.0118
 8850SOL    HW238013   2.528   3.362   5.789  1.4054 -0.6690 -0.3852
 8851SOL     OW38014   3.723   0.131   4.510 -0.4016 -0.2339  0.3702
 8851SOL    HW138015   3.691   0.062   4.568  0.3511 -0.8277  0.0813
 8851SOL    HW238016   3.753   0.194   4.575 -1.6467  1.1096 -0.3349
 8852SOL     OW38017   3.904   3.150   7.916 -1.3729 -0.2134  0.4415
 8852SOL    HW138018   3.933   3.064   7.887 -0.4300 -0.6597  2.6633
 8852SOL    HW238019   3.923   3.197   7.835 -2.2307  0.7698  0.7996
 8853SOL     OW38020   3.630   3.458  11.606 -0.1721  0.1570  0.2713
 8853SOL    HW138021   3.692   3.395  11.642  0.1102  0.9458  1.1550
 8853SOL    HW238022   3.633   3.437  11.513 -1.0511 -0.6467  0.4282
 8854SOL     OW38023   1.745   1.475   9.220  0.0036  0.0449  0.2853
 8854SOL    HW138024   1.784   1.395   9.185  1.0999  0.1067  1.3568
 8854SOL    HW238025   1.796   1.472   9.301 -0.6022  2.3811  0.7467
 8855SOL     OW38026   3.402   0.786   6.260  0.0226  0.0204  0.4341
 8855SOL    HW138027   3.345   0.744   6.324 -1.1050 -1.0808 -1.2684
 8855SOL    HW238028   3.448   0.850   6.314 -0.3312 -0.3293  1.1457
 8856SOL     OW38029   1.093   2.896  16.708  0.2190 -0.6336 -0.3431
 8856SOL    HW138030   1.000   2.914  16.700  0.4617  0.9027  0.3642
 8856SOL    HW238031   1.110   2.987  16.733  1.1944 -1.0661  0.5506
 8857SOL     OW38032   4.668   1.671   9.197  0.3685  0.0741  0.5546
 8857SOL    HW138033   0.002   1.692   9.272 -1.0506  2.2314  1.0120
 8857SOL    HW238034   4.706   1.735   9.137  2.6545 -0.3826  1.5124
 8858SOL     OW38035   3.301   1.414  15.655  0.2657 -0.3190  0.4922
 8858SOL    HW138036   3.339   1.326  15.661 -3.7340 -2.1235 -0.6705
 8858SOL    HW238037   3.222   1.386  15.608  1.1627 -0.0270 -1.1810
 8859SOL     OW38038   0.230   3.917  11.959  0.4332 -0.0147  0.1451
 8859SOL    HW138039   0.241   3.842  12.017 -0.0543 -0.4691 -0.3445
 8859SOL    HW238040   0.282   3.986  12.000  0.7282  0.5345 -1.1507
 8860SOL     OW38041   0.284   2.942   9.152  0.0343  0.9654 -0.0928
 8860SOL    HW138042   0.191   2.922   9.163  0.4004 -0.6049  0.0515
 8860SOL    HW238043   0.291   3.036   9.135 -0.3384  0.7011 -1.7477
 8861SOL     OW38044   3.684   1.072   2.226  0.3579 -0.4976  0.2056
 8861SOL    HW138045   3.675   1.162   2.196  1.0637 -0.0334  1.3974
 8861SOL    HW238046   3.742   1.038   2.157  0.7766  0.7649 -0.0546
 8862SOL     OW38047   1.936   0.677   8.686  0.4557 -0.1011  0.5667
 8862SOL    HW138048   1.978   0.607   8.736 -1.4252 -1.4382  0.2813
 8862SOL    HW238049   2.010   0.708   8.634  0.1081  1.2748  0.9070
 8863SOL     OW38050   3.013   0.551  16.753 -0.4811  0.2221 -0.1336
 8863SOL    HW138051   3.045   0.594  16.674  0.0573  0.9520  0.4781
 8863SOL    HW238052   3.082   0.492  16.782 -1.8565 -1.7902 -0.9267
 8864SOL     OW38053   0.636   3.720   8.053 -0.0636  0.0810  0.2897
 8864SOL    HW138054   0.713   3.776   8.040  0.9878 -1.7760 -1.4702
 8864SOL    HW238055   0.577   3.759   7.989 -0.9799 -0.0752  1.0412
 8865SOL     OW38056   2.290   3.094   4.173 -0.5439  0.5361  0.0600
 8865SOL    HW138057   2.264   3.045   4.095 -4.4971  0.8574  1.1718
 8865SOL    HW238058   2.317   3.017   4.224 -1.3616  0.0536 -0.2310
 8866SOL     OW38059   4.503   0.931   3.613  0.1254  1.1274 -0.3817
 8866SOL    HW138060   4.438   0.862   3.621 -0.2321  1.5659  0.5106
 8866SOL    HW238061   4.465   0.999   3.669 -1.4468  1.9936 -2.4864
 8867SOL     OW38062   2.377   1.750   2.243 -0.8453  0.3813  0.7217
 8867SOL    HW138063   2.369   1.845   2.238  0.0341  0.4287  0.2480
 8867SOL    HW238064   2.284   1.728   2.233 -1.2366  1.7584  1.3284
 8868SOL     OW38065   0.553   2.269  13.483  0.5158  0.4766  0.1140
 8868SOL    HW138066   0.562   2.324  13.560 -1.7703  0.8877  0.0678
 8868SOL    HW238067   0.634   2.217  13.475  0.6929  0.9183 -0.9992
 8869SOL     OW38068   3.498   0.750  16.117 -0.0566 -0.2175  0.0584
 8869SOL    HW138069   3.560   0.757  16.190  0.0919  0.4266 -0.1291
 8869SOL    HW238070   3.426   0.803  16.151  0.0880 -1.1155  1.7728
 8870SOL     OW38071   1.361   1.174   9.278  0.0690 -0.3369 -0.2762
 8870SOL    HW138072   1.374   1.251   9.334  2.1653 -1.3249  0.6087
 8870SOL    HW238073   1.270   1.147   9.290 -0.4613  1.8778  0.7255
 8871SOL     OW38074   2.263   1.729   6.703 -0.2758  0.2022  0.0177
 8871SOL    HW138075   2.259   1.757   6.612  0.1945  0.9021  0.2228
 8871SOL    HW238076   2.307   1.802   6.745 -0.9836  1.3426 -1.2426
 8872SOL     OW38077   0.350   0.008  17.413 -0.0834  0.5579 -0.3161
 8872SOL    HW138078   0.321   0.020  17.323  2.8280  0.1412 -1.2912
 8872SOL    HW238079   0.269   4.696  17.452  0.3223  1.1714  1.0600
 8873SOL     OW38080   3.938   3.907   8.301  0.0612 -0.3364 -0.8164
 8873SOL    HW138081   3.924   4.001   8.289  0.6388 -0.0886  0.4167
 8873SOL    HW238082   4.031   3.907   8.323  0.3431 -0.9160 -2.0034
 8874SOL     OW38083   1.531   4.083  14.684 -0.2899  0.0137 -0.0032
 8874SOL    HW138084   1.546   4.162  14.735  2.3263  0.6509 -1.7570
 8874SOL    HW238085   1.478   4.027  14.742 -2.0969  0.9632 -0.7384
 8875SOL     OW38086   2.352   0.773   3.158 -0.5113  0.3866  0.2697
 8875SOL    HW138087   2.292   0.801   3.089 -1.2934 -0.9888  0.3951
 8875SOL    HW238088   2.437   0.801   3.122  0.3335 -0.5501  1.5281
 8876SOL     OW38089   0.683   1.704  10.903  0.0128  0.3800  0.2567
 8876SOL    HW138090   0.662   1.763  10.976 -1.7970  1.2441 -0.9693
 8876SOL    HW238091   0.778   1.702  10.914  0.3534  0.5504 -2.5344
 8877SOL     OW38092   3.343   3.002   5.168 -0.4853  0.1850 -0.0400
 8877SOL    HW138093   3.303   2.965   5.090 -1.3218  1.3770 -0.1723
 8877SOL    HW238094   3.270   3.000   5.230 -0.1246  0.6156  0.4063
 8878SOL     OW38095   3.207   4.706   6.574  0.1205  0.2675 -0.7350
 8878SOL    HW138096   3.220   4.684   6.667 -1.9926 -0.6541 -0.6798
 8878SOL    HW238097   3.288   0.030   6.551  0.3604  0.9864  1.5329
 8879SOL     OW38098   1.621   4.321   8.470 -0.2740  0.5645 -0.0681
 8879SOL    HW138099   1.660   4.407   8.455 -1.5884  1.2614  0.5114
 8879SOL    HW238100   1.554   4.342   8.535 -1.0262  2.6879 -1.4999
 8880SOL     OW38101   0.826   4.606   8.096 -0.0563 -0.1146  0.1203
 8880SOL    HW138102   0.765   4.637   8.029 -0.0432 -0.4529 -0.0510
 8880SOL    HW238103   0.764   4.567   8.157  0.6016  0.2836  1.0515
 8881SOL     OW38104   2.417   3.738   2.253  0.1613 -0.2029 -0.0863
 8881SOL    HW138105   2.399   3.788   2.333  0.8565  0.3555 -0.2794
 8881SOL    HW238106   2.505   3.704   2.266 -0.1257 -1.1898 -0.7518
 8882SOL     OW38107   2.523   4.561   4.775 -0.0541 -0.3611  0.2574
 8882SOL    HW138108   2.477   4.644   4.767  2.6974  1.1149 -0.5643
 8882SOL    HW238109   2.453   4.503   4.805 -1.1181  0.3009 -0.9504
 8883SOL     OW38110   1.591   2.741  16.830  0.1069  0.1493 -0.4654
 8883SOL    HW138111   1.556   2.652  16.841  1.6707 -0.4792 -0.6850
 8883SOL    HW238112   1.516   2.789  16.867 -0.3445 -1.8000  1.1753
 8884SOL     OW38113   4.235   2.411   3.014 -0.6200 -0.3056 -0.1779
 8884SOL    HW138114   4.158   2.388   3.067 -1.5700  1.2138 -0.9268
 8884SOL    HW238115   4.283   2.471   3.071  1.9315 -1.6950 -0.8363
 8885SOL     OW38116   4.444   1.619   3.021 -0.2819  0.1452  0.4883
 8885SOL    HW138117   4.444   1.715   3.015 -1.5302  0.0065 -1.9533
 8885SOL    HW238118   4.383   1.613   2.947  0.9900 -1.3803 -0.4553
 8886SOL     OW38119   3.584   3.018   6.416  0.4516 -0.3112 -0.2285
 8886SOL    HW138120   3.520   2.947   6.414 -2.0252  1.9119 -1.4355
 8886SOL    HW238121   3.533   3.075   6.474  1.4321  1.3561 -0.9953
 8887SOL     OW38122   1.746   0.859   3.798  0.3331  0.3132  0.2742
 8887SOL    HW138123   1.826   0.820   3.832  1.5473  1.9139 -0.7549
 8887SOL    HW238124   1.770   0.888   3.710  0.4240  2.0285  0.8583
 8888SOL     OW38125   2.767   1.545   3.555 -0.2737  0.2791  0.1051
 8888SOL    HW138126   2.689   1.592   3.528 -0.3905  0.5478  0.9304
 8888SOL    HW238127   2.738   1.455   3.537 -1.9031  0.5781  1.2655
 8889SOL     OW38128   3.424   1.851   5.748 -0.5804 -0.0383 -0.2869
 8889SOL    HW138129   3.352   1.904   5.782  0.0363  2.3951 -2.7457
 8889SOL    HW238130   3.485   1.913   5.707 -0.4104 -0.1153 -0.1485
 8890SOL     OW38131   3.540   2.171   8.975  0.0630 -0.4902 -0.3074
 8890SOL    HW138132   3.584   2.101   9.023  0.4889 -0.3425 -0.4857
 8890SOL    HW238133   3.607   2.234   8.949 -0.3572  0.0546 -0.0848
 8891SOL     OW38134   2.064   0.434   8.728 -0.4060  0.1573 -0.1412
 8891SOL    HW138135   2.122   0.378   8.780 -2.6229 -1.2469  0.8119
 8891SOL    HW238136   2.119   0.472   8.659 -2.3139 -0.2285 -1.8984
 8892SOL     OW38137   4.143   2.836   2.568 -0.3897 -0.3093  0.1561
 8892SOL    HW138138   4.145   2.930   2.584 -2.7243 -0.2538  0.1684
 8892SOL    HW238139   4.160   2.810   2.658 -0.7433  2.7310  1.1098
 8893SOL     OW38140   0.564   3.157   2.190 -0.0834  0.1493 -0.9801
 8893SOL    HW138141   0.595   3.075   2.228 -2.3856 -0.9059 -1.4197
 8893SOL    HW238142   0.495   3.134   2.127  1.7424 -2.3362 -2.0900
 8894SOL     OW38143   2.617   1.245   0.859 -0.1303  1.0533 -0.2193
 8894SOL    HW138144   2.700   1.263   0.815 -0.4504  2.9107 -0.0564
 8894SOL    HW238145   2.638   1.279   0.946  0.9003  0.1371 -0.1070
 8895SOL     OW38146   0.792   1.969   2.082 -0.2793  0.3611 -0.3928
 8895SOL    HW138147   0.804   1.920   2.001 -1.4090  0.4798 -0.6334
 8895SOL    HW238148   0.706   1.939   2.110 -1.7396  2.8033 -2.2836
 8896SOL     OW38149   2.968   3.038   2.211  0.1892 -0.0654 -0.1000
 8896SOL    HW138150   3.043   3.080   2.168  0.1230 -0.1689 -0.3201
 8896SOL    HW238151   3.002   2.997   2.290  1.1293  3.1347  1.1625
 8897SOL     OW38152   1.293   4.025   2.847  0.2500 -0.0571 -0.0645
 8897SOL    HW138153   1.369   4.006   2.791  1.8134  0.9926  1.6723
 8897SOL    HW238154   1.244   4.079   2.786 -0.0263 -0.4742 -0.2071
 8898SOL     OW38155   4.054   0.208   8.173  0.1327 -0.7126 -0.0508
 8898SOL    HW138156   4.097   0.157   8.241  2.1523  0.4765 -0.4622
 8898SOL    HW238157   4.061   0.292   8.218  2.6462 -1.3360  0.7157
 8899SOL     OW38158   0.034   2.403  16.763 -0.4113 -0.2336 -0.0178
 8899SOL    HW138159   0.051   2.475  16.824 -3.7976 -0.4046  1.1347
 8899SOL    HW238160   0.104   2.340  16.782 -1.1901 -0.7085  1.2534
 8900SOL     OW38161   0.167   0.684   5.401  0.1236 -0.8911  0.6126
 8900SOL    HW138162   0.246   0.726   5.434  0.7618 -1.6090 -0.0068
 8900SOL    HW238163   0.146   0.627   5.475  2.5058  0.8656  2.6310
 8901SOL     OW38164   1.772   0.126   7.730 -0.0398 -0.2466 -0.5936
 8901SOL    HW138165   1.809   0.202   7.684 -0.5101  1.3556  1.6632
 8901SOL    HW238166   1.817   0.053   7.687  1.1240 -0.4339  0.9499
 8902SOL     OW38167   3.356   4.073   3.648 -0.2827  0.2096  0.2379
 8902SOL    HW138168   3.310   3.993   3.625  0.2878 -0.6745  2.1415
 8902SOL    HW238169   3.417   4.037   3.713  0.4016 -0.8373 -0.9890
 8903SOL     OW38170   0.892   1.016  11.707 -0.0894  0.3908 -0.6371
 8903SOL    HW138171   0.818   1.014  11.767  1.1064  2.1226  0.8902
 8903SOL    HW238172   0.842   1.010  11.626 -1.3972  0.6718  0.1431
 8904SOL     OW38173   4.121   1.713   4.743 -0.7450  0.2706  0.1531
 8904SOL    HW138174   4.180   1.785   4.721 -1.2254  1.1190  1.6400
 8904SOL    HW238175   4.089   1.683   4.658 -0.7363  1.5754 -0.3137
 8905SOL     OW38176   4.098   2.823   8.080 -0.0954 -0.3052 -0.4482
 8905SOL    HW138177   4.158   2.748   8.070 -1.1010 -0.9595 -1.5867
 8905SOL    HW238178   4.147   2.881   8.022  0.0401  0.2207  0.1997
 8906SOL     OW38179   4.016   4.181  13.063  0.2525  0.3204  0.3289
 8906SOL    HW138180   4.109   4.161  13.060 -0.1263 -1.3296 -0.1777
 8906SOL    HW238181   4.005   4.205  12.971 -1.1483  0.4165  0.5168
 8907SOL     OW38182   3.074   1.533  13.263  0.0946 -0.3156 -0.4759
 8907SOL    HW138183   3.111   1.507  13.178  2.6385  1.3372  0.1431
 8907SOL    HW238184   2.980   1.546  13.249 -0.4563  0.3344  3.7275
 8908SOL     OW38185   1.859   3.845  14.024 -0.6068 -0.6365 -0.2348
 8908SOL    HW138186   1.839   3.876  14.113  0.5183 -2.3608  0.6071
 8908SOL    HW238187   1.944   3.804  14.041  1.0432  1.8613 -2.3324
 8909SOL     OW38188   3.607   4.684   5.176 -0.3018 -0.0175  0.1904
 8909SOL    HW138189   3.666   4.691   5.101 -1.4157 -0.3208 -0.7119
 8909SOL    HW238190   3.636   4.614   5.235  2.5825  1.1761  0.1598
 8910SOL     OW38191   2.823   1.597   5.583  0.2134  0.3190  0.2009
 8910SOL    HW138192   2.831   1.536   5.656 -1.3337 -0.4664 -0.2810
 8910SOL    HW238193   2.748   1.557   5.538 -0.2783 -0.3381  1.6155
 8911SOL     OW38194   3.220   1.073   5.068 -0.4139 -0.3331  0.4870
 8911SOL    HW138195   3.268   1.125   5.004 -0.2913  0.1876  1.0076
 8911SOL    HW238196   3.255   0.984   5.055  0.2074  0.2897 -2.0396
 8912SOL     OW38197   4.283   1.195  13.590  0.3028 -0.3739  0.2081
 8912SOL    HW138198   4.372   1.221  13.564  0.4320 -0.4124  0.6146
 8912SOL    HW238199   4.254   1.165  13.504 -0.1037  1.2194 -0.2181
 8913SOL     OW38200   2.746   2.564   3.447  0.0946  0.6695  0.2054
 8913SOL    HW138201   2.698   2.639   3.411  0.2160  1.0020  0.7288
 8913SOL    HW238202   2.819   2.573   3.385 -0.9945  1.1428 -0.9931
 8914SOL     OW38203   1.781   2.898   7.717 -0.0456  0.1237  0.1429
 8914SOL    HW138204   1.825   2.963   7.772  0.3896 -1.4273  1.6291
 8914SOL    HW238205   1.687   2.909   7.730 -0.3943 -2.2784 -0.2505
 8915SOL     OW38206   1.889   3.597   1.840 -0.2973 -0.3882  0.5789
 8915SOL    HW138207   1.896   3.512   1.884  1.2398  0.2254  1.5440
 8915SOL    HW238208   1.889   3.654   1.917 -0.7495 -2.1485  1.8905
 8916SOL     OW38209   4.000   0.398   8.440 -0.0677 -0.4810  0.4295
 8916SOL    HW138210   4.040   0.380   8.525  0.3839 -2.1042 -0.1255
 8916SOL    HW238211   4.074   0.441   8.399  0.8296 -1.7833  0.6867
 8917SOL     OW38212   4.378   0.412   8.525  0.0033 -0.3769 -0.4260
 8917SOL    HW138213   4.420   0.384   8.443 -0.3872 -1.5978 -0.2153
 8917SOL    HW238214   4.451   0.441   8.579  0.9851 -0.9586 -1.4288
 8918SOL     OW38215   0.549   2.985   8.090  0.3415 -0.1843 -0.0875
 8918SOL    HW138216   0.624   3.041   8.073 -0.3428  0.3964 -1.2053
 8918SOL    HW238217   0.474   3.008   8.035  1.1854  0.2925 -1.0359
 8919SOL     OW38218   3.927   0.712   6.688 -0.2069  0.3440 -0.0282
 8919SOL    HW138219   3.955   0.693   6.598  0.4877  1.4675 -0.0506
 8919SOL    HW238220   3.995   0.692   6.751 -0.6287 -0.9200  0.0237
 8920SOL     OW38221   3.562   3.176   8.631 -0.1614 -0.0753  0.0080
 8920SOL    HW138222   3.491   3.112   8.631 -0.1721 -0.0643 -0.6248
 8920SOL    HW238223   3.580   3.170   8.537  2.8321  1.2773  0.4976
 8921SOL     OW38224   0.977   2.157   9.270  0.3069  0.0257 -0.2077
 8921SOL    HW138225   1.001   2.196   9.186 -0.4309 -0.0268 -0.4477
 8921SOL    HW238226   1.057   2.115   9.302  1.4179  1.6060 -0.9190
 8922SOL     OW38227   3.476   2.296   3.836 -0.2999 -0.7149  0.2558
 8922SOL    HW138228   3.566   2.269   3.814 -0.3302 -2.1233  1.8087
 8922SOL    HW238229   3.419   2.219   3.837 -1.6648  0.2661 -2.0683
 8923SOL     OW38230   0.362   3.920   6.927 -0.1419  0.1805  0.2560
 8923SOL    HW138231   0.297   3.873   6.980  0.0967 -0.0371  0.3523
 8923SOL    HW238232   0.447   3.878   6.930 -0.3739 -0.3467 -0.5450
 8924SOL     OW38233   1.690   1.808   8.540  0.0505 -0.0729  0.4016
 8924SOL    HW138234   1.623   1.832   8.604 -0.1326  2.0870 -0.6047
 8924SOL    HW238235   1.694   1.712   8.543  0.6360 -0.0415  0.5884
 8925SOL     OW38236   2.919   3.515   3.138 -0.0964  0.5051 -0.2684
 8925SOL    HW138237   2.876   3.433   3.112 -0.5264 -0.1345  2.4064
 8925SOL    HW238238   2.927   3.559   3.054 -0.6499 -0.7368 -0.9688
 8926SOL     OW38239   1.761   3.163   9.044  0.1750  0.1522 -0.1048
 8926SOL    HW138240   1.790   3.162   9.135  1.2491 -3.1439 -0.4860
 8926SOL    HW238241   1.794   3.077   9.018  0.8117 -0.1272  1.6685
 8927SOL     OW38242   2.193   0.099   5.863 -0.0954  0.1979  0.2469
 8927SOL    HW138243   2.266   0.161   5.865 -1.5253  1.8766  1.2786
 8927SOL    HW238244   2.228   0.029   5.808  0.7873  1.0518 -0.2872
 8928SOL     OW38245   2.951   4.192   6.782  0.0200 -0.3505  0.1679
 8928SOL    HW138246   3.001   4.166   6.859  2.2440  0.2393 -1.0670
 8928SOL    HW238247   2.860   4.166   6.799  0.3785 -1.8066 -0.1106
 8929SOL     OW38248   3.070   3.297   2.452  0.1101 -0.2277 -0.1625
 8929SOL    HW138249   3.101   3.307   2.363  0.3007 -1.0413 -0.1848
 8929SOL    HW238250   3.066   3.202   2.461 -2.5381 -0.1415 -0.5168
 8930SOL     OW38251   0.203   4.593   6.989  0.1720  0.1697 -0.2199
 8930SOL    HW138252   0.136   4.657   6.965  3.6968  3.4666 -1.2810
 8930SOL    HW238253   0.255   4.576   6.910  2.1300  0.5835  0.9712
 8931SOL     OW38254   3.632   4.088  16.768  0.4374  0.1227 -0.4155
 8931SOL    HW138255   3.538   4.103  16.768  0.2438 -1.1297 -0.8682
 8931SOL    HW238256   3.660   4.165  16.719  0.9738 -0.4408 -1.0104
 8932SOL     OW38257   1.064   3.998   7.903  0.0223 -0.0095  0.2654
 8932SOL    HW138258   1.122   3.963   7.971 -0.4557 -1.1264  0.0917
 8932SOL    HW238259   1.102   4.082   7.879  0.8557 -0.5518 -0.2929
 8933SOL     OW38260   3.316   3.416  16.507  0.3406  0.0123 -0.4812
 8933SOL    HW138261   3.326   3.505  16.475  1.3601  0.4723  1.1350
 8933SOL    HW238262   3.316   3.362  16.428 -0.6219 -1.3156  0.4010
 8934SOL     OW38263   1.401   0.006  16.506 -0.1421 -0.5959 -0.4358
 8934SOL    HW138264   1.411   4.668  16.432  0.1752 -1.9358  0.6841
 8934SOL    HW238265   1.307   0.022  16.501  0.2409  1.4391 -1.1944
 8935SOL     OW38266   3.408   0.949   5.718 -0.5112 -0.0718 -0.2628
 8935SOL    HW138267   3.504   0.944   5.721 -0.4789  0.8076  0.3086
 8935SOL    HW238268   3.389   0.885   5.788  1.0772  0.6370  0.8194
 8936SOL     OW38269   4.334   0.705   3.253  0.0102 -0.2177 -0.2809
 8936SOL    HW138270   4.348   0.710   3.158 -2.9383 -0.6980 -0.7444
 8936SOL    HW238271   4.328   0.798   3.276  0.4048  0.0347 -1.1837
 8937SOL     OW38272   0.749   4.320   1.155  0.1805 -0.0371  0.1934
 8937SOL    HW138273   0.821   4.258   1.168 -0.3955 -0.6373  0.5628
 8937SOL    HW238274   0.694   4.302   1.232 -0.9242  0.8074 -0.3997
 8938SOL     OW38275   1.222   3.188   8.341  0.0972  0.6342 -0.2898
 8938SOL    HW138276   1.237   3.157   8.431  0.9743  1.0642 -0.2870
 8938SOL    HW238277   1.293   3.148   8.291  0.7275  1.5156 -0.0923
 8939SOL     OW38278   1.650   1.668   9.727  0.4331  0.6919 -0.1510
 8939SOL    HW138279   1.647   1.613   9.648 -1.7242  1.0082 -0.2953
 8939SOL    HW238280   1.646   1.598   9.792 -0.9922  0.2494 -0.7233
 8940SOL     OW38281   1.550   1.113  15.813 -0.8292 -0.3698  0.2570
 8940SOL    HW138282   1.619   1.114  15.747 -0.7180  2.6845  0.3995
 8940SOL    HW238283   1.495   1.036  15.799 -1.2733 -0.5226  2.7895
 8941SOL     OW38284   0.862   0.144  10.573 -0.6733 -0.6093  0.0464
 8941SOL    HW138285   0.795   0.189  10.625  1.0212 -0.8332  2.4465
 8941SOL    HW238286   0.815   0.070  10.534 -0.4015 -1.3505  1.1192
 8942SOL     OW38287   2.551   3.185   7.525 -0.5291 -0.0080  0.2214
 8942SOL    HW138288   2.523   3.187   7.616 -0.2023  0.7522  0.3085
 8942SOL    HW238289   2.643   3.198   7.545 -0.2873  0.4416 -1.1875
 8943SOL     OW38290   1.089   4.169   3.841  0.2257 -0.4809  1.1948
 8943SOL    HW138291   1.044   4.238   3.792  1.6728 -0.2383  0.2099
 8943SOL    HW238292   1.080   4.090   3.787 -0.8432  0.6505 -0.2690
 8944SOL     OW38293   2.537   2.508   8.319  0.3562  0.5001  0.1683
 8944SOL    HW138294   2.516   2.518   8.411  0.1037  2.0658 -0.0529
 8944SOL    HW238295   2.458   2.477   8.274 -0.7212  2.5470  0.6817
 8945SOL     OW38296   1.781   3.261   8.450 -0.1970  0.7741  0.0552
 8945SOL    HW138297   1.710   3.299   8.502 -0.5412 -1.3299  1.1262
 8945SOL    HW238298   1.811   3.343   8.412 -2.7190  1.4855 -0.4126
 8946SOL     OW38299   4.080   4.334   6.474 -0.0025 -0.1336 -0.0090
 8946SOL    HW138300   4.093   4.429   6.484  1.0376 -0.5290  2.5466
 8946SOL    HW238301   4.087   4.307   6.566 -0.5527  0.2535  0.1490
 8947SOL     OW38302   0.868   0.363   8.156  0.1483 -0.2469 -0.8811
 8947SOL    HW138303   0.963   0.378   8.150  0.3673 -1.2667  0.1725
 8947SOL    HW238304   0.865   0.355   8.251  0.5181 -1.0749 -0.9292
 8948SOL     OW38305   0.285   3.658  13.505  0.3627  0.1663 -0.1713
 8948SOL    HW138306   0.207   3.693  13.463 -0.1305  0.4143  0.9355
 8948SOL    HW238307   0.253   3.614  13.584 -0.6559  0.1786 -0.5776
 8949SOL     OW38308   0.123   1.457  14.092 -0.8884  0.1619 -0.3757
 8949SOL    HW138309   0.081   1.498  14.168  0.3188  0.2300  0.2539
 8949SOL    HW238310   0.199   1.513  14.072  0.4845 -1.0534  1.4480
 8950SOL     OW38311   2.188   1.341   4.750  0.4285 -0.1514  0.2506
 8950SOL    HW138312   2.225   1.429   4.751  1.3871 -0.5503 -1.7796
 8950SOL    HW238313   2.150   1.323   4.837 -2.0260  2.3345 -0.3089
 8951SOL     OW38314   4.240   2.487  17.216  0.0217 -0.2300  0.2732
 8951SOL    HW138315   4.246   2.582  17.225  0.3591 -0.5226  3.0777
 8951SOL    HW238316   4.150   2.466  17.244 -0.3102  1.0940  0.2137
 8952SOL     OW38317   0.907   3.420   9.398  0.3264  0.2063  0.4252
 8952SOL    HW138318   0.925   3.484   9.329  0.3991 -0.6305 -0.3324
 8952SOL    HW238319   0.887   3.479   9.471 -2.3918 -0.8319  0.5456
 8953SOL     OW38320   0.796   3.227  15.166 -0.2319  0.6694 -0.3019
 8953SOL    HW138321   0.799   3.303  15.108  2.1439  0.3900 -0.5588
 8953SOL    HW238322   0.705   3.199  15.175 -0.4580  1.9515  1.3100
 8954SOL     OW38323   3.521   0.271   9.913  0.1999 -0.2017  0.2025
 8954SOL    HW138324   3.542   0.194   9.965  0.8036 -1.9938 -2.6949
 8954SOL    HW238325   3.607   0.295   9.879 -0.0788  1.6795  0.7999
 8955SOL     OW38326   1.724   4.357   4.198 -0.2171  0.5486 -0.3042
 8955SOL    HW138327   1.692   4.282   4.148  1.0509 -0.3175  0.1929
 8955SOL    HW238328   1.790   4.310   4.249 -0.3292 -0.2072 -0.8522
 8956SOL     OW38329   0.066   1.187   1.817 -0.3849  0.5212 -0.4199
 8956SOL    HW138330   0.135   1.165   1.880 -1.8869 -0.2866  0.9266
 8956SOL    HW238331   0.062   1.105   1.768  2.5883 -1.3151  2.4016
 8957SOL     OW38332   0.792   1.820   2.347 -0.6582 -0.4809  0.0870
 8957SOL    HW138333   0.802   1.725   2.357  0.4809 -0.1303  2.2147
 8957SOL    HW238334   0.708   1.837   2.304  0.2300 -0.9130 -1.8468
 8958SOL     OW38335   0.973   4.585   4.916  0.1733 -0.6447 -0.1464
 8958SOL    HW138336   1.012   4.670   4.899 -1.9945  0.8172  2.2220
 8958SOL    HW238337   0.885   4.604   4.886 -0.2347 -1.7892  0.2975
 8959SOL     OW38338   2.036   2.995  10.625  0.2467  0.4108 -0.0053
 8959SOL    HW138339   2.081   2.945  10.693 -2.3876 -0.2447  1.2597
 8959SOL    HW238340   1.947   3.007  10.659  0.5325  0.4673  0.7307
 8960SOL     OW38341   3.985   3.214  10.721 -0.0201  0.0072  0.2453
 8960SOL    HW138342   3.954   3.299  10.690  1.5756  0.6624  0.4512
 8960SOL    HW238343   3.903   3.166  10.733 -1.4754  1.3584 -4.3365
 8961SOL     OW38344   3.685   4.431  13.868  0.4258  0.0004 -0.0029
 8961SOL    HW138345   3.669   4.344  13.833 -1.3609  0.6433 -0.7931
 8961SOL    HW238346   3.622   4.481  13.816  0.5976 -1.2544 -1.4161
 8962SOL     OW38347   2.855   0.689   1.513 -0.3033  0.2063 -0.1447
 8962SOL    HW138348   2.876   0.756   1.577  0.7817  1.2250 -1.5696
 8962SOL    HW238349   2.761   0.672   1.519  0.0152 -1.0356  1.2857
 8963SOL     OW38350   0.022   4.618   6.093 -0.0752 -0.4865  0.2162
 8963SOL    HW138351   4.684   4.670   6.040  1.4681 -0.3187 -1.3472
 8963SOL    HW238352   0.029   4.686   6.160 -0.8524  2.1789 -2.4211
 8964SOL     OW38353   1.930   2.080   6.039  0.3447  0.3911 -0.4359
 8964SOL    HW138354   1.960   2.159   5.994  0.8381  0.6766  0.4033
 8964SOL    HW238355   2.004   2.028   6.006 -0.4638 -0.8720 -0.2674
 8965SOL     OW38356   2.485   2.631   2.333 -0.2766  0.3247  0.2963
 8965SOL    HW138357   2.472   2.620   2.239 -0.1087  0.4309  0.2622
 8965SOL    HW238358   2.580   2.636   2.323 -0.2638  0.2981  0.4047
 8966SOL     OW38359   0.401   1.019   3.829 -0.3185 -0.5564 -0.6013
 8966SOL    HW138360   0.395   1.052   3.919 -0.6459  2.0796 -1.6072
 8966SOL    HW238361   0.481   1.065   3.804 -0.1189  0.1660  1.3658
 8967SOL     OW38362   0.552   0.461  14.991 -0.1199  0.1114  0.0788
 8967SOL    HW138363   0.645   0.475  14.973 -0.5695  1.4145 -1.2433
 8967SOL    HW238364   0.548   0.398  15.062  1.1906  1.8180  1.6652
 8968SOL     OW38365   4.143   0.773   4.016  0.3211 -0.3952  0.7696
 8968SOL    HW138366   4.118   0.827   3.941  1.4992 -0.2520  0.4824
 8968SOL    HW238367   4.161   0.684   3.988  0.3227  0.6672 -2.5803
 8969SOL     OW38368   0.636   1.346   7.349 -0.2343  0.0328  0.2197
 8969SOL    HW138369   0.556   1.364   7.399 -0.8461 -3.1104  0.3155
 8969SOL    HW238370   0.675   1.433   7.342  1.0362 -0.7369 -2.1685
 8970SOL     OW38371   3.676   0.251  17.583 -0.3059  0.3189 -0.4767
 8970SOL    HW138372   3.600   0.212  17.627 -0.6404  0.6689 -0.7441
 8970SOL    HW238373   3.749   0.199  17.618  1.7225  3.0542 -0.6587
 8971SOL     OW38374   3.661   1.530   7.894  0.1503  0.0098 -0.6478
 8971SOL    HW138375   3.601   1.480   7.949 -1.7695  2.2514 -0.7060
 8971SOL    HW238376   3.654   1.608   7.949 -1.5288 -1.1079  0.7460
 8972SOL     OW38377   3.276   4.318   4.172 -0.3906  0.1915  0.4515
 8972SOL    HW138378   3.308   4.240   4.218  1.5087  1.3207  1.0892
 8972SOL    HW238379   3.358   4.359   4.144 -1.4686  2.8836  1.2555
 8973SOL     OW38380   0.747   1.587   3.529  0.1619 -0.2479 -0.0382
 8973SOL    HW138381   0.693   1.652   3.574 -0.7465 -1.5683  0.7755
 8973SOL    HW238382   0.835   1.608   3.560  0.3753  0.3597 -1.0559
 8974SOL     OW38383   0.660   4.524   0.401  0.0786  0.1775  0.2086
 8974SOL    HW138384   0.628   4.591   0.341  0.0652 -0.3715 -0.3951
 8974SOL    HW238385   0.749   4.557   0.406 -0.4471  1.5692  0.4601
 8975SOL     OW38386   2.291   1.156  13.037  0.3441  0.5906 -0.0008
 8975SOL    HW138387   2.379   1.120  13.021 -0.5271 -1.4581 -0.1920
 8975SOL    HW238388   2.310   1.249  13.050  2.1201 -0.0818  2.3506
 8976SOL     OW38389   3.450   0.355   3.804  0.1078  0.4710  0.2118
 8976SOL    HW138390   3.421   0.297   3.874 -0.3223  0.4654  0.0271
 8976SOL    HW238391   3.504   0.419   3.852  2.8631 -2.1126  0.5455
 8977SOL     OW38392   3.231   2.412   6.345  0.5526  0.2694  1.2396
 8977SOL    HW138393   3.159   2.458   6.302  1.0739  0.5502  0.6756
 8977SOL    HW238394   3.190   2.331   6.376 -0.4940  0.7859  1.2303
 8978SOL     OW38395   1.881   3.302   6.020 -0.1588  0.1924  0.4586
 8978SOL    HW138396   1.827   3.366   6.067 -3.0082 -2.0533  0.2293
 8978SOL    HW238397   1.930   3.272   6.096 -0.4485  2.1797  1.4370
 8979SOL     OW38398   1.805   1.050   2.182 -0.1811 -0.7443  0.0623
 8979SOL    HW138399   1.893   1.083   2.203 -0.3172 -0.5959  0.3890
 8979SOL    HW238400   1.778   1.036   2.272 -0.6676 -0.7762 -0.0862
 8980SOL     OW38401   3.523   0.891   1.624 -0.2114 -0.3244  0.1269
 8980SOL    HW138402   3.555   0.816   1.574 -0.7074 -0.8782  0.6467
 8980SOL    HW238403   3.436   0.916   1.592 -0.5869  1.0794  2.2339
 8981SOL     OW38404   0.615   3.190  16.582 -0.1803  0.6089 -0.1580
 8981SOL    HW138405   0.693   3.215  16.532  0.9280 -2.2155  0.1844
 8981SOL    HW238406   0.571   3.134  16.519 -1.4625  1.1351  0.2653
 8982SOL     OW38407   0.645   2.196  16.490  1.1091  0.3010 -0.1076
 8982SOL    HW138408   0.645   2.198  16.586 -0.7534 -2.1787 -0.0666
 8982SOL    HW238409   0.720   2.139  16.473  1.0273 -0.0312  0.6511
 8983SOL     OW38410   3.246   4.460   0.273 -0.0197 -0.3214 -0.3305
 8983SOL    HW138411   3.160   4.431   0.242  0.0391 -1.9173  1.0058
 8983SOL    HW238412   3.293   4.380   0.252 -0.8089 -1.3043  1.6981
 8984SOL     OW38413   0.568   1.116   6.975 -0.1281 -0.7488 -0.0520
 8984SOL    HW138414   0.541   1.025   6.984  1.4600 -1.2380 -0.2153
 8984SOL    HW238415   0.486   1.165   6.988  0.0760 -0.2341 -0.7066
 8985SOL     OW38416   3.270   2.189   3.265 -0.9641 -0.0503 -0.3491
 8985SOL    HW138417   3.293   2.280   3.245  2.4598 -1.4959 -2.9333
 8985SOL    HW238418   3.363   2.169   3.250 -0.8767  0.3906 -0.3986
 8986SOL     OW38419   1.970   2.122  10.266  0.4546  0.3183 -0.6324
 8986SOL    HW138420   1.970   2.186  10.195 -1.7988  1.1648  0.1139
 8986SOL    HW238421   1.993   2.043  10.217 -2.0267 -1.7205  1.4663
 8987SOL     OW38422   0.397   0.003  16.924 -0.8102 -0.0141  0.2112
 8987SOL    HW138423   0.489   0.024  16.907 -0.4272 -2.0774 -0.1907
 8987SOL    HW238424   0.391   0.040  17.012  1.2446 -0.6184  0.6071
 8988SOL     OW38425   1.270   1.658   8.951 -0.8106  0.3805 -0.2065
 8988SOL    HW138426   1.216   1.587   8.985 -0.3728  0.8860  1.5634
 8988SOL    HW238427   1.333   1.610   8.898 -0.5112  1.5970 -0.9470
 8989SOL     OW38428   3.946   3.785   3.090  0.2910  0.0564 -0.4945
 8989SOL    HW138429   4.006   3.715   3.114 -0.9051  0.1843  2.9582
 8989SOL    HW238430   3.866   3.772   3.142  1.4545 -2.1460  0.7217
 8990SOL     OW38431   2.582   3.825  12.529 -0.0043 -0.2811  0.0446
 8990SOL    HW138432   2.604   3.732  12.522 -0.2297 -0.1917 -1.6710
 8990SOL    HW238433   2.489   3.817  12.512  0.3670  0.4785 -2.3033
 8991SOL     OW38434   2.779   1.155   3.907 -0.0214 -0.0286 -0.1397
 8991SOL    HW138435   2.812   1.241   3.880 -1.2120  0.3833 -0.3172
 8991SOL    HW238436   2.799   1.157   4.001 -2.3789  1.2641  0.3477
 8992SOL     OW38437   2.931   1.380   1.350  0.0119 -0.1579 -0.5964
 8992SOL    HW138438   2.912   1.400   1.258 -1.2620 -2.0211 -0.7348
 8992SOL    HW238439   2.855   1.424   1.388  0.0744  0.5405 -1.2676
 8993SOL     OW38440   2.313   3.529   6.600 -0.5034 -0.1821 -0.2171
 8993SOL    HW138441   2.364   3.510   6.678 -0.0426 -0.2132 -0.5279
 8993SOL    HW238442   2.238   3.583   6.625 -1.0576 -2.3453  2.8155
 8994SOL     OW38443   3.176   4.400  10.430  0.7940 -0.2449  0.2319
 8994SOL    HW138444   3.156   4.347  10.353  0.6312  1.0789 -0.6301
 8994SOL    HW238445   3.267   4.372  10.433  0.2906 -2.2491 -2.7888
 8995SOL     OW38446   1.895   1.542  14.858  0.3176 -0.3059 -0.0708
 8995SOL    HW138447   1.923   1.479  14.792  3.2594 -2.6372  3.4193
 8995SOL    HW238448   1.984   1.577  14.866  0.7702 -1.4898 -0.0487
 8996SOL     OW38449   0.980   3.984  11.863  0.0571  0.6305  0.3832
 8996SOL    HW138450   0.904   3.930  11.883 -0.0245  0.6088  0.0303
 8996SOL    HW238451   1.041   3.954  11.930 -0.7096  0.9025  1.1957
 8997SOL     OW38452   4.459   0.509   8.950 -0.3305  0.1662 -0.2843
 8997SOL    HW138453   4.373   0.493   8.911 -0.6549 -0.9055  0.8696
 8997SOL    HW238454   4.482   0.600   8.928  0.0805  0.2135  0.3420
 8998SOL     OW38455   4.381   3.657   8.493  0.0251  0.7652  0.4451
 8998SOL    HW138456   4.342   3.571   8.478  0.6493  0.4515  0.6391
 8998SOL    HW238457   4.324   3.708   8.434  1.3986  1.6117 -0.1571
 8999SOL     OW38458   3.890   3.333   2.963 -0.0886 -0.8555  0.5205
 8999SOL    HW138459   3.954   3.291   2.905 -0.4130  2.0168 -1.9067
 8999SOL    HW238460   3.950   3.391   3.011  0.2085 -0.8905  0.1934
 9000SOL     OW38461   3.131   2.292  11.428  0.3470 -0.2150 -0.2372
 9000SOL    HW138462   3.040   2.320  11.438 -0.5259 -2.3877 -2.1982
 9000SOL    HW238463   3.125   2.201  11.456 -0.5766  0.0936  0.5612
 9001SOL     OW38464   0.192   3.387   3.659 -0.1945 -0.1503  0.6662
 9001SOL    HW138465   0.099   3.389   3.681 -0.3668 -1.4665  0.0391
 9001SOL    HW238466   0.186   3.394   3.563 -0.4585 -1.5563  0.5765
 9002SOL     OW38467   0.221   1.869   8.219  0.3069  0.1421  0.0911
 9002SOL    HW138468   0.155   1.889   8.286  0.7207  0.8411  0.2894
 9002SOL    HW238469   0.175   1.822   8.150  1.7796 -1.5184  0.2582
 9003SOL     OW38470   0.046   1.711  16.564  0.6050  0.0353 -0.2014
 9003SOL    HW138471   0.074   1.624  16.534  1.1220  0.4513 -0.8998
 9003SOL    HW238472   0.002   1.746  16.487  1.6279  1.1506 -0.2621
 9004SOL     OW38473   2.282   2.217   6.862 -0.5992 -0.2844 -0.3532
 9004SOL    HW138474   2.276   2.302   6.819 -1.5872 -0.5709 -0.7726
 9004SOL    HW238475   2.377   2.216   6.877 -0.3319 -0.1303 -2.0045
 9005SOL     OW38476   1.045   0.130   4.858  0.3739  0.4152 -0.0146
 9005SOL    HW138477   1.009   0.175   4.781 -0.8282 -0.9889 -0.2814
 9005SOL    HW238478   1.057   0.210   4.910 -0.6292 -0.1237  1.0631
 9006SOL     OW38479   4.649   4.570   3.411 -0.1559  0.0552 -0.1368
 9006SOL    HW138480   4.604   4.508   3.354  0.0529 -0.0997 -0.1334
 9006SOL    HW238481   0.005   4.595   3.360  0.3675  2.1232  1.6799
 9007SOL     OW38482   3.507   1.588   0.468 -0.1277 -0.3342 -0.0547
 9007SOL    HW138483   3.491   1.663   0.525 -3.2450 -0.7557 -0.3720
 9007SOL    HW238484   3.456   1.516   0.507  1.2367 -0.3775  1.6321
 9008SOL     OW38485   3.461   3.424  11.354  0.4591 -0.3899  0.6096
 9008SOL    HW138486   3.384   3.442  11.300  1.4109 -0.9312 -0.9284
 9008SOL    HW238487   3.534   3.463  11.306 -0.8658  1.3284  0.0131
 9009SOL     OW38488   3.147   4.332   0.891  0.4063  0.4695 -0.6964
 9009SOL    HW138489   3.172   4.289   0.809  0.2773  0.8408 -0.9342
 9009SOL    HW238490   3.055   4.308   0.903 -0.1561  1.7553 -2.2538
 9010SOL     OW38491   2.231   0.281   4.131 -0.5696  0.3308  0.1745
 9010SOL    HW138492   2.250   0.187   4.142  0.5589  0.5647  0.2728
 9010SOL    HW238493   2.146   0.282   4.173 -0.7216  0.4130 -0.1319
 9011SOL     OW38494   1.910   1.199  10.566 -0.0637  0.0297  0.3196
 9011SOL    HW138495   1.898   1.294  10.562 -0.9953 -0.0434  1.1716
 9011SOL    HW238496   2.001   1.203  10.538 -1.3094 -1.2437 -3.8955
 9012SOL     OW38497   1.543   3.113   6.299 -0.0362 -0.2642 -0.2317
 9012SOL    HW138498   1.498   3.029   6.284  0.1557 -0.0827 -1.8797
 9012SOL    HW238499   1.611   3.093   6.363  2.0789  0.6225 -2.2109
 9013SOL     OW38500   2.976   1.397   3.702  0.2449 -0.1997 -0.0602
 9013SOL    HW138501   2.908   1.444   3.654  0.8119  1.1966  0.5359
 9013SOL    HW238502   2.946   1.405   3.792  1.0899  0.5248  0.1529
 9014SOL     OW38503   2.929   2.090   3.639  0.5561  0.3861  0.2652
 9014SOL    HW138504   3.002   2.151   3.636 -0.9333  2.1183 -0.5446
 9014SOL    HW238505   2.916   2.087   3.544  2.8629  1.9492 -0.0864
 9015SOL     OW38506   2.210   2.419   4.405  0.1899  0.1472 -0.6209
 9015SOL    HW138507   2.127   2.374   4.392 -0.9077  1.4832  1.9079
 9015SOL    HW238508   2.275   2.349   4.392 -3.1440 -2.8442 -1.0750
 9016SOL     OW38509   2.381   1.852   9.632  0.4014 -0.3483 -0.5275
 9016SOL    HW138510   2.394   1.864   9.726  0.8858 -0.9343 -0.5191
 9016SOL    HW238511   2.462   1.802   9.619  0.5368 -0.7359  1.8290
 9017SOL     OW38512   0.723   1.668  10.520  0.0081 -0.3205 -0.1447
 9017SOL    HW138513   0.630   1.671  10.542 -0.1760  1.4318 -1.1840
 9017SOL    HW238514   0.733   1.584  10.475  4.5993 -0.5908  1.2722
 9018SOL     OW38515   1.027   1.448   8.982  0.2266 -0.0148  0.0131
 9018SOL    HW138516   1.108   1.419   9.023  0.0488 -1.7659 -0.8719
 9018SOL    HW238517   0.959   1.404   9.032  1.0891 -0.7595  0.5266
 9019SOL     OW38518   2.003   3.691  15.557  0.4215 -0.1574 -0.0613
 9019SOL    HW138519   2.012   3.770  15.504  0.7656  1.7520  2.8046
 9019SOL    HW238520   2.080   3.695  15.614 -2.2472 -1.5944  3.6846
 9020SOL     OW38521   3.947   3.858  10.701  0.3410 -0.5071  0.3664
 9020SOL    HW138522   3.980   3.913  10.772  0.6469 -2.2555  1.5804
 9020SOL    HW238523   3.978   3.776  10.739 -0.1038 -1.0640 -0.4670
 9021SOL     OW38524   3.191   1.865  13.695  0.1661 -0.2055 -0.2739
 9021SOL    HW138525   3.126   1.798  13.715 -0.5804  0.3090 -0.9589
 9021SOL    HW238526   3.131   1.931  13.658  1.8366  0.5369 -1.6342
 9022SOL     OW38527   1.876   4.350   8.248  0.4672 -0.4695 -0.0516
 9022SOL    HW138528   1.819   4.348   8.325 -0.5025  0.2448 -0.7523
 9022SOL    HW238529   1.841   4.425   8.200  1.3231 -0.2800 -0.3697
 9023SOL     OW38530   1.053   4.254  14.016 -0.3900 -0.8395 -0.3635
 9023SOL    HW138531   1.146   4.234  14.025  0.1376  2.1337  0.7553
 9023SOL    HW238532   1.051   4.321  14.084 -0.4901 -2.3947  1.1907
 9024SOL     OW38533   3.629   0.132   1.851  0.7047  0.4397 -0.2426
 9024SOL    HW138534   3.677   0.104   1.773  2.3009 -1.5655  1.4457
 9024SOL    HW238535   3.574   0.203   1.819  0.4699 -0.6457 -2.2733
 9025SOL     OW38536   0.600   0.908   8.412  0.3156  0.0209 -0.2515
 9025SOL    HW138537   0.690   0.895   8.439  0.6509 -0.2030 -1.4814
 9025SOL    HW238538   0.557   0.901   8.497 -0.5831 -0.5152 -0.7421
 9026SOL     OW38539   3.848   2.439   7.423  0.3492 -0.3423 -0.0236
 9026SOL    HW138540   3.813   2.487   7.348 -0.4596  0.7886  1.0708
 9026SOL    HW238541   3.828   2.506   7.489  2.5927 -0.2049  0.5278
 9027SOL     OW38542   0.075   2.829   9.806  0.1015 -0.4145 -0.6182
 9027SOL    HW138543   0.002   2.887   9.827  1.1429  1.1089 -1.2309
 9027SOL    HW238544   0.051   2.782   9.727  0.2149 -1.1014 -0.2447
 9028SOL     OW38545   4.583   3.935   0.809  0.4571 -0.0854 -0.3131
 9028SOL    HW138546   4.569   3.994   0.736 -0.5537  1.0696  0.8167
 9028SOL    HW238547   4.561   3.996   0.879 -0.7860  2.0176 -2.5636
 9029SOL     OW38548   3.972   0.043   0.475  0.3661  0.7666 -0.0100
 9029SOL    HW138549   4.030   4.707   0.424  0.1106  0.9252 -0.4779
 9029SOL    HW238550   3.913   4.705   0.520 -0.1584 -0.3518 -2.1424
 9030SOL     OW38551   1.995   2.530   2.577 -0.0335 -0.1568 -0.2823
 9030SOL    HW138552   2.066   2.502   2.519  0.6419  1.3974 -0.2147
 9030SOL    HW238553   1.925   2.469   2.555  0.2229 -0.1957 -0.9798
 9031SOL     OW38554   1.183   0.182  11.248 -0.4174  0.3349 -0.1659
 9031SOL    HW138555   1.098   0.157  11.213  0.3088  0.3337 -1.9130
 9031SOL    HW238556   1.223   0.095  11.258 -1.6795 -0.2501 -0.2095
 9032SOL     OW38557   4.708   1.302   4.817 -0.1997  0.0387 -0.0152
 9032SOL    HW138558   0.015   1.270   4.903 -1.6078  3.1773  1.6554
 9032SOL    HW238559   4.674   1.228   4.767 -0.0356 -1.2252  1.7242
 9033SOL     OW38560   1.039   0.040   5.244  0.1087  0.0186  0.3030
 9033SOL    HW138561   0.970   0.098   5.214  0.0603 -1.0717 -1.7079
 9033SOL    HW238562   1.030   0.047   5.339  0.5507  3.6878  0.0815
 9034SOL     OW38563   1.322   1.536  13.244  0.1806 -0.6943 -0.0342
 9034SOL    HW138564   1.376   1.513  13.168 -0.3361 -0.3783 -0.5036
 9034SOL    HW238565   1.378   1.503  13.314 -0.8173 -1.2154  0.5308
 9035SOL     OW38566   0.746   3.362   3.344  0.4691 -0.3563  0.7738
 9035SOL    HW138567   0.773   3.447   3.308 -0.9869  0.6547  2.0969
 9035SOL    HW238568   0.767   3.313   3.265  0.2496  2.1722 -0.8686
 9036SOL     OW38569   0.701   2.720  12.280  0.0052 -0.3335 -0.6169
 9036SOL    HW138570   0.683   2.694  12.370 -1.3679  1.3236 -0.4151
 9036SOL    HW238571   0.668   2.638  12.243 -1.0987 -0.4577  0.6569
 9037SOL     OW38572   1.598   0.030   8.137  0.0516 -0.3464 -0.1694
 9037SOL    HW138573   1.572   0.034   8.045  1.9130 -0.6431 -0.6972
 9037SOL    HW238574   1.544   0.086   8.193  1.0218  0.2443  0.1848
 9038SOL     OW38575   3.953   1.640   5.996 -0.2364 -0.2929  0.3169
 9038SOL    HW138576   3.992   1.570   5.944 -2.5700  0.1661 -2.0329
 9038SOL    HW238577   3.890   1.587   6.043 -0.9769  1.0629  0.8689
 9039SOL     OW38578   2.238   1.912  13.059  0.7178  0.3280  0.6405
 9039SOL    HW138579   2.258   1.826  13.023 -1.7983 -0.1949  0.4447
 9039SOL    HW238580   2.173   1.878  13.121  0.8451 -2.7495 -0.9170
 9040SOL     OW38581   1.917   2.196  12.348  0.3823 -0.1920 -0.3113
 9040SOL    HW138582   1.916   2.290  12.364  0.9372 -0.0905 -0.8877
 9040SOL    HW238583   1.845   2.167  12.404  0.7057 -2.7358 -1.1878
 9041SOL     OW38584   3.627   1.466   0.257  0.4784  0.3338  0.3823
 9041SOL    HW138585   3.584   1.458   0.342  2.6313 -0.8246  1.3894
 9041SOL    HW238586   3.632   1.561   0.247  0.0125  0.0465 -2.5885
 9042SOL     OW38587   0.329   4.433   7.664 -0.3525 -0.0486 -0.4859
 9042SOL    HW138588   0.248   4.455   7.619  0.5217 -1.3051 -2.6477
 9042SOL    HW238589   0.338   4.338   7.656 -2.8805 -0.3291 -0.0631
 9043SOL     OW38590   4.030   0.770   1.921  0.3281  0.0216  0.0627
 9043SOL    HW138591   4.025   0.706   1.850  0.2840 -0.5769  0.6008
 9043SOL    HW238592   3.935   0.783   1.925  0.2825 -0.4138  0.5063
 9044SOL     OW38593   4.487   3.571   2.836 -0.0294 -0.4828  0.2657
 9044SOL    HW138594   4.562   3.529   2.794  1.1108 -1.7009  3.4833
 9044SOL    HW238595   4.521   3.652   2.872  0.7591 -0.2226 -1.0699
 9045SOL     OW38596   1.494   3.376  17.130 -0.4117  0.2794  0.6277
 9045SOL    HW138597   1.519   3.465  17.106 -0.3929  0.2164  0.4056
 9045SOL    HW238598   1.458   3.394  17.216 -0.7065 -0.6388  0.7009
 9046SOL     OW38599   1.727   2.485   9.217 -0.4543 -0.6250 -0.1715
 9046SOL    HW138600   1.660   2.416   9.214 -1.5662  0.3757  1.4917
 9046SOL    HW238601   1.757   2.464   9.129  0.4587  0.2674 -0.0616
 9047SOL     OW38602   1.816   0.149   4.965 -0.0610  0.1744 -0.3466
 9047SOL    HW138603   1.907   0.178   4.954 -0.1876  0.6735 -0.1112
 9047SOL    HW238604   1.792   0.092   4.892 -0.6667 -0.3845  0.2865
 9048SOL     OW38605   3.490   0.003   7.733 -0.6486  0.3862 -0.0673
 9048SOL    HW138606   3.497   4.702   7.640 -3.9075  3.3702 -1.0108
 9048SOL    HW238607   3.432   4.659   7.772 -0.1865  0.8109  1.3322
 9049SOL     OW38608   2.720   1.614  13.761  0.2142 -0.4594  0.5918
 9049SOL    HW138609   2.687   1.588  13.847  0.2424 -1.6100  0.2546
 9049SOL    HW238610   2.685   1.549  13.701  0.6831 -0.2240  0.0623
 9050SOL     OW38611   3.590   3.359   3.638  0.1217 -0.3569  0.2165
 9050SOL    HW138612   3.553   3.445   3.659  0.4875 -0.9442  3.1546
 9050SOL    HW238613   3.530   3.300   3.683 -0.5184  0.4990  0.4812
 9051SOL     OW38614   2.995   3.814   8.004 -0.2641 -0.0116  0.1175
 9051SOL    HW138615   3.020   3.887   8.060  0.3898 -0.4877  0.4519
 9051SOL    HW238616   2.943   3.866   7.942  0.5552  0.4544 -0.1803
 9052SOL     OW38617   2.959   4.612   3.475 -0.0526 -0.1064  0.1474
 9052SOL    HW138618   2.980   4.659   3.556  1.7643 -0.4938 -0.0955
 9052SOL    HW238619   3.037   4.559   3.461 -1.5706 -2.5758  0.9790
 9053SOL     OW38620   0.803   4.414  16.754 -0.2690  0.4504 -0.5749
 9053SOL    HW138621   0.708   4.417  16.764 -0.2755  1.0139 -0.8374
 9053SOL    HW238622   0.823   4.375  16.839  0.7694 -0.0056 -1.0320
 9054SOL     OW38623   3.008   0.488   5.493  0.5216  0.1895  0.2015
 9054SOL    HW138624   3.000   0.583   5.497 -1.8524 -0.0639  1.0526
 9054SOL    HW238625   2.955   0.474   5.414 -0.5405 -0.2095  0.9924
 9055SOL     OW38626   3.195   1.363   3.389 -0.1902  0.2470  0.1004
 9055SOL    HW138627   3.199   1.405   3.475 -3.6168 -0.4465  0.6024
 9055SOL    HW238628   3.287   1.345   3.367 -0.8266 -2.2563 -0.5523
 9056SOL     OW38629   3.392   1.113   5.469  0.1511 -0.4214  0.3096
 9056SOL    HW138630   3.415   1.099   5.561 -1.3088  1.3066  0.9336
 9056SOL    HW238631   3.389   1.021   5.443  4.7998  0.2774 -2.6639
 9057SOL     OW38632   4.129   1.788   7.990  0.1919 -0.5498  0.0506
 9057SOL    HW138633   4.061   1.848   8.021 -0.0849  0.7190 -3.0059
 9057SOL    HW238634   4.183   1.840   7.931  1.7394 -2.5463 -0.3195
 9058SOL     OW38635   2.336   3.128   3.136  0.4367 -0.0241 -0.3512
 9058SOL    HW138636   2.346   3.057   3.073  0.4511  0.4175 -0.8511
 9058SOL    HW238637   2.423   3.167   3.126  0.8430 -0.8787 -0.1008
 9059SOL     OW38638   4.137   4.330   8.541 -0.0880  0.4329 -0.5151
 9059SOL    HW138639   4.096   4.407   8.501  1.4276  1.3874 -0.2118
 9059SOL    HW238640   4.171   4.368   8.622  0.5560  0.1118 -0.6335
 9060SOL     OW38641   3.230   0.808   7.883 -0.2605 -0.0015  0.2631
 9060SOL    HW138642   3.322   0.787   7.903 -0.2032  1.1536  1.1945
 9060SOL    HW238643   3.242   0.895   7.921 -1.7349 -0.1350  1.0374
 9061SOL     OW38644   3.089   1.190   1.443  0.1856 -0.1099 -0.1473
 9061SOL    HW138645   3.123   1.202   1.355 -0.5712  2.2107 -0.1398
 9061SOL    HW238646   3.020   1.257   1.442 -0.6232 -0.9567 -0.7195
 9062SOL     OW38647   2.770   2.071   9.760 -0.1115 -1.1014 -0.6901
 9062SOL    HW138648   2.864   2.078   9.750  0.0103  0.7139  1.6169
 9062SOL    HW238649   2.753   1.991   9.711  1.7144 -3.0004  1.7401
 9063SOL     OW38650   3.281   2.534   3.727  0.0335  0.1240  0.2602
 9063SOL    HW138651   3.362   2.513   3.681 -0.4347 -1.3590  0.1212
 9063SOL    HW238652   3.280   2.629   3.712 -0.2645  0.1191  0.2428
 9064SOL     OW38653   3.883   1.708   2.332  0.1458 -0.1884 -0.3186
 9064SOL    HW138654   3.883   1.781   2.394  1.1320 -1.1638  0.8284
 9064SOL    HW238655   3.803   1.659   2.351 -0.0310 -0.6375 -2.2035
 9065SOL     OW38656   3.493   1.375  11.411 -0.0880  0.0093  0.3390
 9065SOL    HW138657   3.467   1.384  11.502  1.4428  1.6689  0.5991
 9065SOL    HW238658   3.545   1.295  11.412 -0.2784 -0.1113  0.5277
 9066SOL     OW38659   3.972   2.413   3.537 -0.0917  0.0584  0.1039
 9066SOL    HW138660   3.904   2.471   3.574  0.1763 -1.4462  2.9647
 9066SOL    HW238661   4.001   2.348   3.601  1.4681 -0.1595 -0.8455
 9067SOL     OW38662   4.437   1.281   4.188  0.0023 -0.9474  0.2884
 9067SOL    HW138663   4.401   1.312   4.271 -2.5552  1.6775 -1.7777
 9067SOL    HW238664   4.432   1.185   4.193 -1.0685 -1.0635 -2.5653
 9068SOL     OW38665   1.835   2.569   4.218 -0.9697 -0.2008 -0.1723
 9068SOL    HW138666   1.776   2.580   4.293 -0.6926 -0.5375  0.1001
 9068SOL    HW238667   1.793   2.525   4.145  0.3498 -1.9651  0.1275
 9069SOL     OW38668   0.091   2.265   1.586 -0.0892 -0.1221  0.0682
 9069SOL    HW138669   4.719   2.275   1.603 -0.0346  1.2220 -0.4592
 9069SOL    HW238670   0.107   2.358   1.602  1.0390 -0.2579 -0.2777
 9070SOL     OW38671   1.663   4.368  10.937 -0.2230 -0.0953 -0.4121
 9070SOL    HW138672   1.577   4.342  10.969  0.3085 -2.4036 -0.8115
 9070SOL    HW238673   1.705   4.400  11.016  0.2910 -0.5481 -0.4981
 9071SOL     OW38674   4.047   1.059   7.181 -0.2257 -0.1141  0.3196
 9071SOL    HW138675   4.044   1.033   7.089 -0.5549  1.6274 -0.1604
 9071SOL    HW238676   4.049   1.154   7.173  0.0957 -0.3463 -2.5028
 9072SOL     OW38677   3.704   2.135  10.955  0.7436 -0.2396 -0.5981
 9072SOL    HW138678   3.685   2.226  10.929  0.0568 -0.1986  0.0529
 9072SOL    HW238679   3.618   2.096  10.941  0.9158 -0.5115 -0.9013
 9073SOL     OW38680   2.621   2.536  16.091  0.1525  0.1432  0.1085
 9073SOL    HW138681   2.715   2.545  16.103  0.3393 -1.3174 -0.2573
 9073SOL    HW238682   2.611   2.558  15.998  0.7001 -1.0162 -0.2211
 9074SOL     OW38683   0.781   4.052   9.328 -0.1475 -0.1569  0.1905
 9074SOL    HW138684   0.789   4.043   9.233 -0.2827 -2.9821  0.4547
 9074SOL    HW238685   0.692   4.089   9.325 -0.6201 -1.3550 -0.6178
 9075SOL     OW38686   3.016   1.711   2.479  0.2824  0.3866  0.2963
 9075SOL    HW138687   3.017   1.797   2.436 -0.6311 -0.5805 -1.6555
 9075SOL    HW238688   3.106   1.701   2.508  0.7339  3.3584 -0.1011
 9076SOL     OW38689   2.673   0.555   9.039 -0.0474 -0.5097 -0.2873
 9076SOL    HW138690   2.720   0.511   9.109 -1.3023  1.8001  2.0120
 9076SOL    HW238691   2.751   0.591   8.995 -0.8412 -1.5316 -2.5254
 9077SOL     OW38692   2.411   0.239   5.825 -0.0149 -0.6003 -0.1161
 9077SOL    HW138693   2.491   0.239   5.772 -1.1607 -1.4226 -1.8335
 9077SOL    HW238694   2.435   0.271   5.912 -1.4110  2.1018 -0.7261
 9078SOL     OW38695   0.077   3.401  15.176 -0.8581 -0.0084  0.1587
 9078SOL    HW138696   0.086   3.495  15.161 -0.5342 -0.2430 -1.1642
 9078SOL    HW238697   0.165   3.368  15.156  0.6237  2.8160  2.0821
 9079SOL     OW38698   4.226   0.931   9.929  0.2846  0.1552  0.1754
 9079SOL    HW138699   4.288   0.859   9.918 -0.1469 -0.5371  2.3634
 9079SOL    HW238700   4.288   1.003   9.942  1.0418 -0.1974 -1.5735
 9080SOL     OW38701   0.864   4.636  13.792 -0.6528 -0.1023 -0.1169
 9080SOL    HW138702   0.907   4.555  13.765 -0.8726 -0.7751  1.5900
 9080SOL    HW238703   0.838   4.615  13.881  0.4323 -0.2084  0.1713
 9081SOL     OW38704   1.559   2.088   5.910 -0.0817  0.7156  0.3393
 9081SOL    HW138705   1.616   2.086   5.833  0.1166  1.0014  0.4818
 9081SOL    HW238706   1.621   2.113   5.978 -0.8403 -0.3587  1.4262
 9082SOL     OW38707   0.112   1.441   3.426  0.1040 -0.2500  0.3816
 9082SOL    HW138708   0.077   1.463   3.339 -0.8563 -0.2806  0.7581
 9082SOL    HW238709   0.152   1.356   3.411  0.7364  0.2602 -0.8049
 9083SOL     OW38710   3.868   3.259   5.299 -0.3657  0.4874  0.3703
 9083SOL    HW138711   3.863   3.217   5.385  0.0797  2.4688  1.3643
 9083SOL    HW238712   3.920   3.195   5.250  0.0788  0.3598  1.0084
 9084SOL     OW38713   0.804   3.770   7.741  0.1480 -0.2583  0.3300
 9084SOL    HW138714   0.881   3.714   7.754  0.0845 -0.1354  1.2524
 9084SOL    HW238715   0.801   3.815   7.825 -0.4099  0.7863 -0.2607
 9085SOL     OW38716   2.363   0.188   7.670  0.3679 -0.6563 -0.0210
 9085SOL    HW138717   2.322   0.105   7.696  2.1463 -1.5847 -0.1519
 9085SOL    HW238718   2.318   0.253   7.723 -2.1303 -1.2384 -1.4329
 9086SOL     OW38719   4.139   0.953   6.925  0.1412 -0.0088 -0.2700
 9086SOL    HW138720   4.222   0.981   6.964 -0.4729  0.1713  0.9172
 9086SOL    HW238721   4.159   0.864   6.897 -1.8644 -1.1993  2.0790
 9087SOL     OW38722   2.477   4.563   4.054 -0.7638  0.0650  0.5220
 9087SOL    HW138723   2.489   4.470   4.073  0.2258  0.3736  1.4218
 9087SOL    HW238724   2.527   4.566   3.972 -0.0949 -0.9743  0.8806
 9088SOL     OW38725   3.107   0.534   3.327 -0.4744 -0.4072  0.3817
 9088SOL    HW138726   3.144   0.469   3.387 -0.5850  0.2686  1.1913
 9088SOL    HW238727   3.128   0.489   3.245  0.4998  1.1439 -0.2292
 9089SOL     OW38728   0.558   0.882   7.519 -0.0850  0.6406 -0.3559
 9089SOL    HW138729   0.605   0.803   7.491  0.9786  0.6694  1.3437
 9089SOL    HW238730   0.539   0.861   7.610  0.5975 -1.5217 -0.6999
 9090SOL     OW38731   3.655   2.260   7.196 -0.1904 -0.0790 -0.2170
 9090SOL    HW138732   3.622   2.242   7.284  1.3741 -2.0364 -0.0508
 9090SOL    HW238733   3.693   2.348   7.199 -1.5472  0.5162 -0.7847
 9091SOL     OW38734   3.325   0.206   5.758 -0.3967  0.0982 -0.3853
 9091SOL    HW138735   3.323   0.300   5.736  3.3142  0.1186 -0.6751
 9091SOL    HW238736   3.240   0.190   5.798  0.1917  0.8705  1.1612
 9092SOL     OW38737   3.400   1.337   1.670 -0.2199  0.7249  0.0758
 9092SOL    HW138738   3.428   1.416   1.623 -2.4648  0.6372 -1.4284
 9092SOL    HW238739   3.464   1.277   1.633  0.8854  1.4923  0.7212
 9093SOL     OW38740   1.722   0.135  17.218  0.3638  0.1400 -0.0291
 9093SOL    HW138741   1.792   0.093  17.167 -0.7015 -3.8292  1.7282
 9093SOL    HW238742   1.678   0.059  17.257  2.0675 -0.5249  0.6263
 9094SOL     OW38743   3.461   3.820   7.011  0.4097  0.2705 -0.3167
 9094SOL    HW138744   3.498   3.800   7.098  1.6380  1.5904 -0.5351
 9094SOL    HW238745   3.544   3.823   6.963 -0.1488  1.5686 -1.1893
 9095SOL     OW38746   1.906   0.430   4.724 -0.6090 -0.1851  0.3666
 9095SOL    HW138747   1.982   0.426   4.782 -0.5748 -0.8396  0.2799
 9095SOL    HW238748   1.871   0.512   4.758 -1.4874 -1.2740  2.1298
 9096SOL     OW38749   2.369   1.009   3.782 -0.6988  0.3369 -0.3089
 9096SOL    HW138750   2.357   0.961   3.864 -2.0041 -0.0591 -0.7224
 9096SOL    HW238751   2.276   1.021   3.761 -0.9946 -1.4535 -0.0307
 9097SOL     OW38752   1.143   4.714   0.350  0.0351 -0.1989  0.0619
 9097SOL    HW138753   1.197   0.069   0.367 -0.2259 -0.1609  0.7211
 9097SOL    HW238754   1.216   4.663   0.316  0.5843  2.0491 -2.0842
 9098SOL     OW38755   3.639   1.398  13.306 -0.4069 -0.4448 -0.4104
 9098SOL    HW138756   3.610   1.444  13.227 -0.8775  1.3486  0.8163
 9098SOL    HW238757   3.707   1.343  13.266  1.4096  1.2979  0.2192
 9099SOL     OW38758   4.289   1.439  16.413  0.3365  0.4795  0.2231
 9099SOL    HW138759   4.262   1.502  16.346  1.9118 -0.0986 -0.9737
 9099SOL    HW238760   4.204   1.438  16.457  0.9100  0.9535  1.3425
 9100SOL     OW38761   4.203   4.348   2.448  0.1609 -0.1771 -0.0288
 9100SOL    HW138762   4.135   4.296   2.490  0.2525 -1.1343 -1.0560
 9100SOL    HW238763   4.155   4.374   2.369  4.1537  0.8937 -2.1027
 9101SOL     OW38764   2.439   2.855   8.472  0.0484 -0.0967  0.0347
 9101SOL    HW138765   2.422   2.839   8.379 -2.2649 -0.7855  0.5472
 9101SOL    HW238766   2.507   2.790   8.489 -1.4997 -1.8073 -0.1733
 9102SOL     OW38767   0.907   2.255   5.345 -0.7804  0.1806 -0.2335
 9102SOL    HW138768   0.963   2.178   5.351  1.0193  1.6087  1.6576
 9102SOL    HW238769   0.835   2.226   5.400  0.2095  1.5399  1.7807
 9103SOL     OW38770   3.907   2.839  10.294 -0.5294  0.1153 -0.4001
 9103SOL    HW138771   3.932   2.794  10.213  1.1721 -2.2314  1.4236
 9103SOL    HW238772   3.927   2.774  10.361 -0.0889  1.2698  0.5731
 9104SOL     OW38773   2.858   3.452   8.226 -0.4980  0.4642  0.7860
 9104SOL    HW138774   2.919   3.411   8.164 -0.0012 -0.7464  2.0839
 9104SOL    HW238775   2.770   3.432   8.193 -0.3874 -1.0006  1.3858
 9105SOL     OW38776   2.623   0.979   7.129 -0.2089 -0.1093  0.6398
 9105SOL    HW138777   2.597   0.900   7.082 -0.9259 -0.2024  1.2112
 9105SOL    HW238778   2.538   0.992   7.170 -0.7180 -2.4886  0.3048
 9106SOL     OW38779   4.546   0.323   7.601  0.3218 -0.6455 -0.2824
 9106SOL    HW138780   4.532   0.230   7.581  1.2261 -0.7142 -0.5996
 9106SOL    HW238781   4.526   0.364   7.517 -1.5131  1.9617  1.4376
 9107SOL     OW38782   3.847   1.345  16.915  0.1144  0.1079 -0.0691
 9107SOL    HW138783   3.778   1.312  16.857  0.1953 -1.0423  0.5056
 9107SOL    HW238784   3.855   1.439  16.895  0.8746  0.3073  1.2176
 9108SOL     OW38785   0.376   1.419   4.400  0.0896 -0.3024  0.5610
 9108SOL    HW138786   0.338   1.467   4.326 -0.6699 -0.1297  1.0568
 9108SOL    HW238787   0.433   1.483   4.442 -0.5406  1.3436 -1.0442
 9109SOL     OW38788   3.823   2.413   2.782 -0.3575 -0.2600 -0.8301
 9109SOL    HW138789   3.899   2.428   2.725 -0.0885  1.2149 -0.0887
 9109SOL    HW238790   3.852   2.465   2.857 -1.2424 -0.7923 -0.1255
 9110SOL     OW38791   0.674   1.491  12.330  0.1306 -0.4652  0.2328
 9110SOL    HW138792   0.743   1.494  12.264 -1.8201  0.5712 -1.7652
 9110SOL    HW238793   0.625   1.563  12.291  0.7477  1.2168  2.5766
 9111SOL     OW38794   0.157   2.653   5.404  0.1950  0.1634 -0.5041
 9111SOL    HW138795   0.192   2.622   5.321  1.7072 -2.2537  1.0125
 9111SOL    HW238796   0.205   2.604   5.471 -0.9615  0.0316  0.2379
 9112SOL     OW38797   3.318   3.554   3.320 -0.1547  0.0632  0.0301
 9112SOL    HW138798   3.242   3.606   3.345  0.2712  0.4376  0.5525
 9112SOL    HW238799   3.277   3.472   3.292 -3.2928  1.2552  1.2269
 9113SOL     OW38800   0.780   1.636   5.816  0.7170 -0.1228  0.0436
 9113SOL    HW138801   0.720   1.684   5.759  2.0847  0.3428 -0.9981
 9113SOL    HW238802   0.859   1.689   5.818  0.3933  0.4451 -2.0030
 9114SOL     OW38803   2.584   2.242   2.119  0.4110  0.0715  0.3967
 9114SOL    HW138804   2.643   2.175   2.155 -0.9055 -1.1510  0.2806
 9114SOL    HW238805   2.654   2.307   2.122  1.5678 -1.1139 -0.8247
 9115SOL     OW38806   3.657   2.637   5.285 -0.2153 -1.2295 -0.1745
 9115SOL    HW138807   3.732   2.695   5.292 -0.0893 -1.2487 -1.3479
 9115SOL    HW238808   3.634   2.651   5.193 -2.1943 -0.5737  0.4116
 9116SOL     OW38809   0.704   0.214   4.979  0.1844  0.0147 -0.0850
 9116SOL    HW138810   0.617   0.241   5.009  0.6685  1.2755  0.1403
 9116SOL    HW238811   0.745   0.196   5.063  0.8321 -0.2640 -0.4588
 9117SOL     OW38812   0.200   3.551   0.315 -0.0669 -0.4280 -0.5380
 9117SOL    HW138813   0.163   3.629   0.274  1.4743  0.4817 -0.1972
 9117SOL    HW238814   0.183   3.578   0.406 -1.8724 -0.1547 -0.9610
 9118SOL     OW38815   3.114   2.544   4.670 -0.1894  0.5283 -0.0536
 9118SOL    HW138816   3.070   2.608   4.726 -0.1112 -0.4604  1.1383
 9118SOL    HW238817   3.041   2.492   4.636  0.4020 -0.5521  0.3275
 9119SOL     OW38818   3.898   1.264   6.615 -0.2169 -0.3143 -0.3782
 9119SOL    HW138819   3.870   1.245   6.704  1.0619 -4.6294 -0.9136
 9119SOL    HW238820   3.981   1.219   6.599 -0.0759 -0.5300  1.0073
 9120SOL     OW38821   2.721   4.076  10.036  0.1112 -0.1542 -0.3891
 9120SOL    HW138822   2.715   4.148  10.098  3.5238  0.4956 -0.8151
 9120SOL    HW238823   2.732   4.123   9.953 -2.6731  0.0509 -0.6499
 9121SOL     OW38824   4.244   4.136   0.057 -0.3798  0.1072  0.0496
 9121SOL    HW138825   4.296   4.216   0.062 -2.1527  1.3126 -0.8685
 9121SOL    HW238826   4.305   4.068   0.028 -1.0172  0.4124 -2.0451
 9122SOL     OW38827   1.688   2.362   7.433 -0.2597 -0.2100  0.0232
 9122SOL    HW138828   1.769   2.412   7.449 -0.8074  0.9911 -0.9209
 9122SOL    HW238829   1.722   2.275   7.412 -1.3798 -0.3083 -1.3989
 9123SOL     OW38830   0.868   4.522  15.407  0.2059  0.0496 -0.5097
 9123SOL    HW138831   0.878   4.525  15.502 -1.5591  0.8181 -0.3438
 9123SOL    HW238832   0.863   4.614  15.379  0.2332 -0.0761 -0.9281
 9124SOL     OW38833   0.169   1.293   2.609  0.1353 -0.1157 -0.0735
 9124SOL    HW138834   0.259   1.259   2.612 -0.3652 -1.3799  0.5853
 9124SOL    HW238835   0.124   1.222   2.655 -0.1554  0.5591  0.6861
 9125SOL     OW38836   0.399   0.813   5.565  0.0913  0.2608 -0.3292
 9125SOL    HW138837   0.413   0.797   5.658 -4.2592  0.8150  0.4018
 9125SOL    HW238838   0.481   0.854   5.538 -0.6347  0.2242 -2.6290
 9126SOL     OW38839   2.212   2.783  13.495  0.7059 -0.1821 -0.0034
 9126SOL    HW138840   2.185   2.700  13.532 -1.3327  0.6984  0.4576
 9126SOL    HW238841   2.204   2.763  13.402 -0.2380  0.1306  0.0160
 9127SOL     OW38842   1.194   2.646   8.649 -0.6192  0.6076 -0.1761
 9127SOL    HW138843   1.175   2.658   8.742 -1.6304  2.1525 -0.5914
 9127SOL    HW238844   1.220   2.735   8.626  0.3069  0.2683 -0.4722
 9128SOL     OW38845   2.076   1.620   8.589  0.4493  0.0207 -0.1250
 9128SOL    HW138846   2.060   1.545   8.531  0.8988  0.0109 -0.2395
 9128SOL    HW238847   2.160   1.592   8.624  0.7443 -0.0198 -0.8600
 9129SOL     OW38848   0.053   0.932   3.546  0.5326  0.0765  0.5451
 9129SOL    HW138849   4.680   0.942   3.559  0.4845  0.7095 -0.2664
 9129SOL    HW238850   0.056   0.850   3.496  1.6890  0.7985 -0.5792
 9130SOL     OW38851   3.469   0.116   0.050  0.2401 -0.2138 -0.1927
 9130SOL    HW138852   3.431   0.060   0.118  0.0040  0.8596  0.5543
 9130SOL    HW238853   3.414   0.193   0.062 -0.2335 -0.2202 -2.4205
 9131SOL     OW38854   3.216   1.657   2.214 -0.6545  0.5338  0.1025
 9131SOL    HW138855   3.275   1.636   2.286 -2.0430  2.5124  1.8153
 9131SOL    HW238856   3.257   1.604   2.146  0.6260  1.5263  0.1212
 9132SOL     OW38857   2.843   2.872   3.018 -0.1260  0.2167  0.1254
 9132SOL    HW138858   2.865   2.817   2.942  1.2134 -1.3014  1.6160
 9132SOL    HW238859   2.803   2.950   2.980 -1.4204  0.2676  1.5866
 9133SOL     OW38860   1.772   3.859  17.632  0.4385 -0.3270  0.1277
 9133SOL    HW138861   1.855   3.882  17.674 -0.4776  0.2712  1.6154
 9133SOL    HW238862   1.797   3.784  17.578 -0.4215 -1.5693  1.4507
 9134SOL     OW38863   2.345   1.360  14.934 -0.4859 -0.0501  0.3283
 9134SOL    HW138864   2.273   1.319  14.886 -0.0700  0.9800 -1.1751
 9134SOL    HW238865   2.405   1.381  14.862 -1.4820  1.0180 -0.2007
 9135SOL     OW38866   0.976   1.782   9.966 -0.5046 -0.3686  0.2700
 9135SOL    HW138867   0.945   1.711  10.023 -0.8544 -1.0565 -0.7896
 9135SOL    HW238868   0.998   1.851  10.029 -1.1434 -1.1884  1.4020
 9136SOL     OW38869   3.841   3.280  11.619 -0.5299 -0.3785 -0.5504
 9136SOL    HW138870   3.905   3.305  11.553 -0.4314  0.3249 -0.1956
 9136SOL    HW238871   3.884   3.200  11.649 -0.4732 -1.3555 -3.2929
 9137SOL     OW38872   4.002   4.223   5.142 -0.2576  0.3154 -0.4760
 9137SOL    HW138873   4.058   4.299   5.159  1.0049 -0.6828 -0.0723
 9137SOL    HW238874   3.917   4.241   5.182  1.2181  0.6445  2.5147
 9138SOL     OW38875   0.358   3.348  14.915  0.3232  0.0059  0.1850
 9138SOL    HW138876   0.337   3.256  14.899  0.4908 -0.2429  1.4245
 9138SOL    HW238877   0.287   3.390  14.866  2.0883  1.2639 -1.2791
 9139SOL     OW38878   2.580   3.424   8.673  0.1963  0.0247 -0.0036
 9139SOL    HW138879   2.574   3.407   8.579  0.7246  1.2789 -0.2643
 9139SOL    HW238880   2.576   3.519   8.686  0.8349  0.1136 -0.4065
 9140SOL     OW38881   3.448   3.092  14.683  0.2913  0.0399  0.6408
 9140SOL    HW138882   3.398   3.120  14.607  0.4224 -0.7244  0.2690
 9140SOL    HW238883   3.432   2.998  14.690 -2.7399  0.6362  1.4931
 9141SOL     OW38884   3.446   0.661   6.608  0.1327 -0.5760 -0.3116
 9141SOL    HW138885   3.378   0.658   6.540  2.1172  0.3543 -2.3435
 9141SOL    HW238886   3.489   0.578   6.585  1.7949 -0.3597  2.0976
 9142SOL     OW38887   2.096   3.019   4.761 -0.3249 -0.0805  0.4570
 9142SOL    HW138888   2.075   3.083   4.828  0.9884  1.7956 -0.9422
 9142SOL    HW238889   2.144   3.067   4.694 -2.1557 -0.0053 -0.8203
 9143SOL     OW38890   3.179   4.409   6.017  0.7886  0.1640  0.4843
 9143SOL    HW138891   3.176   4.465   5.940  0.6555 -0.3870  0.0832
 9143SOL    HW238892   3.271   4.410   6.042  1.0441  1.5138 -0.5201
 9144SOL     OW38893   4.428   4.650   9.138  0.6798 -0.0520  0.2885
 9144SOL    HW138894   4.366   4.711   9.098 -2.2086 -3.2711 -0.1160
 9144SOL    HW238895   4.368   4.597   9.190  0.9567 -0.0436  0.6175
 9145SOL     OW38896   0.217   1.575   2.754 -0.2074 -0.1162  0.0831
 9145SOL    HW138897   0.170   1.505   2.709  1.0041  0.5347 -2.1859
 9145SOL    HW238898   0.303   1.550   2.720 -0.4109  1.0027 -1.2367
 9146SOL     OW38899   0.023   3.893  12.357 -0.0408  0.5498  0.0634
 9146SOL    HW138900   0.045   3.943  12.436 -0.5156  0.1569  0.4383
 9146SOL    HW238901   0.114   3.865  12.343  0.5754  1.3662  2.4743
 9147SOL     OW38902   0.484   1.327   6.564  0.1627  0.0943  0.1501
 9147SOL    HW138903   0.422   1.368   6.624 -0.0716  0.3422 -0.2592
 9147SOL    HW238904   0.550   1.295   6.624  0.3791 -1.9090 -1.1447
 9148SOL     OW38905   0.648   2.054   4.552 -0.1328  0.5681 -0.4701
 9148SOL    HW138906   0.674   2.048   4.460  2.0770 -1.0984  0.2681
 9148SOL    HW238907   0.728   2.031   4.598 -1.4813  0.4373  1.7920
 9149SOL     OW38908   2.652   1.408   6.806 -0.2678 -0.3207 -0.2664
 9149SOL    HW138909   2.674   1.400   6.713  0.8567 -1.0874  0.0595
 9149SOL    HW238910   2.678   1.318   6.828  0.4717 -0.8310 -3.2879
 9150SOL     OW38911   3.102   0.605   9.767 -0.0788 -0.0978  0.5780
 9150SOL    HW138912   3.139   0.564   9.689 -0.7691 -0.7317  0.5774
 9150SOL    HW238913   3.170   0.669   9.787  1.0585 -0.3110 -2.6558
 9151SOL     OW38914   2.950   0.202  14.562  0.6289 -0.1150  0.2968
 9151SOL    HW138915   2.872   0.255  14.547  0.2858 -0.3675  1.1963
 9151SOL    HW238916   2.955   0.213  14.657  5.0540 -2.5384  0.3736
 9152SOL     OW38917   1.798   2.223   4.165  0.2590 -0.2505  0.1628
 9152SOL    HW138918   1.789   2.142   4.115  2.1173 -0.2487 -0.1609
 9152SOL    HW238919   1.741   2.277   4.111 -0.3692 -0.3779  0.7005
 9153SOL     OW38920   1.323   1.137   5.347 -0.5700  0.2293 -0.1341
 9153SOL    HW138921   1.418   1.142   5.353 -0.6146  1.0904 -0.1100
 9153SOL    HW238922   1.310   1.047   5.316  0.0961  0.3847 -0.8588
 9154SOL     OW38923   2.127   2.882  16.611  0.1109  0.4605 -0.5743
 9154SOL    HW138924   2.085   2.947  16.667  0.9077 -1.7022  2.6107
 9154SOL    HW238925   2.203   2.928  16.575  1.9082 -0.3776  2.1180
 9155SOL     OW38926   3.680   2.782   8.818 -0.5812  0.2245  0.3842
 9155SOL    HW138927   3.702   2.855   8.760 -1.8910 -0.0621 -0.4513
 9155SOL    HW238928   3.735   2.800   8.895  2.0156 -1.1953 -1.1312
 9156SOL     OW38929   1.198   4.415  11.971  0.1487  0.0648  0.3062
 9156SOL    HW138930   1.194   4.510  11.962  0.1476  0.0929  0.6080
 9156SOL    HW238931   1.264   4.402  11.904  1.5162  3.3657  0.9856
 9157SOL     OW38932   1.638   2.206   2.073 -0.2573 -0.3079 -0.3809
 9157SOL    HW138933   1.609   2.218   2.163  0.9334 -2.8766  0.3448
 9157SOL    HW238934   1.719   2.257   2.086  0.3369 -1.1703 -0.7170
 9158SOL     OW38935   0.218   2.501   7.195 -0.4592 -0.3780 -0.3049
 9158SOL    HW138936   0.278   2.432   7.224 -1.2529 -0.7047  0.5859
 9158SOL    HW238937   0.206   2.492   7.101  1.1612 -1.1997 -0.4243
 9159SOL     OW38938   0.431   3.667  14.278 -0.0822 -0.5032 -0.4798
 9159SOL    HW138939   0.377   3.733  14.235 -3.8861 -2.1829  1.6998
 9159SOL    HW238940   0.505   3.672  14.218 -1.1873 -0.8391 -1.8671
 9160SOL     OW38941   2.301   2.310   8.645 -0.1902  0.4494 -0.0435
 9160SOL    HW138942   2.309   2.221   8.678  1.0772  0.1038 -1.2995
 9160SOL    HW238943   2.255   2.354   8.717 -2.2041 -0.4627 -0.7777
 9161SOL     OW38944   2.900   3.185   3.884  0.3329  0.2893 -0.0225
 9161SOL    HW138945   2.899   3.180   3.980  1.3063 -1.2052 -0.0981
 9161SOL    HW238946   2.920   3.095   3.859 -2.6581 -0.9071  1.9516
 9162SOL     OW38947   2.284   0.506   1.281 -0.4411  0.0825 -0.7217
 9162SOL    HW138948   2.190   0.504   1.295 -0.3931 -2.4057 -0.6277
 9162SOL    HW238949   2.305   0.438   1.216  0.3517 -2.0323  1.7368
 9163SOL     OW38950   2.327   0.692   7.612 -0.2104  0.0424  0.2490
 9163SOL    HW138951   2.319   0.671   7.705 -2.0586 -0.0220  0.0800
 9163SOL    HW238952   2.338   0.601   7.583 -1.3678  0.1422 -0.5206
 9164SOL     OW38953   1.430   4.409  10.029 -0.0024  0.1480 -0.0693
 9164SOL    HW138954   1.466   4.383  10.114 -0.6590 -2.3162 -0.5386
 9164SOL    HW238955   1.360   4.467  10.058  1.7623  2.4192 -0.3023
 9165SOL     OW38956   0.438   1.708  15.913 -0.0893 -0.5773 -0.3223
 9165SOL    HW138957   0.397   1.671  15.991  1.0753 -2.6160 -0.6932
 9165SOL    HW238958   0.366   1.752  15.867 -0.1975 -2.1512 -1.6541
 9166SOL     OW38959   2.947   3.168   6.033 -0.3374 -0.0212 -0.2948
 9166SOL    HW138960   2.891   3.115   6.091 -0.6949  0.4456 -0.2117
 9166SOL    HW238961   2.915   3.142   5.947  0.1451  0.6066 -0.6604
 9167SOL     OW38962   4.132   0.637   6.468  0.6050  0.5855 -0.1488
 9167SOL    HW138963   4.105   0.600   6.385  0.1346 -0.4401  0.4633
 9167SOL    HW238964   4.221   0.653   6.435  1.2632 -0.0467  1.2892
 9168SOL     OW38965   3.520   4.164   6.147 -0.0508  0.3546 -0.0411
 9168SOL    HW138966   3.525   4.069   6.141 -1.6156  0.3407 -0.8553
 9168SOL    HW238967   3.610   4.173   6.180 -0.0415  4.3656 -1.1055
 9169SOL     OW38968   0.474   1.566  13.049  0.4234  0.2547  0.0063
 9169SOL    HW138969   0.553   1.575  12.995  1.2317 -2.1775  0.8169
 9169SOL    HW238970   0.434   1.497  12.996  0.7826  1.8728 -2.4187
 9170SOL     OW38971   1.190   1.022   2.682  0.2025  0.4282  0.2570
 9170SOL    HW138972   1.234   0.958   2.738  0.4514 -0.0114 -0.4342
 9170SOL    HW238973   1.125   0.970   2.635 -0.9523  0.7405  1.5163
 9171SOL     OW38974   0.631   2.108   3.195  0.1392 -0.2067 -0.0125
 9171SOL    HW138975   0.669   2.160   3.124 -0.5642  1.3423  0.7568
 9171SOL    HW238976   0.667   2.161   3.267  1.0841 -0.9413  0.0605
 9172SOL     OW38977   3.709   4.063   9.191  0.4430  0.0443 -0.2946
 9172SOL    HW138978   3.729   4.034   9.102  0.1246  0.5154 -0.5204
 9172SOL    HW238979   3.616   4.060   9.210  0.9726 -0.6680  2.1745
 9173SOL     OW38980   1.106   4.711  13.406 -0.6634  0.1165  0.0890
 9173SOL    HW138981   1.165   0.015  13.336 -0.2571 -1.1750 -0.0502
 9173SOL    HW238982   1.145   4.623  13.412 -0.4709  0.3463  2.2900
 9174SOL     OW38983   1.479   2.912   2.462  0.0034 -0.4448  0.2981
 9174SOL    HW138984   1.489   2.845   2.394  1.3456  1.1389 -1.0506
 9174SOL    HW238985   1.386   2.935   2.454 -0.5221 -3.1789 -1.7408
 9175SOL     OW38986   1.644   3.493  13.472  0.4093 -0.4988 -0.0855
 9175SOL    HW138987   1.625   3.411  13.426  1.1471 -0.4011 -0.5650
 9175SOL    HW238988   1.681   3.471  13.557 -0.0295 -0.3519  0.1417
 9176SOL     OW38989   3.203   3.701   8.846  0.0721  0.5695 -0.0190
 9176SOL    HW138990   3.226   3.749   8.926  1.0148 -0.7304  0.4895
 9176SOL    HW238991   3.108   3.711   8.841  0.1836  1.2681 -0.7783
 9177SOL     OW38992   2.209   1.115   5.393 -0.5565  0.5516 -0.2367
 9177SOL    HW138993   2.251   1.124   5.307 -0.9445 -1.8797 -0.6658
 9177SOL    HW238994   2.186   1.023   5.386  0.8574  0.2215 -0.5435
 9178SOL     OW38995   1.338   2.157   2.731 -0.1431 -0.3757  0.2346
 9178SOL    HW138996   1.374   2.245   2.738  1.7191 -1.0676 -0.5331
 9178SOL    HW238997   1.252   2.172   2.691 -0.4631  1.0175  1.4682
 9179SOL     OW38998   1.461   0.880   4.328  0.1680 -0.0453  0.0344
 9179SOL    HW138999   1.534   0.889   4.389  1.2635 -0.1232 -1.2736
 9179SOL    HW239000   1.395   0.937   4.368  0.5789  0.7188 -0.3869
 9180SOL     OW39001   4.464   1.742  12.727  0.2496 -0.5542  0.5216
 9180SOL    HW139002   4.434   1.772  12.812 -1.9019 -1.5495  0.0949
 9180SOL    HW239003   4.557   1.730  12.744  0.7193  0.8631 -0.9933
 9181SOL     OW39004   2.135   0.111  15.905  0.4972  0.0199  0.3820
 9181SOL    HW139005   2.141   0.100  16.000  1.2460 -0.6297  0.2608
 9181SOL    HW239006   2.145   0.206  15.914 -1.2543  0.1600  0.7576
 9182SOL     OW39007   0.684   4.145   3.864 -0.1641  0.2302 -0.3271
 9182SOL    HW139008   0.705   4.210   3.797 -2.7174  1.0961 -0.2557
 9182SOL    HW239009   0.710   4.195   3.941  3.1400  0.6632 -1.7047
 9183SOL     OW39010   2.662   0.978   0.883  0.1997  0.0706 -0.0696
 9183SOL    HW139011   2.597   0.920   0.843 -0.3592 -0.0394  0.9767
 9183SOL    HW239012   2.637   1.070   0.871  1.2294  0.2647 -0.7131
 9184SOL     OW39013   3.385   2.797   6.413  0.0304  0.4872 -0.4613
 9184SOL    HW139014   3.361   2.708   6.437 -2.1514  1.3114  0.4399
 9184SOL    HW239015   3.415   2.783   6.323  1.4074 -0.6142  0.1711
 9185SOL     OW39016   0.974   0.482   8.977  0.2181 -0.5569  0.1480
 9185SOL    HW139017   1.056   0.528   8.958  0.0249  0.8573  2.7321
 9185SOL    HW239018   0.912   0.551   9.002  0.3658 -1.4516  2.9979
 9186SOL     OW39019   0.223   1.948   7.669  0.1087  0.1142 -0.5585
 9186SOL    HW139020   0.200   1.991   7.751 -0.3993  0.6029 -0.9601
 9186SOL    HW239021   0.308   1.988   7.652 -0.2871  1.5785  0.9053
 9187SOL     OW39022   2.989   0.880   6.970  0.0101 -0.4176  0.1591
 9187SOL    HW139023   2.971   0.920   7.054 -2.0063  0.7336 -0.8283
 9187SOL    HW239024   2.947   0.794   6.970  0.5295 -0.6766 -2.0990
 9188SOL     OW39025   0.326   2.099   4.277 -0.2030  0.0395  0.5960
 9188SOL    HW139026   0.296   2.140   4.358 -0.3008  1.3540 -0.1047
 9188SOL    HW239027   0.411   2.138   4.259  0.4444 -0.6181  2.1805
 9189SOL     OW39028   2.654   3.344   0.496  0.5645  0.6783  0.0920
 9189SOL    HW139029   2.709   3.302   0.562 -0.7871 -1.2850 -0.0447
 9189SOL    HW239030   2.601   3.269   0.470  0.0535  0.9621  0.2988
 9190SOL     OW39031   3.987   2.600   7.117  0.1729  0.2845 -0.4308
 9190SOL    HW139032   4.043   2.602   7.195 -0.4123 -0.3823  0.0215
 9190SOL    HW239033   4.053   2.619   7.051 -1.2874  0.1891 -1.9355
 9191SOL     OW39034   4.500   1.555   5.943  0.1301 -0.2624  0.4066
 9191SOL    HW139035   4.484   1.627   6.004  2.6973 -0.3352  1.1422
 9191SOL    HW239036   4.420   1.564   5.891  0.1404 -1.6755  0.1326
 9192SOL     OW39037   0.631   0.617   6.630 -0.6587  0.4621  0.0764
 9192SOL    HW139038   0.637   0.695   6.576 -1.3968 -0.0500 -0.7385
 9192SOL    HW239039   0.689   0.550   6.594 -0.7581 -0.9559  2.4774
 9193SOL     OW39040   3.427   0.954   3.387  0.4657  0.4504  0.2666
 9193SOL    HW139041   3.471   0.953   3.302 -0.2506  1.1666 -0.1156
 9193SOL    HW239042   3.345   0.907   3.373  0.4277  0.8429 -0.7852
 9194SOL     OW39043   2.240   2.056   5.265  0.4665  0.3927  0.1131
 9194SOL    HW139044   2.286   2.045   5.348  2.1485  0.8589 -0.7598
 9194SOL    HW239045   2.270   1.976   5.221 -0.0835  0.0333  0.3921
 9195SOL     OW39046   3.194   1.097  12.322 -0.2724  0.4746 -0.2707
 9195SOL    HW139047   3.260   1.166  12.322  0.8063 -0.5663  1.8562
 9195SOL    HW239048   3.120   1.150  12.349 -0.9201  0.3955 -1.9270
 9196SOL     OW39049   4.020   3.338  11.876  0.2686 -0.6863  0.1847
 9196SOL    HW139050   4.069   3.377  11.803 -1.1621  2.2040  0.7532
 9196SOL    HW239051   3.943   3.303  11.832  2.1658 -2.3432 -1.8744
 9197SOL     OW39052   2.202   4.023  14.603 -0.3257 -0.0150  0.2834
 9197SOL    HW139053   2.128   4.077  14.630 -0.2692 -0.0201  0.4496
 9197SOL    HW239054   2.247   4.027  14.688  0.8586 -2.2424 -0.2324
 9198SOL     OW39055   1.448   4.117  16.130 -0.0802  0.5286 -0.2763
 9198SOL    HW139056   1.505   4.184  16.093 -0.8230  1.5392  0.3855
 9198SOL    HW239057   1.417   4.090  16.043  0.0192 -0.5525  0.0280
 9199SOL     OW39058   2.129   2.283  11.946 -0.3866  0.1476 -0.1259
 9199SOL    HW139059   2.116   2.296  12.040  2.4360 -1.2493  0.4611
 9199SOL    HW239060   2.145   2.189  11.934  0.2253  0.1080  0.9544
 9200SOL     OW39061   1.757   4.061  17.431 -0.0971 -0.1657 -0.3497
 9200SOL    HW139062   1.834   4.015  17.399  0.1383 -0.4586  0.6684
 9200SOL    HW239063   1.742   4.013  17.512  0.6760 -0.6123 -0.4756
 9201SOL     OW39064   4.560   3.734  16.171  0.1187 -0.0726  0.1312
 9201SOL    HW139065   4.480   3.683  16.154  0.3982 -0.0309 -1.2631
 9201SOL    HW239066   4.634   3.696  16.124 -0.6504  1.2055 -2.1211
 9202SOL     OW39067   4.049   0.395   4.093 -0.1567  0.1706 -0.3015
 9202SOL    HW139068   4.101   0.456   4.041 -0.1966 -1.4117 -2.1871
 9202SOL    HW239069   4.097   0.388   4.175  1.1269 -0.4821 -1.1090
 9203SOL     OW39070   2.077   2.286   0.553 -0.2983 -0.2912 -0.3815
 9203SOL    HW139071   2.133   2.217   0.518  0.2119  0.1862 -0.5167
 9203SOL    HW239072   1.994   2.268   0.509  0.5050 -0.3175 -1.8847
 9204SOL     OW39073   4.227   2.535   4.290 -0.3585  0.2801 -0.5015
 9204SOL    HW139074   4.265   2.615   4.326  3.0709 -1.2091 -0.8981
 9204SOL    HW239075   4.239   2.477   4.365 -2.6172  0.6157  0.1365
 9205SOL     OW39076   2.684   4.617   3.395 -0.2000  0.1038  0.0046
 9205SOL    HW139077   2.692   4.709   3.371  2.2758  0.1889  1.1852
 9205SOL    HW239078   2.774   4.606   3.426 -0.5603  1.5040  1.5677
 9206SOL     OW39079   1.139   1.118   3.108 -0.4353  0.3497 -0.5272
 9206SOL    HW139080   1.176   1.160   3.031 -1.2525  0.5595 -0.8042
 9206SOL    HW239081   1.151   1.180   3.180  1.7361  2.4452 -2.7137
 9207SOL     OW39082   3.383   3.570  15.091 -0.0741  0.3274 -0.1580
 9207SOL    HW139083   3.443   3.571  15.166  0.1762 -1.2677 -0.3309
 9207SOL    HW239084   3.396   3.486  15.046  1.2907  0.2622  0.3607
 9208SOL     OW39085   1.898   1.441  17.661 -0.8358 -0.0890  0.0157
 9208SOL    HW139086   1.875   1.389  17.584 -1.2415  0.2487 -0.0945
 9208SOL    HW239087   1.824   1.502  17.663  1.4196  2.6652 -1.0485
 9209SOL     OW39088   1.802   2.402   0.516 -0.1588  0.4367 -0.0175
 9209SOL    HW139089   1.716   2.437   0.494 -0.2916 -0.2099 -0.5384
 9209SOL    HW239090   1.843   2.396   0.430 -1.2252 -0.6333 -0.4543
 9210SOL     OW39091   0.312   0.393   3.537  0.6409  0.0276  0.5645
 9210SOL    HW139092   0.254   0.318   3.528 -0.7528  1.1084  0.6331
 9210SOL    HW239093   0.391   0.339   3.531  1.1808  0.8090  0.5723
 9211SOL     OW39094   1.448   1.292   7.917 -0.6343  0.0324 -0.8856
 9211SOL    HW139095   1.419   1.227   7.854  0.1140  0.2356 -1.4399
 9211SOL    HW239096   1.530   1.263   7.958 -1.4214 -0.0812  0.6159
 9212SOL     OW39097   3.075   4.285   2.301 -0.5147  0.0487 -0.2554
 9212SOL    HW139098   3.102   4.242   2.382 -0.0471  1.3961  0.3179
 9212SOL    HW239099   3.155   4.291   2.249  0.9897 -4.4960  1.5755
 9213SOL     OW39100   4.188   1.547   7.910 -0.3797  0.8183 -0.3316
 9213SOL    HW139101   4.125   1.507   7.850 -1.1694  1.6038 -0.0347
 9213SOL    HW239102   4.146   1.630   7.934  0.3864  0.9954  0.3885
 9214SOL     OW39103   1.285   3.361   5.995 -0.3196 -0.2889 -0.6829
 9214SOL    HW139104   1.247   3.313   6.069  0.6055 -2.0825 -1.3840
 9214SOL    HW239105   1.372   3.379   6.030 -0.3313 -1.9289  0.1934
 9215SOL     OW39106   3.605   4.343  13.324  0.1528  0.0715 -0.1564
 9215SOL    HW139107   3.670   4.349  13.253  0.0215 -2.7645 -0.5328
 9215SOL    HW239108   3.524   4.304  13.291  0.6376 -2.1626  1.3008
 9216SOL     OW39109   3.614   1.737   1.681  0.1883 -0.1276  0.1509
 9216SOL    HW139110   3.587   1.708   1.594 -2.0191 -0.6133  1.0041
 9216SOL    HW239111   3.706   1.759   1.662 -0.0475  1.7495  1.1956
 9217SOL     OW39112   1.901   2.319   0.277 -0.2681 -0.1899  0.0398
 9217SOL    HW139113   1.956   2.252   0.237 -0.4039  0.2062 -0.8299
 9217SOL    HW239114   1.877   2.374   0.202  0.6055  1.6657  1.1455
 9218SOL     OW39115   2.791   2.493   6.963 -0.3069 -0.1868  0.0042
 9218SOL    HW139116   2.769   2.538   7.045 -1.4034 -0.3541 -0.2031
 9218SOL    HW239117   2.708   2.483   6.916  0.3409 -0.2606 -1.1207
 9219SOL     OW39118   4.606   3.490  11.836  0.2731 -0.4033 -0.4607
 9219SOL    HW139119   4.627   3.406  11.877  2.5921  1.5283  2.2926
 9219SOL    HW239120   4.635   3.477  11.746 -0.2324 -0.9057 -0.5482
 9220SOL     OW39121   3.374   1.453  13.354  0.0851 -0.1323  0.2795
 9220SOL    HW139122   3.460   1.442  13.313  0.7782  2.7693  0.9423
 9220SOL    HW239123   3.361   1.366  13.391  0.6835 -0.3410  0.0007
 9221SOL     OW39124   1.052   2.530   9.274  0.2111  0.1552  0.4600
 9221SOL    HW139125   1.131   2.582   9.291 -0.5104  1.6546 -0.6830
 9221SOL    HW239126   0.997   2.598   9.233  0.2935 -1.6799 -2.7028
 9222SOL     OW39127   1.264   1.141   1.988  0.5153  0.8697 -0.0163
 9222SOL    HW139128   1.213   1.118   1.910  1.9711 -0.8411 -0.4588
 9222SOL    HW239129   1.344   1.089   1.975 -0.9707 -1.6013  0.6684
 9223SOL     OW39130   2.664   1.999  16.538  0.3217 -0.3986  0.1837
 9223SOL    HW139131   2.673   2.023  16.446 -0.2683  0.5978  0.3767
 9223SOL    HW239132   2.756   1.975  16.548  0.5096  0.4615  0.5070
 9224SOL     OW39133   0.074   4.153   7.021 -0.1125 -0.4104 -0.5035
 9224SOL    HW139134   0.166   4.156   7.048 -0.2652 -1.2165  0.1304
 9224SOL    HW239135   0.084   4.081   6.959  0.0251 -0.6334 -0.2278
 9225SOL     OW39136   3.833   3.486   2.237 -0.5853 -0.2047  0.0282
 9225SOL    HW139137   3.792   3.449   2.315  0.3636 -2.5540 -0.6024
 9225SOL    HW239138   3.794   3.574   2.239  0.6771  0.3956 -1.8455
 9226SOL     OW39139   3.374   3.671   9.246  0.1982 -0.0433 -0.2538
 9226SOL    HW139140   3.291   3.665   9.199  0.3598 -2.3386 -0.2184
 9226SOL    HW239141   3.430   3.700   9.174  0.1442  0.1608 -0.2152
 9227SOL     OW39142   2.971   3.085  12.516 -0.7023  0.1287  0.6058
 9227SOL    HW139143   3.040   3.055  12.576  2.3889  1.5560 -2.2438
 9227SOL    HW239144   3.005   3.158  12.464  0.7178 -0.9470  0.0241
 9228SOL     OW39145   1.663   2.495   3.200 -0.1697 -0.2867  0.0338
 9228SOL    HW139146   1.568   2.491   3.205 -0.0622 -1.3137  1.2443
 9228SOL    HW239147   1.675   2.570   3.259  0.9470 -2.4027  2.5117
 9229SOL     OW39148   3.897   1.072   6.136  0.2429  0.7158  0.0802
 9229SOL    HW139149   3.960   1.129   6.181  0.1205  2.0538 -1.4586
 9229SOL    HW239150   3.910   0.990   6.183 -3.5458  0.7523  1.2465
 9230SOL     OW39151   1.320   4.084   6.731 -0.1119  0.2035 -0.1407
 9230SOL    HW139152   1.267   4.125   6.799  2.5548  1.2023  1.3343
 9230SOL    HW239153   1.298   3.993   6.749  0.1532 -0.1028 -1.3610
 9231SOL     OW39154   1.819   3.709   4.132  0.0705  0.0862 -0.1094
 9231SOL    HW139155   1.900   3.721   4.082 -1.4399  0.9282 -2.3616
 9231SOL    HW239156   1.835   3.629   4.182 -0.8378 -0.8050 -1.2493
 9232SOL     OW39157   3.622   2.837  10.201  0.2418 -0.4837  0.2211
 9232SOL    HW139158   3.583   2.791  10.276 -0.2327 -2.9287 -1.5287
 9232SOL    HW239159   3.708   2.859  10.237  0.2847 -3.6561  2.0919
 9233SOL     OW39160   4.224   2.403  10.964 -0.3307  1.0395  0.1897
 9233SOL    HW139161   4.296   2.380  10.906 -0.5489 -1.8755  1.0667
 9233SOL    HW239162   4.161   2.334  10.948  1.7817 -0.3963 -1.8179
 9234SOL     OW39163   2.513   4.470   9.557 -0.0792 -0.0149 -0.1105
 9234SOL    HW139164   2.588   4.467   9.498  0.4926 -0.0538  0.6109
 9234SOL    HW239165   2.499   4.561   9.583 -1.3799  0.6854 -3.3385
 9235SOL     OW39166   3.105   3.110   4.534 -0.3992  0.2845 -0.3721
 9235SOL    HW139167   3.145   3.158   4.606  2.2652 -2.7480  0.1669
 9235SOL    HW239168   3.016   3.145   4.536  0.2733  2.0382 -0.5078
 9236SOL     OW39169   4.304   4.254   3.545 -0.4434 -0.9579 -0.0594
 9236SOL    HW139170   4.295   4.345   3.517 -0.3901 -1.0219 -0.2824
 9236SOL    HW239171   4.259   4.216   3.469  0.2308  0.3932 -1.1134
 9237SOL     OW39172   1.996   4.558   7.285  0.1902  0.3710 -0.3036
 9237SOL    HW139173   1.999   4.653   7.275 -3.0910  0.4916 -0.1878
 9237SOL    HW239174   1.988   4.549   7.190 -0.1930  2.0829 -0.4486
 9238SOL     OW39175   1.316   1.692  15.706 -0.3040  1.0726  0.3299
 9238SOL    HW139176   1.393   1.643  15.734 -1.1912 -1.0339 -0.9759
 9238SOL    HW239177   1.333   1.694  15.612 -4.7365  0.2032 -0.4781
 9239SOL     OW39178   3.081   1.834   6.402  0.2632  0.1077  0.0965
 9239SOL    HW139179   3.081   1.878   6.487 -1.3611  0.2988 -0.0032
 9239SOL    HW239180   3.174   1.851   6.384 -1.0584  3.1788 -3.6211
 9240SOL     OW39181   4.573   2.547  12.564 -0.1053  0.5476  0.3850
 9240SOL    HW139182   4.547   2.521  12.652 -1.5957  0.5552 -0.0653
 9240SOL    HW239183   4.522   2.484  12.512  1.3963 -0.2613 -0.1303
 9241SOL     OW39184   0.296   3.514   2.483  0.5887  0.1211  0.2479
 9241SOL    HW139185   0.322   3.439   2.430 -0.6586  0.2362 -0.5131
 9241SOL    HW239186   0.319   3.481   2.570 -0.9226  0.5161  0.7976
 9242SOL     OW39187   1.135   3.593   6.896  0.1131 -0.1280  0.1411
 9242SOL    HW139188   1.048   3.556   6.886  0.6509 -1.0514 -1.1134
 9242SOL    HW239189   1.124   3.599   6.991  2.7668 -0.0192  0.4473
 9243SOL     OW39190   2.653   1.634   5.235 -0.2047  0.3728  0.5287
 9243SOL    HW139191   2.694   1.548   5.240  1.1113  0.9162 -0.8198
 9243SOL    HW239192   2.718   1.686   5.188  1.8224 -0.5529  2.3095
 9244SOL     OW39193   1.960   0.573   3.069 -0.2628 -0.1457 -0.4390
 9244SOL    HW139194   1.908   0.567   2.988 -2.1002 -4.1402  1.0095
 9244SOL    HW239195   2.034   0.615   3.025 -0.2298 -2.2479 -2.4386
 9245SOL     OW39196   2.621   4.285   9.006  0.0299  0.4504 -0.0646
 9245SOL    HW139197   2.710   4.321   9.013 -0.0571  1.0841 -2.1762
 9245SOL    HW239198   2.580   4.320   8.926  0.5490  0.3691 -0.3698
 9246SOL     OW39199   3.337   3.717   5.578 -0.2469 -0.3769  0.3138
 9246SOL    HW139200   3.396   3.646   5.603  3.1659  1.1179 -3.5201
 9246SOL    HW239201   3.407   3.775   5.548 -0.2728 -1.9295 -2.7771
 9247SOL     OW39202   4.423   3.232  10.158 -0.7211  0.8509 -0.0377
 9247SOL    HW139203   4.403   3.326  10.166 -1.0674  0.6843  0.9983
 9247SOL    HW239204   4.354   3.207  10.096 -1.9179  1.6576  0.9472
 9248SOL     OW39205   0.352   1.193  10.667  0.3048 -0.5929  0.3640
 9248SOL    HW139206   0.407   1.137  10.722  0.1309 -1.2701 -0.1415
 9248SOL    HW239207   0.320   1.237  10.745  2.4315  0.9252  0.3789
 9249SOL     OW39208   3.193   2.318   5.534 -0.1147  0.3522 -0.0110
 9249SOL    HW139209   3.210   2.354   5.620  0.3490 -1.9871  0.8848
 9249SOL    HW239210   3.258   2.249   5.521  0.8387  1.3097 -0.3113
 9250SOL     OW39211   3.697   3.892   4.384  0.0349  0.2796  0.0186
 9250SOL    HW139212   3.620   3.945   4.406  0.4592  0.6939  0.4849
 9250SOL    HW239213   3.706   3.832   4.457  0.7707  0.9199  0.4530
 9251SOL     OW39214   4.616   1.239   8.883  0.8978  0.8097  0.0249
 9251SOL    HW139215   4.660   1.155   8.874  1.5897  1.0566  1.1205
 9251SOL    HW239216   4.659   1.288   8.813  0.4722 -0.7065 -1.2830
 9252SOL     OW39217   0.956   0.635   7.708  0.2493 -0.0422  0.0442
 9252SOL    HW139218   0.964   0.722   7.748 -0.4460 -0.4635  1.0861
 9252SOL    HW239219   1.027   0.648   7.645 -0.5684  4.0788 -0.0322
 9253SOL     OW39220   0.725   1.409   2.676  0.2086  0.0147  0.2987
 9253SOL    HW139221   0.731   1.351   2.752  0.9228 -1.5572 -0.9514
 9253SOL    HW239222   0.805   1.461   2.680  0.5605 -0.5333  0.3770
 9254SOL     OW39223   1.836   0.976   5.076 -0.5022 -0.4881  0.1623
 9254SOL    HW139224   1.763   1.038   5.084 -0.6570 -0.8159  1.3898
 9254SOL    HW239225   1.779   0.899   5.073  0.1560 -1.0024  0.8565
 9255SOL     OW39226   4.262   3.624  11.905  0.0549  0.2323 -0.1003
 9255SOL    HW139227   4.205   3.683  11.856  0.5438  1.9734  1.4304
 9255SOL    HW239228   4.342   3.619  11.852  1.2928 -0.1299  1.7827
 9256SOL     OW39229   2.568   2.463   4.136  0.2415 -0.5184  0.3322
 9256SOL    HW139230   2.486   2.484   4.180  1.2129 -0.8154  2.2668
 9256SOL    HW239231   2.542   2.393   4.077 -1.6172  0.0347  0.5047
 9257SOL     OW39232   2.167   0.449   9.458 -0.2441  0.3241 -0.0601
 9257SOL    HW139233   2.151   0.518   9.523  0.4194  1.9164 -1.5996
 9257SOL    HW239234   2.076   0.435   9.431  0.0589 -1.9906  0.1682
 9258SOL     OW39235   2.630   2.316   3.121 -0.0758 -0.3113  0.1178
 9258SOL    HW139236   2.570   2.317   3.047 -0.7933  0.5196  0.7123
 9258SOL    HW239237   2.642   2.407   3.148  1.0271  0.1017 -1.7466
 9259SOL     OW39238   3.678   4.295   6.736 -0.7693 -0.4819 -0.0415
 9259SOL    HW139239   3.675   4.312   6.830  1.6256  0.5525 -0.1778
 9259SOL    HW239240   3.673   4.383   6.699  1.0902 -0.9104 -1.3222
 9260SOL     OW39241   0.789   1.744  16.774 -0.2095 -0.5785  0.4604
 9260SOL    HW139242   0.873   1.781  16.802 -0.7764  2.0857 -1.3319
 9260SOL    HW239243   0.762   1.688  16.847  0.3922 -0.5999  0.6669
 9261SOL     OW39244   2.623   3.819   9.783  0.5615  0.5303  0.8118
 9261SOL    HW139245   2.660   3.848   9.866 -0.1414  2.0298  0.6156
 9261SOL    HW239246   2.647   3.728   9.798  1.4753  0.6302 -0.0281
 9262SOL     OW39247   4.689   3.134   9.039 -0.1846  0.2952  0.0009
 9262SOL    HW139248   4.626   3.147   8.968  0.6493 -2.8856 -1.3351
 9262SOL    HW239249   0.039   3.101   8.985 -0.3351  1.6961 -1.0625
 9263SOL     OW39250   2.937   2.810   5.667  0.0859  0.1998  0.7726
 9263SOL    HW139251   2.948   2.737   5.606 -2.0618  0.7606 -0.2771
 9263SOL    HW239252   2.930   2.760   5.749 -2.0032 -1.2366 -0.2702
 9264SOL     OW39253   4.429   4.430   5.632 -0.3163  0.3457 -0.1872
 9264SOL    HW139254   4.503   4.369   5.639 -0.6248  0.1632  1.5552
 9264SOL    HW239255   4.353   4.375   5.652 -0.0583  0.0483 -0.0235
 9265SOL     OW39256   0.374   1.570   6.464 -0.0096  0.2812  0.2429
 9265SOL    HW139257   0.346   1.560   6.555  2.0813 -0.8693  0.7726
 9265SOL    HW239258   0.379   1.478   6.436 -0.1401  1.0551 -2.3409
 9266SOL     OW39259   0.231   3.103   5.145 -0.1474 -0.2598  0.0652
 9266SOL    HW139260   0.238   3.036   5.212 -1.1540  0.0978  0.5270
 9266SOL    HW239261   0.268   3.049   5.075  1.4573  1.9620 -0.7980
 9267SOL     OW39262   3.396   1.994   0.362  0.1184  0.3667 -0.1432
 9267SOL    HW139263   3.332   1.958   0.301 -2.1374  1.9785  1.2897
 9267SOL    HW239264   3.361   2.081   0.382  0.6225  0.4872  0.2182
 9268SOL     OW39265   2.637   3.662   2.394 -0.5335  0.2436  0.1348
 9268SOL    HW139266   2.691   3.632   2.467 -0.7548  1.3343  0.7553
 9268SOL    HW239267   2.693   3.722   2.345 -0.3270  0.1191  0.2175
 9269SOL     OW39268   3.886   1.906   8.028  0.3195  0.7992  0.0841
 9269SOL    HW139269   3.843   1.822   8.011  2.2350 -0.0923 -0.3256
 9269SOL    HW239270   3.812   1.965   8.019 -1.3259 -1.2401  0.1959
 9270SOL     OW39271   3.450   2.069  17.493 -0.2502  0.0863  0.1156
 9270SOL    HW139272   3.463   2.011  17.567  1.0635  0.5985  0.2837
 9270SOL    HW239273   3.489   2.152  17.521  2.6636 -0.8332 -1.2413
 9271SOL     OW39274   4.029   3.000   4.520 -0.3277 -0.5937 -0.0644
 9271SOL    HW139275   4.123   2.988   4.536 -0.5992 -1.5913  0.7720
 9271SOL    HW239276   4.003   2.913   4.491  0.8952 -0.6526 -0.9637
 9272SOL     OW39277   0.133   2.425   9.771 -0.1182  0.0342  0.3918
 9272SOL    HW139278   0.228   2.420   9.766 -0.0634 -0.4524  1.8392
 9272SOL    HW239279   0.111   2.428   9.864 -0.5778 -0.6694  0.3052
 9273SOL     OW39280   1.667   3.509   6.832 -0.7883  0.5774 -0.3261
 9273SOL    HW139281   1.651   3.415   6.842 -0.4471  0.6101  0.5167
 9273SOL    HW239282   1.747   3.509   6.886 -1.0144 -2.6668  0.0091
 9274SOL     OW39283   3.057   4.230   1.876 -0.0255  0.4064 -0.2933
 9274SOL    HW139284   3.006   4.246   1.955 -1.2883  0.5452 -1.1406
 9274SOL    HW239285   3.100   4.150   1.906 -0.8366  0.9252  2.2239
 9275SOL     OW39286   3.626   4.635  13.649 -0.4370 -0.2323 -0.5373
 9275SOL    HW139287   3.572   4.701  13.693  0.2114 -2.1133  3.0758
 9275SOL    HW239288   3.674   4.678  13.578 -0.4408 -0.7677 -0.8672
 9276SOL     OW39289   3.856   0.692   2.891 -0.2187  0.6403 -0.7333
 9276SOL    HW139290   3.863   0.616   2.949  2.1189  1.4702  0.0573
 9276SOL    HW239291   3.806   0.649   2.821 -1.4846  1.5857 -0.4038
 9277SOL     OW39292   0.705   2.366   7.563  0.6147 -1.2034  0.6717
 9277SOL    HW139293   0.614   2.385   7.584  1.2801  2.5166  0.1939
 9277SOL    HW239294   0.698   2.270   7.562  0.1501 -1.1600 -1.3705
 9278SOL     OW39295   3.824   0.353   9.267 -0.1420  0.4094 -0.1394
 9278SOL    HW139296   3.826   0.334   9.361  1.5993  1.3789  0.0307
 9278SOL    HW239297   3.793   0.444   9.267 -0.8416  0.1589 -2.7592
 9279SOL     OW39298   3.953   3.753   3.654  0.4995 -0.2583  0.3155
 9279SOL    HW139299   3.863   3.774   3.630  0.3046 -0.1917  1.0979
 9279SOL    HW239300   3.998   3.825   3.610  0.8599 -0.1765  0.8190
 9280SOL     OW39301   1.554   0.177   6.626 -0.6577  1.0258  0.9629
 9280SOL    HW139302   1.537   0.093   6.584 -1.1526  0.4288  2.3561
 9280SOL    HW239303   1.465   0.211   6.636 -0.9075  0.3335  1.0700
 9281SOL     OW39304   0.867   4.105   3.088  0.3154 -0.0188 -0.1480
 9281SOL    HW139305   0.819   4.155   3.023 -1.7399 -2.2675 -0.3374
 9281SOL    HW239306   0.833   4.147   3.167  0.4507  1.7101 -1.0174
 9282SOL     OW39307   0.021   0.945   7.712  0.0719 -0.6879  0.1848
 9282SOL    HW139308   0.001   0.946   7.805  0.7986 -0.1665  0.3389
 9282SOL    HW239309   0.090   0.880   7.703  1.4703  0.9447 -0.8937
 9283SOL     OW39310   4.311   0.891   2.627 -0.8023  0.2080  0.5531
 9283SOL    HW139311   4.267   0.858   2.705 -0.4742  0.5516  0.8818
 9283SOL    HW239312   4.246   0.869   2.560  1.6092 -0.6315 -1.5023
 9284SOL     OW39313   1.758   1.720   2.534 -0.3043 -0.3150 -0.4347
 9284SOL    HW139314   1.687   1.657   2.524 -0.3767  0.0128 -2.0548
 9284SOL    HW239315   1.793   1.733   2.446 -0.7988  0.0617 -0.5817
 9285SOL     OW39316   4.286   4.244   9.213 -0.2306  0.3253  0.7680
 9285SOL    HW139317   4.200   4.262   9.251 -0.8840 -1.3019  0.0405
 9285SOL    HW239318   4.313   4.336   9.219 -1.6400  0.6660  1.7594
 9286SOL     OW39319   1.687   4.607   3.548  0.1007  0.1996  0.0109
 9286SOL    HW139320   1.712   4.566   3.465 -1.6810  1.0817 -0.9511
 9286SOL    HW239321   1.653   4.692   3.521  3.0189  0.6156 -2.4156
 9287SOL     OW39322   1.749   4.637   4.792 -0.1394  0.0808  0.2054
 9287SOL    HW139323   1.751   4.593   4.708  2.2309  1.3773 -0.4270
 9287SOL    HW239324   1.755   4.573   4.863  0.9050 -0.4433 -0.3497
 9288SOL     OW39325   4.307   2.130  10.696 -0.2138 -0.0403  0.5075
 9288SOL    HW139326   4.264   2.154  10.614  1.2680  0.2745 -0.1721
 9288SOL    HW239327   4.325   2.219  10.725  0.8604  0.4888 -1.7713
 9289SOL     OW39328   2.835   4.209   7.245 -0.1110 -0.1683  0.4630
 9289SOL    HW139329   2.878   4.255   7.172 -2.5064  0.6286 -0.4311
 9289SOL    HW239330   2.764   4.272   7.261  0.8791  0.8391  0.9703
 9290SOL     OW39331   4.640   2.186   3.371  0.2783  0.3687 -0.4937
 9290SOL    HW139332   4.663   2.098   3.342 -0.9922 -0.0067 -0.3542
 9290SOL    HW239333   4.639   2.229   3.285 -0.4284  0.1985 -0.5719
 9291SOL     OW39334   3.870   1.860   2.602  0.1010  0.1670 -0.1937
 9291SOL    HW139335   3.918   1.882   2.681 -0.1658 -0.1521  0.0573
 9291SOL    HW239336   3.879   1.765   2.612 -0.9812  0.0183 -0.5716
 9292SOL     OW39337   0.285   1.725  12.097  0.6907 -0.7290 -0.2137
 9292SOL    HW139338   0.205   1.743  12.146 -0.3062  0.1224 -2.1420
 9292SOL    HW239339   0.275   1.633  12.073  2.7425 -0.6263 -1.4797
 9293SOL     OW39340   1.541   0.254   7.500  0.3370  0.1864 -0.0676
 9293SOL    HW139341   1.580   0.166   7.500 -2.0649 -0.8715  1.6688
 9293SOL    HW239342   1.613   0.309   7.468 -0.1942  0.3323 -1.0020
 9294SOL     OW39343   3.778   4.694   8.974  0.0788 -0.7941 -0.0676
 9294SOL    HW139344   3.827   4.677   9.054  0.1095 -1.1724 -0.1718
 9294SOL    HW239345   3.696   4.648   8.995 -0.1472 -0.3545  0.0301
 9295SOL     OW39346   3.736   1.653   5.306 -0.5939 -0.6088  0.1317
 9295SOL    HW139347   3.821   1.673   5.267  0.8901 -1.3091  3.0497
 9295SOL    HW239348   3.711   1.571   5.264 -2.1061 -0.6505  1.0848
 9296SOL     OW39349   0.874   2.418  13.944  0.3815  0.0489  0.0134
 9296SOL    HW139350   0.966   2.398  13.962  0.0965 -0.4864  0.8847
 9296SOL    HW239351   0.856   2.456  14.030  1.1218 -0.2632  0.3082
 9297SOL     OW39352   1.694   2.192   2.761 -0.3819  0.1713 -0.3498
 9297SOL    HW139353   1.707   2.204   2.855 -0.3952  0.5775 -0.3999
 9297SOL    HW239354   1.651   2.107   2.764  0.9369 -0.5152 -1.2048
 9298SOL     OW39355   4.209   0.148   8.417 -0.3858  0.4327 -0.2789
 9298SOL    HW139356   4.276   0.137   8.350 -1.6869 -1.8705 -1.2067
 9298SOL    HW239357   4.263   0.119   8.490  0.1908  0.9193 -0.5091
 9299SOL     OW39358   4.310   2.299   3.390 -0.0162 -0.0494  0.0377
 9299SOL    HW139359   4.230   2.276   3.342 -0.3559 -0.5779  0.8621
 9299SOL    HW239360   4.334   2.211   3.419 -0.8996  0.3297  1.9197
 9300SOL     OW39361   4.484   0.079   8.910 -0.1928  0.1926  0.2701
 9300SOL    HW139362   4.522   0.009   8.963  1.3219  0.0482 -1.0205
 9300SOL    HW239363   4.393   0.077   8.940 -0.3000  0.3664 -0.0480
 9301SOL     OW39364   2.054   3.659   7.849  0.2282 -0.3059  0.3516
 9301SOL    HW139365   1.999   3.659   7.771  0.8716 -0.4594 -0.1010
 9301SOL    HW239366   1.994   3.687   7.918  0.4096 -2.7080  1.4661
 9302SOL     OW39367   0.150   1.931  16.732 -0.0965  0.3798 -0.2449
 9302SOL    HW139368   0.219   1.960  16.672 -0.1297 -0.3651 -0.6327
 9302SOL    HW239369   0.095   1.881  16.672  1.7883 -0.6437 -1.1005
 9303SOL     OW39370   2.707   0.112   6.390  0.3513  0.2020  0.1405
 9303SOL    HW139371   2.696   0.018   6.401  1.3612 -0.0039 -0.6440
 9303SOL    HW239372   2.802   0.121   6.387  0.2603  0.4266 -2.1256
 9304SOL     OW39373   2.825   0.727   2.232 -0.1585 -0.1919  0.2889
 9304SOL    HW139374   2.882   0.660   2.269  0.8232  0.0039 -0.8768
 9304SOL    HW239375   2.896   0.789   2.214 -0.1541 -0.9334 -2.3038
 9305SOL     OW39376   3.656   3.685   5.718 -0.0930 -0.4996 -0.0557
 9305SOL    HW139377   3.622   3.757   5.665 -0.4779 -0.4426  0.2708
 9305SOL    HW239378   3.584   3.684   5.780 -0.9940 -1.3685 -1.1105
 9306SOL     OW39379   2.588   0.190   0.370 -0.3298 -0.0214  0.5180
 9306SOL    HW139380   2.503   0.145   0.369 -0.3524  0.0230  0.4677
 9306SOL    HW239381   2.586   0.249   0.295  3.5736  1.0538  1.2637
 9307SOL     OW39382   0.457   2.865   4.181 -0.2112  0.7809  0.4787
 9307SOL    HW139383   0.419   2.819   4.106  0.0103  1.3543  0.0153
 9307SOL    HW239384   0.418   2.952   4.167 -0.0428  0.7180 -0.4014
 9308SOL     OW39385   1.930   0.667   4.905  0.3571 -0.8340  0.1169
 9308SOL    HW139386   1.939   0.596   4.969 -0.4720 -0.2529  0.8750
 9308SOL    HW239387   2.000   0.725   4.934 -0.9515  1.0511 -0.5551
 9309SOL     OW39388   2.014   3.651  12.229  0.8999 -0.1435  0.1468
 9309SOL    HW139389   2.090   3.639  12.171  1.3344  1.1104  0.4544
 9309SOL    HW239390   1.940   3.655  12.169  1.4111 -0.7272 -0.5322
 9310SOL     OW39391   0.920   1.499   4.109 -0.4259  0.0763 -0.0265
 9310SOL    HW139392   0.889   1.542   4.029  0.9340  0.9548 -0.0756
 9310SOL    HW239393   0.909   1.408   4.082 -1.7892 -0.1517  1.2943
 9311SOL     OW39394   4.259   3.136  15.643  0.1243 -0.0080  1.0612
 9311SOL    HW139395   4.232   3.148  15.552 -0.8350 -1.2817  1.1733
 9311SOL    HW239396   4.235   3.221  15.680  1.7316  1.3103 -0.9613
 9312SOL     OW39397   1.844   1.093   4.054 -0.2479 -0.1514 -0.0033
 9312SOL    HW139398   1.780   1.025   4.033 -0.0265 -0.6636  1.0239
 9312SOL    HW239399   1.838   1.093   4.149 -0.5828  4.4185  0.0022
 9313SOL     OW39400   3.373   2.911   8.880  0.7843  0.3537  0.1612
 9313SOL    HW139401   3.385   2.956   8.797  1.2664 -0.4124 -0.1856
 9313SOL    HW239402   3.428   2.970   8.931 -0.0121  0.4023  0.9674
 9314SOL     OW39403   3.171   0.388   7.256  0.2019 -0.2702 -0.3223
 9314SOL    HW139404   3.261   0.413   7.234  0.6266 -0.6946  0.9520
 9314SOL    HW239405   3.143   0.352   7.172  1.4781  0.9051 -1.2341
 9315SOL     OW39406   0.332   2.965   7.925  0.0898  0.2365  0.3387
 9315SOL    HW139407   0.399   2.954   7.857 -0.4791 -0.6774 -0.0735
 9315SOL    HW239408   0.258   3.008   7.883  1.2851  1.4269 -0.5734
 9316SOL     OW39409   2.148   2.598   8.454 -0.0142 -0.6891 -0.2118
 9316SOL    HW139410   2.119   2.689   8.445  1.4842  0.1989  3.5862
 9316SOL    HW239411   2.067   2.561   8.490  0.5192 -2.2590 -0.6266
 9317SOL     OW39412   2.187   4.665   2.533  0.5111  0.0321 -0.1500
 9317SOL    HW139413   2.160   4.628   2.617  0.3637 -0.4721 -0.4207
 9317SOL    HW239414   2.262   4.607   2.520  1.2822  0.8608  0.5786
 9318SOL     OW39415   4.128   3.017   0.330 -0.5567  0.1159  0.5449
 9318SOL    HW139416   4.208   3.038   0.282 -0.6177 -1.0153 -0.0569
 9318SOL    HW239417   4.155   3.039   0.419 -1.8350 -0.4057  1.0598
 9319SOL     OW39418   1.836   1.264   4.690 -0.1398  0.3272 -0.7036
 9319SOL    HW139419   1.826   1.325   4.617  1.1530  1.3173 -0.0467
 9319SOL    HW239420   1.768   1.202   4.663  0.6997 -0.7724 -0.2881
 9320SOL     OW39421   1.525   1.347   2.185 -0.3605  0.1015  0.2328
 9320SOL    HW139422   1.575   1.306   2.114 -0.1061  2.6310 -1.0125
 9320SOL    HW239423   1.574   1.429   2.192 -0.4635  0.1565  0.2990
 9321SOL     OW39424   0.443   0.105   7.593  0.0461  0.1910 -0.3664
 9321SOL    HW139425   0.510   0.083   7.658 -0.8129 -1.8844 -0.2033
 9321SOL    HW239426   0.432   0.027   7.539 -1.1718 -0.8823  1.4407
 9322SOL     OW39427   4.085   2.295   0.966 -0.5517 -0.5787  0.3057
 9322SOL    HW139428   4.050   2.378   0.997  0.9533  1.3798 -3.2454
 9322SOL    HW239429   4.054   2.284   0.876 -1.8098  2.2647  0.3872
 9323SOL     OW39430   2.089   2.111   7.061  0.9596 -0.2283  0.1188
 9323SOL    HW139431   2.012   2.084   7.012  1.0386 -1.3979  0.6226
 9323SOL    HW239432   2.149   2.138   6.992 -2.1968  1.3042 -2.0097
 9324SOL     OW39433   4.207   4.677   4.350 -0.1596  0.2861 -0.5204
 9324SOL    HW139434   4.222   0.046   4.378  2.6835  0.0014 -1.1177
 9324SOL    HW239435   4.133   4.693   4.290 -0.0673  0.7409 -0.5127
 9325SOL     OW39436   0.088   4.052   1.028  0.4359 -0.5061 -0.0341
 9325SOL    HW139437   0.113   4.141   1.001  1.0579 -1.0989 -1.4043
 9325SOL    HW239438   0.096   4.059   1.123  0.4828  1.0361 -0.1458
 9326SOL     OW39439   2.867   0.688   6.798 -0.0911 -0.0642 -0.0634
 9326SOL    HW139440   2.950   0.699   6.751  0.0249  0.5783  0.2956
 9326SOL    HW239441   2.844   0.597   6.778  1.1914  0.0315 -1.9575
 9327SOL     OW39442   1.379   2.458   7.786 -0.0708 -0.1035  0.1244
 9327SOL    HW139443   1.330   2.488   7.709  0.1631  0.2535  0.1161
 9327SOL    HW239444   1.466   2.474   7.748 -0.7471  1.7232 -0.6767
 9328SOL     OW39445   1.994   0.796   3.632  0.4280  0.2796  0.3368
 9328SOL    HW139446   1.972   0.707   3.658  0.9374  0.0465 -0.0215
 9328SOL    HW239447   1.988   0.797   3.536 -1.4616 -0.0960  0.4520
 9329SOL     OW39448   3.367   1.828   1.959  0.2547 -0.3107  0.8957
 9329SOL    HW139449   3.402   1.742   1.934 -0.0220  0.8071 -3.3763
 9329SOL    HW239450   3.437   1.864   2.014  0.7092 -0.0244  0.1384
 9330SOL     OW39451   0.854   3.485   6.988 -0.1369 -0.1302 -0.3660
 9330SOL    HW139452   0.803   3.425   6.934 -2.5137  0.0996  1.6254
 9330SOL    HW239453   0.842   3.444   7.074 -0.5034  0.0492 -0.3337
 9331SOL     OW39454   0.995   2.409   4.070  0.0779  0.2866  0.2719
 9331SOL    HW139455   0.993   2.420   3.975  1.3843 -1.7984 -0.0024
 9331SOL    HW239456   1.045   2.327   4.076  0.1842  0.5861  3.5508
 9332SOL     OW39457   2.949   3.959   7.269  0.0922  0.2746 -0.0742
 9332SOL    HW139458   2.905   4.042   7.252 -1.8599 -0.9196 -0.8950
 9332SOL    HW239459   3.000   3.980   7.347  0.7079 -0.3694 -0.3075
 9333SOL     OW39460   3.052   3.579   4.489  0.1142  0.2015 -0.2551
 9333SOL    HW139461   3.134   3.571   4.536 -0.1589  0.1262  0.2117
 9333SOL    HW239462   3.071   3.630   4.410  0.4399 -2.8236 -2.1482
 9334SOL     OW39463   2.071   2.554  12.210  0.4418 -0.2678 -0.4364
 9334SOL    HW139464   2.113   2.583  12.129  0.0319 -1.1478 -0.9748
 9334SOL    HW239465   2.127   2.596  12.276  1.1894 -1.7850 -0.0980
 9335SOL     OW39466   4.364   1.070  12.587 -0.0906 -0.2613  0.0392
 9335SOL    HW139467   4.318   1.020  12.520  1.1300 -0.3121 -0.7619
 9335SOL    HW239468   4.347   1.023  12.669 -2.0184 -0.8212 -0.6841
 9336SOL     OW39469   1.803   1.043  15.614 -0.6012 -0.1591  0.6578
 9336SOL    HW139470   1.829   0.953  15.637 -0.7675 -0.6138 -0.9391
 9336SOL    HW239471   1.873   1.092  15.658 -1.0040 -0.8617  2.0868
 9337SOL     OW39472   3.672   2.719   1.479 -0.4809 -0.2057 -0.0105
 9337SOL    HW139473   3.638   2.780   1.413 -1.0839  0.7525  1.1974
 9337SOL    HW239474   3.761   2.750   1.495 -0.6194  0.8544 -1.1949
 9338SOL     OW39475   3.146   1.864   1.746 -0.1060 -0.3352 -0.8477
 9338SOL    HW139476   3.229   1.875   1.792  0.1721 -0.0258 -1.4251
 9338SOL    HW239477   3.160   1.780   1.701 -1.2231 -0.8938 -0.1498
 9339SOL     OW39478   1.300   3.800   3.018  0.5051  0.3834  0.4226
 9339SOL    HW139479   1.275   3.888   2.991  2.9571  0.9249 -0.0374
 9339SOL    HW239480   1.211   3.763   3.024  1.4435 -2.2134 -1.3864
 9340SOL     OW39481   3.905   4.406   7.579 -0.6055  0.0694 -0.3645
 9340SOL    HW139482   3.947   4.467   7.640 -1.0021  3.4473 -3.4207
 9340SOL    HW239483   3.846   4.363   7.642 -0.7156  0.0385 -0.4893
 9341SOL     OW39484   2.552   3.839   5.352  0.3283  1.0738  0.0393
 9341SOL    HW139485   2.469   3.796   5.375 -0.1521  0.6981 -2.4592
 9341SOL    HW239486   2.606   3.803   5.423 -2.3845 -1.0422  1.0782
 9342SOL     OW39487   0.710   1.625  12.589 -0.0284  0.2796  0.1641
 9342SOL    HW139488   0.713   1.597  12.498 -0.7340  2.0292 -0.3839
 9342SOL    HW239489   0.767   1.702  12.584 -0.0567  0.2953  0.0893
 9343SOL     OW39490   3.610   2.957   5.496  0.4152  0.7132 -0.7760
 9343SOL    HW139491   3.603   2.935   5.403 -0.5843 -1.0119 -0.2995
 9343SOL    HW239492   3.524   2.989   5.520  0.3720 -0.2055  0.2632
 9344SOL     OW39493   4.452   2.886  12.676 -0.7418  0.4490 -0.0049
 9344SOL    HW139494   4.410   2.956  12.726  1.1579  0.9520  0.8649
 9344SOL    HW239495   4.370   2.853  12.639  0.5674 -0.3051 -2.2787
 9345SOL     OW39496   2.231   4.392   3.267  0.5158 -0.3484 -0.0303
 9345SOL    HW139497   2.302   4.364   3.324  0.8330  1.1651  0.3138
 9345SOL    HW239498   2.265   4.478   3.245 -1.3827  1.0484  2.4654
 9346SOL     OW39499   1.386   1.801   3.334  0.6387  0.1132  0.5509
 9346SOL    HW139500   1.348   1.769   3.416 -1.4156 -0.4902 -0.6282
 9346SOL    HW239501   1.418   1.718   3.298 -1.9047 -1.4086  1.8144
 9347SOL     OW39502   1.238   3.462   5.019 -0.2930  0.3943  0.1492
 9347SOL    HW139503   1.216   3.475   4.927 -2.8603 -0.7462  0.5739
 9347SOL    HW239504   1.254   3.551   5.049 -0.2471  0.6819 -0.7612
 9348SOL     OW39505   2.552   1.731   2.855  0.0561 -0.0072 -0.5008
 9348SOL    HW139506   2.567   1.639   2.833 -1.2931  0.1171 -2.0272
 9348SOL    HW239507   2.615   1.775   2.799 -0.1577  0.8046 -0.1045
 9349SOL     OW39508   3.242   2.091  17.303 -0.5402 -0.3965  0.0199
 9349SOL    HW139509   3.314   2.085  17.366 -0.4439  1.4053  0.0851
 9349SOL    HW239510   3.214   2.181  17.321  1.3994  0.0090  1.0850
 9350SOL     OW39511   1.232   4.561   3.816  0.5777  0.4869 -0.2096
 9350SOL    HW139512   1.189   4.522   3.892  1.1948  0.6409  0.2208
 9350SOL    HW239513   1.316   4.596   3.846  1.3531 -1.9337  0.4425
 9351SOL     OW39514   0.335   1.166   6.006  0.1298 -0.2182 -0.5668
 9351SOL    HW139515   0.311   1.254   5.975 -1.9115 -1.5178 -2.6650
 9351SOL    HW239516   0.303   1.173   6.095 -0.6930 -1.0882 -0.8063
 9352SOL     OW39517   2.799   2.069   6.954 -0.0883  0.1135 -0.6365
 9352SOL    HW139518   2.798   2.103   7.043 -0.9420  1.5174 -1.1698
 9352SOL    HW239519   2.891   2.067   6.924  0.4657 -1.5078  1.2524
 9353SOL     OW39520   2.679   1.503   1.813 -0.0361 -0.3128  0.1660
 9353SOL    HW139521   2.686   1.455   1.730  1.3848 -1.2428  0.8250
 9353SOL    HW239522   2.608   1.565   1.796  1.0897  1.2299  1.0458
 9354SOL     OW39523   3.443   1.033   6.373  0.0819 -0.1820 -0.6166
 9354SOL    HW139524   3.509   1.077   6.428 -0.7858 -1.2477  1.2479
 9354SOL    HW239525   3.376   1.101   6.372 -0.6598 -0.9533 -2.6004
 9355SOL     OW39526   3.464   1.878   4.160 -0.4237  0.1908 -0.5558
 9355SOL    HW139527   3.420   1.795   4.177  2.1061 -1.1271 -0.5326
 9355SOL    HW239528   3.559   1.869   4.168 -0.9511 -4.7860 -0.0807
 9356SOL     OW39529   4.661   1.299   2.139  0.0268  0.8290  0.1756
 9356SOL    HW139530   4.706   1.358   2.079  0.4764  1.5443  1.2272
 9356SOL    HW239531   4.712   1.306   2.220  1.4544  1.4698 -0.7877
 9357SOL     OW39532   3.313   2.132  10.560  0.3342 -0.3544 -0.0931
 9357SOL    HW139533   3.260   2.202  10.523 -0.6118  0.5815  3.0377
 9357SOL    HW239534   3.323   2.077  10.482  1.8403  0.9867 -0.8323
 9358SOL     OW39535   1.258   1.418   9.132 -0.5335 -0.6673  0.6359
 9358SOL    HW139536   1.345   1.439   9.096  0.0339 -1.2065  1.7122
 9358SOL    HW239537   1.278   1.407   9.225  2.3861  0.5726  0.1684
 9359SOL     OW39538   2.787   0.317   1.390 -0.1925 -0.4074 -0.0518
 9359SOL    HW139539   2.852   0.252   1.361 -1.5038 -1.6305 -0.2144
 9359SOL    HW239540   2.771   0.291   1.481 -1.4493 -1.6428 -0.6379
 9360SOL     OW39541   0.675   3.643   3.965  0.2560 -0.3504  0.3560
 9360SOL    HW139542   0.700   3.721   4.014 -0.2867 -0.7712  1.3102
 9360SOL    HW239543   0.755   3.618   3.919 -0.1295  0.0836 -0.5345
 9361SOL     OW39544   2.088   4.553  10.307  0.0428 -0.2404  0.5744
 9361SOL    HW139545   2.090   4.635  10.355  1.9611  0.3025 -0.4102
 9361SOL    HW239546   2.080   4.486  10.374  2.7002  0.8268  1.9853
 9362SOL     OW39547   2.275   4.110  13.163 -0.0701  0.2604  0.1074
 9362SOL    HW139548   2.336   4.038  13.181  1.2017  1.4123  0.3604
 9362SOL    HW239549   2.275   4.165  13.241 -1.2699 -0.1740  0.4071
 9363SOL     OW39550   2.723   1.360   4.824 -0.7163 -0.2945 -0.3762
 9363SOL    HW139551   2.810   1.332   4.797 -0.9818  1.6028 -3.1799
 9363SOL    HW239552   2.723   1.455   4.820 -1.3030 -0.2751  0.0238
 9364SOL     OW39553   0.573   2.350  14.229 -0.4026 -0.2460 -0.1882
 9364SOL    HW139554   0.514   2.294  14.178 -0.4102  0.3270 -0.8040
 9364SOL    HW239555   0.565   2.314  14.318  1.7426 -2.4783 -0.8934
 9365SOL     OW39556   4.517   4.563   8.527  0.1917 -0.4394  0.8690
 9365SOL    HW139557   4.520   4.472   8.557  1.7112 -1.3461 -2.0127
 9365SOL    HW239558   4.581   4.611   8.578 -0.7226  0.6176  1.0234
 9366SOL     OW39559   1.112   0.379   7.200 -0.2441 -0.1609 -0.1384
 9366SOL    HW139560   1.199   0.380   7.240  0.2661  1.0496 -1.2981
 9366SOL    HW239561   1.050   0.388   7.273  0.5445 -1.3844  0.6714
 9367SOL     OW39562   3.949   4.418   3.671  0.5461 -0.0185 -0.7488
 9367SOL    HW139563   3.898   4.496   3.648 -1.8945 -1.3878  0.0645
 9367SOL    HW239564   3.985   4.394   3.585  3.8101 -0.7718  0.8408
 9368SOL     OW39565   4.003   0.147  16.274  0.0752 -0.7215 -0.3071
 9368SOL    HW139566   3.975   0.058  16.255  0.5129 -0.5994 -1.5616
 9368SOL    HW239567   4.042   0.163  16.187  0.2921  1.5173  0.1875
 9369SOL     OW39568   3.966   3.728   2.746 -0.1561 -0.1867 -0.6012
 9369SOL    HW139569   3.969   3.765   2.834  1.2409 -2.2257  0.2122
 9369SOL    HW239570   3.927   3.797   2.692 -0.8866 -1.2645 -1.4304
 9370SOL     OW39571   2.138   3.534   1.427  0.2403 -0.1209  0.7275
 9370SOL    HW139572   2.063   3.567   1.477 -1.3140  0.3870 -1.9312
 9370SOL    HW239573   2.167   3.614   1.385  3.0864 -1.8944 -0.6673
 9371SOL     OW39574   1.637   2.023  17.195 -0.3117 -0.5558 -0.3609
 9371SOL    HW139575   1.571   2.025  17.264  0.1880  1.6621  0.0421
 9371SOL    HW239576   1.611   1.945  17.146  0.6427 -1.2202  0.1885
 9372SOL     OW39577   2.027   0.574   8.102 -0.6321  0.0156 -0.4890
 9372SOL    HW139578   2.099   0.515   8.124 -0.8037 -0.1366 -0.3297
 9372SOL    HW239579   2.027   0.630   8.179  1.6097  1.7202 -1.7475
 9373SOL     OW39580   3.174   1.442   1.851  0.9470  0.3138  0.3371
 9373SOL    HW139581   3.221   1.387   1.789 -1.8304 -1.2284 -0.3619
 9373SOL    HW239582   3.167   1.516   1.791 -4.5613 -0.4444  0.0670
 9374SOL     OW39583   0.271   3.899   8.888 -0.1001  0.1622  0.3840
 9374SOL    HW139584   0.229   3.829   8.838 -0.0797 -0.9532  1.9396
 9374SOL    HW239585   0.222   3.904   8.970  0.2064 -2.1469  0.6968
 9375SOL     OW39586   3.339   1.434   5.509  0.3266 -0.1129  0.1114
 9375SOL    HW139587   3.317   1.376   5.436  0.6720 -1.0345  0.7416
 9375SOL    HW239588   3.428   1.404   5.525 -0.7015 -1.7799  2.7928
 9376SOL     OW39589   4.170   1.706   0.323  0.1619  0.1871  0.1330
 9376SOL    HW139590   4.138   1.753   0.400 -0.5317 -0.5985  0.3189
 9376SOL    HW239591   4.142   1.749   0.243  3.9014  0.3742 -1.0724
 9377SOL     OW39592   0.673   0.004   7.918 -0.5891 -0.5053 -0.3723
 9377SOL    HW139593   0.593   4.684   7.886 -0.6877 -0.1466 -0.5962
 9377SOL    HW239594   0.710   0.027   7.833 -0.3602 -2.0000 -0.6765
 9378SOL     OW39595   1.850   1.218   9.177  0.1497 -0.0035  0.3439
 9378SOL    HW139596   1.865   1.133   9.219 -0.0772 -0.1473  0.1364
 9378SOL    HW239597   1.797   1.195   9.101  2.8831  0.0434 -1.5869
 9379SOL     OW39598   1.662   4.272   5.772  0.1642 -0.8246 -0.0654
 9379SOL    HW139599   1.687   4.359   5.802 -2.4062  0.1881 -0.8646
 9379SOL    HW239600   1.737   4.243   5.719 -1.0742 -0.8762 -1.7992
 9380SOL     OW39601   3.013   0.270   9.040  0.4093  0.0740 -0.2294
 9380SOL    HW139602   3.099   0.280   9.081  1.3949  0.1392 -2.3215
 9380SOL    HW239603   3.004   0.176   9.053 -1.1246  0.2030 -0.3474
 9381SOL     OW39604   0.628   2.683  15.397  0.1620 -0.4788 -0.3847
 9381SOL    HW139605   0.685   2.640  15.333 -0.0937 -0.3778 -0.6824
 9381SOL    HW239606   0.624   2.622  15.471  1.0233  1.1390  0.9874
 9382SOL     OW39607   1.601   2.057   6.746 -0.6127 -0.3661  0.1367
 9382SOL    HW139608   1.689   2.021   6.746 -0.8639 -0.9658  1.4339
 9382SOL    HW239609   1.572   2.044   6.836  0.5162 -1.2016  0.3779
 9383SOL     OW39610   3.264   2.749   8.334  0.0963  0.5136 -0.4407
 9383SOL    HW139611   3.325   2.822   8.334  0.2103  0.4024  2.1018
 9383SOL    HW239612   3.198   2.773   8.399 -1.9477 -0.2623 -2.1978
 9384SOL     OW39613   3.504   0.183  11.465 -0.1781 -0.2357 -0.3520
 9384SOL    HW139614   3.423   0.196  11.416  0.7005  0.1958 -1.6808
 9384SOL    HW239615   3.547   0.130  11.397  0.6655  0.4743 -0.3651
 9385SOL     OW39616   1.780   2.621   7.265 -0.0997  0.5026  0.0565
 9385SOL    HW139617   1.773   2.636   7.359 -2.7776  0.4117 -0.1380
 9385SOL    HW239618   1.740   2.535   7.250  1.6774 -0.6237  1.7724
 9386SOL     OW39619   3.336   2.129  17.051  0.2051 -0.3417 -0.3488
 9386SOL    HW139620   3.314   2.136  17.144  3.1459 -0.4998  0.3350
 9386SOL    HW239621   3.257   2.091  17.010 -0.6415 -1.6556  2.4870
 9387SOL     OW39622   1.059   1.747  10.286 -0.1525 -0.1874  0.5000
 9387SOL    HW139623   0.986   1.706  10.240 -2.7531  1.6812  2.9847
 9387SOL    HW239624   1.067   1.830  10.240  0.9617 -1.5551 -1.8107
 9388SOL     OW39625   2.823   2.169  11.348  0.5204  0.6319  0.1644
 9388SOL    HW139626   2.743   2.221  11.339 -0.5735 -1.1631 -0.5281
 9388SOL    HW239627   2.867   2.230  11.407  1.1906 -0.2364  0.5621
 9389SOL     OW39628   2.692   4.649   7.448  0.2611  1.0318 -0.1069
 9389SOL    HW139629   2.763   4.589   7.427 -0.2907 -0.0504  1.0934
 9389SOL    HW239630   2.736   0.011   7.433  1.3056  0.4644 -0.2020
 9390SOL     OW39631   0.629   3.304  10.724 -0.0268 -0.6766  0.2405
 9390SOL    HW139632   0.588   3.270  10.644  0.4532  2.2090 -1.2461
 9390SOL    HW239633   0.684   3.370  10.680  3.5400 -2.4266  2.1093
 9391SOL     OW39634   4.243   4.589  10.267 -0.2850  0.1222 -0.4673
 9391SOL    HW139635   4.199   4.549  10.193  0.2037  0.3052 -0.8553
 9391SOL    HW239636   4.177   4.653  10.295 -0.6718 -0.6793  0.4614
 9392SOL     OW39637   2.408   1.413   3.356  0.6728 -0.1352 -0.0286
 9392SOL    HW139638   2.350   1.462   3.414 -0.9676 -0.5730 -1.2890
 9392SOL    HW239639   2.417   1.333   3.407 -1.6160 -0.1285  0.4118
 9393SOL     OW39640   2.133   4.667  11.686  0.0856 -0.4223 -0.0248
 9393SOL    HW139641   2.144   4.717  11.766 -0.5273 -0.7052  0.2324
 9393SOL    HW239642   2.117   4.578  11.719 -3.0843 -0.2007 -0.9625
 9394SOL     OW39643   3.051   2.216   0.742 -0.0931 -0.6021  0.3180
 9394SOL    HW139644   3.081   2.224   0.651  1.4634  2.2936  1.0696
 9394SOL    HW239645   2.969   2.168   0.727  1.3769 -2.5477 -1.5305
 9395SOL     OW39646   0.764   0.940   2.805 -0.0934  0.1596 -0.3632
 9395SOL    HW139647   0.800   0.937   2.894 -1.6255 -0.6478  0.2449
 9395SOL    HW239648   0.779   0.851   2.773  0.2419  0.3512 -0.7270
 9396SOL     OW39649   4.686   2.806   8.821  0.8740 -0.1761  0.3372
 9396SOL    HW139650   4.718   2.728   8.777  2.3551  0.8255 -0.3626
 9396SOL    HW239651   4.622   2.773   8.884  1.0713 -1.7309 -0.2773
 9397SOL     OW39652   1.628   0.999   1.177  0.5468  0.2546  0.6158
 9397SOL    HW139653   1.606   1.092   1.169 -0.1761  0.0681  0.4215
 9397SOL    HW239654   1.600   0.975   1.266 -0.0114  0.8889  0.6128
 9398SOL     OW39655   1.849   3.675  13.545  0.6226  0.4177 -0.2067
 9398SOL    HW139656   1.780   3.628  13.499 -1.8857  2.1599  1.7896
 9398SOL    HW239657   1.827   3.665  13.637 -1.2410 -1.0522 -0.8118
 9399SOL     OW39658   1.043   1.382   8.450  0.0792  0.1489 -0.0198
 9399SOL    HW139659   1.022   1.359   8.540 -0.1283 -0.6408 -0.2686
 9399SOL    HW239660   0.989   1.458   8.430  0.3657  0.7978  1.7119
 9400SOL     OW39661   3.408   2.869  11.884  0.5710 -0.1954 -0.0612
 9400SOL    HW139662   3.432   2.814  11.959  1.2361  0.1205 -0.0454
 9400SOL    HW239663   3.483   2.923  11.860  0.0521  0.4810 -0.1463
 9401SOL     OW39664   0.433   3.280  10.537  0.4923 -0.3734 -0.1522
 9401SOL    HW139665   0.369   3.221  10.578  1.3042 -1.0598  0.1176
 9401SOL    HW239666   0.432   3.246  10.448 -0.1367  1.1222 -0.7202
 9402SOL     OW39667   2.246   1.136   1.535  0.5870 -0.2418  0.2507
 9402SOL    HW139668   2.275   1.129   1.444  1.9902  0.5932  0.6339
 9402SOL    HW239669   2.328   1.146   1.584  0.9104  0.6423 -0.4652
 9403SOL     OW39670   2.337   2.016   5.522  0.7768 -0.3396  0.2434
 9403SOL    HW139671   2.302   1.927   5.519  0.7063 -0.3135  0.3155
 9403SOL    HW239672   2.386   2.024   5.604 -1.4970  1.4913  1.4280
 9404SOL     OW39673   0.267   1.461  16.320  0.1866 -0.3123  0.2701
 9404SOL    HW139674   0.196   1.451  16.384  1.0424 -0.3562  1.2136
 9404SOL    HW239675   0.271   1.371  16.287  0.9454 -0.4891  0.8396
 9405SOL     OW39676   2.800   3.202   7.319  0.0458 -0.5909  0.3101
 9405SOL    HW139677   2.742   3.271   7.286  0.0572 -1.2951 -1.1701
 9405SOL    HW239678   2.803   3.229   7.411 -0.0165 -0.2587  0.2147
 9406SOL     OW39679   3.425   3.964  11.025 -0.1404  0.1662  0.3404
 9406SOL    HW139680   3.468   4.047  11.043 -0.1607 -0.2026  2.1295
 9406SOL    HW239681   3.486   3.925  10.964  0.4766 -1.0107  1.7049
 9407SOL     OW39682   2.807   4.187   4.087 -0.1628  0.2420 -0.1994
 9407SOL    HW139683   2.823   4.213   4.178  3.0856  0.6823 -0.8986
 9407SOL    HW239684   2.893   4.191   4.047  0.6681 -2.0132  1.3857
 9408SOL     OW39685   0.434   4.411  17.473  0.0735 -0.2491  0.1840
 9408SOL    HW139686   0.358   4.431  17.419 -0.3678  0.7942  1.2081
 9408SOL    HW239687   0.508   4.408  17.412  0.6421 -0.3118  0.8757
 9409SOL     OW39688   4.572   2.076   5.520 -0.2446  0.1859  0.6331
 9409SOL    HW139689   4.533   2.033   5.596 -0.4644  2.1422  1.6267
 9409SOL    HW239690   4.570   2.164   5.559  1.1698  0.6325 -0.3006
 9410SOL     OW39691   0.234   1.554   3.680 -0.0508 -0.1900 -0.2279
 9410SOL    HW139692   0.304   1.506   3.636  0.2609 -1.1159  1.2628
 9410SOL    HW239693   0.180   1.583   3.607  1.5212  2.8352 -0.2070
 9411SOL     OW39694   0.103   3.738   2.709 -0.2602 -0.2782 -0.1250
 9411SOL    HW139695   0.024   3.762   2.758  0.2058  1.7940 -0.3996
 9411SOL    HW239696   0.083   3.645   2.698 -1.4100 -0.2148  1.2857
 9412SOL     OW39697   0.066   3.834  16.304  0.2064  0.4938  0.2498
 9412SOL    HW139698   4.713   3.776  16.293  0.3335  0.0021  1.9492
 9412SOL    HW239699   0.097   3.853  16.215 -0.5517 -2.5780 -0.6431
 9413SOL     OW39700   1.932   2.893   5.083 -0.1178 -0.0962 -0.3771
 9413SOL    HW139701   1.838   2.898   5.066 -0.6963 -1.2033  2.4209
 9413SOL    HW239702   1.939   2.847   5.167 -0.5170  0.9106  0.2143
 9414SOL     OW39703   2.904   1.799   3.520 -0.5087  0.4956  0.4131
 9414SOL    HW139704   2.879   1.882   3.560 -0.7469  0.4400  0.3797
 9414SOL    HW239705   2.830   1.745   3.544 -1.0442  0.1499 -2.0280
 9415SOL     OW39706   2.711   3.785  13.218  0.0312  0.2186  0.0027
 9415SOL    HW139707   2.675   3.861  13.264 -1.2120  0.3299 -1.1605
 9415SOL    HW239708   2.776   3.815  13.154  0.4627 -0.3465  0.1734
 9416SOL     OW39709   1.756   3.855   7.289  0.2202  0.3601 -0.8222
 9416SOL    HW139710   1.736   3.848   7.196 -1.0875 -0.2776 -0.5017
 9416SOL    HW239711   1.741   3.948   7.308  1.2928  0.2792  0.3883
 9417SOL     OW39712   1.832   2.199   8.213  0.3307  0.8572 -0.0290
 9417SOL    HW139713   1.764   2.249   8.259  1.2350  1.6709  0.4158
 9417SOL    HW239714   1.791   2.112   8.212  0.0599  0.9582  2.0166
 9418SOL     OW39715   2.205   0.156   3.278 -0.5330 -0.1670  0.4030
 9418SOL    HW139716   2.122   0.145   3.232  0.3678 -0.2096 -1.2209
 9418SOL    HW239717   2.180   0.199   3.360 -0.7354  1.5849 -0.5777
 9419SOL     OW39718   0.358   1.350  12.916  0.8794 -0.1570 -0.1512
 9419SOL    HW139719   0.427   1.284  12.918 -0.3452 -1.4636 -1.4338
 9419SOL    HW239720   0.325   1.326  12.830 -0.3955  0.0142  0.2884
 9420SOL     OW39721   2.508   1.266   5.741  0.7340 -0.0935 -0.1333
 9420SOL    HW139722   2.426   1.274   5.691  0.2662  0.8995  0.7899
 9420SOL    HW239723   2.529   1.173   5.730 -0.4611 -0.0456 -2.7295
 9421SOL     OW39724   1.874   0.075  16.098  0.0301 -0.7068  0.7407
 9421SOL    HW139725   1.964   0.091  16.127 -0.1205  0.3208  0.6662
 9421SOL    HW239726   1.862   0.148  16.037 -0.3621 -0.5236  1.0328
 9422SOL     OW39727   0.088   3.330   8.751 -0.3358 -0.3606 -0.0674
 9422SOL    HW139728   0.021   3.288   8.697  0.9337  0.0001 -1.8971
 9422SOL    HW239729   0.135   3.256   8.791 -0.1728  0.9363  2.1310
 9423SOL     OW39730   0.483   2.340   5.596  0.3535  0.0036 -0.1271
 9423SOL    HW139731   0.492   2.342   5.691  2.1755 -2.0091 -0.2687
 9423SOL    HW239732   0.574   2.353   5.568  0.4777 -1.5910 -0.5059
 9424SOL     OW39733   4.405   1.729   7.879  0.5596  0.2191  0.3325
 9424SOL    HW139734   4.380   1.644   7.914 -1.5114  0.0811 -1.5102
 9424SOL    HW239735   4.330   1.753   7.825  0.8462 -3.2960 -1.5493
 9425SOL     OW39736   4.197   0.478   2.899  0.5365  0.6299 -0.2298
 9425SOL    HW139737   4.289   0.462   2.879 -0.0571 -2.6057 -0.3575
 9425SOL    HW239738   4.170   0.386   2.904  1.4974  0.3662  0.0478
 9426SOL     OW39739   2.325   1.205  14.355  0.4131 -0.2176  0.6702
 9426SOL    HW139740   2.346   1.224  14.447 -2.3736  0.4113  1.1840
 9426SOL    HW239741   2.398   1.147  14.335  0.2056 -0.0068 -0.6743
 9427SOL     OW39742   0.133   3.881   3.215 -0.2038 -0.4229 -0.6206
 9427SOL    HW139743   0.110   3.839   3.298  0.1477  1.0260  0.2054
 9427SOL    HW239744   0.220   3.913   3.237 -0.2382  0.3396 -1.6015
 9428SOL     OW39745   0.905   4.464   5.991 -0.3838  0.1665  0.8033
 9428SOL    HW139746   0.826   4.413   5.977 -1.0948  1.8191 -1.2327
 9428SOL    HW239747   0.911   4.455   6.086 -0.7212  1.2402  0.9264
 9429SOL     OW39748   3.382   3.984  16.299 -0.1136  0.0339  0.4746
 9429SOL    HW139749   3.317   3.959  16.365 -0.0633 -0.2452  0.4188
 9429SOL    HW239750   3.341   3.941  16.224  0.1153 -1.2389  1.0828
 9430SOL     OW39751   1.664   0.178  14.776 -0.3777  0.0336 -0.0178
 9430SOL    HW139752   1.635   0.142  14.860 -0.9878 -0.1894 -0.3195
 9430SOL    HW239753   1.695   0.098  14.733 -1.8245 -0.1710 -0.6789
 9431SOL     OW39754   3.643   0.465   1.399 -0.5013 -0.0694  0.7253
 9431SOL    HW139755   3.712   0.494   1.340 -0.1394 -1.4118  0.4876
 9431SOL    HW239756   3.683   0.394   1.449  0.5038  1.3591  1.9293
 9432SOL     OW39757   1.702   0.962   2.463  0.4167 -0.1543 -0.3986
 9432SOL    HW139758   1.614   0.984   2.493  0.4434 -1.0997  0.3866
 9432SOL    HW239759   1.702   0.869   2.439  0.5573 -0.7319  1.8089
 9433SOL     OW39760   3.281   0.318  13.400 -0.1002  0.4316 -0.1599
 9433SOL    HW139761   3.290   0.295  13.308 -0.6906  0.0750 -0.1255
 9433SOL    HW239762   3.283   0.234  13.444  2.3818  1.2443  1.3294
 9434SOL     OW39763   0.089   2.807  10.373 -0.0066 -0.0316  0.0020
 9434SOL    HW139764   0.022   2.851  10.425 -1.3879 -1.1518 -0.8403
 9434SOL    HW239765   0.078   2.859  10.293 -1.1077 -1.9727 -1.0952
 9435SOL     OW39766   1.483   2.330   9.193  0.1868 -0.2451  0.0578
 9435SOL    HW139767   1.460   2.285   9.275  1.8172  1.0366  1.2366
 9435SOL    HW239768   1.392   2.344   9.166 -0.4785 -1.3273  1.6825
 9436SOL     OW39769   1.501   1.558   5.959 -0.3902  0.6047 -0.3154
 9436SOL    HW139770   1.445   1.635   5.953  0.3081  0.8768 -3.1572
 9436SOL    HW239771   1.474   1.503   5.886 -1.8059  0.3864  0.3714
 9437SOL     OW39772   0.245   2.083   3.566  0.0574 -0.0160 -0.0798
 9437SOL    HW139773   0.177   2.058   3.629  0.6928 -0.0135  0.6051
 9437SOL    HW239774   0.291   1.999   3.559  2.1848  1.5194 -4.1482
 9438SOL     OW39775   3.631   4.432   9.975  0.0320 -0.4903  0.4107
 9438SOL    HW139776   3.701   4.369   9.992 -0.3696 -0.5437  1.8457
 9438SOL    HW239777   3.571   4.418  10.048 -0.1564 -0.2505  0.3040
 9439SOL     OW39778   1.609   2.306   7.903 -0.0178  0.3955 -0.3054
 9439SOL    HW139779   1.554   2.312   7.982  0.8645 -0.3702  0.3645
 9439SOL    HW239780   1.670   2.371   7.938  1.0961 -0.0527 -1.4496
 9440SOL     OW39781   3.875   4.155   7.942  0.6982  0.2903 -0.3520
 9440SOL    HW139782   3.879   4.223   8.009 -1.3186 -0.9090  0.9850
 9440SOL    HW239783   3.966   4.135   7.920  0.0461 -1.1379 -1.6987
 9441SOL     OW39784   0.132   3.271   4.489  0.1406 -0.3373  0.3833
 9441SOL    HW139785   0.187   3.332   4.537  0.0966 -0.8219  1.0462
 9441SOL    HW239786   0.204   3.208   4.478  0.0749 -0.3698  0.1364
 9442SOL     OW39787   2.382   2.746   3.847 -0.3858 -0.0872  0.4173
 9442SOL    HW139788   2.401   2.660   3.809  0.4353  0.2937 -0.0503
 9442SOL    HW239789   2.429   2.794   3.778 -0.4301  0.7634  0.9846
 9443SOL     OW39790   3.789   3.704   7.406 -0.2011 -0.4715  0.4064
 9443SOL    HW139791   3.729   3.778   7.397 -1.3896 -1.4211  0.4793
 9443SOL    HW239792   3.797   3.679   7.314 -1.9459 -3.0733  0.9921
 9444SOL     OW39793   1.065   1.857   3.159 -0.1359  0.2852 -0.1664
 9444SOL    HW139794   1.024   1.799   3.095 -2.3682  2.4569 -0.7201
 9444SOL    HW239795   1.084   1.933   3.104  1.6165  0.3641  0.5271
 9445SOL     OW39796   4.265   0.693  11.559 -0.3214 -0.4808 -0.7697
 9445SOL    HW139797   4.259   0.787  11.547  0.6643 -0.4525 -1.0588
 9445SOL    HW239798   4.243   0.660  11.472 -3.4375  2.9792 -1.2710
 9446SOL     OW39799   1.433   0.799  13.639 -0.5188  0.0003  0.0388
 9446SOL    HW139800   1.355   0.835  13.597 -0.6428  1.2996  1.3805
 9446SOL    HW239801   1.432   0.706  13.617  0.4439 -0.1984  0.7915
 9447SOL     OW39802   0.438   1.051  14.615 -0.2148  0.3832 -0.5292
 9447SOL    HW139803   0.405   1.110  14.547  2.3789  0.9850 -1.2470
 9447SOL    HW239804   0.443   1.096  14.700  1.3197 -0.1301 -0.3459
 9448SOL     OW39805   0.827   1.245  15.352  0.0456 -0.1050 -0.5301
 9448SOL    HW139806   0.874   1.228  15.434  0.3416  0.6704 -0.5315
 9448SOL    HW239807   0.859   1.334  15.334  0.9804 -0.5950 -1.2854
 9449SOL     OW39808   2.765   2.745   6.650 -0.0963  0.0970  0.2206
 9449SOL    HW139809   2.788   2.834   6.622 -0.2059  0.5453  1.5435
 9449SOL    HW239810   2.682   2.759   6.696 -1.7300  0.9141 -2.9336
 9450SOL     OW39811   3.845   1.470   7.163 -0.4786 -0.2004 -0.4483
 9450SOL    HW139812   3.831   1.497   7.254 -1.1616 -0.8765 -0.3541
 9450SOL    HW239813   3.841   1.558   7.126  1.9483  0.8750  1.8300
 9451SOL     OW39814   4.436   3.578   8.786  0.0420  0.4855  0.4651
 9451SOL    HW139815   4.396   3.585   8.699  0.7302 -0.9694  0.0191
 9451SOL    HW239816   4.414   3.656   8.836 -2.3830  1.7949 -2.6674
 9452SOL     OW39817   4.563   0.110   7.247  0.1388  0.2463  0.2300
 9452SOL    HW139818   4.540   0.018   7.256  1.5031  0.1510  2.8874
 9452SOL    HW239819   4.557   0.125   7.153  1.1236  0.2627  0.1620
 9453SOL     OW39820   3.058   1.875   2.115 -0.2254 -0.8948  0.5916
 9453SOL    HW139821   3.107   1.800   2.149  0.9031 -0.8878 -1.0406
 9453SOL    HW239822   3.031   1.914   2.199  1.3459  0.3232  0.5489
 9454SOL     OW39823   2.936   4.415   2.486  0.0061 -0.5071 -0.0654
 9454SOL    HW139824   2.983   4.380   2.412  0.7328  1.5194 -0.5653
 9454SOL    HW239825   2.858   4.463   2.457 -0.5841  0.4875  3.1334
 9455SOL     OW39826   3.546   2.279  10.422 -0.0631 -0.6281  0.3285
 9455SOL    HW139827   3.453   2.288  10.443 -0.4418 -1.7319 -0.8518
 9455SOL    HW239828   3.563   2.186  10.408 -1.4283 -0.9274  0.6430
 9456SOL     OW39829   0.282   1.816   3.231  0.1520 -0.0303  0.0248
 9456SOL    HW139830   0.248   1.781   3.148  0.0631  0.6239 -0.2119
 9456SOL    HW239831   0.238   1.901   3.224 -1.8026 -1.1057 -0.9049
 9457SOL     OW39832   1.757   1.959  15.564  0.2028  0.3637 -0.5490
 9457SOL    HW139833   1.793   2.042  15.594 -0.0687 -0.5892  2.4197
 9457SOL    HW239834   1.694   1.944  15.634  0.8747 -0.7727 -0.1856
 9458SOL     OW39835   1.427   4.219  10.971  0.0324 -0.4861 -0.7779
 9458SOL    HW139836   1.369   4.270  11.027  2.4291  0.8996  0.4448
 9458SOL    HW239837   1.403   4.126  10.981 -2.3029 -0.0745 -2.6798
 9459SOL     OW39838   2.734   0.553  13.591  0.2809  0.3749  0.2507
 9459SOL    HW139839   2.791   0.624  13.561  0.1376 -0.4461 -1.9200
 9459SOL    HW239840   2.673   0.604  13.645  2.2469  1.9751  0.9389
 9460SOL     OW39841   0.909   0.254  15.550  0.3452  0.3128 -0.1818
 9460SOL    HW139842   0.815   0.236  15.559  0.8227 -1.2347  1.8860
 9460SOL    HW239843   0.900   0.346  15.526  1.9781 -0.1979 -2.6941
 9461SOL     OW39844   1.577   0.949  11.295 -0.6188 -0.4009 -0.0894
 9461SOL    HW139845   1.650   1.005  11.269 -1.9681  0.0848 -2.8856
 9461SOL    HW239846   1.593   0.885  11.226 -3.6934 -0.1647 -1.0157
 9462SOL     OW39847   1.178   4.067   4.899 -0.0927  0.2120 -0.3069
 9462SOL    HW139848   1.083   4.067   4.881  0.0175  0.5119 -0.9063
 9462SOL    HW239849   1.174   4.107   4.986 -1.0309 -0.1944 -0.1536
 9463SOL     OW39850   4.212   2.336   3.661  0.1172  0.0701  0.5963
 9463SOL    HW139851   4.245   2.366   3.576 -0.4102  1.9989  1.0805
 9463SOL    HW239852   4.186   2.417   3.706 -0.4448  0.3993 -0.3074
 9464SOL     OW39853   3.548   2.467   4.686 -1.0284  0.2769 -0.7518
 9464SOL    HW139854   3.533   2.532   4.617 -0.0905 -0.4935 -1.6852
 9464SOL    HW239855   3.625   2.419   4.658 -0.9185  0.6980 -1.1807
 9465SOL     OW39856   2.455   0.329   2.269 -0.2083 -0.1307  0.3911
 9465SOL    HW139857   2.439   0.315   2.363  1.7656 -0.4763  0.6814
 9465SOL    HW239858   2.480   0.420   2.249  0.6055 -0.3294  0.4768
 9466SOL     OW39859   4.559   0.654  15.074 -0.0268  0.1306 -0.3689
 9466SOL    HW139860   4.487   0.604  15.035  0.6263 -0.5904 -0.6483
 9466SOL    HW239861   4.628   0.587  15.081 -1.2539 -0.8669  2.2098
 9467SOL     OW39862   1.679   1.075  15.139  0.3955  0.6891 -0.0092
 9467SOL    HW139863   1.634   1.159  15.149  0.2366  0.5534  0.3997
 9467SOL    HW239864   1.686   1.048  15.230  2.2188 -1.6945 -0.8370
 9468SOL     OW39865   1.802   0.924  10.945  0.3936 -0.0155  0.2803
 9468SOL    HW139866   1.794   0.959  10.856  0.4785 -1.6206 -0.3670
 9468SOL    HW239867   1.732   0.859  10.952 -0.4700  0.8716 -0.0931
 9469SOL     OW39868   1.710   3.811  14.999  0.1695 -0.2750  0.1865
 9469SOL    HW139869   1.744   3.732  15.041 -0.5355  0.0682  1.4026
 9469SOL    HW239870   1.614   3.804  15.003  0.3197 -0.8671  2.6735
 9470SOL     OW39871   4.215   4.040   8.162 -0.6913  0.2132  0.2287
 9470SOL    HW139872   4.272   4.114   8.140 -0.1210  0.0223  1.0384
 9470SOL    HW239873   4.165   4.008   8.087  0.4076 -0.5506 -0.1800
 9471SOL     OW39874   0.601   1.082   2.423 -0.2718 -0.3766 -0.1409
 9471SOL    HW139875   0.626   1.163   2.377  0.3595  0.3505  1.5063
 9471SOL    HW239876   0.678   1.028   2.441  0.8516  2.1863  2.6645
 9472SOL     OW39877   2.072   3.273   8.636  0.1326 -0.1507  0.1000
 9472SOL    HW139878   2.095   3.255   8.545 -0.2798  0.2352 -0.0840
 9472SOL    HW239879   2.120   3.216   8.696  0.9653  0.8826  0.4198
 9473SOL     OW39880   3.893   1.550   8.470 -0.2796  0.2568  0.4245
 9473SOL    HW139881   3.954   1.490   8.426  1.7911  4.1606 -2.0258
 9473SOL    HW239882   3.948   1.578   8.544  0.6906 -0.6019  0.0452
 9474SOL     OW39883   3.904   4.508  14.575  0.0711 -0.5920 -0.3542
 9474SOL    HW139884   3.811   4.486  14.568 -0.3494  1.7088 -1.8537
 9474SOL    HW239885   3.899   4.583  14.634 -2.4767 -1.5681  0.7188
 9475SOL     OW39886   2.033   3.779   5.172  0.1524 -0.3717 -0.3674
 9475SOL    HW139887   1.992   3.847   5.117 -2.6964 -2.9010 -1.3487
 9475SOL    HW239888   2.025   3.817   5.259  0.3220 -2.8000  0.6796
 9476SOL     OW39889   2.145   2.818   4.506  0.0324 -0.1141  0.6265
 9476SOL    HW139890   2.168   2.901   4.547 -2.7514  1.4917 -1.0479
 9476SOL    HW239891   2.054   2.836   4.483  1.0735  0.6584 -2.8699
 9477SOL     OW39892   3.069   2.746   8.533 -0.0001 -0.1132  1.0469
 9477SOL    HW139893   3.073   2.671   8.593  1.0770  0.7146  2.0001
 9477SOL    HW239894   3.061   2.815   8.598  0.1091  1.4990 -0.6471
 9478SOL     OW39895   1.319   1.018   4.523 -0.4727  0.8108  0.4375
 9478SOL    HW139896   1.253   1.000   4.590 -0.5958  0.0433  0.1177
 9478SOL    HW239897   1.323   1.112   4.538 -1.4686  1.6285 -4.3103
 9479SOL     OW39898   1.371   0.086   8.338 -0.1082  0.2870 -0.0580
 9479SOL    HW139899   1.345   0.048   8.254  1.4347  1.0407 -0.8632
 9479SOL    HW239900   1.291   0.089   8.391 -0.0200  0.5827  0.0563
 9480SOL     OW39901   2.367   2.375  12.513 -0.2720 -0.5394  0.1787
 9480SOL    HW139902   2.442   2.431  12.497 -1.5513  0.3879 -2.6434
 9480SOL    HW239903   2.405   2.287  12.513 -0.3900 -0.5904  2.1630
 9481SOL     OW39904   0.285   3.125   3.772 -0.3781  0.3103  0.3019
 9481SOL    HW139905   0.269   3.034   3.745 -2.1058 -0.0385  2.4979
 9481SOL    HW239906   0.259   3.167   3.690  0.9063  1.1456  0.3314
 9482SOL     OW39907   3.034   0.756   9.181  0.0384  0.4857  0.6839
 9482SOL    HW139908   3.095   0.793   9.246  0.1240 -0.7502  1.2998
 9482SOL    HW239909   2.977   0.834   9.176 -1.8712 -0.8566  1.4801
 9483SOL     OW39910   3.876   3.764  11.337 -0.3636  0.0605  0.2710
 9483SOL    HW139911   3.806   3.829  11.339  0.8783  1.4079 -0.1440
 9483SOL    HW239912   3.945   3.821  11.303 -1.2419  2.2412  2.1892
 9484SOL     OW39913   1.705   1.330  16.306 -0.4803  0.0086  0.1644
 9484SOL    HW139914   1.686   1.255  16.250 -0.5575 -1.1686  1.7684
 9484SOL    HW239915   1.750   1.397  16.255  0.9200 -1.0090  0.0691
 9485SOL     OW39916   2.203   0.227   6.248  0.0289 -0.0825 -0.0651
 9485SOL    HW139917   2.293   0.214   6.279  0.2428 -1.8898 -1.4622
 9485SOL    HW239918   2.193   0.322   6.239  0.6371  0.0378  0.4991
 9486SOL     OW39919   4.077   2.292   5.092 -0.1010 -0.1005 -0.0211
 9486SOL    HW139920   4.131   2.267   5.167  0.7917  0.1505 -0.5779
 9486SOL    HW239921   4.058   2.385   5.100 -0.4746 -0.1505 -0.3330
 9487SOL     OW39922   2.128   3.037   3.341 -0.3300  0.3735  0.3989
 9487SOL    HW139923   2.080   2.967   3.296  0.8350  0.2030 -0.5989
 9487SOL    HW239924   2.180   3.056   3.262  0.3770 -0.3902  0.6786
 9488SOL     OW39925   0.335   0.845   1.373 -0.1949  0.1715  0.0650
 9488SOL    HW139926   0.243   0.858   1.352 -0.0979  0.0123 -0.4505
 9488SOL    HW239927   0.323   0.800   1.457  0.3065  0.0709  0.0867
 9489SOL     OW39928   3.804   1.644   1.404  0.0912 -0.2764 -0.6168
 9489SOL    HW139929   3.863   1.570   1.389  2.0228  1.4025 -1.2581
 9489SOL    HW239930   3.726   1.621   1.353 -0.4089  0.7057 -0.2910
 9490SOL     OW39931   2.856   0.004   5.388  0.2381 -0.5562 -0.2198
 9490SOL    HW139932   2.935   4.722   5.334  0.5608 -2.3499  0.4044
 9490SOL    HW239933   2.811   4.648   5.355 -0.1928  0.8879 -3.1051
 9491SOL     OW39934   0.047   2.430   2.830  0.2756 -0.4140  0.3181
 9491SOL    HW139935   0.115   2.363   2.832  2.6552  2.0144 -0.8292
 9491SOL    HW239936   0.007   2.426   2.917 -3.2997  0.6325 -1.2755
 9492SOL     OW39937   2.463   0.898   2.826  0.0952 -0.4452 -0.4986
 9492SOL    HW139938   2.543   0.927   2.870  0.0499 -3.1471  1.3518
 9492SOL    HW239939   2.453   0.965   2.758  0.8128 -1.0132 -1.1734
 9493SOL     OW39940   0.843   0.122   6.728 -0.0239 -0.1261 -0.6273
 9493SOL    HW139941   0.899   0.149   6.800 -0.7025  1.5015 -0.7039
 9493SOL    HW239942   0.872   0.177   6.654 -2.4207  1.8770 -0.0764
 9494SOL     OW39943   4.696   4.137  10.561 -1.1179 -0.0820  0.0248
 9494SOL    HW139944   4.690   4.196  10.637  1.5000  0.2642 -0.0381
 9494SOL    HW239945   4.609   4.151  10.524 -0.6158  1.3123 -0.6294
 9495SOL     OW39946   4.258   0.465   5.588  0.5857  0.1284 -0.2887
 9495SOL    HW139947   4.195   0.392   5.586 -0.5740  1.1279 -0.0038
 9495SOL    HW239948   4.219   0.515   5.660 -0.6535  0.9775 -1.5619
 9496SOL     OW39949   0.801   4.156   6.810 -0.0084 -0.7253  0.1546
 9496SOL    HW139950   0.858   4.225   6.843 -0.2218  0.0496 -1.1189
 9496SOL    HW239951   0.727   4.214   6.789  0.0897 -1.4695 -2.2559
 9497SOL     OW39952   3.973   2.748   3.455 -0.1743 -0.0448  0.3396
 9497SOL    HW139953   3.885   2.713   3.442 -0.4492  0.6151  0.4355
 9497SOL    HW239954   3.958   2.841   3.470  1.2580  0.4698 -1.4296
 9498SOL     OW39955   3.117   4.217   3.683  0.3889 -0.8578 -0.1718
 9498SOL    HW139956   3.192   4.160   3.671 -0.7538 -2.0430 -1.6953
 9498SOL    HW239957   3.149   4.301   3.717 -0.2716 -1.1064  1.0772
 9499SOL     OW39958   1.407   1.319  16.223  0.0050 -0.4613 -0.7541
 9499SOL    HW139959   1.496   1.319  16.259 -0.3869  2.3582  0.1782
 9499SOL    HW239960   1.427   1.368  16.143  0.7244  1.8887  0.8488
 9500SOL     OW39961   4.398   2.910   5.837 -0.0333  0.2134  0.3542
 9500SOL    HW139962   4.329   2.848   5.860  0.7741 -0.0128  2.1182
 9500SOL    HW239963   4.344   2.974   5.790  0.1198  0.5587  0.6457
 9501SOL     OW39964   4.198   2.597   7.283  0.2654 -0.5186  0.4370
 9501SOL    HW139965   4.199   2.568   7.375  2.3432 -1.0817  0.2452
 9501SOL    HW239966   4.270   2.538   7.260  0.8528 -0.0981  1.1932
 9502SOL     OW39967   0.477   1.396   5.286 -1.1398  0.4772  0.5154
 9502SOL    HW139968   0.542   1.327   5.276 -0.0589  1.4043  1.1232
 9502SOL    HW239969   0.495   1.417   5.377  0.4563 -0.9854  0.5263
 9503SOL     OW39970   1.777   1.607   1.161 -0.2485 -0.2505 -0.1168
 9503SOL    HW139971   1.811   1.542   1.222 -1.2235 -0.1719  0.5086
 9503SOL    HW239972   1.742   1.544   1.098 -0.8095  0.5653 -0.6242
 9504SOL     OW39973   1.094   1.744  14.235  0.2581  0.0269 -0.2945
 9504SOL    HW139974   1.096   1.698  14.150  1.4740 -0.0232 -0.2489
 9504SOL    HW239975   1.134   1.675  14.289  0.3648 -0.0504 -0.4672
 9505SOL     OW39976   4.082   0.553   6.226  0.5518  0.0819 -0.3782
 9505SOL    HW139977   4.090   0.463   6.196 -0.3498 -0.4985  1.1037
 9505SOL    HW239978   4.057   0.594   6.143  1.7421  1.5741  0.0018
 9506SOL     OW39979   3.399   1.994  10.330 -0.1731  0.1095 -0.3465
 9506SOL    HW139980   3.479   1.989  10.383 -1.7026 -0.8523  1.8404
 9506SOL    HW239981   3.373   1.902  10.333 -2.7498  0.7759 -2.2757
 9507SOL     OW39982   2.887   0.282   8.751 -0.2885 -0.1272 -0.0538
 9507SOL    HW139983   2.903   0.206   8.697  0.7028  0.3524 -0.4445
 9507SOL    HW239984   2.925   0.254   8.835  0.6585  0.0476 -0.4254
 9508SOL     OW39985   1.002   0.343   6.606  0.5249  0.2819 -0.0776
 9508SOL    HW139986   1.084   0.393   6.611  2.1169 -2.5455  2.2446
 9508SOL    HW239987   1.028   0.269   6.551  1.8883 -0.6328  1.8079
 9509SOL     OW39988   0.428   4.651  15.694 -0.2052  0.3150  0.3273
 9509SOL    HW139989   0.398   0.020  15.699  0.6141  0.5139  1.6976
 9509SOL    HW239990   0.380   4.621  15.617  0.3939  2.2352 -0.7834
 9510SOL     OW39991   1.285   0.284   8.995  0.4108 -0.7059  0.2046
 9510SOL    HW139992   1.198   0.283   8.955 -0.2900 -0.6206  1.7536
 9510SOL    HW239993   1.330   0.330   8.924 -0.0178 -0.3931  0.1380
 9511SOL     OW39994   1.298   3.225   4.587  0.0582  0.0091  0.2424
 9511SOL    HW139995   1.350   3.291   4.631 -0.9425  2.9063 -2.9190
 9511SOL    HW239996   1.204   3.227   4.607  0.1936  1.2544  0.7255
 9512SOL     OW39997   2.771   3.066   1.528  0.2215  0.1684 -0.0121
 9512SOL    HW139998   2.781   3.039   1.619  0.0620  1.6985  0.4668
 9512SOL    HW239999   2.830   3.008   1.480 -0.9008 -0.6635 -0.3869
 9513SOL     OW40000   0.226   4.212  10.446 -0.1153  0.1788 -0.3293
 9513SOL    HW140001   0.222   4.239  10.354  2.3396  2.9611  0.3901
 9513SOL    HW240002   0.137   4.179  10.459 -0.1798 -0.4740 -2.4063
 9514SOL     OW40003   2.294   3.919   9.402 -0.4691 -0.2873 -0.3217
 9514SOL    HW140004   2.359   3.926   9.472  1.7806  0.7556 -2.5457
 9514SOL    HW240005   2.274   4.012   9.411  1.6809  0.4984 -3.8335
 9515SOL     OW40006   2.178   0.689   2.125  0.0350  0.3809 -0.3726
 9515SOL    HW140007   2.207   0.629   2.056 -0.3240 -1.8838  1.4489
 9515SOL    HW240008   2.089   0.713   2.098 -0.7085 -2.1014 -0.1595
 9516SOL     OW40009   2.626   0.106   2.558 -0.2894  0.4321 -0.3593
 9516SOL    HW140010   2.615   0.201   2.563  0.4052  0.5184 -0.5222
 9516SOL    HW240011   2.668   0.114   2.473  1.7428 -0.6352  0.5591
 9517SOL     OW40012   2.673   3.450   7.265  0.4169  0.2913 -0.2108
 9517SOL    HW140013   2.664   3.501   7.184 -0.6009  0.5744  0.0722
 9517SOL    HW240014   2.632   3.508   7.330 -0.6888  1.3768 -1.8775
 9518SOL     OW40015   4.435   2.294   2.202  0.5874  0.2324  0.8466
 9518SOL    HW140016   4.520   2.307   2.160 -0.2528 -2.0902 -1.6254
 9518SOL    HW240017   4.388   2.251   2.130 -0.6372  1.0361  1.1649
 9519SOL     OW40018   0.901   3.234  16.577 -0.4109 -0.1183  0.3516
 9519SOL    HW140019   0.877   3.142  16.564 -0.4642  0.0569 -0.8053
 9519SOL    HW240020   0.980   3.213  16.628 -1.4427 -0.8974  1.6417
 9520SOL     OW40021   3.063   2.275   4.086  0.6031 -0.3978  0.2785
 9520SOL    HW140022   3.144   2.225   4.096  1.2029  0.4091 -0.6312
 9520SOL    HW240023   3.081   2.346   4.147  0.4660  0.1038 -0.2634
 9521SOL     OW40024   2.583   3.709   8.543  0.1562 -0.0937  0.6947
 9521SOL    HW140025   2.574   3.723   8.448  1.5773  0.2443  0.6036
 9521SOL    HW240026   2.492   3.729   8.565  0.1418 -1.0074  1.4916
 9522SOL     OW40027   0.533   3.458  11.560  0.0346 -0.4343 -0.2862
 9522SOL    HW140028   0.588   3.431  11.485 -1.4556 -0.7854 -1.2575
 9522SOL    HW240029   0.568   3.547  11.558  1.6988 -1.1062 -2.1342
 9523SOL     OW40030   3.638   2.601   0.599  0.1184  0.4360  0.7083
 9523SOL    HW140031   3.673   2.653   0.672  1.0154  1.6120 -0.5479
 9523SOL    HW240032   3.546   2.627   0.593  0.2366  0.5925 -0.5920
 9524SOL     OW40033   2.055   2.679   2.791  0.0983  0.2645  0.2395
 9524SOL    HW140034   2.049   2.625   2.713 -1.1452 -1.6323  1.6502
 9524SOL    HW240035   1.967   2.656   2.821  0.4209 -2.0852 -0.6798
 9525SOL     OW40036   4.319   4.648   6.679  0.0535 -0.9764  0.1048
 9525SOL    HW140037   4.385   4.589   6.713  0.7806 -0.0679  0.2632
 9525SOL    HW240038   4.375   0.001   6.659 -0.3297 -0.3337  1.4425
 9526SOL     OW40039   0.235   2.984   4.721 -0.1948 -0.1201 -0.7730
 9526SOL    HW140040   0.230   3.017   4.631 -0.4691 -0.2837 -0.8193
 9526SOL    HW240041   0.154   3.019   4.758  0.6294  1.2754 -0.3223
 9527SOL     OW40042   0.146   3.599   1.695 -0.2917  0.3791  0.0249
 9527SOL    HW140043   0.085   3.666   1.727 -0.7397  1.2328 -2.5653
 9527SOL    HW240044   0.227   3.624   1.738 -0.7708  1.9068  0.0621
 9528SOL     OW40045   3.724   2.314  14.191  0.0393  0.0898  0.6086
 9528SOL    HW140046   3.677   2.292  14.271  0.4239  0.7400  1.0112
 9528SOL    HW240047   3.804   2.344  14.233  0.6997  0.8402 -1.1666
 9529SOL     OW40048   0.633   1.591   9.354 -0.4220  0.2468  0.4636
 9529SOL    HW140049   0.633   1.559   9.264 -2.2987  0.7898  0.2711
 9529SOL    HW240050   0.691   1.526   9.393  1.1472  0.1557 -2.0113
 9530SOL     OW40051   2.251   3.230   9.388  0.1710  0.3155  0.1334
 9530SOL    HW140052   2.192   3.217   9.462 -0.3133  1.7612  0.0078
 9530SOL    HW240053   2.308   3.298   9.423  1.4149 -0.9639  0.5946
 9531SOL     OW40054   3.937   0.876   6.312  0.2795  0.2727 -0.2061
 9531SOL    HW140055   3.958   0.851   6.402 -0.8492  0.2477  0.0420
 9531SOL    HW240056   3.847   0.843   6.315 -0.0576  1.2156 -0.1962
 9532SOL     OW40057   3.732   1.219   6.848 -0.5438 -0.2297 -0.4708
 9532SOL    HW140058   3.653   1.264   6.820  0.1022  0.5025 -1.1229
 9532SOL    HW240059   3.708   1.214   6.941 -3.0990  0.1951 -1.1124
 9533SOL     OW40060   0.295   3.207   3.037 -0.4504  0.5917 -0.0053
 9533SOL    HW140061   0.346   3.220   3.117 -0.4156 -5.4266  0.9717
 9533SOL    HW240062   0.371   3.184   2.983 -1.3668 -2.4995  0.0212
 9534SOL     OW40063   2.210   3.748   1.185 -0.6080  0.2684  0.5450
 9534SOL    HW140064   2.252   3.702   1.112 -2.1128 -1.7988  0.9889
 9534SOL    HW240065   2.118   3.750   1.160 -0.3518  0.5009 -0.3855
 9535SOL     OW40066   0.270   4.381  17.260 -0.7827 -0.6890 -0.1484
 9535SOL    HW140067   0.202   4.418  17.204 -1.2051 -1.4383 -0.1338
 9535SOL    HW240068   0.288   4.307  17.202  1.1290 -1.4340  1.3961
 9536SOL     OW40069   3.279   2.904   7.115  0.2018 -0.1366 -1.1238
 9536SOL    HW140070   3.238   2.873   7.035 -0.6200 -0.3989 -0.5929
 9536SOL    HW240071   3.363   2.857   7.111  1.1485  1.1923  2.2924
 9537SOL     OW40072   4.488   4.209   3.042 -0.2530 -0.4536  0.0044
 9537SOL    HW140073   4.489   4.132   2.984  0.2860 -0.8974  0.5985
 9537SOL    HW240074   4.576   4.208   3.080 -0.5875 -0.5378  0.7699
 9538SOL     OW40075   4.669   2.273  11.943  0.5138  0.0212 -0.4359
 9538SOL    HW140076   4.633   2.185  11.954 -2.0337  1.0294 -0.6673
 9538SOL    HW240077   4.641   2.329  12.016  0.6237  1.1694 -1.2687
 9539SOL     OW40078   1.066   4.630  14.478 -0.1153 -0.0345 -0.2330
 9539SOL    HW140079   1.114   4.578  14.542 -1.0962 -0.6283  0.0064
 9539SOL    HW240080   1.130   4.665  14.415  1.8971 -0.0099  1.8122
 9540SOL     OW40081   4.651   3.666   6.954  0.0376  0.3806 -0.2422
 9540SOL    HW140082   4.689   3.580   6.969  4.0892  2.5140  1.9592
 9540SOL    HW240083   4.608   3.670   7.040 -0.2220 -0.3014 -0.3427
 9541SOL     OW40084   0.055   4.546   2.442  0.7223 -0.5032 -0.7408
 9541SOL    HW140085   0.001   4.478   2.402 -0.9802  0.2822  0.2234
 9541SOL    HW240086   4.711   4.614   2.454 -0.1947 -1.5008 -0.1651
 9542SOL     OW40087   3.213   2.342   2.068 -0.2536 -0.5384  0.2526
 9542SOL    HW140088   3.134   2.309   2.026  0.0039 -0.6608 -0.1453
 9542SOL    HW240089   3.268   2.264   2.066  0.8324  0.1874  1.1498
 9543SOL     OW40090   1.334   0.951  17.079  0.2432 -0.3772 -0.4800
 9543SOL    HW140091   1.276   0.970  17.152 -0.4705  1.1700 -1.4249
 9543SOL    HW240092   1.279   0.902  17.017  0.8980 -2.7989  0.8759
 9544SOL     OW40093   3.721   3.696   6.139  0.1401  0.1413 -0.2576
 9544SOL    HW140094   3.784   3.663   6.075  2.1372  3.1493  0.1270
 9544SOL    HW240095   3.773   3.695   6.219  0.7985 -0.3511 -0.6974
 9545SOL     OW40096   0.043   3.238   5.812 -0.0676  0.0484  0.9767
 9545SOL    HW140097   0.065   3.330   5.829  1.6265 -0.4327  1.3460
 9545SOL    HW240098   0.078   3.193   5.889 -3.9468 -0.4756  2.4508
 9546SOL     OW40099   0.551   2.408   6.570 -0.0176  0.2966 -0.0696
 9546SOL    HW140100   0.542   2.342   6.639  0.5861  0.1565 -0.1291
 9546SOL    HW240101   0.586   2.480   6.622 -0.9793 -1.7911  3.4728
 9547SOL     OW40102   4.067   1.456   3.230  0.1196 -0.1141 -0.0688
 9547SOL    HW140103   4.157   1.487   3.238 -0.3237  0.9765  0.8088
 9547SOL    HW240104   4.085   1.362   3.218 -2.7598 -0.7798  0.7835
 9548SOL     OW40105   3.880   3.560   7.800  0.1729  0.2207 -0.2674
 9548SOL    HW140106   3.916   3.606   7.724 -0.1529  1.8850  0.5763
 9548SOL    HW240107   3.882   3.639   7.855  1.7979  0.5833 -0.8364
 9549SOL     OW40108   0.594   2.810   9.424 -0.1532 -0.0717  0.0801
 9549SOL    HW140109   0.674   2.862   9.420  1.8711 -3.3440 -1.6011
 9549SOL    HW240110   0.614   2.738   9.363 -2.3260 -2.2163  1.8767
 9550SOL     OW40111   3.657   4.488   3.487 -0.2745 -0.0657 -0.2430
 9550SOL    HW140112   3.706   4.553   3.537  0.1668 -1.8189  1.6391
 9550SOL    HW240113   3.674   4.528   3.402  0.7137  0.8229  0.3732
 9551SOL     OW40114   2.290   4.425   1.062 -0.1316 -0.2751  0.3849
 9551SOL    HW140115   2.212   4.382   1.027 -1.2525  2.2516 -0.2016
 9551SOL    HW240116   2.275   4.424   1.157 -0.6426 -0.0717  0.3028
 9552SOL     OW40117   2.472   0.230   6.332 -0.5465 -0.5381  0.7888
 9552SOL    HW140118   2.454   0.267   6.418 -0.4529  2.0394 -0.3054
 9552SOL    HW240119   2.554   0.187   6.356  0.6736  3.1703  3.3225
 9553SOL     OW40120   0.684   4.425   3.677 -0.0501 -0.0633  0.0069
 9553SOL    HW140121   0.680   4.509   3.631  0.6597  0.0943  0.2424
 9553SOL    HW240122   0.633   4.437   3.757 -1.0482  0.1540 -0.6610
 9554SOL     OW40123   4.010   4.202   0.336  0.1548 -0.2961 -0.3208
 9554SOL    HW140124   3.951   4.204   0.411 -0.4123  2.6807 -0.8569
 9554SOL    HW240125   4.081   4.150   0.374 -0.3941 -2.4683 -2.2519
 9555SOL     OW40126   0.941   1.627   6.405 -0.2596  0.1834 -0.4339
 9555SOL    HW140127   0.865   1.662   6.358  1.8025  2.7728 -1.7779
 9555SOL    HW240128   0.931   1.649   6.498 -0.9673 -1.3582 -0.1471
 9556SOL     OW40129   2.040   3.947   4.500  0.7474  0.4507  0.0615
 9556SOL    HW140130   2.130   3.965   4.528  0.5522  0.5517  0.6239
 9556SOL    HW240131   2.036   3.853   4.482  1.4182  0.1215  1.6319
 9557SOL     OW40132   4.210   2.916  10.319 -0.2100  0.1778  0.1990
 9557SOL    HW140133   4.145   2.856  10.282  1.8328 -2.2088  0.4117
 9557SOL    HW240134   4.198   2.926  10.414 -3.0357 -0.0455 -0.1507
 9558SOL     OW40135   3.819   0.725  12.971  0.5176 -0.1839 -0.0562
 9558SOL    HW140136   3.861   0.722  13.057  1.4391 -1.2871 -0.5486
 9558SOL    HW240137   3.788   0.816  12.976 -0.5066 -0.5438  0.1298
 9559SOL     OW40138   3.465   1.190   3.493  0.0623 -0.5574 -0.1772
 9559SOL    HW140139   3.480   1.223   3.404  1.0101 -1.3257 -0.2950
 9559SOL    HW240140   3.465   1.096   3.474  0.0413 -0.1126 -2.4709
 9560SOL     OW40141   2.571   1.297   3.746  0.4015 -0.5177 -0.2848
 9560SOL    HW140142   2.607   1.282   3.833 -1.0591  1.5674  0.6649
 9560SOL    HW240143   2.633   1.248   3.693  2.3766  1.6235  0.0913
 9561SOL     OW40144   3.800   2.202   0.034  0.6698  0.2884 -0.6459
 9561SOL    HW140145   3.740   2.245   0.095  0.8159 -0.2463 -0.1340
 9561SOL    HW240146   3.797   2.267  17.653  0.7837 -0.3220 -1.2146
 9562SOL     OW40147   3.253   3.522   6.924  0.2005 -0.5077  0.1111
 9562SOL    HW140148   3.214   3.438   6.948  1.0897 -0.8328  0.3851
 9562SOL    HW240149   3.344   3.495   6.920 -0.0789 -1.5422  0.8036
 9563SOL     OW40150   3.460   1.595   1.166  0.4642 -0.3992 -0.2066
 9563SOL    HW140151   3.462   1.673   1.221 -0.0144 -2.4575  2.7039
 9563SOL    HW240152   3.547   1.557   1.175  0.7611 -0.0172 -1.4675
 9564SOL     OW40153   2.556   3.394   2.274  0.6055 -0.4693 -0.1041
 9564SOL    HW140154   2.503   3.316   2.290 -0.1095 -0.3427 -1.9114
 9564SOL    HW240155   2.563   3.432   2.362  1.0140 -1.3034  0.2145
 9565SOL     OW40156   2.966   1.999  12.182  0.2600  0.9708  0.0253
 9565SOL    HW140157   2.934   1.971  12.096  0.4680  1.9526 -0.3769
 9565SOL    HW240158   2.891   1.974  12.236 -1.2892 -1.1074 -3.0504
 9566SOL     OW40159   2.430   1.051   3.263  0.7032  0.1390 -0.0398
 9566SOL    HW140160   2.469   1.063   3.349 -0.2493 -0.9475  0.5576
 9566SOL    HW240161   2.476   0.976   3.225  1.3034  0.2898  0.3901
 9567SOL     OW40162   1.843   2.357   1.740  0.1163 -0.5175 -0.2924
 9567SOL    HW140163   1.937   2.371   1.730  0.2453 -1.6303 -0.6302
 9567SOL    HW240164   1.843   2.342   1.834  0.1122 -0.2199 -0.2436
 9568SOL     OW40165   4.410   0.951   4.654  0.8580  0.2977 -0.6726
 9568SOL    HW140166   4.349   0.936   4.726  0.8868 -1.8610 -1.1018
 9568SOL    HW240167   4.361   1.010   4.597  0.4517  1.0920  0.4923
   4.72180   4.72180  17.68942
