Membrane in water
40167
    1TCq1    O1    1   0.485   2.972  10.338 -0.0461 -0.4052  0.2809
    1TCq1    C1    2   0.516   2.917  10.461  0.2033  0.0903  0.2342
    1TCq1    O2    3   0.460   2.820  10.504  0.8534 -0.3380 -0.4270
    1TCq1    C2    4   0.661   2.931  10.482  0.0935  0.6209 -0.1451
    1TCq1    C3    5   0.740   2.919  10.369 -0.3165 -0.9531 -0.0474
    1TCq1    C4    6   0.874   2.894  10.390  0.1846  0.7372 -0.5107
    1TCq1    C5    7   0.922   2.890  10.517  0.4809 -0.8908 -0.0178
    1TCq1    C6    8   0.841   2.900  10.625  0.0845 -0.7314  0.0179
    1TCq1    C7    9   0.706   2.926  10.612  0.6957  0.4231 -0.0892
    1TCq1    C8   10   0.895   2.918  10.761 -0.1272  0.8771  1.3966
    1TCq1    O4   11   0.839   2.857  10.849 -0.2583 -0.5824 -1.1248
    1TCq1    C9   12   0.977   2.886  10.290 -0.1658 -0.2009  0.3681
    1TCq1    O5   13   0.935   2.896  10.172  0.0585  0.5318 -0.3051
    1TCq1    O6   14   1.098   2.876  10.323  0.3488  0.0418  0.1802
    1TCq1    H1   15   0.551   3.041  10.313  0.7586 -1.3048 -0.1012
    1TCq1    H2   16   0.698   2.924  10.269  0.7924 -1.0551 -0.5224
    1TCq1    H3   17   1.028   2.868  10.532  0.3758 -0.9854  0.6075
    1TCq1    H4   18   0.648   2.936  10.703  1.3532 -0.7096  0.4517
    2MPD2     C   19   1.192   3.157  11.089 -0.1444 -0.4216 -0.3954
    2MPD2    C1   20   1.090   3.067  11.114 -0.0018 -0.0808  0.5276
    2MPD2    C2   21   1.040   3.005  11.007 -0.0154  0.0880 -0.2548
    2MPD2    C3   22   1.085   3.030  10.882  0.9040  0.4383 -0.0613
    2MPD2    C4   23   1.177   3.127  10.851 -0.0962 -0.3190 -0.2837
    2MPD2    C5   24   1.229   3.190  10.962 -0.0491  0.8939 -0.3032
    2MPD2     H   25   0.958   2.935  11.020 -1.2479  1.7833  1.0295
    2MPD2    H1   26   1.206   3.157  10.751 -0.3714  1.4423  0.1727
    2MPD2    H2   27   1.246   3.211  11.165  2.6718 -0.8889 -2.0736
    2MPD2    H3   28   1.308   3.264  10.953  0.5001  0.3911  0.3449
    2MPD2     N   29   1.015   2.980  10.764 -0.2561 -0.0445  0.2078
    2MPD2    H5   30   1.044   3.002  10.669 -1.1240 -0.4458 -0.1527
    2MPD2    N1   31   1.035   3.051  11.243  0.0726 -0.3067 -0.1909
    2MPD2    H7   32   0.972   2.973  11.254 -0.8735  0.3998 -0.6427
    3TCq1    O1   33   0.498   4.218  10.149  0.0520 -0.4149 -1.2237
    3TCq1    C1   34   0.399   4.141  10.210  0.7817  0.1270 -0.6714
    3TCq1    O2   35   0.317   4.064  10.155  0.8857  0.8391  0.2752
    3TCq1    C2   36   0.368   4.203  10.338  0.1721 -0.2640  0.5240
    3TCq1    C3   37   0.453   4.309  10.382  0.4811 -0.5468 -0.9944
    3TCq1    C4   38   0.419   4.367  10.501  0.0575  0.8558  0.2212
    3TCq1    C5   39   0.317   4.326  10.575  0.2308 -0.0454 -0.4843
    3TCq1    C6   40   0.240   4.220  10.526  0.2342  0.0374  0.1941
    3TCq1    C7   41   0.267   4.154  10.411 -0.1977  0.1008 -0.1212
    3TCq1    C8   42   0.111   4.200  10.591 -0.2971 -0.3149  0.9874
    3TCq1    O4   43   0.054   4.093  10.570  0.2297  0.5805  0.0545
    3TCq1    C9   44   0.515   4.464  10.550  0.1229  0.1001  0.6641
    3TCq1    O5   45   0.605   4.501  10.474 -0.2801 -0.3158 -0.2805
    3TCq1    O6   46   0.494   4.521  10.664  0.2146 -0.3993  0.9595
    3TCq1    H1   47   0.563   4.250  10.216  0.5303  0.7741 -2.2679
    3TCq1    H2   48   0.539   4.359  10.339  0.6356  0.0261 -0.0181
    3TCq1    H3   49   0.297   4.375  10.669 -1.3618  0.7012 -1.2186
    3TCq1    H4   50   0.206   4.072  10.374  0.4026 -0.1491 -0.5429
    4MPD2     C   51   4.485   4.322  10.930 -0.2046  0.4063  0.2796
    4MPD2    C1   52   4.552   4.436  10.893  0.0123  0.4294 -0.4373
    4MPD2    C2   53   4.633   4.435  10.786  0.4043  0.5138 -0.7340
    4MPD2    C3   54   4.665   4.313  10.722 -0.0871 -0.1183 -0.1676
    4MPD2    C4   55   4.591   4.200  10.757  0.2699 -0.7396  0.0165
    4MPD2    C5   56   4.500   4.205  10.866 -0.1551  0.7497 -0.1993
    4MPD2     H   57   4.695   4.520  10.759  0.5351  0.9938  1.1316
    4MPD2    H1   58   4.612   4.100  10.724 -1.1482 -1.3409  0.9335
    4MPD2    H2   59   4.421   4.327  11.017 -1.7979 -1.5354 -0.7764
    4MPD2    H3   60   4.443   4.115  10.885 -0.0640  0.5251 -0.9856
    4MPD2     N   61   0.054   4.312  10.637 -0.3688  0.0773  0.0460
    4MPD2    H5   62   0.088   4.404  10.610  1.8509 -1.6081 -2.8209
    4MPD2    N1   63   4.545   4.565  10.958  0.3897  0.0540  0.4091
    4MPD2    H7   64   4.594   4.639  10.910  1.6295 -0.7376  0.4558
    5TCq1    O1   65   0.340   1.131  12.084 -0.0393  0.0867 -0.4560
    5TCq1    C1   66   0.394   1.204  12.181 -0.6982 -0.2711 -0.3715
    5TCq1    O2   67   0.334   1.272  12.255 -0.2565 -0.1907  0.0244
    5TCq1    C2   68   0.529   1.226  12.134  0.8664  0.3045 -1.0703
    5TCq1    C3   69   0.613   1.282  12.234 -1.0984 -1.0963  0.3476
    5TCq1    C4   70   0.736   1.336  12.194 -0.1325  0.2531 -0.6229
    5TCq1    C5   71   0.775   1.319  12.065 -0.4423 -0.7618  0.0812
    5TCq1    C6   72   0.697   1.262  11.970  0.2015 -0.2856 -0.3106
    5TCq1    C7   73   0.570   1.221  11.999 -0.0860  0.2029 -0.1008
    5TCq1    C8   74   0.756   1.230  11.839 -0.4842 -0.5214  0.9656
    5TCq1    O4   75   0.683   1.161  11.770  0.0107  0.0308  0.4457
    5TCq1    C9   76   0.826   1.395  12.292 -0.4785  0.1742 -0.1135
    5TCq1    O5   77   0.948   1.404  12.259 -0.6234  0.3135  0.4089
    5TCq1    O6   78   0.784   1.426  12.409  0.1249 -0.3854 -0.0387
    5TCq1    H1   79   0.408   1.081  12.035  0.7113  1.2652 -0.6179
    5TCq1    H2   80   0.577   1.273  12.335 -0.2339 -1.2127  0.6484
    5TCq1    H3   81   0.875   1.351  12.040 -1.1976  0.2808 -1.5660
    5TCq1    H4   82   0.508   1.168  11.928 -1.0040  3.0345 -1.3900
    6MPD2     C   83   1.047   1.361  11.670 -0.1705 -0.2097 -0.0486
    6MPD2    C1   84   0.943   1.272  11.690 -0.2258 -0.4235 -0.4843
    6MPD2    C2   85   0.926   1.157  11.613  1.2485 -0.8403  0.4819
    6MPD2    C3   86   1.017   1.133  11.513 -0.2792 -0.6703 -0.3231
    6MPD2    C4   87   1.106   1.230  11.485  0.9166 -0.0794 -0.2259
    6MPD2    C5   88   1.116   1.341  11.559 -0.0839  0.2497 -0.5935
    6MPD2     H   89   0.847   1.085  11.632 -0.2268  0.5655 -0.2917
    6MPD2    H1   90   1.175   1.225  11.401  1.7283 -1.6487  0.5400
    6MPD2    H2   91   1.074   1.450  11.726 -1.2026  0.0930 -0.0390
    6MPD2    H3   92   1.201   1.402  11.529  0.3736 -0.3098 -0.4443
    6MPD2     N   93   1.022   1.002  11.462 -0.0559  0.2937 -0.4747
    6MPD2    H5   94   0.960   0.932  11.503  0.5859  0.3032  0.5196
    6MPD2    N1   95   0.868   1.303  11.808 -0.3218  0.1189 -0.5161
    6MPD2    H7   96   0.898   1.381  11.865  0.3920  1.1030 -2.2314
    7TCq1    O1   97   3.592   1.366  13.945  0.0910  0.0580 -0.0837
    7TCq1    C1   98   3.724   1.366  13.928  0.2901 -0.8670 -0.6889
    7TCq1    O2   99   3.793   1.361  14.028 -0.6476 -0.3229  0.0639
    7TCq1    C2  100   3.742   1.296  13.807  0.4603  0.0074 -0.3705
    7TCq1    C3  101   3.736   1.367  13.694 -0.3353  0.1167 -0.6195
    7TCq1    C4  102   3.750   1.306  13.576  0.3852  0.2369  0.4286
    7TCq1    C5  103   3.764   1.169  13.576 -0.0977  0.2083  0.4021
    7TCq1    C6  104   3.762   1.102  13.695  0.0737  0.5505  0.5688
    7TCq1    C7  105   3.751   1.163  13.813  0.2731  0.0584  0.9021
    7TCq1    C8  106   3.717   0.964  13.686  1.1540  0.1043  0.1147
    7TCq1    O4  107   3.654   0.918  13.780 -0.2791  0.3322  0.5321
    7TCq1    C9  108   3.753   1.387  13.454  0.6232 -0.2127 -0.0165
    7TCq1    O5  109   3.775   1.332  13.348  0.4275  0.0816 -0.8929
    7TCq1    O6  110   3.768   1.512  13.468  0.3300 -0.2652 -0.1268
    7TCq1    H1  111   3.551   1.337  13.861  1.4634  0.7926 -1.0043
    7TCq1    H2  112   3.720   1.474  13.709 -2.9008 -0.3517 -0.0405
    7TCq1    H3  113   3.765   1.118  13.481 -0.9960  0.2492  0.3728
    7TCq1    H4  114   3.750   1.112  13.909  1.9243 -0.1824  0.7986
    8MPD2     C  115   3.756   0.504  13.483 -0.0738  0.2458  0.0087
    8MPD2    C1  116   3.656   0.548  13.567  0.0275  0.1020  0.1425
    8MPD2    C2  117   3.669   0.679  13.608  0.3966 -0.0327  0.2989
    8MPD2    C3  118   3.780   0.755  13.569 -0.3012 -0.3813 -0.5241
    8MPD2    C4  119   3.871   0.701  13.483 -0.0655 -0.5879  0.1439
    8MPD2    C5  120   3.857   0.575  13.431  0.4370  0.0854  0.4535
    8MPD2     H  121   3.592   0.727  13.668 -1.4269 -0.1820 -1.9507
    8MPD2    H1  122   3.953   0.766  13.455  1.6426 -1.1242  3.9590
    8MPD2    H2  123   3.753   0.400  13.451 -1.1958 -0.8624  3.7048
    8MPD2    H3  124   3.926   0.532  13.360  0.1845  0.9854 -0.3398
    8MPD2     N  125   3.792   0.895  13.595 -0.0057 -0.0323 -0.0472
    8MPD2    H5  126   3.863   0.947  13.545  1.7953 -1.6925  0.7887
    8MPD2    N1  127   3.567   0.449  13.614  0.3474 -0.0077 -0.1333
    8MPD2    H7  128   3.577   0.357  13.572 -1.2400  0.9917 -2.6968
    9TCq1    O1  129   1.312   4.698  11.330 -0.4532  0.0656  0.2276
    9TCq1    C1  130   1.369   4.710  11.211  0.1268 -0.7193  0.8297
    9TCq1    O2  131   1.382   0.091  11.153 -0.0752  0.3749  0.4636
    9TCq1    C2  132   1.443   4.589  11.181  0.5598 -0.2900  0.0980
    9TCq1    C3  133   1.567   4.600  11.128 -0.4083  0.2147  0.0232
    9TCq1    C4  134   1.662   4.505  11.138 -0.3989 -0.0214  0.3364
    9TCq1    C5  135   1.627   4.387  11.194 -0.5196  0.0444  0.0427
    9TCq1    C6  136   1.510   4.385  11.259 -0.0018 -0.5500  0.3778
    9TCq1    C7  137   1.415   4.482  11.262  0.0861 -0.2011  0.4963
    9TCq1    C8  138   1.476   4.256  11.322 -0.2036 -0.2619  0.3377
    9TCq1    O4  139   1.558   4.170  11.290 -0.3990 -0.9057 -0.2553
    9TCq1    C9  140   1.805   4.521  11.088  0.8515 -0.2968  0.2404
    9TCq1    O5  141   1.889   4.429  11.116 -0.1128  0.5011 -0.1736
    9TCq1    O6  142   1.835   4.639  11.059 -0.0017 -0.0992 -0.3459
    9TCq1    H1  143   1.276   4.616  11.369 -0.3600 -0.0374  0.0967
    9TCq1    H2  144   1.591   4.691  11.073  3.5107  0.0485  1.4116
    9TCq1    H3  145   1.704   4.311  11.198 -1.6391 -1.1595 -1.3843
    9TCq1    H4  146   1.313   4.461  11.292  0.0433  0.0595  0.5406
   10MPD2     C  147   1.336   4.012  11.400 -0.2818 -0.0131 -0.4155
   10MPD2    C1  148   1.310   4.133  11.462  0.6407 -0.4004  0.7042
   10MPD2    C2  149   1.231   4.145  11.575 -0.2694 -0.7043  0.4275
   10MPD2    C3  150   1.176   4.027  11.624 -0.1751  0.3226 -0.8856
   10MPD2    C4  151   1.193   3.912  11.551  0.1451  0.2049 -0.2942
   10MPD2    C5  152   1.266   3.905  11.437 -0.1390 -0.2322  0.5014
   10MPD2     H  153   1.203   4.245  11.607  1.6419  0.6216 -2.0098
   10MPD2    H1  154   1.145   3.826  11.594 -0.4799  1.7167  2.0290
   10MPD2    H2  155   1.405   4.002  11.317 -1.1630  1.1367 -1.2727
   10MPD2    H3  156   1.281   3.811  11.384  0.8796  1.3753 -2.0411
   10MPD2     N  157   1.107   4.023  11.748 -0.2733 -0.8185 -0.0948
   10MPD2    H5  158   1.059   3.936  11.764 -1.1148 -0.4717 -0.7496
   10MPD2    N1  159   1.367   4.253  11.407  0.2505 -0.6926  0.6600
   10MPD2    H7  160   1.327   4.342  11.434  0.0597 -0.2910 -0.9936
   11TCq1    O1  161   2.311   4.246  14.269  0.0114 -0.0658 -0.3072
   11TCq1    C1  162   2.279   4.143  14.350 -0.3587 -0.4029 -0.6000
   11TCq1    O2  163   2.212   4.047  14.312 -0.4235  0.5269 -0.1794
   11TCq1    C2  164   2.278   4.197  14.486 -0.5571  0.7536 -0.3574
   11TCq1    C3  165   2.386   4.269  14.531 -0.0221 -0.5798  0.7591
   11TCq1    C4  166   2.369   4.336  14.652  0.0699  0.1739 -0.1324
   11TCq1    C5  167   2.255   4.330  14.725  0.2896  0.1898  0.8268
   11TCq1    C6  168   2.150   4.255  14.677  0.0219 -0.3639 -0.0499
   11TCq1    C7  169   2.161   4.181  14.559  0.9090 -0.0609 -0.7819
   11TCq1    C8  170   2.019   4.244  14.748  0.4244  0.3560 -0.0407
   11TCq1    O4  171   2.014   4.307  14.850 -0.1885 -0.3970 -0.6718
   11TCq1    C9  172   2.484   4.406  14.703 -0.0778  0.1044 -0.0912
   11TCq1    O5  173   2.457   4.489  14.793 -0.3841  0.0512  0.2128
   11TCq1    O6  174   2.592   4.413  14.635 -0.4148 -0.0847  1.1387
   11TCq1    H1  175   2.354   4.320  14.318  2.2294 -0.7974 -1.1337
   11TCq1    H2  176   2.486   4.270  14.489 -0.2909 -1.0675  0.0987
   11TCq1    H3  177   2.243   4.383  14.819  0.6153  1.0388  0.3886
   11TCq1    H4  178   2.095   4.105  14.519  1.3664 -1.4216  1.0550
   12MPD2     C  179   1.733   4.211  14.828  0.3039  0.6082  0.7845
   12MPD2    C1  180   1.785   4.157  14.711 -0.0440 -0.1283 -0.1399
   12MPD2    C2  181   1.702   4.087  14.628  0.5098  0.5300  0.0489
   12MPD2    C3  182   1.565   4.068  14.652 -0.3668  0.1598  0.2219
   12MPD2    C4  183   1.526   4.115  14.772 -0.2677  0.1049 -0.4076
   12MPD2    C5  184   1.609   4.185  14.858 -0.5914 -0.9390 -0.1610
   12MPD2     H  185   1.742   4.056  14.532  1.7336  1.6782  0.1808
   12MPD2    H1  186   1.422   4.101  14.802 -0.3790 -0.8725 -1.2358
   12MPD2    H2  187   1.791   4.271  14.898  1.9120 -1.0829  0.8841
   12MPD2    H3  188   1.565   4.215  14.953 -0.8702 -0.9230 -0.2940
   12MPD2     N  189   1.490   3.988  14.565  0.0850 -0.4391  0.2483
   12MPD2    H5  190   1.529   3.971  14.473  1.0470 -2.0879  0.9548
   12MPD2    N1  191   1.924   4.173  14.679  0.2606 -1.0908 -0.4329
   12MPD2    H7  192   1.953   4.135  14.589 -1.3944 -0.0012 -1.4234
   13TCq1    O1  193   4.718   2.928  10.324  0.1009  0.2091  0.1257
   13TCq1    C1  194   0.026   3.015  10.231  0.0765 -0.1076  0.3738
   13TCq1    O2  195   4.720   3.020  10.110  0.0410  0.0071 -0.0583
   13TCq1    C2  196   0.100   3.124  10.294  0.3470  0.1596 -0.0947
   13TCq1    C3  197   0.174   3.202  10.211 -0.8576  0.6214  0.4621
   13TCq1    C4  198   0.246   3.302  10.267 -0.3871 -0.0432  0.0879
   13TCq1    C5  199   0.244   3.322  10.399 -0.1857 -0.8811  0.4103
   13TCq1    C6  200   0.165   3.248  10.478  0.2172  1.1454 -0.0354
   13TCq1    C7  201   0.086   3.148  10.433  0.1672 -0.0711  0.2918
   13TCq1    C8  202   0.159   3.289  10.617  0.5341  0.1901  0.3888
   13TCq1    O4  203   0.220   3.384  10.659  0.1993  0.1568  0.0377
   13TCq1    C9  204   0.314   3.389  10.182  0.0783 -0.3965 -0.6886
   13TCq1    O5  205   0.381   3.479  10.239  0.3426  0.0840 -0.3673
   13TCq1    O6  206   0.325   3.353  10.058  0.0178 -0.6357 -0.3537
   13TCq1    H1  207   0.056   2.931  10.399 -0.6602  2.3758  0.6425
   13TCq1    H2  208   0.180   3.169  10.108 -0.5808 -2.0944  1.3731
   13TCq1    H3  209   0.308   3.396  10.445  0.5263 -1.6735  0.7066
   13TCq1    H4  210   0.015   3.098  10.497 -0.5171 -0.8111 -1.0471
   14MPD2     C  211   0.085   3.063  10.898 -0.1759  0.9861  0.1420
   14MPD2    C1  212   0.102   3.183  10.834  0.3847 -0.8551  0.3498
   14MPD2    C2  213   0.092   3.303  10.913  0.3118  0.0401  0.8089
   14MPD2    C3  214   0.066   3.297  11.053  0.7395  0.2261 -0.0105
   14MPD2    C4  215   0.050   3.168  11.109 -0.2549 -0.2437 -0.5225
   14MPD2    C5  216   0.065   3.056  11.031  0.3245  0.0646 -0.1785
   14MPD2     H  217   0.108   3.398  10.863 -3.2389 -1.0657 -2.4245
   14MPD2    H1  218   0.015   3.149  11.210  0.1410 -2.5829 -0.8278
   14MPD2    H2  219   0.105   2.973  10.842  0.1389  0.0555  1.7515
   14MPD2    H3  220   0.050   2.960  11.080  0.9932  0.7746  1.4276
   14MPD2     N  221   0.047   3.417  11.127  0.1719 -0.9767  0.1630
   14MPD2    H5  222   0.041   3.505  11.077 -0.7661 -0.2861  1.4704
   14MPD2    N1  223   0.121   3.181  10.696 -0.3815 -0.1642 -0.4202
   14MPD2    H7  224   0.101   3.091  10.653 -2.5836 -0.0542  0.3732
   15TCq1    O1  225   2.901   4.535   2.379  0.1320  0.8741  0.4594
   15TCq1    C1  226   2.799   4.595   2.322 -1.0244 -0.3620  0.1036
   15TCq1    O2  227   2.776   4.717   2.326  0.4454 -0.1370  0.0605
   15TCq1    C2  228   2.699   4.490   2.295 -0.3290  0.2427 -0.4908
   15TCq1    C3  229   2.567   4.514   2.333  0.1939  0.7427 -0.2022
   15TCq1    C4  230   2.481   4.412   2.317 -0.2817 -0.3072  0.0187
   15TCq1    C5  231   2.516   4.295   2.254  0.4665  0.6348  0.0529
   15TCq1    C6  232   2.649   4.271   2.229  0.0479 -0.6652 -0.4579
   15TCq1    C7  233   2.744   4.373   2.246  0.4900 -0.5924 -0.9362
   15TCq1    C8  234   2.687   4.153   2.144  0.1102  0.2303 -0.1710
   15TCq1    O4  235   2.801   4.123   2.121 -0.5376 -0.5934 -0.1186
   15TCq1    C9  236   2.338   4.441   2.346  0.0167 -0.3376 -0.4289
   15TCq1    O5  237   2.320   4.541   2.422 -0.4059  0.6002 -0.4520
   15TCq1    O6  238   2.251   4.369   2.290  0.1950 -0.2131 -0.2708
   15TCq1    H1  239   2.902   4.437   2.391 -0.0121  1.0163  1.6520
   15TCq1    H2  240   2.537   4.606   2.382  1.9770  1.1783  0.0701
   15TCq1    H3  241   2.444   4.214   2.242  1.7526 -0.7044  1.3038
   15TCq1    H4  242   2.847   4.364   2.214  0.2800 -4.8692 -0.2957
   16MPD2     C  243   2.458   3.899   1.993  0.6482  0.6514  0.5637
   16MPD2    C1  244   2.576   3.953   2.039  0.6083 -0.4595 -0.7863
   16MPD2    C2  245   2.695   3.874   2.014  0.1217 -0.4366  0.2813
   16MPD2    C3  246   2.679   3.754   1.945 -0.8152  0.1807  0.0991
   16MPD2    C4  247   2.555   3.708   1.898  0.4795  0.7134 -0.1063
   16MPD2    C5  248   2.449   3.786   1.924  0.1606  0.1429 -0.0782
   16MPD2     H  249   2.794   3.909   2.044  0.8004 -2.7618  0.7111
   16MPD2    H1  250   2.532   3.615   1.847  0.7807  2.2112 -2.9556
   16MPD2    H2  251   2.369   3.961   1.998 -1.0509 -1.4587 -2.9815
   16MPD2    H3  252   2.350   3.750   1.897  0.4102 -0.2469 -0.4736
   16MPD2     N  253   2.799   3.685   1.909 -0.4810  0.0843  0.4060
   16MPD2    H5  254   2.881   3.703   1.966  0.1691  1.6781 -1.0344
   16MPD2    N1  255   2.577   4.082   2.105  0.0401  0.0221  0.5089
   16MPD2    H7  256   2.486   4.126   2.115 -0.5559 -1.3666  1.1363
   17TCq1    O1  257   1.947   1.267   9.063 -0.1055  0.4846  0.1768
   17TCq1    C1  258   2.071   1.326   9.067  0.0772  0.7101 -0.5932
   17TCq1    O2  259   2.177   1.268   9.063  0.7196 -0.8130  0.7886
   17TCq1    C2  260   2.051   1.462   9.021  0.8670  0.1722 -0.0088
   17TCq1    C3  261   2.139   1.513   8.930 -0.2031  0.7841 -0.0793
   17TCq1    C4  262   2.131   1.639   8.892  0.0817 -0.4144  0.7540
   17TCq1    C5  263   2.030   1.718   8.933  0.0739  0.9402  0.3736
   17TCq1    C6  264   1.938   1.668   9.026  0.0951  0.1515 -0.4758
   17TCq1    C7  265   1.947   1.541   9.073 -0.2537  0.1537 -0.0253
   17TCq1    C8  266   1.869   1.761   9.111  0.2351  0.1509  0.5787
   17TCq1    O4  267   1.771   1.716   9.170 -0.2392 -0.7531 -0.1383
   17TCq1    C9  268   2.241   1.697   8.816 -0.2420 -0.8481 -0.5343
   17TCq1    O5  269   2.245   1.828   8.818 -0.0681  0.2578  0.0398
   17TCq1    O6  270   2.320   1.619   8.757 -0.5296  0.1997  0.3279
   17TCq1    H1  271   1.874   1.331   9.047  1.2485  2.0639  0.2746
   17TCq1    H2  272   2.216   1.446   8.895 -0.6541 -0.2064  0.8173
   17TCq1    H3  273   2.030   1.821   8.900  0.0143  0.7760 -0.1330
   17TCq1    H4  274   1.872   1.495   9.137 -0.7425 -1.5821 -1.8327
   18MPD2     C  275   1.817   1.983   9.296  0.0055  0.2609 -0.4770
   18MPD2    C1  276   1.928   1.979   9.215 -0.2762 -0.1048 -0.8726
   18MPD2    C2  277   2.027   2.077   9.222 -0.4618  0.5724 -1.0394
   18MPD2    C3  278   2.016   2.184   9.310 -0.1294 -0.0723  0.6661
   18MPD2    C4  279   1.914   2.183   9.402 -0.8046  0.1288 -0.0365
   18MPD2    C5  280   1.810   2.091   9.387 -0.4966 -0.0661 -0.3772
   18MPD2     H  281   2.123   2.061   9.175 -0.5275  0.1595 -1.0325
   18MPD2    H1  282   1.920   2.253   9.485  0.4366  0.5055 -0.4437
   18MPD2    H2  283   1.739   1.908   9.288 -0.1079  0.2614  0.6344
   18MPD2    H3  284   1.726   2.097   9.456  1.0728  0.9369  1.4415
   18MPD2     N  285   2.111   2.291   9.316  0.1308  0.4641 -0.2292
   18MPD2    H5  286   2.092   2.360   9.388 -1.1412  0.2515 -0.3658
   18MPD2    N1  287   1.952   1.877   9.126 -0.5600  0.5595 -0.1524
   18MPD2    H7  288   2.034   1.880   9.067 -0.0936 -1.0925  0.4042
   19TMC2    C1  289   2.997   4.034  14.563 -0.0640 -0.3525 -0.2163
   19TMC2    C2  290   3.033   4.050  14.432  0.2930 -0.4940 -0.0090
   19TMC2    C3  291   2.984   3.955  14.351 -0.7031  0.3114  0.5304
   19TMC2    C4  292   2.916   3.933  14.605 -0.1420  0.4963  0.0106
   19TMC2    C5  293   2.882   3.834  14.523  0.2441  0.5024  0.5729
   19TMC2    C6  294   2.904   3.848  14.391  0.8711 -0.1380  0.8924
   19TMC2     C  295   3.023   4.150  14.652  0.4057 -0.8758  0.2972
   19TMC2     O  296   3.087   4.237  14.599  0.4994 -0.1572  0.0849
   19TMC2     H  297   3.091   4.133  14.392  0.1814 -0.9010 -1.0298
   19TMC2    H1  298   2.888   3.924  14.709  2.4982  1.5048  0.7968
   19TMC2    H2  299   2.864   3.772  14.326  0.8912 -0.5616  1.3734
   19TMC2    C7  300   2.795   3.730  14.563  0.3246 -0.1789 -0.4133
   19TMC2    C8  301   3.017   3.983  14.212  0.0468  0.1957 -0.0692
   19TMC2    O1  302   2.731   3.678  14.469 -0.3871 -0.4191 -0.2661
   19TMC2    O2  303   3.115   4.045  14.171 -0.2502 -0.0659 -0.3771
   19TMC2    O5  304   2.895   4.009  14.165  0.2999  0.8879 -0.3346
   19TMC2    H5  305   2.822   3.991  14.228 -1.1028  1.8893 -1.6877
   20MPD2     C  306   3.136   4.314  14.878  0.2335  0.3345 -0.8845
   20MPD2    C1  307   3.070   4.191  14.891  0.3598  0.4627  0.2846
   20MPD2    C2  308   3.061   4.139  15.018  0.4969 -0.4266 -0.0619
   20MPD2    C3  309   3.119   4.203  15.126 -0.0611  0.9438 -0.0749
   20MPD2    C4  310   3.177   4.324  15.107 -0.3348 -0.4585  0.7059
   20MPD2    C5  311   3.182   4.387  14.986 -0.9622 -0.4468  0.4363
   20MPD2     H  312   3.012   4.042  15.026 -1.4016  0.6962  2.0795
   20MPD2    H1  313   3.218   4.378  15.192  1.4729 -1.7998  0.6970
   20MPD2    H2  314   3.148   4.353  14.777 -0.6643  2.0575 -0.3362
   20MPD2    H3  315   3.233   4.483  14.977 -0.7043 -0.7806 -1.6859
   20MPD2     N  316   3.127   4.137  15.252 -0.1537  0.4636 -0.5174
   20MPD2    H5  317   3.184   4.189  15.318  0.6218 -1.4620  0.3208
   20MPD2    N1  318   3.013   4.116  14.787  0.2994  0.8684  0.1630
   20MPD2    H7  319   2.977   4.024  14.811  2.9695 -0.3827 -0.6092
   21MPD2     C  320   4.595   4.221  14.374  0.2820  0.2508  0.6145
   21MPD2    C1  321   4.701   4.188  14.462 -0.0867  0.5420 -0.3939
   21MPD2    C2  322   4.667   4.179  14.594  0.8609  0.1085  0.1791
   21MPD2    C3  323   4.542   4.188  14.654 -0.4672 -0.6405  0.5467
   21MPD2    C4  324   4.438   4.208  14.562  0.7531 -1.0368 -0.1909
   21MPD2    C5  325   4.470   4.226  14.426 -0.4463  0.3143  0.0260
   21MPD2     H  326   0.025   4.148  14.658  1.6412 -0.0460 -0.8978
   21MPD2    H1  327   4.335   4.215  14.594  0.7157  0.9175 -0.7340
   21MPD2    H2  328   4.603   4.246  14.269  1.7511 -2.2378  0.1500
   21MPD2    H3  329   4.385   4.263  14.368 -0.0746  1.2571  0.0813
   21MPD2     N  330   4.519   4.170  14.792  0.1732  0.6188  0.1571
   21MPD2    H5  331   4.428   4.199  14.826  0.2130  2.0105 -0.9075
   21MPD2    N1  332   0.108   4.197  14.434  0.2442  0.0770 -0.8700
   21MPD2    H7  333   0.171   4.199  14.513 -1.1601  3.1168  0.1838
   22TCq2    C1  334   4.598   4.105  14.888  0.3572  0.5689  0.1843
   22TCq2    O2  335   4.707   4.048  14.864  0.1289  0.2183 -0.5113
   22TCq2    C2  336   4.557   4.107  15.023  0.8236 -0.1594 -0.0130
   22TCq2    C3  337   4.592   4.001  15.107 -0.1289  0.4868 -0.3924
   22TCq2    C4  338   4.589   4.014  15.241 -0.3683  0.3988  0.6162
   22TCq2    C5  339   4.558   4.138  15.294 -0.2385  0.1855 -0.0185
   22TCq2    C6  340   4.525   4.245  15.211 -0.5652  0.2518  0.2983
   22TCq2    C7  341   4.528   4.232  15.072 -0.2788 -0.3206 -0.3291
   22TCq2    C8  342   4.518   4.378  15.268 -0.0473  0.6637  0.7696
   22TCq2    O4  343   4.576   4.403  15.372  0.5849  0.2391  0.1950
   22TCq2    C9  344   4.621   3.913  15.334  0.2042 -0.1550  0.3567
   22TCq2    O5  345   4.678   3.960  15.436  0.3279 -0.0339  0.4995
   22TCq2    O6  346   4.624   3.796  15.286  0.0550 -0.2005 -0.0486
   22TCq2    H2  347   4.629   3.912  15.058  1.7662  0.2656  1.4485
   22TCq2    H3  348   4.568   4.158  15.400 -0.3006  1.2969 -0.2160
   22TCq2    H4  349   4.518   4.314  15.002  1.5140 -0.6407 -0.9704
   23MPD2     C  350   2.461   0.269  14.726 -0.0019 -0.8585 -0.2998
   23MPD2    C1  351   2.399   0.265  14.847  0.0794 -0.5518  0.1340
   23MPD2    C2  352   2.283   0.336  14.859 -0.2017  0.0617  0.5307
   23MPD2    C3  353   2.232   0.421  14.762  0.3305  0.0301 -0.5457
   23MPD2    C4  354   2.300   0.431  14.642  0.1635  0.2000 -0.1923
   23MPD2    C5  355   2.405   0.340  14.628 -0.4359 -0.2313 -0.4065
   23MPD2     H  356   2.225   0.318  14.949 -1.2724  1.7825  0.1984
   23MPD2    H1  357   2.267   0.502  14.567 -2.4160 -0.8125 -0.0228
   23MPD2    H2  358   2.542   0.201  14.703  0.2668 -0.7271  0.2632
   23MPD2    H3  359   2.451   0.342  14.530  1.8492  0.7189  0.6870
   23MPD2     N  360   2.110   0.494  14.766  0.3380  0.1450  0.0659
   23MPD2    H5  361   2.086   0.549  14.684  0.1731 -0.2318 -0.1353
   23MPD2    N1  362   2.431   0.189  14.963 -0.0205  0.1958  0.4662
   23MPD2    H7  363   2.391   0.210  15.054 -0.1170  2.4739 -0.0969
   24TCq2    C1  364   2.023   0.496  14.869  0.7284  0.4265  0.5328
   24TCq2    O2  365   2.036   0.458  14.984  0.3102  0.1427  0.2999
   24TCq2    C2  366   1.890   0.558  14.840  0.4644  0.3241 -1.0629
   24TCq2    C3  367   1.871   0.641  14.728 -0.3126 -0.1610  0.2619
   24TCq2    C4  368   1.744   0.683  14.691 -0.3695 -0.1694 -0.3966
   24TCq2    C5  369   1.641   0.649  14.773 -0.1514 -0.0869 -0.3743
   24TCq2    C6  370   1.661   0.575  14.887 -0.7226 -0.4466 -0.0355
   24TCq2    C7  371   1.786   0.529  14.924  0.2382 -0.3198  0.0978
   24TCq2    C8  372   1.563   0.550  14.993  0.5518  0.0619 -0.0540
   24TCq2    O4  373   1.607   0.555  15.107  0.4367  0.1732  0.1738
   24TCq2    C9  374   1.723   0.735  14.554 -0.4960  0.8233  0.5303
   24TCq2    O5  375   1.820   0.748  14.475 -0.2288  0.3634  0.0698
   24TCq2    O6  376   1.603   0.772  14.524 -0.3784  0.3193  0.3262
   24TCq2    H2  377   1.952   0.652  14.656  0.0833 -0.1335  0.7152
   24TCq2    H3  378   1.540   0.682  14.749 -0.1591  2.2201  2.9866
   24TCq2    H4  379   1.797   0.461  15.007 -0.7940 -0.4739  0.1080
   25TMC2    C1  380   0.453   2.847  11.642 -0.0968  0.4268  0.3719
   25TMC2    C2  381   0.451   2.980  11.634 -0.8933 -0.4085  0.1231
   25TMC2    C3  382   0.414   3.051  11.747  0.9223  0.7923  0.3920
   25TMC2    C4  383   0.440   2.778  11.759 -0.8670 -0.8399 -0.2154
   25TMC2    C5  384   0.392   2.850  11.868 -0.1482 -0.0086  0.1516
   25TMC2    C6  385   0.376   2.991  11.863 -0.0127  0.2574  0.4265
   25TMC2     C  386   0.488   2.767  11.526  0.6091  0.7812  0.2568
   25TMC2     O  387   0.563   2.824  11.448 -0.5123  0.2247  0.6889
   25TMC2     H  388   0.460   3.031  11.539  2.4562  2.7308  2.1336
   25TMC2    H1  389   0.460   2.672  11.770  1.8747  0.0845  4.0097
   25TMC2    H2  390   0.337   3.051  11.944 -1.5143 -0.6339  0.3531
   25TMC2    C7  391   0.348   2.786  11.988  0.8449 -0.4763  0.5210
   25TMC2    C8  392   0.381   3.192  11.733  0.1074 -0.4610  0.0530
   25TMC2    O1  393   0.321   2.867  12.077  0.0686 -0.1463  0.0776
   25TMC2    O2  394   0.301   3.247  11.802  0.1242 -0.0275  0.5367
   25TMC2    O5  395   0.492   3.250  11.689  0.1915  0.4875 -0.0649
   25TMC2    H5  396   0.573   3.202  11.664  1.4595  1.2216  2.7187
   26MPD2     C  397   0.457   2.383  11.207 -0.4277 -0.5988 -0.3562
   26MPD2    C1  398   0.370   2.362  11.307  0.6025 -0.1303  0.4723
   26MPD2    C2  399   0.374   2.445  11.413 -0.6024  0.6843  0.6703
   26MPD2    C3  400   0.456   2.556  11.415  0.2711 -0.0455  0.4206
   26MPD2    C4  401   0.553   2.570  11.316 -1.4823  0.7329  0.5181
   26MPD2    C5  402   0.545   2.482  11.211 -0.4976  0.0414  0.4330
   26MPD2     H  403   0.310   2.424  11.498  0.4902 -1.5753  0.9424
   26MPD2    H1  404   0.630   2.647  11.315 -2.9162  2.1541  0.8246
   26MPD2    H2  405   0.454   2.317  11.121  0.2998 -1.8745  0.5946
   26MPD2    H3  406   0.612   2.481  11.125 -0.6596 -1.2252  0.3167
   26MPD2     N  407   0.433   2.641  11.525  0.0823 -0.0173 -0.8714
   26MPD2    H5  408   0.374   2.615  11.603 -1.7232  1.1412 -1.8613
   26MPD2    N1  409   0.276   2.257  11.289  0.6562 -0.2416  0.0866
   26MPD2    H7  410   0.284   2.203  11.203  1.8825 -2.2265  1.4245
   27TMC2    C1  411   4.119   0.305  12.261 -0.3953 -0.6541 -0.1822
   27TMC2    C2  412   4.149   0.438  12.232  0.3209  0.0130 -0.4781
   27TMC2    C3  413   4.257   0.493  12.297  1.0570  0.4040 -0.3082
   27TMC2    C4  414   4.194   0.230  12.348 -0.3232 -0.1045 -0.1945
   27TMC2    C5  415   4.303   0.293  12.401  0.9621  1.2705  0.2241
   27TMC2    C6  416   4.329   0.429  12.385 -0.2508  0.0469 -0.2960
   27TMC2     C  417   3.997   0.246  12.219 -0.1561  0.1954 -0.3520
   27TMC2     O  418   3.952   0.292  12.118  0.0162 -0.7297 -0.0456
   27TMC2     H  419   4.093   0.494  12.158  0.2980  2.0694  1.0877
   27TMC2    H1  420   4.179   0.123  12.358 -1.5644  0.4436  3.8526
   27TMC2    H2  421   4.432   0.457  12.400  0.0434 -2.4178  2.4472
   27TMC2    C7  422   4.346   0.224  12.524 -0.4182 -0.7080 -1.0954
   27TMC2    C8  423   4.307   0.622  12.242  0.5527  0.4290  0.2104
   27TMC2    O1  424   4.287   0.120  12.556  0.2790 -0.0254 -0.9044
   27TMC2    O2  425   4.252   0.669  12.141  0.5345  0.6403 -0.6321
   27TMC2    O5  426   4.360   0.690  12.345 -0.8922  0.1933 -0.6053
   27TMC2    H5  427   4.389   0.634  12.421 -1.8188  0.5552  0.0167
   28MPD2     C  428   3.521   0.071  12.294 -0.2656 -0.5885 -0.3492
   28MPD2    C1  429   3.576   0.093  12.417  0.3359  0.1396  0.4957
   28MPD2    C2  430   3.714   0.119  12.423  0.0790  0.3919 -0.6433
   28MPD2    C3  431   3.788   0.145  12.303 -0.2976  0.0590  0.3944
   28MPD2    C4  432   3.719   0.137  12.183  0.1937  0.2200 -0.7447
   28MPD2    C5  433   3.595   0.093  12.179 -0.1504  0.2199  0.4858
   28MPD2     H  434   3.766   0.141  12.516 -0.5443 -0.7087 -0.0364
   28MPD2    H1  435   3.771   0.163  12.092  1.4673  0.7043  0.1235
   28MPD2    H2  436   3.428   0.015  12.285 -1.5916  1.8077 -1.3998
   28MPD2    H3  437   3.542   0.065  12.088  1.4584  2.3018 -1.0936
   28MPD2     N  438   3.924   0.182  12.314  0.0998  0.1035  0.0847
   28MPD2    H5  439   3.962   0.185  12.409  0.9739  0.2287 -0.2663
   28MPD2    N1  440   3.489   0.088  12.529 -0.1947 -0.5316  0.3443
   28MPD2    H7  441   3.388   0.090  12.516 -0.4191  2.1161  2.4089
   29MPD2     C  442   4.097   2.140  13.971 -0.0300 -0.6132  0.7489
   29MPD2    C1  443   4.179   2.130  14.083 -0.3464  0.0176  0.2985
   29MPD2    C2  444   4.200   2.241  14.165  0.1069  0.2756  0.4785
   29MPD2    C3  445   4.129   2.359  14.148 -0.1318 -0.5818 -0.3601
   29MPD2    C4  446   4.045   2.365  14.038  0.6749  0.2904  0.1771
   29MPD2    C5  447   4.028   2.258  13.947  0.0300  0.0139  0.2210
   29MPD2     H  448   4.246   2.227  14.262  4.3074  1.2345 -1.3757
   29MPD2    H1  449   3.963   2.436  14.029  1.8072  2.0518  3.7284
   29MPD2    H2  450   4.078   2.066  13.894 -0.3973 -0.6785  0.9001
   29MPD2    H3  451   3.959   2.257  13.863 -0.1959  0.4604  0.4057
   29MPD2     N  452   4.121   2.455  14.250  0.0180 -0.3779 -0.6351
   29MPD2    H5  453   4.165   2.430  14.338 -0.0371 -1.9599 -1.0661
   29MPD2    N1  454   4.243   2.010  14.103  0.6367  0.2510 -0.1439
   29MPD2    H7  455   4.222   1.937  14.036  0.6280  0.3701 -0.2704
   30TCq2    C1  456   4.061   2.576  14.236 -0.7652  0.1594  0.2082
   30TCq2    O2  457   4.053   2.645  14.139 -0.1738  0.4011  0.0068
   30TCq2    C2  458   4.017   2.616  14.371 -0.0530 -1.2031 -0.4310
   30TCq2    C3  459   3.966   2.521  14.454  0.0286  0.5288  0.1809
   30TCq2    C4  460   3.945   2.561  14.580  0.4231  0.6151  0.7061
   30TCq2    C5  461   3.948   2.686  14.620  0.2527 -0.5331  1.2271
   30TCq2    C6  462   3.993   2.786  14.538  0.5841 -0.2404  0.6931
   30TCq2    C7  463   4.021   2.752  14.403 -0.1711 -1.0510 -0.1820
   30TCq2    C8  464   4.031   2.911  14.607 -0.2038 -0.5214 -0.5581
   30TCq2    O4  465   4.134   2.969  14.588  0.4994  0.8123 -0.0325
   30TCq2    C9  466   3.913   2.459  14.672 -0.0547 -0.2781 -0.3817
   30TCq2    O5  467   3.933   2.336  14.637 -0.2845  0.1567  0.0930
   30TCq2    O6  468   3.875   2.482  14.791  0.3491  0.0701  0.2387
   30TCq2    H2  469   3.964   2.418  14.419 -0.9807  0.5893  0.0459
   30TCq2    H3  470   3.936   2.696  14.727 -3.9076 -2.4447  0.9348
   30TCq2    H4  471   4.070   2.815  14.330  1.1193  1.1088  2.5457
   31MPD2     C  472   2.268   1.977  14.757 -0.8610  0.9387  1.0273
   31MPD2    C1  473   2.139   1.946  14.717  0.6232 -0.0242 -0.1455
   31MPD2    C2  474   2.048   1.908  14.809  0.1300  0.2099  0.3814
   31MPD2    C3  475   2.090   1.865  14.933  0.3548  0.4018  0.0869
   31MPD2    C4  476   2.223   1.882  14.976 -0.2444  0.4682 -0.3988
   31MPD2    C5  477   2.311   1.940  14.884  0.4703 -0.3323 -0.0957
   31MPD2     H  478   1.946   1.901  14.774  1.1532 -0.6054 -2.5121
   31MPD2    H1  479   2.253   1.834  15.069  0.2483  0.2150 -0.6837
   31MPD2    H2  480   2.344   2.022  14.695 -1.0696 -0.9862 -0.6445
   31MPD2    H3  481   2.414   1.960  14.911 -0.1048 -0.6064  2.2134
   31MPD2     N  482   2.000   1.802  15.030  0.0185  0.0024 -0.0153
   31MPD2    H5  483   2.042   1.773  15.117 -0.6120  0.5633  0.4837
   31MPD2    N1  484   2.108   1.954  14.575  0.6445 -0.2540 -0.0485
   31MPD2    H7  485   2.190   1.979  14.521  0.1341 -0.3520 -0.8559
   32TCq2    C1  486   1.864   1.773  15.002 -0.3738 -0.1673  0.2153
   32TCq2    O2  487   1.788   1.824  14.921  0.4918  0.5721  0.3976
   32TCq2    C2  488   1.808   1.686  15.107 -0.1782 -0.1650 -0.4322
   32TCq2    C3  489   1.669   1.690  15.115  0.6230  0.0990  0.3912
   32TCq2    C4  490   1.609   1.623  15.218  0.6308 -0.0748  0.1593
   32TCq2    C5  491   1.686   1.550  15.304  0.1012  0.0265  0.2812
   32TCq2    C6  492   1.823   1.541  15.291 -0.7472  0.5914  0.2131
   32TCq2    C7  493   1.885   1.607  15.187  0.5308  0.1060  0.9222
   32TCq2    C8  494   1.891   1.426  15.357  0.1348  0.4072 -0.1038
   32TCq2    O4  495   1.997   1.390  15.305 -0.2676  0.7590  0.5866
   32TCq2    C9  496   1.471   1.640  15.252 -0.2495 -0.0654 -0.3910
   32TCq2    O5  497   1.410   1.735  15.191  0.2339  0.5043 -0.3952
   32TCq2    O6  498   1.434   1.575  15.350  0.1709 -0.3323 -0.0945
   32TCq2    H2  499   1.608   1.743  15.043 -1.4199 -2.2199  0.4272
   32TCq2    H3  500   1.634   1.502  15.386  2.1763 -1.9429  0.4422
   32TCq2    H4  501   1.992   1.596  15.176  0.6108  1.6589  0.0872
   33MPD2     C  502   2.716   2.514   8.848  0.4656  0.6394 -0.2951
   33MPD2    C1  503   2.672   2.626   8.918 -0.9212 -0.1653 -0.2070
   33MPD2    C2  504   2.736   2.750   8.897  0.4567 -0.5579  0.1249
   33MPD2    C3  505   2.830   2.766   8.797 -0.5266  0.0596 -0.0810
   33MPD2    C4  506   2.877   2.650   8.737  0.4262  1.0432 -0.1151
   33MPD2    C5  507   2.812   2.530   8.748 -0.4380  1.1615  0.1990
   33MPD2     H  508   2.694   2.840   8.941 -0.4836 -0.5398 -0.8085
   33MPD2    H1  509   2.962   2.650   8.670  1.1364 -3.2371  0.8186
   33MPD2    H2  510   2.670   2.417   8.867 -2.3987  2.1675  0.5113
   33MPD2    H3  511   2.826   2.447   8.680 -0.2617  1.8160 -0.5666
   33MPD2     N  512   2.899   2.891   8.776 -0.5574  0.4113 -0.5192
   33MPD2    H5  513   2.991   2.890   8.733 -1.1075  2.4639 -1.7541
   33MPD2    N1  514   2.565   2.604   9.006 -0.4129  0.5591  0.5604
   33MPD2    H7  515   2.529   2.509   9.009  2.1857 -0.4152  0.6462
   34TCq2    C1  516   2.858   3.013   8.821 -0.6799  0.2133  0.4042
   34TCq2    O2  517   2.745   3.039   8.857 -0.2546  0.0569 -0.2191
   34TCq2    C2  518   2.965   3.108   8.857 -0.6484 -0.2701  0.0990
   34TCq2    C3  519   3.097   3.075   8.827  0.1903 -0.4829  0.2964
   34TCq2    C4  520   3.192   3.166   8.868  0.1666 -0.8886 -0.2020
   34TCq2    C5  521   3.162   3.281   8.938 -0.7196 -0.7085 -0.0915
   34TCq2    C6  522   3.034   3.308   8.972 -0.1824 -0.7516  0.2312
   34TCq2    C7  523   2.929   3.221   8.935 -0.0944  0.2427 -0.3357
   34TCq2    C8  524   2.993   3.419   9.058 -0.3476  0.6450  0.2729
   34TCq2    O4  525   2.881   3.420   9.105  0.4803 -0.5355  0.2526
   34TCq2    C9  526   3.333   3.126   8.846 -0.4111 -0.5368 -0.4752
   34TCq2    O5  527   3.419   3.220   8.836  0.3605  0.2315 -0.0784
   34TCq2    O6  528   3.351   3.001   8.837  0.4288 -0.5551 -0.4703
   34TCq2    H2  529   3.130   2.986   8.775  0.5966 -0.0128 -0.2453
   34TCq2    H3  530   3.250   3.324   8.986 -1.4145  1.1932 -0.5232
   34TCq2    H4  531   2.826   3.255   8.943 -0.3804 -0.3258 -1.6997
   35MPD2     C  532   3.130   0.468  12.091 -0.1269  0.4776  0.2968
   35MPD2    C1  533   3.103   0.376  11.990 -0.2257 -0.0463 -0.0711
   35MPD2    C2  534   3.017   0.415  11.889  0.0563  0.7971 -0.4888
   35MPD2    C3  535   2.981   0.549  11.881 -0.9356 -0.0327  0.0624
   35MPD2    C4  536   3.005   0.637  11.981  0.9025  0.0335  0.1466
   35MPD2    C5  537   3.076   0.590  12.087 -0.1480  0.1743  0.2576
   35MPD2     H  538   2.989   0.341  11.815 -0.2835  0.9181 -0.4791
   35MPD2    H1  539   2.975   0.741  11.973 -2.5072 -1.1838 -2.6832
   35MPD2    H2  540   3.187   0.435  12.177  0.5301 -3.0671 -1.5178
   35MPD2    H3  541   3.114   0.653  12.167 -3.2793 -2.8305  4.0837
   35MPD2     N  542   2.885   0.568  11.779  0.5185 -0.1293  1.3175
   35MPD2    H5  543   2.875   0.498  11.706 -0.0327 -0.6144  1.8532
   35MPD2    N1  544   3.140   0.240  12.023  0.5947  0.4410  0.1387
   35MPD2    H7  545   3.134   0.211  12.120  1.0531 -2.2914 -0.6479
   36TCq2    C1  546   2.832   0.685  11.732  0.3007  0.9642  1.3170
   36TCq2    O2  547   2.820   0.799  11.780  0.4649 -0.2763  0.1770
   36TCq2    C2  548   2.766   0.663  11.603 -0.3372  0.2299 -0.2212
   36TCq2    C3  549   2.779   0.761  11.511 -0.4386  0.5126  0.1412
   36TCq2    C4  550   2.746   0.728  11.384  0.0059 -0.0009  0.0773
   36TCq2    C5  551   2.703   0.605  11.351  0.0452 -0.4929  0.1897
   36TCq2    C6  552   2.692   0.510  11.448 -0.0730 -0.2067  0.0830
   36TCq2    C7  553   2.741   0.529  11.576  0.2378 -0.0205 -0.2653
   36TCq2    C8  554   2.640   0.372  11.422  1.0924  0.1937  0.2132
   36TCq2    O4  555   2.630   0.294  11.516 -0.0156 -0.0662 -0.2541
   36TCq2    C9  556   2.734   0.833  11.283  0.2391 -0.7401  0.3788
   36TCq2    O5  557   2.735   0.785  11.167 -0.0958 -0.7476  0.2298
   36TCq2    O6  558   2.761   0.952  11.310  0.2900  0.0568  0.5317
   36TCq2    H2  559   2.804   0.863  11.536 -0.2562  0.6646 -0.6646
   36TCq2    H3  560   2.670   0.584  11.250 -2.6775 -0.7507  1.1418
   36TCq2    H4  561   2.714   0.458  11.653  1.5002 -0.7168 -0.4672
   37TMC2    C1  562   4.593   4.381  11.746  0.3130  0.5765  0.8921
   37TMC2    C2  563   4.541   4.298  11.654  0.1790  0.8247  0.2715
   37TMC2    C3  564   4.610   4.254  11.541  0.1878 -1.1263  0.2787
   37TMC2    C4  565   0.004   4.420  11.733 -0.7034  0.0055 -0.4480
   37TMC2    C5  566   0.079   4.364  11.632  0.1626  0.0747 -0.1112
   37TMC2    C6  567   0.020   4.283  11.535 -0.4052 -0.3049  0.1079
   37TMC2     C  568   4.507   4.421  11.848  0.0194  0.1742 -0.0189
   37TMC2     O  569   4.387   4.419  11.825  0.0391 -0.0581  0.3633
   37TMC2     H  570   4.441   4.258  11.660  0.0318  0.8811 -1.8832
   37TMC2    H1  571   0.065   4.482  11.798  1.6467 -2.3720 -0.4020
   37TMC2    H2  572   0.074   4.242  11.450 -1.5900 -0.0624 -0.7430
   37TMC2    C7  573   0.218   4.393  11.636  0.2308  0.7601 -0.7216
   37TMC2    C8  574   4.571   4.124  11.481 -0.3806 -0.1908  0.2587
   37TMC2    O1  575   0.251   4.500  11.688 -0.1412 -0.0181  0.0993
   37TMC2    O2  576   4.592   4.009  11.521  0.4492  0.4307 -0.9205
   37TMC2    O5  577   4.521   4.161  11.362 -0.1602  0.2043  0.1151
   37TMC2    H5  578   4.507   4.257  11.345 -0.2703  0.6972  3.1065
   38MPD2     C  579   4.444   4.642  12.304 -0.0199  0.2978 -0.2853
   38MPD2    C1  580   4.575   4.597  12.293  0.5349  0.1789 -0.0287
   38MPD2    C2  581   4.617   4.544  12.172  0.2591 -0.1901  0.3262
   38MPD2    C3  582   4.527   4.516  12.073 -0.2069  0.0034  0.1950
   38MPD2    C4  583   4.394   4.556  12.080 -0.2396 -0.9505 -0.1201
   38MPD2    C5  584   4.352   4.623  12.193  0.0785 -0.7521  0.4521
   38MPD2     H  585   4.720   4.516  12.158  1.0607  2.6073  0.5086
   38MPD2    H1  586   4.330   4.542  11.993  0.9455 -0.4374 -1.0665
   38MPD2    H2  587   4.409   4.684  12.397 -0.0660  1.5056 -0.8469
   38MPD2    H3  588   4.254   4.667  12.190  1.7509  2.9632  0.6491
   38MPD2     N  589   4.577   4.446  11.960  0.4415 -0.1810 -0.1861
   38MPD2    H5  590   4.678   4.431  11.957  0.0331 -2.5360 -1.6651
   38MPD2    N1  591   4.678   4.628  12.385  0.2719 -0.1715 -0.4645
   38MPD2    H7  592   0.049   4.605  12.356  0.9184 -1.0647  2.3478
   39MPD2     C  593   3.556   3.197   2.036  0.1887 -0.6322  0.0690
   39MPD2    C1  594   3.462   3.181   2.132  0.3632 -0.5934 -0.0535
   39MPD2    C2  595   3.358   3.089   2.112 -0.2071 -0.5123  0.0006
   39MPD2    C3  596   3.334   3.032   1.988  0.1364  0.0504  0.4605
   39MPD2    C4  597   3.417   3.070   1.887 -0.0010 -0.7973 -0.9594
   39MPD2    C5  598   3.535   3.138   1.914  0.0513 -0.5978  0.4410
   39MPD2     H  599   3.289   3.072   2.193 -2.4170  0.1384 -1.7437
   39MPD2    H1  600   3.408   3.015   1.794 -0.1804  1.0147 -2.0179
   39MPD2    H2  601   3.642   3.262   2.042  1.6862 -2.5110 -0.8730
   39MPD2    H3  602   3.605   3.142   1.831 -1.1715 -0.6227 -0.5861
   39MPD2     N  603   3.224   2.945   1.955 -1.1335 -0.0625 -0.0334
   39MPD2    H5  604   3.220   2.927   1.855 -1.5945  1.9326 -0.3851
   39MPD2    N1  605   3.494   3.242   2.259 -0.5454  0.0129  0.6003
   39MPD2    H7  606   3.581   3.294   2.263  0.4768 -1.7129  0.8565
   40TCq2    C1  607   3.415   3.239   2.369 -0.4525 -0.6976 -0.4470
   40TCq2    O2  608   3.310   3.182   2.391 -0.1917  0.5083  0.1517
   40TCq2    C2  609   3.468   3.302   2.495 -0.3133 -0.0387  0.1211
   40TCq2    C3  610   3.418   3.252   2.619  0.3768 -0.3325  0.4073
   40TCq2    C4  611   3.446   3.335   2.731 -0.0908  0.2629 -0.4074
   40TCq2    C5  612   3.511   3.456   2.726 -0.0981  0.0257 -0.1335
   40TCq2    C6  613   3.562   3.492   2.604 -0.8103 -1.0962  0.0441
   40TCq2    C7  614   3.548   3.414   2.491 -0.0038  0.5897 -0.2342
   40TCq2    C8  615   3.677   3.577   2.613  0.1421  0.6732 -0.3682
   40TCq2    O4  616   3.718   3.608   2.723 -0.2216  0.2620  0.3667
   40TCq2    C9  617   3.427   3.278   2.862 -0.0583  0.3254 -0.1313
   40TCq2    O5  618   3.439   3.353   2.958 -0.0555  1.0334  0.4408
   40TCq2    O6  619   3.402   3.154   2.862  0.5364  0.4677 -0.5646
   40TCq2    H2  620   3.396   3.146   2.625 -1.1975  0.0098  0.5832
   40TCq2    H3  621   3.549   3.497   2.818 -1.6991 -0.0959  0.5817
   40TCq2    H4  622   3.586   3.451   2.397  0.4487  1.2111  0.1958
   41TMC2    C1  623   2.684   0.571  13.671  0.1910  0.9879 -0.1431
   41TMC2    C2  624   2.667   0.704  13.701  0.1995  0.1087 -0.5133
   41TMC2    C3  625   2.718   0.797  13.610  0.3183 -0.0050  0.2183
   41TMC2    C4  626   2.749   0.533  13.554  0.6061  0.3483 -0.3514
   41TMC2    C5  627   2.806   0.630  13.480  0.4930  0.1234  0.7938
   41TMC2    C6  628   2.794   0.763  13.504 -0.0656  0.1077 -0.4244
   41TMC2     C  629   2.705   0.484  13.787 -0.9145  0.9351 -0.2757
   41TMC2     O  630   2.781   0.391  13.780  0.1140  0.2938 -0.2617
   41TMC2     H  631   2.606   0.743  13.782 -0.6054 -0.6953 -0.7399
   41TMC2    H1  632   2.781   0.431  13.541  0.4562  0.2448  0.0911
   41TMC2    H2  633   2.812   0.835  13.425  0.8218  1.0053  0.5895
   41TMC2    C7  634   2.829   0.579  13.345 -0.1535 -0.5555 -0.1706
   41TMC2    C8  635   2.670   0.938  13.612  0.0387  0.2988 -0.2630
   41TMC2    O1  636   2.799   0.464  13.315  0.4741  0.3131  0.3503
   41TMC2    O2  637   2.566   0.981  13.663  0.2743  0.0496 -0.3152
   41TMC2    O5  638   2.775   1.014  13.581 -0.3282  0.5147  0.4683
   41TMC2    H5  639   2.851   0.959  13.554 -0.4657  1.0193 -0.9575
   42MPD2     C  640   2.748   0.397  14.068  0.0455  0.1683 -0.2627
   42MPD2    C1  641   2.648   0.487  14.026 -0.3784  0.4189  0.2031
   42MPD2    C2  642   2.563   0.538  14.127 -0.1030  0.9315  0.7906
   42MPD2    C3  643   2.593   0.517  14.262 -0.5352  0.0298  0.0344
   42MPD2    C4  644   2.696   0.438  14.300  0.8798 -0.3730  0.8200
   42MPD2    C5  645   2.767   0.370  14.198 -0.3931 -0.0766 -0.5149
   42MPD2     H  646   2.497   0.615  14.089 -2.1744 -1.1157  0.2513
   42MPD2    H1  647   2.717   0.422  14.405 -1.2179  1.6368  1.5582
   42MPD2    H2  648   2.812   0.342  13.999  1.1521  0.9835  0.1058
   42MPD2    H3  649   2.840   0.294  14.225  1.9233  2.4263  0.2102
   42MPD2     N  650   2.534   0.588  14.371  0.3079  0.6824 -0.2651
   42MPD2    H5  651   2.587   0.587  14.458 -0.4864 -1.0559  0.2021
   42MPD2    N1  652   2.628   0.526  13.894 -0.0384 -0.0185 -0.2559
   42MPD2    H7  653   2.556   0.596  13.875  0.7314  0.8053 -0.1583
   43MPD2     C  654   3.499   3.699   0.849 -0.2461  0.0868  1.0061
   43MPD2    C1  655   3.582   3.711   0.959 -0.6228 -0.7575  0.9182
   43MPD2    C2  656   3.540   3.766   1.074 -0.4457  0.4782  0.1363
   43MPD2    C3  657   3.415   3.816   1.082 -0.6775  0.4905 -0.4209
   43MPD2    C4  658   3.329   3.798   0.978 -0.4430  0.8049  0.5947
   43MPD2    C5  659   3.370   3.738   0.862  0.3845  0.3408  0.1302
   43MPD2     H  660   3.609   3.771   1.158  1.5011  0.6275 -1.4772
   43MPD2    H1  661   3.228   3.840   0.974 -0.3201  1.0249 -0.2153
   43MPD2    H2  662   3.516   3.668   0.747 -0.0249 -1.0587  1.3979
   43MPD2    H3  663   3.309   3.723   0.773 -0.0748  0.5893  0.4030
   43MPD2     N  664   3.361   3.883   1.193  0.0775 -0.0880  0.1194
   43MPD2    H5  665   3.267   3.920   1.183 -0.2978 -1.5407 -1.8268
   43MPD2    N1  666   3.723   3.687   0.945  0.0274  0.2630  0.0193
   43MPD2    H7  667   3.770   3.688   1.035 -1.7339  2.0140  0.9338
   44TCq2    C1  668   3.331   4.180   1.692 -0.0176 -1.0582 -0.3669
   44TCq2    O2  669   3.429   4.123   1.736 -0.3569 -0.4994  0.1782
   44TCq2    C2  670   3.290   4.141   1.557 -0.1831 -0.3084  0.3143
   44TCq2    C3  671   3.219   4.231   1.479  0.2113 -0.4645  0.3789
   44TCq2    C4  672   3.224   4.215   1.344 -0.1370  0.5542  0.6421
   44TCq2    C5  673   3.284   4.101   1.288  0.0058 -0.1560 -0.0344
   44TCq2    C6  674   3.343   4.014   1.372 -0.6421  0.1707 -0.1195
   44TCq2    C7  675   3.350   4.031   1.507  0.1128  0.1369 -0.4261
   44TCq2    C8  676   3.420   3.910   1.311 -0.7646 -0.0677  0.5965
   44TCq2    O4  677   3.522   3.866   1.359 -0.0023 -0.0395  0.2485
   44TCq2    C9  678   3.156   4.306   1.261 -0.6009 -0.4676 -0.4033
   44TCq2    O5  679   3.083   4.390   1.319 -0.4048  0.4503 -0.3374
   44TCq2    O6  680   3.206   4.329   1.144 -0.4449  0.0392  0.1574
   44TCq2    H2  681   3.172   4.322   1.515 -0.4631 -0.5413 -0.2997
   44TCq2    H3  682   3.295   4.103   1.180  1.9980  1.7022  0.2120
   44TCq2    H4  683   3.414   3.971   1.572 -0.7683  0.1048  0.4194
   45TMC2    C1  684   0.049   0.074   9.927  0.2005  0.2205  0.7176
   45TMC2    C2  685   0.135   0.048   9.830 -0.0383  0.3246  0.3224
   45TMC2    C3  686   0.238   0.139   9.813 -0.5381  0.3119  0.4820
   45TMC2    C4  687   0.058   0.176  10.017 -0.5174 -0.2512 -0.0039
   45TMC2    C5  688   0.157   0.268   9.990  0.4654  0.2275  0.1874
   45TMC2    C6  689   0.246   0.251   9.892 -0.4071 -0.0238 -0.6540
   45TMC2     C  690   4.656   4.712   9.928  0.3566 -0.8188  0.0255
   45TMC2     O  691   4.606   4.705  10.042  0.4003 -0.1516  0.1343
   45TMC2     H  692   0.138   4.682   9.769 -0.7072 -0.4095  1.3841
   45TMC2    H1  693   4.702   0.202  10.087 -1.3150 -0.9240 -0.6785
   45TMC2    H2  694   0.342   0.302   9.891 -0.5614  0.2820  0.8188
   45TMC2    C7  695   0.148   0.406  10.042  0.1956 -0.3771 -0.4316
   45TMC2    C8  696   0.339   0.098   9.722  0.1535 -0.6680 -0.4423
   45TMC2    O1  697   0.085   0.427  10.146 -0.0802  0.1691  0.6292
   45TMC2    O2  698   0.368   4.702   9.709 -0.2711  0.1997 -0.1776
   45TMC2    O5  699   0.412   0.202   9.682  0.0622 -0.3893 -0.1376
   45TMC2    H5  700   0.367   0.289   9.682  0.8774  0.0354 -0.7167
   46MPD2     C  701   4.440   4.531   9.864 -0.1488 -0.8385 -0.1580
   46MPD2    C1  702   4.481   4.633   9.777  0.2792  0.4795  0.9145
   46MPD2    C2  703   4.418   4.658   9.662  0.1017  0.2751 -0.9979
   46MPD2    C3  704   4.303   4.597   9.631  0.4149 -0.1953 -0.2028
   46MPD2    C4  705   4.261   4.486   9.706  0.5690  0.6065 -0.1038
   46MPD2    C5  706   4.326   4.467   9.827  0.5460  0.3931 -0.5098
   46MPD2     H  707   4.455   0.020   9.607 -2.5076  0.3618 -2.6600
   46MPD2    H1  708   4.175   4.425   9.680  0.4903  0.3633  0.7353
   46MPD2    H2  709   4.482   4.501   9.959 -0.2335 -0.5056 -0.0174
   46MPD2    H3  710   4.300   4.380   9.885 -1.4185  0.9477 -0.5612
   46MPD2     N  711   4.242   4.634   9.509  0.4655  0.3144  0.2956
   46MPD2    H5  712   4.290   4.707   9.457  0.9658 -1.6267 -1.9309
   46MPD2    N1  713   4.598   4.711   9.807  0.2061  0.0370  0.6381
   46MPD2    H7  714   4.632   0.058   9.744 -0.8073 -0.1188 -0.0674
   47TMC2    C1  715   2.228   0.801   9.615 -0.3812  1.1548  0.2020
   47TMC2    C2  716   2.231   0.710   9.515  0.2344 -0.2992 -0.2747
   47TMC2    C3  717   2.120   0.718   9.434  0.1194 -0.1801  0.0224
   47TMC2    C4  718   2.129   0.896   9.638 -0.6244 -0.3164  0.4208
   47TMC2    C5  719   2.037   0.907   9.531 -0.0240  0.0820 -0.3177
   47TMC2    C6  720   2.023   0.810   9.439 -0.1169 -0.4137  0.1134
   47TMC2     C  721   2.347   0.813   9.699  0.0236  0.1369  1.1185
   47TMC2     O  722   2.357   0.930   9.740 -0.4752 -0.2260  0.4996
   47TMC2     H  723   2.311   0.637   9.511 -1.8098 -2.5438 -0.0035
   47TMC2    H1  724   2.145   0.980   9.704  0.1035  1.6058 -2.2059
   47TMC2    H2  725   1.942   0.822   9.367 -0.1022  0.6373  0.2703
   47TMC2    C7  726   1.929   1.008   9.555 -0.0990  0.1313 -0.3358
   47TMC2    C8  727   2.095   0.604   9.357  0.2356  1.1854  0.2770
   47TMC2    O1  728   1.871   1.057   9.462 -0.2175  0.4020 -0.3200
   47TMC2    O2  729   2.184   0.531   9.312  0.3614 -0.2827  0.6868
   47TMC2    O5  730   1.965   0.589   9.328 -0.2468 -0.1964 -0.1425
   47TMC2    H5  731   1.903   0.645   9.380  0.0057  0.1700 -0.2391
   48MPD2     C  732   2.552   0.787   9.925 -0.1491  0.0306 -0.1249
   48MPD2    C1  733   2.499   0.677   9.859  0.8619  0.0255 -0.5875
   48MPD2    C2  734   2.538   0.551   9.892 -0.6119  0.2221 -0.0083
   48MPD2    C3  735   2.633   0.529   9.990 -0.4257  0.0747  0.4662
   48MPD2    C4  736   2.685   0.641  10.050 -0.6577  0.0695  0.7722
   48MPD2    C5  737   2.651   0.774  10.022 -0.4130 -0.2779 -0.0218
   48MPD2     H  738   2.485   0.465   9.853  0.6044 -0.5213 -0.0260
   48MPD2    H1  739   2.773   0.629  10.112 -0.5797 -1.1865  0.4224
   48MPD2    H2  740   2.523   0.888   9.896  2.6192  1.5162  2.2674
   48MPD2    H3  741   2.707   0.860  10.057  0.8002 -0.3202 -1.8896
   48MPD2     N  742   2.665   0.396  10.023 -0.2914 -0.4531 -0.1442
   48MPD2    H5  743   2.625   0.316   9.975 -0.6212 -1.1361  1.2436
   48MPD2    N1  744   2.406   0.690   9.752 -0.1411  0.0795  0.3860
   48MPD2    H7  745   2.374   0.605   9.707  2.6248 -0.3064 -0.8879
   49MPD2     C  746   4.660   2.485  10.650  0.3311  0.4435 -0.6902
   49MPD2    C1  747   4.665   2.395  10.753  0.2685 -0.1499  0.4071
   49MPD2    C2  748   4.719   2.430  10.874 -0.7697 -0.1842 -0.4474
   49MPD2    C3  749   0.054   2.557  10.890 -0.4235  0.2837 -0.2513
   49MPD2    C4  750   0.054   2.650  10.783  0.2264 -0.1299 -0.1020
   49MPD2    C5  751   4.709   2.611  10.667 -0.6824  0.0704  0.3531
   49MPD2     H  752   4.712   2.358  10.955  0.2573 -0.3887 -0.5319
   49MPD2    H1  753   0.110   2.742  10.797 -0.2348  0.3567 -1.4937
   49MPD2    H2  754   4.609   2.470  10.555 -0.7993  0.1744 -0.0437
   49MPD2    H3  755   4.708   2.674  10.579  0.6215  0.8928  0.9296
   49MPD2     N  756   0.106   2.614  11.006  0.0588  0.4813 -0.2797
   49MPD2    H5  757   0.170   2.692  10.997  2.6974 -1.4808  1.4310
   49MPD2    N1  758   4.601   2.267  10.736  0.1248  0.0227 -0.0153
   49MPD2    H7  759   4.605   2.203  10.815  0.1752  2.2071  1.7551
   50TCq2    C1  760   4.556   2.211  10.619 -0.9035 -0.7114 -0.1779
   50TCq2    O2  761   4.560   2.254  10.503  0.5537 -0.2646 -0.5437
   50TCq2    C2  762   4.475   2.091  10.641  0.5279  0.2559  0.0225
   50TCq2    C3  763   4.456   2.014  10.521  0.6539 -0.0283  0.1029
   50TCq2    C4  764   4.412   1.883  10.534 -1.0639  0.2232  0.3635
   50TCq2    C5  765   4.417   1.820  10.654 -0.4311 -0.2400 -0.4378
   50TCq2    C6  766   4.435   1.891  10.769 -0.9037 -0.0820 -0.6451
   50TCq2    C7  767   4.469   2.025  10.766 -0.4632 -0.2283  1.0655
   50TCq2    C8  768   4.448   1.819  10.889 -0.5094 -0.0668 -0.2281
   50TCq2    O4  769   4.436   1.887  10.990 -0.3005  0.1028  0.3437
   50TCq2    C9  770   4.394   1.801  10.416 -0.3495  0.1545 -0.6015
   50TCq2    O5  771   4.344   1.857  10.316 -0.5019 -0.3632  0.1667
   50TCq2    O6  772   4.396   1.674  10.438  0.6311  0.2348  0.3891
   50TCq2    H2  773   4.475   2.064  10.426  2.3408  0.6276  0.7883
   50TCq2    H3  774   4.381   1.719  10.664 -2.1607  0.5073  0.9397
   50TCq2    H4  775   4.474   2.070  10.865  0.7706  2.0641 -0.0224
   51MPD2     C  776   0.676   1.890   2.010 -0.1506  0.2558 -1.1833
   51MPD2    C1  777   0.788   1.815   2.046 -0.0628 -0.0105  0.5608
   51MPD2    C2  778   0.888   1.876   2.123 -0.0633  0.6929 -0.1736
   51MPD2    C3  779   0.874   2.003   2.168 -0.7183 -0.9318  0.5058
   51MPD2    C4  780   0.763   2.074   2.124 -0.5838 -0.2369  0.3334
   51MPD2    C5  781   0.660   2.014   2.052 -0.5889 -0.2954 -0.0359
   51MPD2     H  782   0.978   1.819   2.145 -0.2249  0.4965 -0.0105
   51MPD2    H1  783   0.746   2.175   2.160  0.4434 -0.2254  0.8059
   51MPD2    H2  784   0.602   1.846   1.944  0.0719  0.1389 -1.3547
   51MPD2    H3  785   0.568   2.067   2.029  0.1860 -0.8844 -4.6064
   51MPD2     N  786   0.969   2.068   2.247 -0.0543  0.2834  0.2302
   51MPD2    H5  787   0.930   2.151   2.291 -0.3604  0.5771 -0.6039
   51MPD2    N1  788   0.796   1.680   2.003  0.1596 -0.3547  0.2217
   51MPD2    H7  789   0.873   1.628   2.044  1.6340  1.4557 -0.2653
   52TCq2    C1  790   1.104   2.032   2.269 -0.2159 -0.1484 -0.6572
   52TCq2    O2  791   1.165   1.927   2.253  0.5743 -0.5161 -0.0508
   52TCq2    C2  792   1.173   2.144   2.338  0.0978  0.4302 -0.2075
   52TCq2    C3  793   1.282   2.104   2.412 -0.4139  0.3695 -0.0551
   52TCq2    C4  794   1.351   2.203   2.475 -0.5567  0.0493 -0.4182
   52TCq2    C5  795   1.307   2.334   2.470  0.4152 -0.1421  0.0832
   52TCq2    C6  796   1.187   2.365   2.406  0.1462 -0.6051  0.1832
   52TCq2    C7  797   1.123   2.269   2.331 -0.1416 -0.1044  0.3518
   52TCq2    C8  798   1.158   2.502   2.401  0.2133 -0.3082 -0.1232
   52TCq2    O4  799   1.243   2.584   2.431  0.0189  0.5082 -0.0450
   52TCq2    C9  800   1.466   2.165   2.564 -0.1709 -0.1630 -0.0702
   52TCq2    O5  801   1.488   2.043   2.583  0.3196  0.4393 -0.0096
   52TCq2    O6  802   1.525   2.257   2.624  0.5160 -0.0978  0.2844
   52TCq2    H2  803   1.308   2.001   2.430 -0.9175  0.8463  3.3281
   52TCq2    H3  804   1.360   2.401   2.536  0.2512 -0.7141  0.8002
   52TCq2    H4  805   1.047   2.299   2.261  0.9810  1.1315 -0.3547
   53TMC2    C1  806   0.908   4.693  11.661 -0.5594  0.5369  0.5952
   53TMC2    C2  807   1.016   0.024  11.592 -0.0941 -0.3012  0.4087
   53TMC2    C3  808   1.075   0.134  11.649  0.0389  0.4058 -0.2063
   53TMC2    C4  809   0.862   0.017  11.786 -0.1215  0.1933 -0.0065
   53TMC2    C5  810   0.919   0.135  11.826 -0.1793  0.4573  0.0168
   53TMC2    C6  811   1.027   0.194  11.763  0.2691  0.0122 -0.5147
   53TMC2     C  812   0.853   4.568  11.611 -0.5703 -0.7066 -0.3556
   53TMC2     O  813   0.931   4.495  11.550 -0.0330 -0.3081  0.1838
   53TMC2     H  814   1.048   4.706  11.497 -1.7572 -0.8375  0.0837
   53TMC2    H1  815   0.781   4.700  11.846 -0.0779  1.0944  0.6625
   53TMC2    H2  816   1.083   0.278  11.801 -0.6871  0.2366  0.4071
   53TMC2    C7  817   0.862   0.217  11.939 -0.1977 -0.5997 -0.1144
   53TMC2    C8  818   1.171   0.206  11.566 -0.1030 -0.0529  0.6465
   53TMC2    O1  819   0.770   0.175  12.008 -0.3623  0.1990 -0.7980
   53TMC2    O2  820   1.150   0.219  11.446 -0.2354 -0.2072 -0.8252
   53TMC2    O5  821   1.298   0.195  11.617 -0.0746  0.4091  0.4234
   53TMC2    H5  822   1.312   0.174  11.712 -1.4002  0.5210  0.6491
   54MPD2     C  823   0.724   4.298  11.610 -0.1960  0.2932 -0.1278
   54MPD2    C1  824   0.653   4.420  11.622 -0.4722 -0.7508 -0.3475
   54MPD2    C2  825   0.516   4.413  11.616 -0.5346  0.2956  0.1898
   54MPD2    C3  826   0.445   4.299  11.596  0.2498 -0.1523  0.1067
   54MPD2    C4  827   0.517   4.182  11.583 -0.3811  0.1283 -0.7955
   54MPD2    C5  828   0.653   4.181  11.595  0.7080  0.3464 -0.8028
   54MPD2     H  829   0.460   4.506  11.606  0.0468  0.6695  0.3750
   54MPD2    H1  830   0.461   4.092  11.564  0.0895 -0.4721  0.6906
   54MPD2    H2  831   0.828   4.294  11.637  0.3187  2.6770 -1.7639
   54MPD2    H3  832   0.705   4.086  11.586  1.9463  0.8374  1.2047
   54MPD2     N  833   0.302   4.290  11.597  0.0067 -0.1089 -0.1159
   54MPD2    H5  834   0.253   4.202  11.583  1.1356 -0.4056 -2.2719
   54MPD2    N1  835   0.718   4.543  11.637 -0.0770 -0.2253  0.2263
   54MPD2    H7  836   0.660   4.620  11.668 -0.7844 -0.3912 -0.6662
   55MPD2     C  837   1.808   2.372  17.673 -0.5033  0.0121  0.2156
   55MPD2    C1  838   1.838   2.430   0.098 -0.7436  0.1382 -0.1884
   55MPD2    C2  839   1.755   2.523   0.149 -0.8291 -0.0695  0.2840
   55MPD2    C3  840   1.661   2.584   0.069  1.2368  0.1823 -0.6245
   55MPD2    C4  841   1.631   2.525  17.644 -1.1843 -0.4912 -0.7546
   55MPD2    C5  842   1.707   2.423  17.594  0.7317  0.3022 -0.0202
   55MPD2     H  843   1.776   2.567   0.246  1.4414  0.5410 -0.4879
   55MPD2    H1  844   1.544   2.555  17.586 -0.9904  2.6414  0.5950
   55MPD2    H2  845   1.869   2.291  17.635  1.2130  1.2272  0.4088
   55MPD2    H3  846   1.668   2.371  17.508 -0.3688 -0.8887  1.1908
   55MPD2     N  847   1.588   2.700   0.120 -0.1797  0.0607  0.0854
   55MPD2    H5  848   1.611   2.734   0.212  0.7034 -3.8107  1.3052
   55MPD2    N1  849   1.961   2.386   0.152 -0.0062 -0.5535 -0.0070
   55MPD2    H7  850   2.009   2.310   0.105 -0.7210 -0.7641 -0.3838
   56TCq2    C1  851   2.029   2.448   0.255  0.1691 -0.1135 -0.0382
   56TCq2    O2  852   1.975   2.522   0.335  0.1286 -0.1547  0.6202
   56TCq2    C2  853   2.171   2.414   0.275  0.3794 -0.5887 -0.7294
   56TCq2    C3  854   2.239   2.313   0.210 -0.1455 -0.1150  0.4163
   56TCq2    C4  855   2.372   2.321   0.202 -0.5162  0.0231  0.3966
   56TCq2    C5  856   2.440   2.424   0.254 -0.2490  0.8417  0.0437
   56TCq2    C6  857   2.369   2.521   0.328 -0.0694 -0.0570  0.5992
   56TCq2    C7  858   2.235   2.513   0.344 -0.1488  0.2428 -0.4050
   56TCq2    C8  859   2.444   2.604   0.426  0.1930 -0.6044 -0.2227
   56TCq2    O4  860   2.567   2.588   0.443 -0.0459 -0.1877  0.1112
   56TCq2    C9  861   2.449   2.215   0.139 -0.3715 -0.9275 -0.0169
   56TCq2    O5  862   2.383   2.114   0.113  0.1477 -0.0151  0.0901
   56TCq2    O6  863   2.570   2.229   0.106 -0.6030 -0.1235  0.0308
   56TCq2    H2  864   2.192   2.234   0.151  0.8080  0.0019 -0.5016
   56TCq2    H3  865   2.547   2.440   0.249 -0.3080  0.9705 -0.9399
   56TCq2    H4  866   2.178   2.568   0.418  0.0398  0.4221 -0.3929
   57TMC2    C1  867   1.036   3.724  13.674 -0.1659  0.1082  0.2826
   57TMC2    C2  868   1.129   3.778  13.762 -0.1297  0.0199 -0.2267
   57TMC2    C3  869   1.217   3.690  13.820 -0.0126 -0.5427  0.3270
   57TMC2    C4  870   1.026   3.585  13.662  0.2415 -0.2458  0.1730
   57TMC2    C5  871   1.125   3.507  13.711  0.3380  0.3770 -0.3236
   57TMC2    C6  872   1.223   3.557  13.785  0.3946  0.2614 -0.6165
   57TMC2     C  873   0.929   3.820  13.621  0.0764 -0.2219  0.2510
   57TMC2     O  874   0.938   3.940  13.650  0.4381  0.5169 -0.3318
   57TMC2     H  875   1.122   3.874  13.811 -3.4985 -1.1377  1.5641
   57TMC2    H1  876   0.934   3.536  13.634  0.1884  0.7005 -1.2877
   57TMC2    H2  877   1.303   3.494  13.820  1.2779  0.8602 -1.5887
   57TMC2    C7  878   1.142   3.369  13.671  0.7464  0.2579  0.4702
   57TMC2    C8  879   1.320   3.725  13.911  0.2158 -0.2525 -0.1763
   57TMC2    O1  880   1.230   3.312  13.734 -0.4671 -0.7395  0.3659
   57TMC2    O2  881   1.375   3.643  13.988  0.5201  0.7272  0.4883
   57TMC2    O5  882   1.344   3.860  13.911  0.3262  0.0134  0.0282
   57TMC2    H5  883   1.295   3.903  13.837  2.5280 -0.6986 -1.8501
   58MPD2     C  884   0.449   3.851  13.433 -0.3264 -0.3153  0.1395
   58MPD2    C1  885   0.525   3.947  13.500  0.1145  0.8685  0.6945
   58MPD2    C2  886   0.658   3.922  13.527  0.1702 -0.3408 -0.5783
   58MPD2    C3  887   0.720   3.798  13.491  0.2369 -0.0797  0.2153
   58MPD2    C4  888   0.643   3.709  13.412  0.1178  0.0037  0.4782
   58MPD2    C5  889   0.512   3.739  13.386  0.0008  0.1888 -0.2880
   58MPD2     H  890   0.715   3.993  13.585 -0.3192 -0.6913  0.3381
   58MPD2    H1  891   0.677   3.610  13.383  0.7640  0.7036 -1.1757
   58MPD2    H2  892   0.345   3.862  13.403 -0.4209  0.0628  0.6084
   58MPD2    H3  893   0.444   3.673  13.334 -1.5385  2.1915 -0.8345
   58MPD2     N  894   0.845   3.754  13.535 -0.4469  0.1188 -0.5512
   58MPD2    H5  895   0.867   3.659  13.508 -0.5343 -0.3681  1.0530
   58MPD2    N1  896   0.467   4.060  13.570  0.0238  0.1034  0.1141
   58MPD2    H7  897   0.525   4.132  13.611 -1.1650  1.6855 -0.9970
   59MPD2     C  898   3.429   0.020  13.324  0.1926 -0.4985 -0.6317
   59MPD2    C1  899   3.446   4.612  13.373  0.1312  0.5349  0.3687
   59MPD2    C2  900   3.539   4.582  13.474  0.7827 -0.8962 -0.2435
   59MPD2    C3  901   3.619   4.679  13.520 -0.4738 -0.5158 -0.0443
   59MPD2    C4  902   3.601   0.087  13.477 -0.0223  0.0670 -0.8799
   59MPD2    C5  903   3.502   0.118  13.386  0.1365 -1.0535  0.3683
   59MPD2     H  904   3.557   4.479  13.504 -0.9828 -1.5741 -1.5526
   59MPD2    H1  905   3.663   0.167  13.514 -2.7499  1.7199  0.0592
   59MPD2    H2  906   3.355   0.052  13.251 -0.5111 -0.4236  0.1169
   59MPD2    H3  907   3.484   0.223  13.368 -0.9610 -1.1585  0.8525
   59MPD2     N  908   3.717   4.655  13.620 -0.1799 -0.0951 -0.1983
   59MPD2    H5  909   3.755   0.018  13.657 -0.3451 -0.3715  0.6167
   59MPD2    N1  910   3.381   4.504  13.311  0.9449 -0.1122 -0.5994
   59MPD2    H7  911   3.385   4.416  13.362  0.6448  0.1496 -0.1231
   60TCq2    C1  912   3.353   4.508  13.172 -0.1366  0.5926  0.5646
   60TCq2    O2  913   3.381   4.594  13.092 -0.3957 -0.0593 -0.0714
   60TCq2    C2  914   3.286   4.386  13.114  0.1002 -0.9223  0.0606
   60TCq2    C3  915   3.235   4.288  13.200  0.0771  0.0372  0.0319
   60TCq2    C4  916   3.209   4.164  13.141 -0.0198  0.1267  0.4131
   60TCq2    C5  917   3.218   4.143  13.006  0.3410  0.0927  0.1470
   60TCq2    C6  918   3.262   4.248  12.931  0.1945  0.2282 -0.3502
   60TCq2    C7  919   3.304   4.369  12.981  0.0378 -0.1479 -0.3881
   60TCq2    C8  920   3.307   4.215  12.801  0.2812  0.7535  0.3555
   60TCq2    O4  921   3.344   4.096  12.796 -0.0825  0.0400  0.4629
   60TCq2    C9  922   3.163   4.053  13.234 -0.6998  0.1076  0.0190
   60TCq2    O5  923   3.178   4.061  13.360 -0.2909  0.1918  0.3324
   60TCq2    O6  924   3.090   3.962  13.182  0.5503  0.5229  0.2016
   60TCq2    H2  925   3.229   4.313  13.305  2.0419  2.2495 -0.3703
   60TCq2    H3  926   3.186   4.046  12.968 -3.4044  1.8712 -1.2219
   60TCq2    H4  927   3.345   4.445  12.915  3.2140 -1.7276 -0.2343
   61MPD2     C  928   3.085   1.012  15.374 -0.3863  0.2357 -0.3142
   61MPD2    C1  929   3.128   1.139  15.405 -0.6425 -0.0005 -1.0129
   61MPD2    C2  930   3.201   1.213  15.309 -0.4819  0.1913  0.3778
   61MPD2    C3  931   3.225   1.155  15.185 -0.6007  0.7652  0.1759
   61MPD2    C4  932   3.176   1.032  15.160 -0.1136 -0.4751  0.7249
   61MPD2    C5  933   3.105   0.962  15.246 -0.4647 -0.3000 -0.2953
   61MPD2     H  934   3.231   1.315  15.329  1.3921 -0.3458  0.3410
   61MPD2    H1  935   3.196   0.981  15.066  0.2342  0.8074  0.1016
   61MPD2    H2  936   3.031   0.951  15.444  2.1162  0.2626  1.6366
   61MPD2    H3  937   3.061   0.865  15.224  0.5078 -0.7299 -0.3353
   61MPD2     N  938   3.278   1.218  15.070 -0.2990  0.9024 -0.4210
   61MPD2    H5  939   3.286   1.159  14.988 -1.9880  0.2996 -0.1529
   61MPD2    N1  940   3.087   1.209  15.523  0.1580  0.0283  0.2871
   61MPD2    H7  941   3.098   1.310  15.531  0.3529  0.0449 -0.1868
   62TCq2    C1  942   2.993   1.168  15.616 -0.3789  0.0374  0.2807
   62TCq2    O2  943   2.949   1.056  15.636 -0.4049 -0.3973  0.0131
   62TCq2    C2  944   2.965   1.260  15.727  0.4640  0.3514 -0.6049
   62TCq2    C3  945   2.887   1.216  15.833 -0.7066  0.1607  0.0050
   62TCq2    C4  946   2.875   1.297  15.944 -0.1591 -0.2444  0.1032
   62TCq2    C5  947   2.918   1.428  15.943 -0.3664 -0.6062 -0.3327
   62TCq2    C6  948   2.985   1.468  15.830 -0.2108 -0.9128 -0.1623
   62TCq2    C7  949   3.008   1.389  15.726 -0.2007 -0.2041  0.1162
   62TCq2    C8  950   3.016   1.606  15.817  0.3137 -0.0836  0.0446
   62TCq2    O4  951   3.071   1.637  15.709  0.1019 -0.6268 -0.5972
   62TCq2    C9  952   2.809   1.250  16.066 -1.0503  0.5007 -0.5210
   62TCq2    O5  953   2.852   1.310  16.170 -0.3981  0.7548  0.1165
   62TCq2    O6  954   2.764   1.132  16.061  0.1767  0.4984  0.0421
   62TCq2    H2  955   2.837   1.121  15.840 -1.7000  0.6246 -0.8999
   62TCq2    H3  956   2.919   1.487  16.034  2.8930  1.2578 -1.5848
   62TCq2    H4  957   3.050   1.431  15.635 -0.0208 -1.6453 -0.4699
   63TMC2    C1  958   2.022   0.753  11.047  0.3634 -0.4182  0.6329
   63TMC2    C2  959   2.050   0.848  11.141  0.1303 -0.3994  0.1941
   63TMC2    C3  960   2.145   0.938  11.115 -0.1190 -0.3700  0.2188
   63TMC2    C4  961   2.086   0.747  10.927  0.0433  0.0244 -0.3005
   63TMC2    C5  962   2.181   0.846  10.902  0.0194  0.2069 -0.1078
   63TMC2    C6  963   2.221   0.936  10.998 -0.0208 -0.6747 -0.0232
   63TMC2     C  964   1.907   0.668  11.070 -0.4544  0.1557  0.2931
   63TMC2     O  965   1.851   0.696  11.176 -0.1004  0.3127  0.5995
   63TMC2     H  966   1.986   0.857  11.228 -0.9405 -0.4492 -0.5910
   63TMC2    H1  967   2.058   0.678  10.849 -1.9582  0.1928  0.2735
   63TMC2    H2  968   2.290   1.014  10.968  1.3538 -1.8637  0.0933
   63TMC2    C7  969   2.247   0.846  10.773 -0.4254 -0.5984 -0.1343
   63TMC2    C8  970   2.178   1.025  11.232  0.7369 -0.2191 -0.0773
   63TMC2    O1  971   2.198   0.779  10.684  0.2362  0.1507  0.6155
   63TMC2    O2  972   2.285   1.083  11.227  0.9003 -0.4477  0.2433
   63TMC2    O5  973   2.064   1.083  11.252  0.2203  0.2775 -0.7102
   63TMC2    H5  974   1.981   1.065  11.203  1.0899 -0.5354 -1.8901
   64MPD2     C  975   1.595   0.274  10.982  0.0079 -0.0768 -0.0440
   64MPD2    C1  976   1.704   0.262  10.897 -0.1518 -0.2413 -0.1301
   64MPD2    C2  977   1.794   0.368  10.892  0.4763 -0.0484  0.2158
   64MPD2    C3  978   1.777   0.480  10.975  0.6625  0.9423 -0.4238
   64MPD2    C4  979   1.676   0.485  11.062  0.3880 -0.0765 -0.1246
   64MPD2    C5  980   1.579   0.392  11.058 -0.2436 -0.4483  0.3827
   64MPD2     H  981   1.878   0.369  10.823 -0.1154 -0.5472 -0.5114
   64MPD2    H1  982   1.653   0.573  11.120  0.6797  1.7413 -2.7798
   64MPD2    H2  983   1.522   0.195  10.975  1.3659 -1.1534 -2.0285
   64MPD2    H3  984   1.490   0.397  11.119  1.3015 -0.3952  2.5928
   64MPD2     N  985   1.878   0.578  10.967  0.7314  0.0710 -0.0224
   64MPD2    H5  986   1.946   0.567  10.893  0.9224  0.4263  0.1032
   64MPD2    N1  987   1.733   0.142  10.820 -0.2002  0.1162  0.4721
   64MPD2    H7  988   1.819   0.148  10.768 -0.2527 -0.1931  0.3503
   65MPD2     C  989   3.682   0.779  16.139 -0.4492  0.5992 -0.4420
   65MPD2    C1  990   3.646   0.782  16.000 -0.4978  1.3755 -0.4794
   65MPD2    C2  991   3.613   0.665  15.931  0.1406  0.6241 -0.5612
   65MPD2    C3  992   3.610   0.545  16.000  0.0723  0.7302  0.1924
   65MPD2    C4  993   3.646   0.543  16.132  0.3677  0.7304 -0.5831
   65MPD2    C5  994   3.667   0.654  16.205 -0.1134  0.1177  0.4054
   65MPD2     H  995   3.581   0.665  15.827  0.1571  0.3045 -0.5660
   65MPD2    H1  996   3.642   0.449  16.186  2.5455  1.4119  0.7821
   65MPD2    H2  997   3.721   0.868  16.186  2.9676 -0.2214 -1.6835
   65MPD2    H3  998   3.689   0.653  16.311  0.3418  2.7206  0.3262
   65MPD2     N  999   3.564   0.424  15.939 -0.3421 -0.3825 -0.2058
   65MPD2    H5 1000   3.565   0.334  15.987 -0.5051 -1.0631 -1.4601
   65MPD2    N1 1001   3.647   0.896  15.918 -0.5789  1.2363  0.4836
   65MPD2    H7 1002   3.627   0.897  15.818  2.4501  3.0198 -0.1343
   66TCq2    C1 1003   3.668   1.028  15.967  0.9267  0.4899  0.4466
   66TCq2    O2 1004   3.674   1.066  16.082 -0.1459 -0.1027 -0.2506
   66TCq2    C2 1005   3.661   1.124  15.862 -0.2986 -0.2753  0.1183
   66TCq2    C3 1006   3.660   1.081  15.732 -0.3959 -0.7984  0.4376
   66TCq2    C4 1007   3.672   1.178  15.638 -0.1489 -0.2228 -0.6383
   66TCq2    C5 1008   3.694   1.309  15.669  0.1257 -0.7179 -0.2492
   66TCq2    C6 1009   3.699   1.347  15.798  0.0225  0.1716 -1.0680
   66TCq2    C7 1010   3.675   1.258  15.900 -0.7032 -0.6452 -0.3782
   66TCq2    C8 1011   3.729   1.488  15.826  0.2519  0.7238 -0.1158
   66TCq2    O4 1012   3.770   1.555  15.729  0.1065 -0.2309 -0.2397
   66TCq2    C9 1013   3.650   1.145  15.497 -0.0174  0.7171  0.1928
   66TCq2    O5 1014   3.660   1.023  15.461 -1.1260  0.0472 -0.5415
   66TCq2    O6 1015   3.646   1.244  15.412  0.1797 -0.2163  0.3555
   66TCq2    H2 1016   3.657   0.981  15.691  1.9177 -0.9962  0.7638
   66TCq2    H3 1017   3.699   1.383  15.590 -1.2363  1.0896  1.3594
   66TCq2    H4 1018   3.684   1.273  16.007 -3.7629 -0.5121 -0.1352
   67MPD2     C 1019   3.492   4.671  14.249  0.4182  0.6247  0.0969
   67MPD2    C1 1020   3.422   0.037  14.323  0.3233  0.4518 -0.8493
   67MPD2    C2 1021   3.283   0.035  14.313 -0.4854 -0.7348 -0.8173
   67MPD2    C3 1022   3.216   4.678  14.221 -0.0172 -0.3440  0.1017
   67MPD2    C4 1023   3.294   4.603  14.138 -0.0130 -0.1844  0.9646
   67MPD2    C5 1024   3.431   4.601  14.148  0.3664 -0.4908 -0.3497
   67MPD2     H 1025   3.220   0.106  14.366  0.1571 -0.7543 -0.0327
   67MPD2    H1 1026   3.243   4.542  14.063 -1.3662  1.0397  0.8927
   67MPD2    H2 1027   3.599   4.659  14.265  0.7204 -0.5808 -2.8946
   67MPD2    H3 1028   3.498   4.541  14.086  0.7733 -1.5397  1.1118
   67MPD2     N 1029   3.081   4.696  14.189 -0.4058 -0.4691 -0.4474
   67MPD2    H5 1030   3.055   4.650  14.102 -0.7996 -2.8032  0.8987
   67MPD2    N1 1031   3.485   0.112  14.420  0.2150 -0.3718 -0.6902
   67MPD2    H7 1032   3.585   0.095  14.431 -0.0309 -2.6623 -2.1102
   68TCq2    C1 1033   3.434   0.212  14.499  0.0919 -0.7600  0.0015
   68TCq2    O2 1034   3.324   0.267  14.494  0.0465 -0.0987  0.3604
   68TCq2    C2 1035   3.525   0.290  14.585 -0.6472  0.0083  0.1906
   68TCq2    C3 1036   3.498   0.425  14.607  0.1975  0.7512 -0.0777
   68TCq2    C4 1037   3.561   0.479  14.718  0.1384 -0.1898  0.9016
   68TCq2    C5 1038   3.646   0.402  14.795 -0.2900 -0.1284  0.4382
   68TCq2    C6 1039   3.673   0.272  14.766 -1.1282  0.3837 -0.2573
   68TCq2    C7 1040   3.602   0.216  14.667  0.3319 -0.5879 -0.5920
   68TCq2    C8 1041   3.774   0.193  14.825 -0.0599  0.0456  0.1661
   68TCq2    O4 1042   3.823   0.106  14.756  0.1800  0.2000 -0.3135
   68TCq2    C9 1043   3.537   0.628  14.731 -0.0089 -0.2828  0.1752
   68TCq2    O5 1044   3.609   0.686  14.824  0.1274 -0.5981  0.3130
   68TCq2    O6 1045   3.460   0.692  14.654 -1.0485 -0.0789 -0.0009
   68TCq2    H2 1046   3.435   0.476  14.536  0.3481  1.7449  0.5003
   68TCq2    H3 1047   3.694   0.451  14.879  2.3084  0.8508 -1.5857
   68TCq2    H4 1048   3.597   0.108  14.676 -1.5121 -0.6627 -2.4175
   69TMC2    C1 1049   1.104   1.312  12.623 -0.2157 -0.1783 -0.3435
   69TMC2    C2 1050   0.997   1.404  12.627 -0.0156  0.3809  0.7560
   69TMC2    C3 1051   1.020   1.528  12.578 -0.1117 -0.4012 -0.1707
   69TMC2    C4 1052   1.225   1.341  12.572  1.0065 -0.4717 -0.2733
   69TMC2    C5 1053   1.243   1.464  12.520  0.2404 -0.5580 -0.2392
   69TMC2    C6 1054   1.140   1.555  12.512  0.2248  0.4006  0.5053
   69TMC2     C 1055   1.088   1.181  12.683 -0.6466 -0.1507  0.7270
   69TMC2     O 1056   1.186   1.114  12.678  0.1737  0.2365  0.2914
   69TMC2     H 1057   0.903   1.380  12.675 -0.9126  1.2388 -0.5688
   69TMC2    H1 1058   1.311   1.276  12.575  1.5953  0.3926  1.9273
   69TMC2    H2 1059   1.155   1.657  12.478  2.4066  0.3198  1.2168
   69TMC2    C7 1060   1.356   1.475  12.434  0.0751  0.6606 -0.0674
   69TMC2    C8 1061   0.922   1.636  12.604 -0.4308 -1.2461  0.3493
   69TMC2    O1 1062   1.462   1.445  12.479 -0.2224 -0.0086 -0.1507
   69TMC2    O2 1063   0.952   1.747  12.642 -0.1220  0.3006  0.0874
   69TMC2    O5 1064   0.798   1.575  12.602 -0.1798  0.2310  0.4078
   69TMC2    H5 1065   0.788   1.504  12.535 -0.9906 -0.6422  1.4381
   70MPD2     C 1066   0.800   0.980  12.745  0.0204 -0.1914  0.6438
   70MPD2    C1 1067   0.930   1.008  12.745  0.5276 -0.2824  0.7980
   70MPD2    C2 1068   1.022   0.907  12.778 -0.2600  0.3297 -0.6145
   70MPD2    C3 1069   0.970   0.782  12.804  0.1624  0.6050 -0.0005
   70MPD2    C4 1070   0.833   0.768  12.808  0.1339 -0.4040  0.0017
   70MPD2    C5 1071   0.744   0.861  12.774  0.6511 -0.2859  0.2865
   70MPD2     H 1072   1.127   0.917  12.800 -0.5034  0.6491  0.4144
   70MPD2    H1 1073   0.784   0.672  12.822  0.3816 -0.6819 -1.0762
   70MPD2    H2 1074   0.725   1.056  12.723 -0.9036 -0.8092  1.7077
   70MPD2    H3 1075   0.637   0.855  12.786  0.3586  1.9015 -1.2279
   70MPD2     N 1076   1.045   0.668  12.828 -0.1304 -0.1718  0.3585
   70MPD2    H5 1077   0.990   0.600  12.879 -1.1411  1.0641  0.9083
   70MPD2    N1 1078   0.963   1.138  12.701  0.1765  0.0351  0.0179
   70MPD2    H7 1079   0.890   1.193  12.657  0.9066  0.8375 -0.1883
   71TMC2    C1 1080   3.560   2.782   2.152  0.0506 -0.1974 -0.2211
   71TMC2    C2 1081   3.662   2.859   2.190 -0.4815  0.1566  0.2208
   71TMC2    C3 1082   3.656   2.917   2.320 -0.2375  0.5993  0.5451
   71TMC2    C4 1083   3.451   2.761   2.234 -0.4120  0.3801  0.1414
   71TMC2    C5 1084   3.454   2.815   2.360  0.1834  0.0786 -0.5097
   71TMC2    C6 1085   3.554   2.896   2.409  0.1568  0.0672  0.3301
   71TMC2     C 1086   3.554   2.738   2.018  0.4202  0.1344  0.2260
   71TMC2     O 1087   3.447   2.718   1.962  0.0672 -0.1412 -0.2840
   71TMC2     H 1088   3.743   2.886   2.124 -0.7287 -1.1297 -0.6058
   71TMC2    H1 1089   3.365   2.716   2.184  1.3539 -1.4370 -1.2294
   71TMC2    H2 1090   3.544   2.929   2.511  1.6080 -0.7064  0.7243
   71TMC2    C7 1091   3.345   2.783   2.456  0.0254  0.1653 -0.3643
   71TMC2    C8 1092   3.759   3.019   2.346  0.1551 -0.3897 -0.9151
   71TMC2    O1 1093   3.347   2.841   2.565  0.3979 -0.4342  0.4019
   71TMC2    O2 1094   3.804   3.090   2.254  0.3815  0.5429 -0.2983
   71TMC2    O5 1095   3.746   3.064   2.478  0.1557 -0.0651  0.0643
   71TMC2    H5 1096   3.736   2.989   2.540 -0.1081 -0.0197  0.0770
   72MPD2     C 1097   3.833   2.563   1.607  1.0831  0.2919 -0.3180
   72MPD2    C1 1098   3.698   2.592   1.624  0.5364 -0.5572 -0.5045
   72MPD2    C2 1099   3.642   2.633   1.742  0.2130  0.3726  0.2267
   72MPD2    C3 1100   3.727   2.651   1.854 -0.0517  0.4434  0.5994
   72MPD2    C4 1101   3.862   2.620   1.839  0.1292  0.3392 -0.4442
   72MPD2    C5 1102   3.907   2.583   1.719 -0.7122  0.0492 -0.1325
   72MPD2     H 1103   3.536   2.655   1.748  0.1843  0.5809 -0.9351
   72MPD2    H1 1104   3.937   2.623   1.917 -0.6180  0.3658  0.2763
   72MPD2    H2 1105   3.879   2.549   1.510  0.1589 -3.0996 -0.2611
   72MPD2    H3 1106   4.013   2.563   1.717 -0.7685 -0.0343 -2.0721
   72MPD2     N 1107   3.689   2.704   1.979  0.4194 -0.5047 -0.1045
   72MPD2    H5 1108   3.768   2.709   2.043  0.4058 -0.4727 -0.0903
   72MPD2    N1 1109   3.615   2.592   1.511  0.6833  0.5039  0.2063
   72MPD2    H7 1110   3.521   2.623   1.531  0.9429  1.2640  0.2435
   73TMC2    C1 1111   3.206   3.511  15.106 -0.7633 -0.9349  0.2940
   73TMC2    C2 1112   3.284   3.404  15.098 -0.0816 -0.1806  0.3148
   73TMC2    C3 1113   3.378   3.387  15.198 -0.1075 -0.8550 -0.2166
   73TMC2    C4 1114   3.219   3.601  15.210  0.3712  0.2161  0.5916
   73TMC2    C5 1115   3.313   3.585  15.309 -0.6552  0.8673  0.1867
   73TMC2    C6 1116   3.392   3.479  15.303 -0.4643 -0.0261  0.1095
   73TMC2     C 1117   3.201   3.583  14.982 -0.0450 -0.4157 -0.7390
   73TMC2     O 1118   3.214   3.705  15.002  0.2273 -0.9315 -0.0550
   73TMC2     H 1119   3.287   3.340  15.011 -0.7392 -1.7889  1.4882
   73TMC2    H1 1120   3.155   3.688  15.213 -0.2574 -0.2572  0.9240
   73TMC2    H2 1121   3.455   3.458  15.389 -1.0034  1.3432  0.8476
   73TMC2    C7 1122   3.393   3.704  15.332  0.4085 -0.5061 -0.7434
   73TMC2    C8 1123   3.452   3.270  15.193  0.7694 -0.5422 -0.2626
   73TMC2    O1 1124   3.485   3.701  15.410 -0.5652 -0.1614  0.4564
   73TMC2    O2 1125   3.574   3.261  15.186  0.0423  0.1117  0.4983
   73TMC2    O5 1126   3.370   3.170  15.159  0.3663  0.0257  0.3646
   73TMC2    H5 1127   3.274   3.188  15.156  0.5171  0.5077 -1.3570
   74MPD2     C 1128   3.192   3.668  14.481 -0.1229 -0.5367 -0.0334
   74MPD2    C1 1129   3.238   3.747  14.581 -0.1628 -0.0373 -0.1826
   74MPD2    C2 1130   3.228   3.693  14.710 -0.4486  0.3834  0.9191
   74MPD2    C3 1131   3.172   3.569  14.745  0.0649 -0.2972 -0.0139
   74MPD2    C4 1132   3.129   3.494  14.635  0.4813  0.3377 -0.3158
   74MPD2    C5 1133   3.133   3.549  14.509 -0.1591  0.3635  0.2486
   74MPD2     H 1134   3.274   3.754  14.786  0.2025  3.2117 -1.7367
   74MPD2    H1 1135   3.084   3.395  14.633 -1.9262  1.3679  3.0206
   74MPD2    H2 1136   3.204   3.704  14.379  1.1559  1.1360  0.6946
   74MPD2    H3 1137   3.101   3.492  14.422  0.6566 -0.0078  0.2021
   74MPD2     N 1138   3.190   3.506  14.871  0.3166  0.2880  0.5827
   74MPD2    H5 1139   3.150   3.414  14.885 -1.4444  0.7992 -1.0880
   74MPD2    N1 1140   3.298   3.876  14.551 -0.5298  0.1901  0.1018
   74MPD2    H7 1141   3.307   3.898  14.452  0.5283 -0.6548  0.0153
   75TCq2    C1 1142   2.984   0.030  14.276 -0.1690 -0.0312 -0.2186
   75TCq2    O2 1143   3.006   0.068  14.388 -0.0193 -0.2464 -0.2034
   75TCq2    C2 1144   2.843   0.014  14.231  0.6582  0.3571 -0.3225
   75TCq2    C3 1145   2.751   0.023  14.328  0.2442 -0.0984  0.2183
   75TCq2    C4 1146   2.621   0.036  14.301 -0.0949 -0.1575 -0.2223
   75TCq2    C5 1147   2.588   0.058  14.170 -0.6102  0.0913 -0.4855
   75TCq2    C6 1148   2.681   0.050  14.071 -0.7510 -0.5320 -0.8300
   75TCq2    C7 1149   2.808   0.022  14.099 -0.1347 -0.1667 -0.2543
   75TCq2    C8 1150   2.647   0.087  13.939 -0.1863  0.2281  0.6556
   75TCq2    O4 1151   2.713   0.045  13.842  0.1030 -0.3015  0.0125
   75TCq2    C9 1152   2.530   0.030  14.405  0.7301  0.0791  0.3631
   75TCq2    O5 1153   2.564   4.685  14.511 -0.3897  0.4562  0.1113
   75TCq2    O6 1154   2.411   0.056  14.370  0.2106 -0.1071  0.2341
   75TCq2    H2 1155   2.781   0.013  14.431 -1.6040  2.1230  0.9724
   75TCq2    H3 1156   2.482   0.043  14.153 -0.4068 -1.4781 -0.3443
   75TCq2    H4 1157   2.889   0.030  14.027 -0.9911 -0.4311 -1.2526
   76MPD2     C 1158   2.141   0.664  12.398 -0.3930  0.3438 -0.1945
   76MPD2    C1 1159   2.028   0.626  12.330  0.0841  0.1539 -0.4866
   76MPD2    C2 1160   2.000   0.496  12.315 -0.2481  0.1710 -0.3756
   76MPD2    C3 1161   2.082   0.395  12.370  0.7433 -0.2826 -0.1542
   76MPD2    C4 1162   2.199   0.439  12.427  1.0566 -0.8053 -0.1694
   76MPD2    C5 1163   2.231   0.570  12.435 -0.2865 -0.1016  0.4803
   76MPD2     H 1164   1.903   0.468  12.276 -0.8421 -1.9830  2.6248
   76MPD2    H1 1165   2.265   0.367  12.473 -0.0368 -0.4585  1.9492
   76MPD2    H2 1166   2.174   0.768  12.403  0.5909  0.0595 -0.7761
   76MPD2    H3 1167   2.320   0.598  12.490  0.2114  1.8168 -1.2800
   76MPD2     N 1168   2.048   0.256  12.376  0.0092 -0.1198  0.1865
   76MPD2    H5 1169   2.108   0.194  12.430  2.0945  0.9826 -0.9118
   76MPD2    N1 1170   1.944   0.723  12.268  0.1084 -0.8690  0.3310
   76MPD2    H7 1171   1.878   0.681  12.204  0.9031  1.5599 -2.0845
   77TCq2    C1 1172   1.932   0.201  12.332 -0.9928 -0.9427  0.4689
   77TCq2    O2 1173   1.828   0.250  12.291  0.2423 -0.0692 -0.9256
   77TCq2    C2 1174   1.945   0.058  12.331 -0.4172 -0.3827 -0.0948
   77TCq2    C3 1175   1.823   4.722  12.328  0.2548  0.1075 -0.9678
   77TCq2    C4 1176   1.819   4.588  12.306 -0.7231 -0.8058  0.3689
   77TCq2    C5 1177   1.933   4.516  12.297 -0.3225  0.5402  0.1055
   77TCq2    C6 1178   2.051   4.586  12.293  0.7632 -0.5235  0.2671
   77TCq2    C7 1179   2.063   4.716  12.327 -0.4242 -0.5411  0.5804
   77TCq2    C8 1180   2.171   4.504  12.310 -0.4843 -0.5404 -0.1062
   77TCq2    O4 1181   2.166   4.382  12.289 -0.1096 -0.6300  0.0308
   77TCq2    C9 1182   1.691   4.522  12.301 -0.4601 -0.0185 -0.3931
   77TCq2    O5 1183   1.587   4.593  12.315  0.3895  0.2833  0.0899
   77TCq2    O6 1184   1.707   4.399  12.269  0.2765  0.5615  0.1947
   77TCq2    H2 1185   1.732   0.056  12.339  0.9453  1.0682 -0.3501
   77TCq2    H3 1186   1.928   4.410  12.276 -0.4923  0.1101  2.3139
   77TCq2    H4 1187   2.148   0.060  12.325 -0.4889 -0.4246  1.7494
   78MPD1     C 1188   4.004   2.931   1.806  0.2072  0.0264 -0.1316
   78MPD1    C1 1189   3.976   2.972   1.937  0.7942 -0.6795  0.2648
   78MPD1    C2 1190   4.045   2.915   2.043  0.4943  0.2962 -0.7037
   78MPD1    C3 1191   4.155   2.839   2.016  0.0237  0.1139 -1.0157
   78MPD1    C4 1192   4.190   2.809   1.884 -0.0721 -0.0985  0.6004
   78MPD1    C5 1193   4.110   2.852   1.783 -0.0012  0.2177  0.3364
   78MPD1     H 1194   4.012   2.931   2.145 -0.5537  1.9988 -1.3066
   78MPD1    H1 1195   4.275   2.744   1.866 -0.1872  0.8485 -3.4005
   78MPD1    H2 1196   3.945   2.965   1.721  0.1111  0.8601  0.2663
   78MPD1    H3 1197   4.134   2.828   1.680 -2.2166 -1.0595  0.1075
   78MPD1     N 1198   4.236   2.778   2.119 -0.6498 -0.0109 -0.0704
   78MPD1    H5 1199   4.317   2.724   2.090 -0.5479 -0.9846  1.9974
   78MPD1    N1 1200   3.859   3.049   1.952  0.5798 -0.2809  0.1477
   78MPD1    H6 1201   3.844   3.113   1.873  0.6487  0.8051  1.0164
   78MPD1    H7 1202   3.854   3.097   2.041  0.1308  1.7435 -0.9648
   79TCq2    C1 1203   4.228   2.806   2.255  0.9271  0.1836  0.3174
   79TCq2    O2 1204   4.162   2.893   2.307 -0.4093 -0.4905 -0.2953
   79TCq2    C2 1205   4.301   2.719   2.339  0.0015  0.0271  0.2998
   79TCq2    C3 1206   4.334   2.772   2.460  0.5835 -0.0485 -0.1411
   79TCq2    C4 1207   4.434   2.705   2.526  0.4812 -1.0733 -0.3071
   79TCq2    C5 1208   4.494   2.592   2.481 -0.2026  0.1908  0.1087
   79TCq2    C6 1209   4.447   2.538   2.364  0.6373 -0.4826 -0.6789
   79TCq2    C7 1210   4.348   2.597   2.290 -0.2049  0.0448  0.0262
   79TCq2    C8 1211   4.488   2.404   2.328 -0.8091  0.1625 -0.1677
   79TCq2    O4 1212   4.597   2.374   2.368 -0.2206  0.0204  0.0754
   79TCq2    C9 1213   4.473   2.745   2.653  0.0110 -0.3007 -0.2878
   79TCq2    O5 1214   4.552   2.675   2.718  1.1132 -0.3893 -0.1809
   79TCq2    O6 1215   4.437   2.862   2.685 -0.2412  0.1020 -0.6751
   79TCq2    H2 1216   4.295   2.859   2.511  3.6217  2.2642 -1.7216
   79TCq2    H3 1217   4.570   2.537   2.535  1.9459  1.5292 -1.5006
   79TCq2    H4 1218   4.303   2.548   2.204 -0.3691  0.9008 -0.3781
   80MPD2     C 1219   0.803   0.382  12.520 -0.0124 -0.7466  0.2334
   80MPD2    C1 1220   0.788   0.251  12.468 -0.2771  0.5938 -1.4463
   80MPD2    C2 1221   0.688   0.183  12.519 -0.2780 -0.0285 -0.3335
   80MPD2    C3 1222   0.597   0.230  12.612 -0.0090 -0.6478  0.2344
   80MPD2    C4 1223   0.636   0.341  12.682  0.8992 -0.7085 -0.2000
   80MPD2    C5 1224   0.738   0.418  12.636  0.4792 -0.0871 -0.5330
   80MPD2     H 1225   0.672   0.084  12.478 -1.8241 -0.2403  0.7659
   80MPD2    H1 1226   0.588   0.390  12.767 -1.1544  2.6629 -3.3318
   80MPD2    H2 1227   0.877   0.449  12.478 -0.3146 -1.1827 -0.9919
   80MPD2    H3 1228   0.768   0.505  12.694  0.6081 -1.9061  2.1159
   80MPD2     N 1229   0.474   0.165  12.649  0.1456 -0.2589 -0.1432
   80MPD2    H5 1230   0.416   0.198  12.726  0.6505 -1.0284  0.5618
   80MPD2    N1 1231   0.860   0.192  12.363 -0.1590  0.6067 -0.0826
   80MPD2    H7 1232   0.839   0.100  12.326  2.9079 -0.2086  0.1970
   81TCq2    C1 1233   0.983   0.242  12.326  0.0672  0.2755 -0.0133
   81TCq2    O2 1234   1.054   0.320  12.391 -0.3116 -0.3597 -0.5970
   81TCq2    C2 1235   1.058   0.137  12.237  0.0367 -0.1185 -0.2516
   81TCq2    C3 1236   1.153   0.189  12.152 -0.5313  0.3962  0.1054
   81TCq2    C4 1237   1.201   0.117  12.046  0.0620 -0.4619  0.4479
   81TCq2    C5 1238   1.149   4.722  12.018  0.0400  0.1075  0.5796
   81TCq2    C6 1239   1.054   4.667  12.103 -0.1254 -0.3619  0.0262
   81TCq2    C7 1240   1.011   0.008  12.217  0.6742 -0.2688 -0.2403
   81TCq2    C8 1241   0.974   4.567  12.040  0.2815  0.6752 -0.3863
   81TCq2    O4 1242   1.003   4.545  11.918 -0.0251  0.0557 -0.7376
   81TCq2    C9 1243   1.295   0.178  11.958  0.3018 -0.0303  0.8158
   81TCq2    O5 1244   1.358   0.275  12.005  0.2798 -0.2675 -0.0508
   81TCq2    O6 1245   1.328   0.114  11.853  0.4395 -0.5674  0.0801
   81TCq2    H2 1246   1.196   0.288  12.166  1.2115  0.0837 -2.9915
   81TCq2    H3 1247   1.183   4.661  11.935 -0.5989  1.2296 -0.5124
   81TCq2    H4 1248   0.931   4.692  12.278  1.4190 -3.4985 -1.4169
   82MPD2     C 1249   3.561   4.609  10.717  0.0129 -0.1188  0.2670
   82MPD2    C1 1250   3.537   4.469  10.733 -0.1545 -0.5493 -0.8604
   82MPD2    C2 1251   3.576   4.406  10.851  0.2156 -0.0392 -0.7504
   82MPD2    C3 1252   3.623   4.493  10.954  0.2242  0.4614 -0.4627
   82MPD2    C4 1253   3.644   4.626  10.932 -0.2439  0.8404  0.2572
   82MPD2    C5 1254   3.617   4.682  10.813  0.3152  0.8311 -0.4257
   82MPD2     H 1255   3.558   4.301  10.874  0.3720  0.3297  1.0725
   82MPD2    H1 1256   3.693   4.695  11.000  1.6655 -1.2114  0.9444
   82MPD2    H2 1257   3.538   4.652  10.620  0.8848  0.4206  0.2986
   82MPD2    H3 1258   3.634   0.063  10.793  1.9646  0.2580 -2.0881
   82MPD2     N 1259   3.642   4.446  11.089  0.5923 -0.4700  0.3489
   82MPD2    H5 1260   3.643   4.510  11.167 -1.4691 -0.4020  0.3229
   82MPD2    N1 1261   3.462   4.404  10.633 -0.0057  0.1534  0.4759
   82MPD2    H7 1262   3.417   4.463  10.564  0.7667  1.3253  0.9665
   83TCq2    C1 1263   3.657   4.314  11.122 -0.1671 -0.4542  0.6343
   83TCq2    O2 1264   3.701   4.220  11.053  0.2637 -0.1093 -0.1724
   83TCq2    C2 1265   3.639   4.287  11.260  0.5643  0.1513  0.0984
   83TCq2    C3 1266   3.537   4.357  11.328 -0.2426 -0.5732 -0.4658
   83TCq2    C4 1267   3.498   4.304  11.451  0.8494 -0.0512  0.1166
   83TCq2    C5 1268   3.543   4.189  11.505 -0.0521 -0.2201 -0.0228
   83TCq2    C6 1269   3.634   4.124  11.431  0.5484 -0.6729 -0.1942
   83TCq2    C7 1270   3.687   4.170  11.309 -0.4503 -0.1108 -0.1933
   83TCq2    C8 1271   3.674   3.987  11.465  0.3554 -0.4986 -0.5598
   83TCq2    O4 1272   3.649   3.959  11.580  0.0321  0.5836  0.1329
   83TCq2    C9 1273   3.399   4.381  11.531  0.0024 -1.1764 -0.1610
   83TCq2    O5 1274   3.388   4.363  11.654  0.0769 -0.5096 -0.1972
   83TCq2    O6 1275   3.324   4.460  11.463  0.2195 -0.1208 -0.3868
   83TCq2    H2 1276   3.496   4.451  11.294 -0.6986 -0.5339  0.1860
   83TCq2    H3 1277   3.499   4.149  11.596 -1.4475  0.7755 -0.2476
   83TCq2    H4 1278   3.775   4.125  11.264 -1.6612 -1.2408 -1.4604
   84TCq2    C1 1279   0.098   2.553  11.130  0.2480  0.4059 -0.1012
   84TCq2    O2 1280   0.031   2.457  11.165 -0.0943 -0.1772 -0.5680
   84TCq2    C2 1281   0.176   2.641  11.222  0.6330  0.3978  0.5955
   84TCq2    C3 1282   0.269   2.723  11.167  0.1603 -0.7408  0.6679
   84TCq2    C4 1283   0.308   2.843  11.215 -0.4306  0.2258 -0.1180
   84TCq2    C5 1284   0.253   2.890  11.329  0.0138  0.1651 -0.3717
   84TCq2    C6 1285   0.174   2.806  11.399 -0.6579  1.2043  0.0606
   84TCq2    C7 1286   0.133   2.683  11.349  0.2050 -0.5624 -1.0038
   84TCq2    C8 1287   0.114   2.855  11.525  0.0531  0.0905 -0.2366
   84TCq2    O4 1288   0.113   2.976  11.535  0.2688  0.2537  0.0549
   84TCq2    C9 1289   0.405   2.926  11.148 -0.5958  0.1420 -0.3766
   84TCq2    O5 1290   0.413   3.043  11.182  0.4413  0.5035 -0.4713
   84TCq2    O6 1291   0.438   2.881  11.035  0.8970  0.1766 -0.0201
   84TCq2    H2 1292   0.329   2.694  11.081  0.5034 -2.9680  1.6504
   84TCq2    H3 1293   0.280   2.985  11.373 -1.9099  1.4852 -2.0479
   84TCq2    H4 1294   0.056   2.624  11.399  2.9724 -2.3613  1.1512
   85MPD2     C 1295   1.082   1.353  16.649  0.5235 -0.2867 -0.3166
   85MPD2    C1 1296   1.046   1.371  16.510 -0.4102  0.0946 -0.0132
   85MPD2    C2 1297   1.100   1.464  16.432 -0.4332 -0.7514  0.6246
   85MPD2    C3 1298   1.174   1.565  16.485 -0.3660 -0.1293 -0.1666
   85MPD2    C4 1299   1.192   1.557  16.623  0.1095 -1.1221  0.3663
   85MPD2    C5 1300   1.153   1.455  16.699  0.4694 -0.0911 -0.1034
   85MPD2     H 1301   1.068   1.482  16.330 -1.1198  1.5187  1.2222
   85MPD2    H1 1302   1.242   1.638  16.675  0.1348 -1.8178  1.4282
   85MPD2    H2 1303   1.058   1.275  16.720 -0.2580 -0.8944 -1.2557
   85MPD2    H3 1304   1.180   1.455  16.804 -1.1450  0.9706  0.3115
   85MPD2     N 1305   1.224   1.671  16.409  0.1365 -0.8785 -0.0068
   85MPD2    H5 1306   1.196   1.673  16.311  1.2406 -0.0328 -0.3059
   85MPD2    N1 1307   0.946   1.289  16.454  0.3394  0.1224 -0.0637
   85MPD2    H7 1308   0.918   1.305  16.358  1.0096  4.2862  0.4289
   86TCq2    C1 1309   1.287   1.792  16.446  0.8793  0.3813 -0.0533
   86TCq2    O2 1310   1.339   1.824  16.554 -0.5041 -0.5058  0.6202
   86TCq2    C2 1311   1.302   1.891  16.332  0.3387  0.0802 -0.3729
   86TCq2    C3 1312   1.244   2.014  16.355  0.5375  1.1134  1.1381
   86TCq2    C4 1313   1.280   2.119  16.274  0.3441 -0.1050  0.0729
   86TCq2    C5 1314   1.388   2.110  16.183 -0.0053  0.5574  0.3286
   86TCq2    C6 1315   1.440   1.984  16.168  0.2266 -0.1158 -0.0437
   86TCq2    C7 1316   1.399   1.876  16.242 -0.1318  1.3989  0.4098
   86TCq2    C8 1317   1.498   1.945  16.041 -0.0864 -0.0410 -0.2715
   86TCq2    O4 1318   1.570   1.845  16.045  0.0764  0.7555  0.1516
   86TCq2    C9 1319   1.214   2.244  16.273  0.0870  0.4886  0.6179
   86TCq2    O5 1320   1.258   2.331  16.193 -0.6201  0.1030 -0.2826
   86TCq2    O6 1321   1.136   2.268  16.369  0.0487 -0.2170 -0.2130
   86TCq2    H2 1322   1.164   2.019  16.428  0.8388  1.6851  1.4286
   86TCq2    H3 1323   1.427   2.196  16.128  1.1804 -0.9250 -1.1439
   86TCq2    H4 1324   1.443   1.778  16.226 -0.7571  1.1366  0.2757
   87MPD2     C 1325   2.849   0.082   1.234  0.4965 -0.4496  0.6519
   87MPD2    C1 1326   2.890   0.208   1.264 -0.1192 -0.4091 -0.2690
   87MPD2    C2 1327   2.814   0.318   1.229 -0.6117 -0.0145  0.0594
   87MPD2    C3 1328   2.698   0.297   1.155 -0.0225  0.5152 -0.3045
   87MPD2    C4 1329   2.662   0.170   1.113  0.1683  0.5950  0.2776
   87MPD2    C5 1330   2.729   0.066   1.160 -1.0736  0.0375 -0.0846
   87MPD2     H 1331   2.841   0.408   1.283 -0.7137  2.1914 -3.5239
   87MPD2    H1 1332   2.573   0.154   1.053 -0.2246 -2.2729  1.6322
   87MPD2    H2 1333   2.903   4.723   1.278 -0.9954 -1.5964  0.3252
   87MPD2    H3 1334   2.692   4.690   1.140  3.8353 -1.3640 -2.1241
   87MPD2     N 1335   2.620   0.409   1.104  0.0190 -0.1593  0.0038
   87MPD2    H5 1336   2.544   0.392   1.038 -0.1752 -2.0892  0.7144
   87MPD2    N1 1337   3.019   0.216   1.328  0.2631  0.0494 -0.2940
   87MPD2    H7 1338   3.078   0.134   1.338 -1.5896 -1.3296 -0.5523
   88TCq2    C1 1339   3.066   0.324   1.397 -0.6273  0.4036  0.2430
   88TCq2    O2 1340   2.994   0.400   1.456  0.1612 -0.0732 -0.5985
   88TCq2    C2 1341   3.210   0.332   1.412 -0.3519  0.7210  0.0396
   88TCq2    C3 1342   3.258   0.436   1.484  0.3369  1.1251 -0.1919
   88TCq2    C4 1343   3.394   0.438   1.512 -0.2675  0.3605  0.0718
   88TCq2    C5 1344   3.484   0.346   1.462  0.0031  0.4150  0.6998
   88TCq2    C6 1345   3.430   0.237   1.393  0.4336 -0.3310 -0.2113
   88TCq2    C7 1346   3.294   0.232   1.365 -0.3932 -0.4574 -0.3183
   88TCq2    C8 1347   3.499   0.120   1.359 -0.0184  0.2263  0.1176
   88TCq2    O4 1348   3.460   0.060   1.258 -0.1947  0.3935  0.0514
   88TCq2    C9 1349   3.455   0.531   1.607 -0.2717  0.1142  0.4477
   88TCq2    O5 1350   3.581   0.551   1.596 -0.6224  0.2467 -0.4517
   88TCq2    O6 1351   3.383   0.575   1.702 -0.3098  0.0680 -0.0425
   88TCq2    H2 1352   3.194   0.518   1.514 -0.4867  0.6721 -0.7264
   88TCq2    H3 1353   3.589   0.342   1.488 -0.0818 -0.3632  0.9189
   88TCq2    H4 1354   3.263   0.140   1.316 -1.2074  0.3226 -1.2330
   89MPD2     C 1355   3.939   3.730   2.583  0.3510 -0.4272  0.2319
   89MPD2    C1 1356   3.878   3.647   2.484 -0.1517 -0.0703 -0.1227
   89MPD2    C2 1357   3.957   3.626   2.374  0.3763  0.0691 -0.8580
   89MPD2    C3 1358   4.089   3.672   2.372 -0.5385 -0.1422  0.2686
   89MPD2    C4 1359   4.142   3.756   2.466  0.1161 -1.1944  0.4786
   89MPD2    C5 1360   4.068   3.779   2.573 -0.0369  0.1707  0.0615
   89MPD2     H 1361   3.935   3.550   2.300  0.8154  0.4120 -1.3455
   89MPD2    H1 1362   4.245   3.790   2.459 -0.4060  0.2504 -0.1574
   89MPD2    H2 1363   3.880   3.766   2.667 -2.4715  1.0541 -2.3624
   89MPD2    H3 1364   4.110   3.840   2.652 -2.2593  0.6213  0.9071
   89MPD2     N 1365   4.163   3.615   2.266 -0.1536 -0.3674 -0.1014
   89MPD2    H5 1366   4.114   3.557   2.198  0.3478  0.4495 -1.1596
   89MPD2    N1 1367   3.751   3.588   2.496 -0.5022 -0.3056 -0.1084
   89MPD2    H7 1368   3.715   3.531   2.420  0.8237  0.3306 -1.2020
   90TCq2    C1 1369   4.298   3.613   2.256 -0.5733  0.0364 -0.6283
   90TCq2    O2 1370   4.382   3.643   2.332  0.5618 -0.7292 -0.3036
   90TCq2    C2 1371   4.341   3.554   2.131 -0.2939 -0.3582 -0.1911
   90TCq2    C3 1372   4.474   3.507   2.123  0.2350  0.3216 -0.6800
   90TCq2    C4 1373   4.526   3.488   2.007  0.2381  0.3238 -0.0086
   90TCq2    C5 1374   4.457   3.513   1.891 -0.1306  0.2323  0.1465
   90TCq2    C6 1375   4.333   3.581   1.899  0.4024 -0.0146 -0.0385
   90TCq2    C7 1376   4.271   3.583   2.017 -0.5245 -0.5340 -0.0528
   90TCq2    C8 1377   4.258   3.629   1.785 -0.5644  0.3936 -0.1152
   90TCq2    O4 1378   4.145   3.672   1.807 -0.0390  0.3243 -0.2193
   90TCq2    C9 1379   4.661   3.428   2.001  0.0708 -0.1298 -0.7765
   90TCq2    O5 1380   4.718   3.395   2.107 -0.3370 -0.1313 -0.4824
   90TCq2    O6 1381   4.711   3.405   1.893  0.2170  0.4479  0.0083
   90TCq2    H2 1382   4.533   3.485   2.212 -0.3578 -1.0415 -0.6163
   90TCq2    H3 1383   4.511   3.518   1.797  0.3093  1.5462  0.4794
   90TCq2    H4 1384   4.186   3.650   2.029 -1.0079 -1.2119  0.3107
   91TMC2    C1 1385   0.646   2.385  17.006  0.2674 -0.2557 -0.3009
   91TMC2    C2 1386   0.703   2.460  16.905 -0.7776  0.9179  0.0132
   91TMC2    C3 1387   0.648   2.449  16.787 -0.2397 -0.1588 -0.0471
   91TMC2    C4 1388   0.525   2.323  16.999  0.2361  0.0601  0.4071
   91TMC2    C5 1389   0.464   2.325  16.875 -0.2413 -0.3315  0.0223
   91TMC2    C6 1390   0.528   2.383  16.769  0.1997  0.2562  0.1375
   91TMC2     C 1391   0.723   2.338  17.122  0.5506  0.0418 -1.6637
   91TMC2     O 1392   0.662   2.309  17.226  0.5959 -0.0608 -0.5001
   91TMC2     H 1393   0.797   2.514  16.917 -0.7835  0.8887  0.1900
   91TMC2    H1 1394   0.480   2.282  17.088  1.5455  1.7181  1.8183
   91TMC2    H2 1395   0.479   2.383  16.671  2.1502  0.5519 -0.8328
   91TMC2    C7 1396   0.394   2.201  16.853  0.1985 -0.6338  0.0369
   91TMC2    C8 1397   0.686   2.541  16.684  0.1426  0.5820  0.7628
   91TMC2    O1 1398   0.355   2.139  16.951  0.1470 -0.0673 -0.2593
   91TMC2    O2 1399   0.610   2.578  16.598  0.4602 -0.0266 -0.0830
   91TMC2    O5 1400   0.822   2.526  16.670  0.0042  0.1684  0.2530
   91TMC2    H5 1401   0.850   2.466  16.742 -2.7786  0.6507  1.7570
   92MPD2     C 1402   0.936   2.299  17.326  0.5561  0.3969  0.3901
   92MPD2    C1 1403   0.961   2.301  17.187 -0.7227 -0.6878 -0.5781
   92MPD2    C2 1404   1.088   2.274  17.140 -0.1264 -0.9215 -0.2054
   92MPD2    C3 1405   1.195   2.245  17.220 -0.3368  0.0033 -0.1390
   92MPD2    C4 1406   1.168   2.230  17.356 -0.3703  0.0077 -0.1470
   92MPD2    C5 1407   1.044   2.266  17.406 -0.1615 -0.4806 -0.4399
   92MPD2     H 1408   1.102   2.276  17.033  2.0203 -0.5656  0.0839
   92MPD2    H1 1409   1.254   2.214  17.420  0.7329 -1.8951 -2.1005
   92MPD2    H2 1410   0.842   2.326  17.373 -0.5164 -0.7109 -1.1374
   92MPD2    H3 1411   1.041   2.302  17.508 -1.3780  2.7310 -1.6094
   92MPD2     N 1412   1.322   2.252  17.160  0.7416  0.9229 -0.6410
   92MPD2    H5 1413   1.333   2.265  17.060  2.3073  2.5067 -0.2569
   92MPD2    N1 1414   0.860   2.333  17.096  0.2521 -0.1692  0.5796
   92MPD2    H7 1415   0.898   2.345  17.003 -2.5786 -2.5984 -0.8874
   93MPD2     C 1416   2.355   3.260  14.185 -0.0315  0.3605  0.8353
   93MPD2    C1 1417   2.378   3.147  14.261  0.1727  0.5959 -0.2802
   93MPD2    C2 1418   2.318   3.025  14.229  0.2299  0.0943 -0.1030
   93MPD2    C3 1419   2.235   3.019  14.117  0.3848  0.7060  1.0862
   93MPD2    C4 1420   2.216   3.133  14.043 -0.0788 -0.1175 -0.1639
   93MPD2    C5 1421   2.277   3.254  14.076  0.1205 -0.4555 -0.1276
   93MPD2     H 1422   2.339   2.937  14.287 -0.3793  0.8631  1.2689
   93MPD2    H1 1423   2.142   3.138  13.964 -1.1812  1.8528  0.9793
   93MPD2    H2 1424   2.399   3.351  14.223 -0.6771  0.8589  0.3777
   93MPD2    H3 1425   2.269   3.341  14.012 -0.8528  0.2191  0.9192
   93MPD2     N 1426   2.163   2.902  14.078 -0.1768  0.2680  0.4890
   93MPD2    H5 1427   2.104   2.914  13.997  1.6802  1.4149 -0.6983
   93MPD2    N1 1428   2.467   3.149  14.369 -0.0672  0.1721  0.6952
   93MPD2    H7 1429   2.459   3.072  14.434  0.3030 -1.9167 -1.7032
   94TCq2    C1 1430   2.575   3.236  14.385  0.7845  0.2021 -0.4101
   94TCq2    O2 1431   2.629   3.314  14.309  0.0220  0.1999 -0.0873
   94TCq2    C2 1432   2.648   3.215  14.511 -0.7117 -0.1330  0.0807
   94TCq2    C3 1433   2.582   3.186  14.626 -0.0591  0.2576  0.3593
   94TCq2    C4 1434   2.652   3.145  14.736  0.4373 -0.2370 -0.0719
   94TCq2    C5 1435   2.786   3.117  14.723  0.1815  0.8019  0.0390
   94TCq2    C6 1436   2.853   3.149  14.607  0.0018 -0.2901  0.1800
   94TCq2    C7 1437   2.783   3.185  14.495 -0.3866  0.4710  0.7519
   94TCq2    C8 1438   2.995   3.115  14.591  0.3209  0.7139  0.6574
   94TCq2    O4 1439   3.044   3.142  14.483 -0.7144 -0.0715  0.1030
   94TCq2    C9 1440   2.572   3.115  14.853 -0.2828  0.4214 -0.4787
   94TCq2    O5 1441   2.452   3.131  14.836 -0.7147  0.0219  0.1090
   94TCq2    O6 1442   2.629   3.070  14.952  0.4171  0.8521 -0.1555
   94TCq2    H2 1443   2.474   3.196  14.623 -0.1288 -0.1627  1.3509
   94TCq2    H3 1444   2.834   3.079  14.813 -1.7725 -0.8180  0.3927
   94TCq2    H4 1445   2.828   3.220  14.403  2.1516 -0.3982  1.6461
   95TMC2    C1 1446   2.985   0.105  16.639  0.0666 -0.1255  0.0193
   95TMC2    C2 1447   2.931   0.231  16.664  0.2075 -0.4529  0.1297
   95TMC2    C3 1448   2.897   0.265  16.793  0.2649 -0.0276 -0.6174
   95TMC2    C4 1449   3.007   0.016  16.739 -0.0572 -0.5125  0.1233
   95TMC2    C5 1450   2.995   0.064  16.865 -0.5055 -0.4915 -0.4756
   95TMC2    C6 1451   2.934   0.180  16.892 -0.1262 -0.6935 -0.4650
   95TMC2     C 1452   3.004   0.073  16.500 -0.0158 -0.1986  0.3689
   95TMC2     O 1453   3.000   0.164  16.414  0.1000 -0.0501  0.2399
   95TMC2     H 1454   2.903   0.300  16.585  0.4768  0.7494  1.0809
   95TMC2    H1 1455   3.032   4.638  16.713  1.2356 -0.7134  2.0701
   95TMC2    H2 1456   2.924   0.214  16.994  0.6504  1.4381 -1.1001
   95TMC2    C7 1457   2.997   4.697  16.967  0.8569  0.4871 -0.0276
   95TMC2    C8 1458   2.765   0.326  16.797 -0.4577 -0.0439 -0.2767
   95TMC2    O1 1459   2.925   0.006  17.058  0.3592 -0.2598 -0.4029
   95TMC2    O2 1460   2.681   0.286  16.876  0.4077 -0.1753 -0.1019
   95TMC2    O5 1461   2.776   0.441  16.738 -0.9264 -0.1433  0.7024
   95TMC2    H5 1462   2.870   0.454  16.713 -1.8754 -1.6535 -3.7778
   96MPD2     C 1463   3.093   4.495  16.098 -0.5782 -0.3349  0.1014
   96MPD2    C1 1464   3.119   4.626  16.109  0.9112  0.1717 -0.0849
   96MPD2    C2 1465   3.093   4.686  16.232 -0.0797  0.1286 -0.2539
   96MPD2    C3 1466   3.044   4.612  16.339 -0.3056  0.1674  0.1155
   96MPD2    C4 1467   3.032   4.476  16.329  0.2327 -0.8976  0.2050
   96MPD2    C5 1468   3.050   4.422  16.207  0.2344 -0.3466 -0.5169
   96MPD2     H 1469   3.111   0.069  16.235 -1.4764  0.3350  0.7011
   96MPD2    H1 1470   3.005   4.409  16.410  0.0098 -1.0320  0.0182
   96MPD2    H2 1471   3.095   4.448  16.000 -1.5529  1.3329 -0.7249
   96MPD2    H3 1472   3.039   4.316  16.189 -0.8023 -0.4598  0.8550
   96MPD2     N 1473   3.018   4.665  16.465 -0.7870 -0.0131  0.3237
   96MPD2    H5 1474   2.989   4.596  16.534  0.3312 -0.5146  0.2968
   96MPD2    N1 1475   3.166   4.701  15.992 -0.5107 -0.3150  0.0901
   96MPD2    H7 1476   3.172   4.644  15.908  0.2590  0.6022 -0.4692
   97MPD2     C 1477   4.604   2.209   1.819  0.0674  0.0383 -0.2437
   97MPD2    C1 1478   0.001   2.210   1.878  0.0118  0.6560  0.7829
   97MPD2    C2 1479   0.098   2.114   1.847  0.2425 -0.2742  0.3420
   97MPD2    C3 1480   0.071   2.016   1.754 -0.3178 -0.0025 -0.3387
   97MPD2    C4 1481   4.667   2.007   1.700 -0.2417 -0.6387 -0.5151
   97MPD2    C5 1482   4.572   2.102   1.743  0.2840 -1.1366  0.7732
   97MPD2     H 1483   0.196   2.130   1.889 -0.3777 -1.9965  2.4734
   97MPD2    H1 1484   4.630   1.935   1.627 -1.0027 -1.5568  0.7840
   97MPD2    H2 1485   4.518   2.272   1.842  1.6790  2.6426 -1.4324
   97MPD2    H3 1486   4.479   2.105   1.687 -0.3868  1.7049  2.0553
   97MPD2     N 1487   0.164   1.936   1.695  0.3340  0.3149 -0.1891
   97MPD2    H5 1488   0.140   1.864   1.627  0.2785 -0.8184  1.0255
   97MPD2    N1 1489   0.022   2.310   1.978 -0.1187 -0.5610 -0.0707
   97MPD2    H7 1490   4.667   2.370   2.001  1.1446  0.9307  0.4393
   98TCq2    C1 1491   0.299   1.938   1.720  0.2838  0.0921  0.2028
   98TCq2    O2 1492   0.370   2.009   1.786 -0.8126 -0.3954  0.1628
   98TCq2    C2 1493   0.362   1.832   1.649 -0.4636  0.3288  0.3171
   98TCq2    C3 1494   0.288   1.714   1.633 -0.3298  0.5573 -0.0496
   98TCq2    C4 1495   0.353   1.621   1.556  0.2246  1.1426  0.0192
   98TCq2    C5 1496   0.485   1.632   1.513  0.5705 -0.6146  0.0633
   98TCq2    C6 1497   0.556   1.744   1.547 -0.3814 -0.1688  0.8382
   98TCq2    C7 1498   0.491   1.848   1.608 -0.7647  0.3297 -1.0082
   98TCq2    C8 1499   0.679   1.774   1.471 -0.0708  0.7789  0.1115
   98TCq2    O4 1500   0.689   1.891   1.423  0.0788  0.3957 -0.1950
   98TCq2    C9 1501   0.278   1.512   1.497  0.9711 -0.2814  0.1932
   98TCq2    O5 1502   0.319   1.464   1.388 -0.0366 -0.4173  0.2889
   98TCq2    O6 1503   0.166   1.492   1.549  0.4722 -0.1305  0.5073
   98TCq2    H2 1504   0.183   1.699   1.656 -0.4763  0.0564 -1.0769
   98TCq2    H3 1505   0.527   1.560   1.444 -0.3321 -2.7686  1.7914
   98TCq2    H4 1506   0.538   1.944   1.628 -0.4050 -0.1302  0.3488
   99MPD2     C 1507   3.305   4.539   2.046 -0.1885  0.0924 -0.0261
   99MPD2    C1 1508   3.193   4.549   1.966 -0.5402  0.4715 -0.4975
   99MPD2    C2 1509   3.171   4.454   1.868  0.0078 -0.4234  0.0451
   99MPD2    C3 1510   3.263   4.351   1.848 -0.0436  0.5208 -0.0863
   99MPD2    C4 1511   3.374   4.343   1.928 -0.5228  0.6241 -0.0201
   99MPD2    C5 1512   3.395   4.434   2.034 -0.4737 -0.0286 -0.2635
   99MPD2     H 1513   3.086   4.460   1.801  1.9800 -1.8641 -2.6212
   99MPD2    H1 1514   3.438   4.256   1.932  2.0730  2.5735  1.6418
   99MPD2    H2 1515   3.324   4.600   2.134 -2.8296  1.6450 -0.5302
   99MPD2    H3 1516   3.482   4.448   2.097 -0.3314 -1.0652 -0.2181
   99MPD2     N 1517   3.234   4.255   1.750 -0.0943  0.0512 -0.5646
   99MPD2    H5 1518   3.143   4.258   1.705 -0.0944 -0.5231 -0.6055
   99MPD2    N1 1519   3.103   4.653   1.979 -0.0562 -0.2890  0.2344
   99MPD2    H7 1520   3.017   4.636   1.927  0.9345  0.8923 -1.7986
  100TCq2    C1 1521   3.124   0.042   2.052 -0.0560 -1.2067  0.2403
  100TCq2    O2 1522   3.228   0.075   2.105  0.6339  0.2392 -0.3363
  100TCq2    C2 1523   3.014   0.131   2.050 -0.6029  0.0958 -0.0461
  100TCq2    C3 1524   3.044   0.263   2.040  0.4037 -0.2443  0.0247
  100TCq2    C4 1525   2.945   0.357   2.009  0.4636 -0.1865  0.6247
  100TCq2    C5 1526   2.814   0.307   2.000  0.3528  0.3024 -0.1163
  100TCq2    C6 1527   2.791   0.174   2.008 -0.4637 -0.1035 -0.4974
  100TCq2    C7 1528   2.892   0.078   2.025 -0.2488 -0.2173 -0.0879
  100TCq2    C8 1529   2.657   0.117   2.012 -0.1633  0.0818  0.2462
  100TCq2    O4 1530   2.565   0.182   2.057  0.4020  0.6186  0.3143
  100TCq2    C9 1531   2.988   0.496   1.998 -0.4916  0.0344 -0.4838
  100TCq2    O5 1532   2.905   0.586   1.971 -0.3374  0.2910  0.2120
  100TCq2    O6 1533   3.111   0.512   2.004  0.0064  0.0183  0.0937
  100TCq2    H2 1534   3.145   0.301   2.054  0.2105  0.7034 -1.1133
  100TCq2    H3 1535   2.730   0.371   1.976  0.0384  0.5594  1.7038
  100TCq2    H4 1536   2.874   4.698   2.048  1.3287 -0.7733 -1.3942
  101MPD2     C 1537   4.689   4.575  13.462 -0.1542  0.2653 -0.0778
  101MPD2    C1 1538   4.667   4.681  13.553 -0.1292  0.3682 -0.4832
  101MPD2    C2 1539   4.554   4.670  13.632  0.4971 -0.0089 -0.0306
  101MPD2    C3 1540   4.466   4.562  13.622 -0.2968 -0.4558  0.0481
  101MPD2    C4 1541   4.502   4.449  13.555 -0.3176 -0.0703 -0.1492
  101MPD2    C5 1542   4.612   4.455  13.471  0.0100  0.0079  0.1811
  101MPD2     H 1543   4.525   0.028  13.697 -2.1884 -0.3406 -0.8086
  101MPD2    H1 1544   4.454   4.351  13.553 -2.4731  0.9877 -0.2019
  101MPD2    H2 1545   0.039   4.564  13.384  1.5291 -0.1163  1.5647
  101MPD2    H3 1546   4.653   4.371  13.415 -0.2481 -1.2834  1.9173
  101MPD2     N 1547   4.347   4.564  13.700 -0.0940  0.2470 -0.2445
  101MPD2    H5 1548   4.321   4.650  13.748 -0.0452  0.4213 -0.5323
  101MPD2    N1 1549   0.028   0.072  13.546  0.2492 -0.4393  0.2737
  101MPD2    H7 1550   0.115   0.057  13.495 -1.1040 -0.3029 -2.0674
  102TCq2    C1 1551   0.170   0.476  13.302  0.4711  0.1692  0.0240
  102TCq2    O2 1552   0.270   0.528  13.263  0.0908 -0.3677  0.4383
  102TCq2    C2 1553   0.160   0.440  13.438 -0.3001 -0.0209 -0.3570
  102TCq2    C3 1554   0.191   0.532  13.531 -0.5119 -0.6223 -0.3741
  102TCq2    C4 1555   0.188   0.492  13.670  0.0781 -0.6475  0.5587
  102TCq2    C5 1556   0.146   0.363  13.702  0.6430 -0.4698  0.3595
  102TCq2    C6 1557   0.113   0.277  13.602  0.8335 -0.2714 -0.7341
  102TCq2    C7 1558   0.127   0.313  13.468  0.5743 -0.4882  1.0802
  102TCq2    C8 1559   0.021   0.177  13.640  0.0786  0.2242 -0.0917
  102TCq2    O4 1560   4.677   0.184  13.741 -0.0799  0.5919 -0.6588
  102TCq2    C9 1561   0.224   0.584  13.781 -0.1234 -0.2165  0.2233
  102TCq2    O5 1562   0.252   0.700  13.743  0.2839 -0.3214 -0.5907
  102TCq2    O6 1563   0.218   0.554  13.904  0.1179 -0.2055 -0.2752
  102TCq2    H2 1564   0.217   0.631  13.497 -0.1441 -0.5174  0.2031
  102TCq2    H3 1565   0.129   0.347  13.808 -1.0298  0.4022  0.2252
  102TCq2    H4 1566   0.098   0.258  13.379 -1.6258  0.8935  0.9266
  103TMC2    C1 1567   2.814   0.093  12.608 -0.7776 -0.0248 -0.5026
  103TMC2    C2 1568   2.906   0.114  12.508  0.1729  0.1608  0.4509
  103TMC2    C3 1569   3.018   0.190  12.525  0.2893 -0.3034 -0.0012
  103TMC2    C4 1570   2.831   0.161  12.724 -0.2152 -0.8207  0.5384
  103TMC2    C5 1571   2.938   0.246  12.742  0.3284 -0.5745 -0.1454
  103TMC2    C6 1572   3.037   0.251  12.644  0.0491  0.1459  0.2693
  103TMC2     C 1573   2.699   0.004  12.597 -0.1275  0.4759  0.3305
  103TMC2     O 1574   2.608   0.003  12.677 -0.5399  0.1247 -0.1240
  103TMC2     H 1575   2.893   0.060  12.415  0.5734  0.2656  0.3293
  103TMC2    H1 1576   2.756   0.154  12.802 -1.2214  0.4074 -0.3248
  103TMC2    H2 1577   3.130   0.303  12.666 -0.7229  2.3035 -1.5284
  103TMC2    C7 1578   2.934   0.337  12.853 -0.1268 -0.0910 -0.0371
  103TMC2    C8 1579   3.125   0.165  12.431  0.0590 -0.7321 -0.4402
  103TMC2    O1 1580   2.879   0.281  12.949  0.2090  0.0785 -0.0676
  103TMC2    O2 1581   3.233   0.116  12.459  0.0677 -0.0220  0.3317
  103TMC2    O5 1582   3.076   0.183  12.312  0.3177 -0.1189  0.1597
  103TMC2    H5 1583   2.990   0.230  12.323 -0.6218 -1.6943 -0.4933
  104MPD2     C 1584   2.666   4.425  12.395  0.2306 -0.1118  0.4964
  104MPD2    C1 1585   2.626   4.542  12.457 -0.2707  0.7447  1.1902
  104MPD2    C2 1586   2.487   4.592  12.455 -0.6969 -0.3161 -0.0937
  104MPD2    C3 1587   2.399   4.521  12.382 -0.0849  0.2595  0.5849
  104MPD2    C4 1588   2.440   4.405  12.317  0.9951 -0.4462 -0.3517
  104MPD2    C5 1589   2.566   4.356  12.330  0.6256 -0.3109 -0.1107
  104MPD2     H 1590   2.464   4.691  12.492 -4.0979 -1.6817  1.4210
  104MPD2    H1 1591   2.376   4.339  12.261 -0.9518  0.8961  0.2972
  104MPD2    H2 1592   2.766   4.383  12.396  0.9064  1.4600 -0.5463
  104MPD2    H3 1593   2.590   4.264  12.279  1.5962 -0.5779  0.8093
  104MPD2     N 1594   2.271   4.574  12.361  0.1128 -0.1979 -0.0711
  104MPD2    H5 1595   2.261   4.672  12.383  3.8989  0.1559  0.1370
  104MPD2    N1 1596   2.725   4.622  12.510  0.2254  0.0949  0.3618
  104MPD2    H7 1597   2.821   4.608  12.479  0.7036 -0.8598  2.2938
  105MPD2     C 1598   4.413   4.592   0.183  0.6719 -0.2039  0.4334
  105MPD2    C1 1599   4.283   4.598   0.143  0.4963 -0.6717  0.3808
  105MPD2    C2 1600   4.183   4.572   0.233 -0.2483 -0.0855 -0.7225
  105MPD2    C3 1601   4.218   4.528   0.364  0.4162 -0.4704  0.2457
  105MPD2    C4 1602   4.353   4.511   0.398 -0.4321  0.0910  0.6558
  105MPD2    C5 1603   4.444   4.544   0.306 -0.3323  0.1095  0.1525
  105MPD2     H 1604   4.080   4.570   0.200 -0.0783  1.6384 -1.3806
  105MPD2    H1 1605   4.386   4.462   0.490  2.5078  0.6190 -0.1182
  105MPD2    H2 1606   4.494   4.635   0.126 -0.3519  0.2131 -0.7017
  105MPD2    H3 1607   4.547   4.513   0.321 -0.8727 -0.3267  2.8588
  105MPD2     N 1608   4.109   4.500   0.459 -0.0760 -0.0165 -0.4136
  105MPD2    H5 1609   4.016   4.520   0.423 -0.4114 -0.2193  0.3366
  105MPD2    N1 1610   4.246   4.645   0.015  0.2656 -0.1961  0.3597
  105MPD2    H7 1611   4.147   4.643  17.694  0.7532 -1.2806 -2.0097
  106TCq2    C1 1612   4.127   4.459   0.588 -0.3522 -0.6529 -0.4696
  106TCq2    O2 1613   4.230   4.435   0.648 -0.2364  0.6654 -0.3393
  106TCq2    C2 1614   4.011   4.434   0.661 -0.3048 -0.1094  0.0692
  106TCq2    C3 1615   3.884   4.445   0.608 -0.3017  0.1277 -0.2361
  106TCq2    C4 1616   3.776   4.447   0.699 -0.8086  0.4413 -0.3996
  106TCq2    C5 1617   3.799   4.446   0.834  0.3380  0.2619 -0.9680
  106TCq2    C6 1618   3.928   4.445   0.883  0.0854  0.2138  0.1029
  106TCq2    C7 1619   4.030   4.418   0.800 -0.0368 -0.0659 -0.3230
  106TCq2    C8 1620   3.948   4.466   1.028 -0.4905 -0.3724 -0.2252
  106TCq2    O4 1621   4.058   4.433   1.075 -0.2890  0.1555 -0.1108
  106TCq2    C9 1622   3.636   4.436   0.652 -0.2747 -0.2386 -0.2542
  106TCq2    O5 1623   3.544   4.450   0.730 -0.0694 -0.2665  0.1560
  106TCq2    O6 1624   3.620   4.386   0.538  0.2024 -0.4426  0.1793
  106TCq2    H2 1625   3.858   4.440   0.503  0.2000 -1.6171 -0.2864
  106TCq2    H3 1626   3.717   4.431   0.903  1.7175  1.8543  1.0319
  106TCq2    H4 1627   4.130   4.410   0.841  0.1884  1.4315 -0.5965
  107TMC2    C1 1628   4.472   3.515  11.985 -0.2203 -0.5081  0.1369
  107TMC2    C2 1629   4.474   3.547  11.852  0.1154  0.6553  0.3753
  107TMC2    C3 1630   4.475   3.443  11.761  0.7201 -0.6254  0.3400
  107TMC2    C4 1631   4.478   3.385  12.035 -0.6975  0.2275  0.7801
  107TMC2    C5 1632   4.482   3.291  11.943  0.0160 -0.1341 -0.3952
  107TMC2    C6 1633   4.476   3.310  11.807 -0.4737 -0.0296  0.0721
  107TMC2     C 1634   4.393   3.601  12.069 -0.1465  0.0219  0.5436
  107TMC2     O 1635   4.356   3.558  12.176  0.8084 -0.3449  0.2893
  107TMC2     H 1636   4.473   3.648  11.813  3.3085  0.5256 -0.0386
  107TMC2    H1 1637   4.476   3.354  12.139  3.0772 -3.4705 -0.2430
  107TMC2    H2 1638   4.456   3.227  11.741 -1.8768 -1.6191  2.5063
  107TMC2    C7 1639   4.533   3.160  11.993 -1.0582 -0.2498 -0.3812
  107TMC2    C8 1640   4.426   3.471  11.633 -0.9166  0.0748 -0.3561
  107TMC2    O1 1641   4.515   3.123  12.107  0.2109  0.5709  0.4652
  107TMC2    O2 1642   4.355   3.567  11.610  0.0302  0.0195 -0.4299
  107TMC2    O5 1643   4.460   3.375  11.549  0.1413  0.2327 -0.3617
  107TMC2    H5 1644   4.533   3.317  11.580  0.9538  0.9486 -0.9306
  108MPD2     C 1645   4.191   3.867  11.946 -0.3885  0.1198 -0.5925
  108MPD2    C1 1646   4.245   3.796  12.043 -0.3539 -0.2688 -0.1720
  108MPD2    C2 1647   4.209   3.820  12.175 -0.3958 -1.1274 -0.7429
  108MPD2    C3 1648   4.101   3.906  12.204  0.5627  0.6856 -0.7300
  108MPD2    C4 1649   4.039   3.966  12.100  0.1046 -0.0162 -0.5642
  108MPD2    C5 1650   4.079   3.935  11.970  0.2490  0.4056 -0.0137
  108MPD2     H 1651   4.264   3.780  12.259  0.4931 -0.4727 -1.0216
  108MPD2    H1 1652   3.954   4.033  12.104  0.2743  0.1277  0.5305
  108MPD2    H2 1653   4.222   3.857  11.843 -0.8864 -0.8011 -0.6601
  108MPD2    H3 1654   4.018   3.974  11.889 -3.3920 -0.7344  2.1888
  108MPD2     N 1655   4.060   3.931  12.333  0.2703 -0.3989  0.1275
  108MPD2    H5 1656   3.976   3.989  12.330 -0.3120 -1.2437  0.2700
  108MPD2    N1 1657   4.339   3.704  11.998 -0.5910 -0.2238  0.8862
  108MPD2    H7 1658   4.351   3.697  11.898  1.8796  0.7800  1.1085
  109MPD2     C 1659   0.795   1.614   2.381  0.4481  0.0108  0.1488
  109MPD2    C1 1660   0.705   1.716   2.399  0.0818 -0.6728  0.4959
  109MPD2    C2 1661   0.734   1.808   2.494  0.3077  0.1524  0.1107
  109MPD2    C3 1662   0.867   1.825   2.539  0.2710  0.1496  0.6711
  109MPD2    C4 1663   0.961   1.728   2.509 -0.0756 -0.1860  0.3090
  109MPD2    C5 1664   0.920   1.619   2.442 -0.1470 -1.2388  0.0966
  109MPD2     H 1665   0.671   1.893   2.519 -0.0025  0.3124 -1.2343
  109MPD2    H1 1666   1.069   1.735   2.520  0.0948 -0.3763 -1.2476
  109MPD2    H2 1667   0.777   1.542   2.301 -0.0380  0.4912 -0.1757
  109MPD2    H3 1668   0.986   1.541   2.406 -0.6384 -1.5768 -0.0734
  109MPD2     N 1669   0.900   1.938   2.611  0.4107 -0.2405  0.3614
  109MPD2    H5 1670   0.823   2.001   2.629 -0.1201 -0.7358 -0.1518
  109MPD2    N1 1671   0.585   1.716   2.329 -0.5205 -0.3980 -0.1329
  109MPD2    H7 1672   0.570   1.641   2.262 -1.0636 -0.5102  0.1059
  110TCq2    C1 1673   1.022   1.978   2.667 -0.2428 -0.3476 -0.3076
  110TCq2    O2 1674   1.131   1.923   2.659 -0.2760 -0.5729 -0.1084
  110TCq2    C2 1675   1.019   2.118   2.720 -0.8405  0.8996  0.6560
  110TCq2    C3 1676   1.135   2.176   2.762 -0.6909 -0.1298  0.2390
  110TCq2    C4 1677   1.129   2.304   2.793 -0.3897 -0.4091 -0.1451
  110TCq2    C5 1678   1.018   2.379   2.792 -0.9589  0.2504  0.2523
  110TCq2    C6 1679   0.905   2.322   2.754  0.2282  0.2851 -0.0921
  110TCq2    C7 1680   0.902   2.187   2.718 -0.0184  0.6241  0.3232
  110TCq2    C8 1681   0.791   2.401   2.714 -0.1282 -0.3563  0.2126
  110TCq2    O4 1682   0.713   2.343   2.640  0.3414 -0.1203 -0.4506
  110TCq2    C9 1683   1.253   2.365   2.823 -0.1171 -0.7154 -0.4675
  110TCq2    O5 1684   1.277   2.476   2.769  0.2558 -0.1371  0.0026
  110TCq2    O6 1685   1.340   2.295   2.881 -0.3239  0.4615  0.0140
  110TCq2    H2 1686   1.229   2.122   2.767 -0.6403  0.0227  0.9628
  110TCq2    H3 1687   1.027   2.485   2.815  3.7762 -0.2752  0.8978
  110TCq2    H4 1688   0.815   2.143   2.671  1.0698 -2.5553  1.2256
  111TMC2    C1 1689   4.131   0.408  11.817  0.6932 -1.1027 -0.2850
  111TMC2    C2 1690   4.066   0.291  11.786  0.1582  0.1116 -1.4807
  111TMC2    C3 1691   4.116   0.187  11.859  0.0034  0.5747  0.1747
  111TMC2    C4 1692   4.250   0.418  11.881  0.2844 -0.6407  0.1814
  111TMC2    C5 1693   4.301   0.306  11.942  0.2754 -0.2113 -0.1058
  111TMC2    C6 1694   4.230   0.185  11.934  0.2387  0.0386  0.3208
  111TMC2     C 1695   4.089   0.519  11.744 -0.7439 -0.4599  0.0466
  111TMC2     O 1696   4.175   0.587  11.698  0.3751 -0.6278 -0.4738
  111TMC2     H 1697   3.978   0.290  11.723 -0.5731  1.7777 -0.5005
  111TMC2    H1 1698   4.296   0.516  11.890 -1.3056  0.0081  1.1183
  111TMC2    H2 1699   4.264   0.090  11.972 -1.1622 -0.4828  0.2535
  111TMC2    C7 1700   4.433   0.315  12.014  0.3679 -0.2799  0.2503
  111TMC2    C8 1701   4.045   0.057  11.854  0.1828 -0.2565 -0.6852
  111TMC2    O1 1702   4.463   0.421  12.072  0.7418 -0.0841 -0.0998
  111TMC2    O2 1703   4.108   4.680  11.890 -0.1345  0.3396  0.3903
  111TMC2    O5 1704   3.925   0.089  11.890 -0.4710  0.1643 -0.1305
  111TMC2    H5 1705   3.897   0.182  11.876  1.2249  1.0293  2.2510
  112MPD2     C 1706   3.727   0.798  11.532  0.1050  0.3853  0.3687
  112MPD2    C1 1707   3.864   0.795  11.511  0.3878  0.1553  0.8105
  112MPD2    C2 1708   3.936   0.703  11.586  0.0975  0.3384 -0.0255
  112MPD2    C3 1709   3.878   0.630  11.688  0.1639 -0.3768  1.0050
  112MPD2    C4 1710   3.741   0.633  11.707  0.2153 -0.3999 -0.5537
  112MPD2    C5 1711   3.675   0.717  11.629  0.5021  0.4106  0.1793
  112MPD2     H 1712   4.039   0.688  11.558  0.0401  0.0498 -0.0752
  112MPD2    H1 1713   3.691   0.590  11.793 -2.0301  2.8331 -0.2619
  112MPD2    H2 1714   3.656   0.863  11.483  0.9674  0.7820 -0.3355
  112MPD2    H3 1715   3.570   0.724  11.656  1.0215 -0.5726  2.4667
  112MPD2     N 1716   3.950   0.529  11.748 -0.2389  0.0439 -0.4946
  112MPD2    H5 1717   3.908   0.457  11.805 -3.3902  1.6309 -0.8302
  112MPD2    N1 1718   3.932   0.866  11.412 -0.3720  0.2448 -0.6704
  112MPD2    H7 1719   4.033   0.853  11.406 -0.1405  1.2818  0.8670
  113MPD2     C 1720   2.741   4.213   0.803  0.1991 -0.3104 -0.2832
  113MPD2    C1 1721   2.703   4.140   0.910 -0.9697  0.5968  0.0401
  113MPD2    C2 1722   2.696   4.003   0.898 -0.4466 -0.5324 -0.1600
  113MPD2    C3 1723   2.700   3.947   0.769 -0.5011 -0.0243 -0.4823
  113MPD2    C4 1724   2.739   4.023   0.666 -0.1004  0.5733  0.1473
  113MPD2    C5 1725   2.755   4.157   0.681 -0.3274 -0.2045  0.0083
  113MPD2     H 1726   2.667   3.943   0.984  0.9733 -1.2519 -0.1767
  113MPD2    H1 1727   2.774   3.984   0.572 -1.2471  0.1809 -0.1132
  113MPD2    H2 1728   2.749   4.321   0.811 -1.6221 -0.1343 -0.9117
  113MPD2    H3 1729   2.782   4.220   0.597 -0.1518 -0.0992  0.1428
  113MPD2     N 1730   2.676   3.810   0.749 -0.0394 -0.3763 -0.1451
  113MPD2    H5 1731   2.669   3.792   0.649 -1.8534  0.3270 -0.1451
  113MPD2    N1 1732   2.688   4.191   1.039 -0.8446 -0.1390 -0.1533
  113MPD2    H7 1733   2.671   4.124   1.113 -0.0041 -1.3892 -1.0962
  114TCq2    C1 1734   2.678   3.711   0.842  0.1975  0.6849 -0.2772
  114TCq2    O2 1735   2.699   3.715   0.963  0.1159  0.6257 -0.2410
  114TCq2    C2 1736   2.671   3.573   0.787  0.2599 -0.3236 -0.1265
  114TCq2    C3 1737   2.605   3.547   0.668  0.4868  0.5484  0.0784
  114TCq2    C4 1738   2.588   3.416   0.630  0.0046  0.2377 -0.0331
  114TCq2    C5 1739   2.629   3.311   0.709 -0.0921 -0.2484  0.1365
  114TCq2    C6 1740   2.683   3.343   0.830 -0.4960 -0.6935 -0.0132
  114TCq2    C7 1741   2.703   3.465   0.872 -0.5053  0.2469  0.1801
  114TCq2    C8 1742   2.681   3.234   0.927 -0.3384  0.0491  0.5333
  114TCq2    O4 1743   2.742   3.129   0.901 -0.0379 -0.2911  1.1012
  114TCq2    C9 1744   2.524   3.394   0.501  0.4344  0.8190 -0.2547
  114TCq2    O5 1745   2.523   3.494   0.424  0.0150 -0.0057 -0.4562
  114TCq2    O6 1746   2.498   3.277   0.467  0.2426 -0.2689 -0.2612
  114TCq2    H2 1747   2.559   3.623   0.607  2.0755  1.0176 -0.5116
  114TCq2    H3 1748   2.606   3.212   0.672 -1.8053 -0.4255  1.6585
  114TCq2    H4 1749   2.748   3.491   0.967  1.3155 -0.1987 -0.5706
  115TMC2    C1 1750   3.942   2.189   0.025  0.6519  0.3626  0.2412
  115TMC2    C2 1751   3.939   2.153   0.158 -0.2002 -0.5472 -0.0683
  115TMC2    C3 1752   4.020   2.225   0.238 -0.5562  0.0196  0.2764
  115TMC2    C4 1753   4.015   2.294  17.669 -0.3118 -0.1026 -0.3142
  115TMC2    C5 1754   4.093   2.360   0.063 -0.3705 -0.4058 -0.2431
  115TMC2    C6 1755   4.094   2.332   0.196  0.0829 -0.3985 -0.1953
  115TMC2     C 1756   3.862   2.108  17.629  0.4802  0.6860 -0.2529
  115TMC2     O 1757   3.827   1.997  17.674 -0.2795  0.7549  0.1478
  115TMC2     H 1758   3.873   2.072   0.188  0.1008 -2.1329 -3.6391
  115TMC2    H1 1759   4.033   2.307  17.563  0.1814  2.1343  0.0351
  115TMC2    H2 1760   4.157   2.388   0.265 -1.8546  1.9161 -0.3259
  115TMC2    C7 1761   4.171   2.482   0.019 -0.2673 -0.7667 -0.3224
  115TMC2    C8 1762   3.989   2.221   0.381  0.9655 -0.0190 -0.2047
  115TMC2    O1 1763   4.257   2.518   0.097 -0.3222  0.3866  0.6529
  115TMC2    O2 1764   3.979   2.127   0.451  0.5710 -0.3789  0.7193
  115TMC2    O5 1765   3.940   2.342   0.411  0.2044 -0.1532 -0.2146
  115TMC2    H5 1766   3.941   2.412   0.342 -0.8355 -0.1097 -0.1890
  116MPD2     C 1767   3.645   2.006  17.186 -0.0295 -0.7552  0.1389
  116MPD2    C1 1768   3.669   1.920  17.285 -0.4431 -0.3308  0.6244
  116MPD2    C2 1769   3.735   1.973  17.392 -0.2096 -0.1652 -0.3935
  116MPD2    C3 1770   3.772   2.110  17.400 -0.3038 -0.3832 -0.0925
  116MPD2    C4 1771   3.725   2.191  17.303  0.5406  0.4960 -0.8671
  116MPD2    C5 1772   3.675   2.137  17.193 -0.4945 -1.1688 -0.1322
  116MPD2     H 1773   3.754   1.909  17.478  1.0075 -0.4804 -0.8980
  116MPD2    H1 1774   3.750   2.296  17.299 -1.7867  1.0991  0.7888
  116MPD2    H2 1775   3.609   1.972  17.089  0.3427  2.8792 -1.2756
  116MPD2    H3 1776   3.654   2.203  17.110  0.6619 -2.0182 -1.0856
  116MPD2     N 1777   3.848   2.167  17.504  0.0252  0.3436  0.3173
  116MPD2    H5 1778   3.857   2.269  17.502  1.2940  0.2092 -0.5543
  116MPD2    N1 1779   3.646   1.786  17.261 -0.0680  0.1740 -0.1934
  116MPD2    H7 1780   3.621   1.754  17.168  0.3009  2.1688 -0.9944
  117TMC2    C1 1781   2.077   3.286  14.393  0.1542 -0.3597 -0.8003
  117TMC2    C2 1782   2.073   3.170  14.465  0.2562  0.6010 -0.4281
  117TMC2    C3 1783   2.149   3.163  14.577  0.0882 -0.6825  0.4224
  117TMC2    C4 1784   2.152   3.392  14.437 -0.0696  0.2507 -0.1801
  117TMC2    C5 1785   2.222   3.376  14.554 -0.1306 -0.9463  0.1788
  117TMC2    C6 1786   2.224   3.263  14.629 -0.2379 -0.2593 -0.4349
  117TMC2     C 1787   1.978   3.307  14.300 -0.1782  0.3674 -0.8783
  117TMC2     O 1788   1.965   3.420  14.250  0.2371  0.1329 -0.7368
  117TMC2     H 1789   2.023   3.091  14.412  1.3187 -0.3374 -0.0243
  117TMC2    H1 1790   2.167   3.485  14.384  0.6997  1.1423  1.6161
  117TMC2    H2 1791   2.286   3.246  14.716 -1.9509 -3.3823  0.1403
  117TMC2    C7 1792   2.319   3.477  14.587  0.5137  0.4246  0.3511
  117TMC2    C8 1793   2.141   3.031  14.640 -0.0748  0.2021 -0.2541
  117TMC2    O1 1794   2.346   3.561  14.496  0.3268 -0.3303 -0.5499
  117TMC2    O2 1795   2.059   2.943  14.612  0.1007 -0.4774 -0.1913
  117TMC2    O5 1796   2.216   3.036  14.755  0.3862  0.1012  0.4309
  117TMC2    H5 1797   2.300   3.084  14.771  0.2824  0.5999 -0.5329
  118MPD2     C 1798   2.500   3.502  14.906 -0.0535 -0.6468 -0.6835
  118MPD2    C1 1799   2.475   3.536  14.772 -0.1465  0.4972  0.4096
  118MPD2    C2 1800   2.572   3.601  14.699  0.2441  0.3071  0.4918
  118MPD2    C3 1801   2.693   3.633  14.762  0.0790 -0.0851  0.4424
  118MPD2    C4 1802   2.712   3.601  14.892 -0.0992 -0.4934 -0.0434
  118MPD2    C5 1803   2.618   3.533  14.963 -0.5904 -0.8413 -0.3311
  118MPD2     H 1804   2.545   3.634  14.599 -0.6481 -0.2361  0.5554
  118MPD2    H1 1805   2.804   3.614  14.949 -2.1593  0.7017  3.0049
  118MPD2    H2 1806   2.433   3.451  14.974  0.0005 -0.8797 -0.8067
  118MPD2    H3 1807   2.625   3.512  15.069  1.6648 -0.8426 -0.4832
  118MPD2     N 1808   2.804   3.699  14.691 -0.7192 -0.2547  1.1206
  118MPD2    H5 1809   2.884   3.734  14.742 -0.4975  0.3439  0.3750
  118MPD2    N1 1810   2.354   3.478  14.722  0.6414 -0.2802  0.5236
  118MPD2    H7 1811   2.287   3.448  14.793  0.6647 -0.4775  0.4620
  119MPD2     C 1812   0.420   4.466  13.204  0.1579  0.4673  0.1064
  119MPD2    C1 1813   0.346   4.445  13.318  0.5335 -0.2687 -0.2561
  119MPD2    C2 1814   0.261   4.331  13.315 -1.2140 -0.1035  0.1040
  119MPD2    C3 1815   0.261   4.237  13.217 -0.2505  0.7866 -0.0826
  119MPD2    C4 1816   0.349   4.260  13.109  0.0708  0.2545  0.0899
  119MPD2    C5 1817   0.423   4.373  13.103 -0.4383 -0.5661  0.0612
  119MPD2     H 1818   0.183   4.313  13.388 -1.0540  0.0526  0.3128
  119MPD2    H1 1819   0.369   4.184  13.034 -1.6793  0.4515 -0.5853
  119MPD2    H2 1820   0.488   4.549  13.207  0.1272  0.4739  0.7759
  119MPD2    H3 1821   0.484   4.394  13.015  1.7738  0.0630  1.7458
  119MPD2     N 1822   0.180   4.121  13.214  0.2665  0.3537  0.0344
  119MPD2    H5 1823   0.206   4.044  13.153 -1.8503 -0.0859 -0.3313
  119MPD2    N1 1824   0.351   4.537  13.428 -0.1606 -0.1270  0.1974
  119MPD2    H7 1825   0.390   4.627  13.399  0.9632 -0.4793  0.6114
  120TCq2    C1 1826   0.085   4.088  13.307  0.5030  1.0398  1.1336
  120TCq2    O2 1827   0.035   4.155  13.396 -0.4849  0.5691  0.6237
  120TCq2    C2 1828   0.051   3.948  13.316 -0.8226 -0.5824  0.3427
  120TCq2    C3 1829   0.105   3.857  13.221 -0.2663 -0.2275  0.1300
  120TCq2    C4 1830   0.122   3.726  13.252  0.1432 -0.4148  0.0103
  120TCq2    C5 1831   0.057   3.672  13.361  0.1585  0.0242  0.4997
  120TCq2    C6 1832   0.006   3.757  13.452 -0.0491  0.0902 -0.1115
  120TCq2    C7 1833   0.004   3.895  13.434  0.7006  0.0938  0.0272
  120TCq2    C8 1834   4.650   3.687  13.559  0.5455  0.0864 -0.4828
  120TCq2    O4 1835   4.624   3.571  13.543  0.1497 -0.4681 -0.0565
  120TCq2    C9 1836   0.179   3.636  13.156  0.9378 -0.5076 -0.6426
  120TCq2    O5 1837   0.130   3.523  13.155  0.4859  0.1770  0.0710
  120TCq2    O6 1838   0.238   3.693  13.055 -0.0745 -0.7806  0.3255
  120TCq2    H2 1839   0.131   3.889  13.121 -3.2173  2.1570  0.1191
  120TCq2    H3 1840   0.060   3.565  13.376  0.0313 -0.3248 -1.9352
  120TCq2    H4 1841   4.684   3.959  13.510  0.1137 -2.8849  2.2417
  121TMC2    C1 1842   2.303   1.734  13.891  0.4100  0.2351 -0.0141
  121TMC2    C2 1843   2.353   1.704  14.014 -0.6500  1.5008  0.3007
  121TMC2    C3 1844   2.364   1.573  14.044  0.0892 -0.2531 -0.2625
  121TMC2    C4 1845   2.273   1.636  13.807  0.3224  0.1068 -0.2770
  121TMC2    C5 1846   2.306   1.508  13.829  0.0453  0.3562 -0.1589
  121TMC2    C6 1847   2.341   1.474  13.951  1.0021  0.0998  0.1972
  121TMC2     C 1848   2.316   1.874  13.861 -0.0472  0.0108  0.1950
  121TMC2     O 1849   2.362   1.950  13.949  0.2864 -0.4044  0.2935
  121TMC2     H 1850   2.361   1.782  14.089 -0.8211  0.5987  1.2611
  121TMC2    H1 1851   2.235   1.661  13.709 -0.9915  2.6985  0.9208
  121TMC2    H2 1852   2.349   1.369  13.977  4.0840  0.0921 -0.6875
  121TMC2    C7 1853   2.231   1.405  13.759 -1.0101  0.1253  0.0041
  121TMC2    C8 1854   2.413   1.516  14.178 -0.6090  0.0101 -0.6753
  121TMC2    O1 1855   2.277   1.294  13.763 -0.5630 -0.1246 -0.4653
  121TMC2    O2 1856   2.398   1.399  14.222 -0.0641  0.0250  0.1342
  121TMC2    O5 1857   2.498   1.603  14.234 -0.0394  0.3323 -0.5701
  121TMC2    H5 1858   2.536   1.675  14.179  1.3592 -0.3877 -0.5581
  122MPD2     C 1859   2.389   2.118  13.717 -0.2186  0.4505  0.0173
  122MPD2    C1 1860   2.294   2.025  13.675 -0.8083  0.5831  0.2713
  122MPD2    C2 1861   2.235   2.053  13.549 -0.3320  0.0965 -0.5374
  122MPD2    C3 1862   2.263   2.163  13.473  0.5029 -0.7149 -0.7334
  122MPD2    C4 1863   2.360   2.254  13.519  0.2776 -0.1902  0.5247
  122MPD2    C5 1864   2.411   2.229  13.642  0.0082 -0.0505  0.2481
  122MPD2     H 1865   2.171   1.972  13.514  0.6581 -0.6783 -0.5548
  122MPD2    H1 1866   2.384   2.347  13.470 -0.2781 -1.0897 -1.4581
  122MPD2    H2 1867   2.425   2.115  13.819 -0.8366 -0.8839  0.1916
  122MPD2    H3 1868   2.483   2.302  13.677 -0.9869  1.1281 -0.1551
  122MPD2     N 1869   2.201   2.199  13.354  0.3519 -0.2184 -0.2771
  122MPD2    H5 1870   2.239   2.283  13.311 -1.1014  0.5119 -0.1509
  122MPD2    N1 1871   2.275   1.900  13.735  0.1678  0.1380 -0.4055
  122MPD2    H7 1872   2.215   1.832  13.688 -2.9625  1.7946  1.2493
  123MPD2     C 1873   4.077   3.876   9.027  0.8474  0.0532  0.8880
  123MPD2    C1 1874   4.098   3.842   9.160  0.1536 -0.2506  0.3240
  123MPD2    C2 1875   4.102   3.706   9.193  0.3173 -0.0471 -0.2209
  123MPD2    C3 1876   4.076   3.612   9.099  0.6160 -0.3642 -0.1861
  123MPD2    C4 1877   4.060   3.648   8.968  0.3663 -0.7441 -0.2010
  123MPD2    C5 1878   4.049   3.781   8.939  0.2038  0.1443 -0.1937
  123MPD2     H 1879   4.122   3.670   9.293 -0.8724  1.2244  0.4631
  123MPD2    H1 1880   4.030   3.579   8.890 -0.5493 -0.9746  0.3638
  123MPD2    H2 1881   4.063   3.982   9.007  1.8659  0.0106 -0.0379
  123MPD2    H3 1882   4.013   3.807   8.841  0.4796  1.6579  0.1088
  123MPD2     N 1883   4.072   3.476   9.142  0.3399  0.5181 -0.1600
  123MPD2    H5 1884   4.078   3.457   9.241 -0.0523 -1.0170 -0.4406
  123MPD2    N1 1885   4.124   3.945   9.257  0.0515  0.1115 -0.2115
  123MPD2    H7 1886   4.114   4.042   9.227  0.2925  0.6675  1.5263
  124TCq2    C1 1887   4.029   3.370   9.069 -1.0568 -0.2219  0.3924
  124TCq2    O2 1888   3.997   3.349   8.952 -0.3082 -0.1673 -0.0161
  124TCq2    C2 1889   4.035   3.248   9.156  0.1340 -0.5181  0.1592
  124TCq2    C3 1890   3.967   3.134   9.118  0.4128  0.4547  0.1993
  124TCq2    C4 1891   4.001   3.019   9.189 -0.0045  0.6270  0.7096
  124TCq2    C5 1892   4.098   3.018   9.291  0.2190  0.1949 -0.5039
  124TCq2    C6 1893   4.165   3.130   9.315 -0.6374  0.0516  0.5278
  124TCq2    C7 1894   4.132   3.248   9.255  0.7019 -0.0378  0.3131
  124TCq2    C8 1895   4.265   3.141   9.427 -0.0795  0.2583  0.0406
  124TCq2    O4 1896   4.329   3.245   9.447 -0.2652 -0.0010  0.5760
  124TCq2    C9 1897   3.944   2.894   9.150  0.1024 -0.1114 -0.4934
  124TCq2    O5 1898   3.856   2.903   9.058  0.2262 -0.2449 -0.0465
  124TCq2    O6 1899   3.997   2.798   9.205 -0.2176  0.0703  0.3561
  124TCq2    H2 1900   3.889   3.132   9.044  1.5250 -0.3844 -0.9599
  124TCq2    H3 1901   4.121   2.921   9.332  0.8169 -0.0287 -1.3738
  124TCq2    H4 1902   4.193   3.334   9.282 -0.2203  0.5785  0.4400
  125TMC2    C1 1903   1.024   1.357   9.453  1.2454  0.8055 -0.6380
  125TMC2    C2 1904   1.060   1.331   9.320 -0.0731  0.4051  0.0444
  125TMC2    C3 1905   1.186   1.283   9.293  0.0437 -0.3908  0.4169
  125TMC2    C4 1906   1.110   1.329   9.554 -0.3262  0.3544 -0.1566
  125TMC2    C5 1907   1.234   1.271   9.521 -0.5220 -0.2858 -0.1263
  125TMC2    C6 1908   1.270   1.240   9.394  0.1071 -0.5148  0.0714
  125TMC2     C 1909   0.903   1.431   9.482  0.2723  0.1519  0.3422
  125TMC2     O 1910   0.855   1.493   9.387 -0.0975 -0.9189 -0.6214
  125TMC2     H 1911   1.003   1.372   9.237  0.3498 -0.5208 -0.7091
  125TMC2    H1 1912   1.093   1.363   9.655  1.3288  0.2822  0.1357
  125TMC2    H2 1913   1.350   1.174   9.364  1.1765  0.6522  0.3674
  125TMC2    C7 1914   1.321   1.237   9.629  0.7032 -0.2017 -0.2727
  125TMC2    C8 1915   1.206   1.234   9.156  0.4264  0.6564 -0.3952
  125TMC2    O1 1916   1.275   1.243   9.741  0.7859 -0.3069 -0.1591
  125TMC2    O2 1917   1.127   1.253   9.068 -0.3934 -0.2759  0.1123
  125TMC2    O5 1918   1.340   1.249   9.140  0.4026  0.4674  0.1520
  125TMC2    H5 1919   1.396   1.264   9.219  0.6359 -3.3137  0.7029
  126MPD1     C 1920   0.533   1.583   9.806  0.4563  0.8135 -0.3011
  126MPD1    C1 1921   0.636   1.530   9.879 -0.5265  0.0532 -0.5289
  126MPD1    C2 1922   0.741   1.468   9.817  0.3288  0.4343 -0.1218
  126MPD1    C3 1923   0.760   1.488   9.680  0.4018 -0.2728 -1.0775
  126MPD1    C4 1924   0.668   1.563   9.608  0.0685  0.6138  0.5643
  126MPD1    C5 1925   0.550   1.600   9.667  0.0494  0.0125  0.2316
  126MPD1     H 1926   0.813   1.413   9.877 -0.9178  0.3866  1.3205
  126MPD1    H1 1927   0.693   1.596   9.508 -0.4058 -1.8959 -0.3908
  126MPD1    H2 1928   0.443   1.618   9.855  1.0434  0.8656  0.7520
  126MPD1    H3 1929   0.469   1.655   9.619  1.1061  0.3090 -1.1909
  126MPD1     N 1930   0.869   1.423   9.620  0.3777  0.8087  0.3216
  126MPD1    H5 1931   0.912   1.349   9.675  1.0523 -0.2295 -1.5992
  126MPD1    N1 1932   0.614   1.513  10.013  0.2219 -0.8174 -0.0307
  126MPD1    H6 1933   0.694   1.512  10.074  1.8487  1.4140 -2.1255
  126MPD1    H7 1934   0.558   1.589  10.050 -0.0737  0.7864 -3.7648
  127MPD2     C 1935   2.286   4.329   9.847  0.0234 -0.1673  0.2936
  127MPD2    C1 1936   2.419   4.298   9.862 -0.5054 -0.5703  0.2712
  127MPD2    C2 1937   2.490   4.391   9.937  0.1117 -0.0007 -0.4985
  127MPD2    C3 1938   2.429   4.502   9.990 -0.3986 -0.1660  0.5125
  127MPD2    C4 1939   2.296   4.527   9.970 -0.0169 -0.0203  0.6458
  127MPD2    C5 1940   2.226   4.443   9.892  0.5578  0.7222 -0.1033
  127MPD2     H 1941   2.596   4.383   9.959  0.3092  1.1018 -1.0231
  127MPD2    H1 1942   2.242   4.606  10.022 -1.5660 -0.7481  0.1464
  127MPD2    H2 1943   2.224   4.257   9.795 -0.2447  0.2833 -0.0040
  127MPD2    H3 1944   2.120   4.455   9.873 -0.0465 -1.4684  1.8988
  127MPD2     N 1945   2.504   4.577  10.076 -0.5296  0.4700  0.3278
  127MPD2    H5 1946   2.601   4.551  10.091 -0.6069  0.1087  0.2099
  127MPD2    N1 1947   2.480   4.184   9.800  0.3637  0.1832  0.2340
  127MPD2    H7 1948   2.426   4.117   9.746 -1.8455  2.7307 -0.7347
  128TCq2    C1 1949   2.615   4.160   9.782 -0.5156  0.3606  0.1587
  128TCq2    O2 1950   2.711   4.234   9.812 -0.3929 -0.5468  0.4149
  128TCq2    C2 1951   2.637   4.032   9.711 -0.3258  0.7253  0.9175
  128TCq2    C3 1952   2.536   3.949   9.689  0.1949  0.0423 -0.0706
  128TCq2    C4 1953   2.551   3.860   9.583 -0.0246  0.2240 -0.1476
  128TCq2    C5 1954   2.665   3.847   9.517 -0.0890 -0.1606 -0.3219
  128TCq2    C6 1955   2.757   3.941   9.536 -0.0816  0.0973  0.1658
  128TCq2    C7 1956   2.746   4.029   9.634  0.0895 -0.2525  0.5906
  128TCq2    C8 1957   2.889   3.918   9.479  0.1969 -0.4946  0.0175
  128TCq2    O4 1958   2.981   3.996   9.497 -0.2729 -0.9907  0.6748
  128TCq2    C9 1959   2.447   3.764   9.569  0.2467 -0.2220 -0.2926
  128TCq2    O5 1960   2.473   3.670   9.487  0.1048 -0.2664 -0.7008
  128TCq2    O6 1961   2.359   3.766   9.656  0.6848  0.2196  0.0404
  128TCq2    H2 1962   2.452   3.947   9.757  0.6397 -0.1395  0.4706
  128TCq2    H3 1963   2.671   3.764   9.449  1.4258  1.6170 -2.3656
  128TCq2    H4 1964   2.818   4.109   9.640  0.2701 -0.2446 -1.9186
  129MPD2     C 1965   0.897   0.728   2.335  0.7795 -0.2049 -0.6695
  129MPD2    C1 1966   0.861   0.703   2.209  0.2821  0.7665 -0.0121
  129MPD2    C2 1967   0.850   0.815   2.123 -0.2093  0.0382 -0.6189
  129MPD2    C3 1968   0.861   0.944   2.174  0.2129 -0.4630 -0.1036
  129MPD2    C4 1969   0.895   0.966   2.305 -0.2568  0.2259 -0.2715
  129MPD2    C5 1970   0.906   0.854   2.382  0.7851  0.3339 -0.6486
  129MPD2     H 1971   0.826   0.797   2.019  0.9321 -1.9769 -0.5367
  129MPD2    H1 1972   0.894   1.065   2.349 -2.3266 -0.6559  1.6731
  129MPD2    H2 1973   0.922   0.649   2.405  1.2194  0.3717 -0.1816
  129MPD2    H3 1974   0.926   0.868   2.487 -1.9475 -1.8402  0.1463
  129MPD2     N 1975   0.834   1.041   2.076 -0.4710 -0.3494  0.3356
  129MPD2    H5 1976   0.820   1.004   1.982  1.4300  0.9129 -0.4360
  129MPD2    N1 1977   0.853   0.577   2.151  0.3399 -0.0445 -0.7270
  129MPD2    H7 1978   0.826   0.579   2.053 -0.5954 -1.6011 -0.5102
  130TCq2    C1 1979   0.884   0.457   2.211 -0.2816  0.3106 -0.6992
  130TCq2    O2 1980   0.931   0.432   2.320  0.0441  0.4895 -0.3973
  130TCq2    C2 1981   0.839   0.337   2.138  0.3349 -0.0738  0.2139
  130TCq2    C3 1982   0.889   0.219   2.187  0.0539 -0.6170  0.8662
  130TCq2    C4 1983   0.823   0.107   2.145 -0.4254  0.4289  0.2558
  130TCq2    C5 1984   0.732   0.110   2.047  0.3924 -0.4862  0.4242
  130TCq2    C6 1985   0.675   0.236   2.012 -0.3723 -0.0786  0.0855
  130TCq2    C7 1986   0.727   0.351   2.062  0.4259 -0.3249  0.0121
  130TCq2    C8 1987   0.532   0.243   1.991 -0.2468 -1.3851 -0.5796
  130TCq2    O4 1988   0.478   0.353   1.970  0.1784 -0.0705  0.0748
  130TCq2    C9 1989   0.870   4.700   2.192 -0.3147 -0.5478  0.3283
  130TCq2    O5 1990   0.785   4.606   2.181  0.9139  0.2344 -0.0667
  130TCq2    O6 1991   0.966   4.704   2.277 -0.3052  0.3720  0.0917
  130TCq2    H2 1992   0.974   0.207   2.253  1.2782  1.3443 -0.3531
  130TCq2    H3 1993   0.692   0.016   2.010  1.6678 -1.6310  1.9272
  130TCq2    H4 1994   0.688   0.450   2.042 -1.4646 -1.0460  0.1774
  131MPD2     C 1995   4.499   4.205  10.269  0.2593 -0.6056 -0.1827
  131MPD2    C1 1996   4.585   4.245  10.173 -0.0751  0.0913  0.3325
  131MPD2    C2 1997   4.549   4.209  10.044 -0.1988 -0.8463 -0.1411
  131MPD2    C3 1998   4.427   4.157  10.014  0.3319 -0.8363  0.3263
  131MPD2    C4 1999   4.339   4.118  10.116  0.1737 -0.1502 -0.3040
  131MPD2    C5 2000   4.382   4.140  10.244 -0.3812 -0.0017  0.4758
  131MPD2     H 2001   4.612   4.248   9.965 -1.3397  0.7935 -0.2441
  131MPD2    H1 2002   4.251   4.055  10.106  0.3578 -0.8696  2.5584
  131MPD2    H2 2003   4.522   4.226  10.373 -1.6965 -0.6728  0.2775
  131MPD2    H3 2004   4.320   4.111  10.329  0.5798  0.7337  1.4240
  131MPD2     N 2005   4.404   4.137   9.880  1.0683  0.6997 -0.3360
  131MPD2    H5 2006   4.472   4.170   9.812  0.9173 -2.5900 -2.0955
  131MPD2    N1 2007   4.702   4.311  10.215  0.5189 -0.1359 -0.0049
  131MPD2    H7 2008   4.714   4.357  10.305  1.1431  0.3071 -0.3169
  132TCq2    C1 2009   0.465   4.647  10.084 -0.5284  0.4126  0.0289
  132TCq2    O2 2010   0.509   4.585   9.991 -0.6415  0.6343 -0.7208
  132TCq2    C2 2011   0.344   4.592  10.149 -0.0346  0.0249 -0.2552
  132TCq2    C3 2012   0.308   4.655  10.264 -0.2491  0.4959  0.3783
  132TCq2    C4 2013   0.212   4.603  10.349  0.2186 -0.9899 -0.0661
  132TCq2    C5 2014   0.145   4.487  10.322 -0.8336 -0.9154  0.5201
  132TCq2    C6 2015   0.172   4.438  10.191  0.0879 -0.3910 -0.3930
  132TCq2    C7 2016   0.281   4.478  10.112 -0.3763 -0.4570 -0.8832
  132TCq2    C8 2017   0.085   4.341  10.133  0.4549  0.1311 -0.2270
  132TCq2    O4 2018   0.111   4.306  10.019 -0.3932 -0.0301  0.0609
  132TCq2    C9 2019   0.165   4.673  10.461  0.4646 -0.2491 -0.6356
  132TCq2    O5 2020   0.122   4.607  10.559  0.1293  0.4278 -0.1533
  132TCq2    O6 2021   0.203   0.068  10.460  0.3548  0.5280 -0.1455
  132TCq2    H2 2022   0.351   0.023  10.300 -1.4014  0.9521  0.5934
  132TCq2    H3 2023   0.065   4.454  10.387 -0.8853 -0.4100  0.7075
  132TCq2    H4 2024   0.301   4.417  10.024  0.1886 -0.0193 -1.0531
  133MPD2     C 2025   4.458   0.593   8.986 -0.7744 -0.9690 -0.6456
  133MPD2    C1 2026   4.454   0.562   9.119  0.3948 -0.0818  0.1893
  133MPD2    C2 2027   4.355   0.473   9.167  0.4411  0.1824  0.5888
  133MPD2    C3 2028   4.251   0.435   9.082  0.0940 -0.4190 -0.0887
  133MPD2    C4 2029   4.250   0.482   8.953 -0.2906  0.3229 -0.1460
  133MPD2    C5 2030   4.348   0.562   8.909 -0.2985  0.5050  0.6539
  133MPD2     H 2031   4.360   0.446   9.272  3.0221 -1.2182  0.1242
  133MPD2    H1 2032   4.169   0.457   8.886 -1.7060  0.7925  1.3922
  133MPD2    H2 2033   4.527   0.668   8.950 -0.0814 -1.7496 -0.9555
  133MPD2    H3 2034   4.336   0.602   8.809  0.9967 -1.1698 -0.1676
  133MPD2     N 2035   4.160   0.326   9.113 -0.3160  0.6343  0.0016
  133MPD2    H5 2036   4.082   0.313   9.049 -0.3274  1.0667 -0.0753
  133MPD2    N1 2037   4.564   0.606   9.196  0.3872  0.5024  0.1647
  133MPD2    H7 2038   4.633   0.650   9.136 -1.7934  0.9071 -2.0696
  134TCq2    C1 2039   4.577   0.596   9.326 -1.0716 -0.6747 -0.1517
  134TCq2    O2 2040   4.489   0.571   9.411 -0.2068 -0.5806 -0.2261
  134TCq2    C2 2041   4.714   0.588   9.368 -0.1379  0.4841  0.0269
  134TCq2    C3 2042   0.030   0.495   9.456 -0.4939 -0.4466  1.2000
  134TCq2    C4 2043   0.154   0.513   9.515 -0.8203  0.0319  0.6662
  134TCq2    C5 2044   0.229   0.625   9.487  0.3393 -0.7804 -0.0275
  134TCq2    C6 2045   0.181   0.717   9.397  0.0761 -0.3583  0.1641
  134TCq2    C7 2046   0.062   0.697   9.333 -0.4250 -0.1040 -0.3521
  134TCq2    C8 2047   0.206   0.858   9.414 -0.3088 -0.5465  0.5137
  134TCq2    O4 2048   0.123   0.938   9.376 -0.0724  0.2916 -0.0097
  134TCq2    C9 2049   0.211   0.406   9.590  0.1376  0.3158  0.8065
  134TCq2    O5 2050   0.163   0.290   9.571 -0.5704 -0.2583 -0.4410
  134TCq2    O6 2051   0.309   0.443   9.661  0.3729  0.0622  0.2727
  134TCq2    H2 2052   4.692   0.409   9.478 -3.0588  1.1500  0.1999
  134TCq2    H3 2053   0.321   0.638   9.543 -1.7024  0.5799  3.0199
  134TCq2    H4 2054   0.039   0.767   9.253  1.3701 -1.7076 -2.2917
  135MPD2     C 2055   1.699   2.096   9.823  0.0263 -0.1599  0.8521
  135MPD2    C1 2056   1.704   1.962   9.854  0.0333 -0.4992 -0.7166
  135MPD2    C2 2057   1.812   1.900   9.830  0.4571  0.1218  0.0738
  135MPD2    C3 2058   1.928   1.962   9.788 -0.8837  0.7471  0.2511
  135MPD2    C4 2059   1.920   2.099   9.759  0.1858  0.0314 -0.1602
  135MPD2    C5 2060   1.809   2.168   9.779  0.6710  0.4197  0.6056
  135MPD2     H 2061   1.822   1.797   9.861 -0.0323  0.5463  1.6080
  135MPD2    H1 2062   2.006   2.155   9.724  0.0312  2.2942  2.9857
  135MPD2    H2 2063   1.609   2.156   9.829  0.0028 -0.1010 -0.1157
  135MPD2    H3 2064   1.798   2.273   9.753  0.4973  0.3566  0.4290
  135MPD2     N 2065   2.063   1.902   9.768  0.3291  0.3252 -0.0344
  135MPD2    H5 2066   2.120   1.966   9.714  0.2369 -0.0640 -0.5959
  135MPD2    N1 2067   1.604   1.894   9.924  0.1726 -0.1450 -0.4506
  135MPD2    H7 2068   1.611   1.793   9.920  1.5333 -0.1713  3.0314
  136TCq2    C1 2069   1.476   1.938   9.960  0.0211  0.1692  0.0419
  136TCq2    O2 2070   1.421   2.045   9.943 -0.0063  0.4722 -0.4509
  136TCq2    C2 2071   1.409   1.832  10.032  0.9321 -0.0326 -0.0109
  136TCq2    C3 2072   1.446   1.708  10.014  0.4274  0.1455  0.4737
  136TCq2    C4 2073   1.383   1.612  10.086  0.0673 -0.0833 -0.0411
  136TCq2    C5 2074   1.277   1.643  10.170 -0.1135  0.1204 -0.4420
  136TCq2    C6 2075   1.243   1.777  10.184  0.0058  0.5337  0.1597
  136TCq2    C7 2076   1.303   1.875  10.108 -0.2526  0.4692  0.4255
  136TCq2    C8 2077   1.162   1.826  10.298  0.1900  0.0161 -0.3039
  136TCq2    O4 2078   1.144   1.947  10.299  0.3896  0.4665 -0.1831
  136TCq2    C9 2079   1.427   1.479  10.066 -0.1664  0.4212  0.6946
  136TCq2    O5 2080   1.347   1.393  10.118  0.1500  0.4953 -0.3188
  136TCq2    O6 2081   1.546   1.455  10.040 -0.0167 -0.0648  0.2413
  136TCq2    H2 2082   1.520   1.675   9.942  0.1837  2.8645 -1.0330
  136TCq2    H3 2083   1.214   1.567  10.214  0.7732  0.1798  0.9505
  136TCq2    H4 2084   1.279   1.980  10.104 -0.3460  0.4473  0.4260
  137MPD2     C 2085   1.605   0.247  10.079  0.4693  0.0610 -0.5223
  137MPD2    C1 2086   1.566   0.378  10.103  0.5314 -0.3921 -0.6061
  137MPD2    C2 2087   1.534   0.422  10.227 -0.2985  0.1873 -0.4342
  137MPD2    C3 2088   1.536   0.332  10.333 -0.1396 -0.2774  0.4461
  137MPD2    C4 2089   1.584   0.203  10.312  0.6786 -0.5230 -0.3500
  137MPD2    C5 2090   1.617   0.165  10.185  0.7684 -0.3646 -0.6391
  137MPD2     H 2091   1.503   0.521  10.256 -2.8771 -0.7192 -0.1330
  137MPD2    H1 2092   1.600   0.128  10.389  1.5887 -0.2128 -0.2370
  137MPD2    H2 2093   1.635   0.203   9.985  3.6099 -0.5926  0.7802
  137MPD2    H3 2094   1.655   0.064  10.172  2.1062  0.1773 -0.8841
  137MPD2     N 2095   1.484   0.384  10.458 -0.4314  0.6111  0.0012
  137MPD2    H5 2096   1.472   0.484  10.465  0.0871  0.6032  0.9357
  137MPD2    N1 2097   1.570   0.466   9.995  0.1751 -0.0356  0.1832
  137MPD2    H7 2098   1.612   0.421   9.915 -1.4462 -1.1927 -0.0143
  138TCq2    C1 2099   1.505   0.589   9.985  0.4751  0.4691  0.0554
  138TCq2    O2 2100   1.421   0.637  10.056 -0.3750  0.1659  0.4109
  138TCq2    C2 2101   1.512   0.637   9.846  0.0136 -0.0010 -0.1033
  138TCq2    C3 2102   1.629   0.616   9.779  0.0682 -0.6361  0.1092
  138TCq2    C4 2103   1.647   0.678   9.662 -0.1973  0.2231 -0.9109
  138TCq2    C5 2104   1.560   0.769   9.622 -0.7421  0.2493  0.2830
  138TCq2    C6 2105   1.449   0.798   9.693  0.0066 -0.6169  0.6094
  138TCq2    C7 2106   1.417   0.730   9.808  0.0603 -0.4810 -0.0375
  138TCq2    C8 2107   1.350   0.863   9.614  0.5476 -0.2245 -0.0138
  138TCq2    O4 2108   1.366   0.849   9.492  0.2775 -0.3710  0.6119
  138TCq2    C9 2109   1.769   0.648   9.580 -0.0049 -0.3884 -0.3071
  138TCq2    O5 2110   1.864   0.589   9.640  0.1846  0.9252 -0.1177
  138TCq2    O6 2111   1.766   0.689   9.463  0.2837  0.2347 -0.2572
  138TCq2    H2 2112   1.709   0.557   9.823  1.9776  0.5485 -1.7202
  138TCq2    H3 2113   1.588   0.825   9.533  2.3442 -0.5916  0.7333
  138TCq2    H4 2114   1.327   0.756   9.863 -0.6496 -0.0337 -1.4121
  139TMC2    C1 2115   1.001   3.946  13.285 -0.3934  0.2247 -0.4991
  139TMC2    C2 2116   0.906   3.935  13.195  0.0828  0.2111 -0.2615
  139TMC2    C3 2117   0.810   4.027  13.190 -0.3562  0.0244 -0.2305
  139TMC2    C4 2118   0.997   4.063  13.362  0.2970  0.8598  0.0014
  139TMC2    C5 2119   0.895   4.157  13.350 -0.0544  0.1246 -0.5355
  139TMC2    C6 2120   0.795   4.143  13.264  0.2584 -0.6752 -0.8426
  139TMC2     C 2121   1.081   3.824  13.306  0.8290 -0.3811 -0.2727
  139TMC2     O 2122   1.037   3.722  13.261 -0.0847 -0.3863 -0.5345
  139TMC2     H 2123   0.905   3.845  13.134 -2.5665  0.1586 -0.1156
  139TMC2    H1 2124   1.083   4.075  13.427  1.0125 -1.4971 -0.5235
  139TMC2    H2 2125   0.713   4.214  13.254 -0.5976 -1.4904  0.4059
  139TMC2    C7 2126   0.882   4.266  13.450 -1.2349  0.5434 -0.2862
  139TMC2    C8 2127   0.727   4.014  13.083  0.5187  0.5033 -0.5765
  139TMC2    O1 2128   0.796   4.348  13.421 -0.4314 -0.0310 -0.4556
  139TMC2    O2 2129   0.664   3.911  13.060 -0.1202 -0.3230 -0.1274
  139TMC2    O5 2130   0.725   4.125  13.014 -0.1260 -0.0134  0.5554
  139TMC2    H5 2131   0.797   4.189  13.031 -0.7706  0.7726  0.3362
  140MPD2     C 2132   1.373   3.784  13.526  0.1692  0.1400  0.8753
  140MPD2    C1 2133   1.283   3.742  13.430  0.1495 -0.0822  0.9620
  140MPD2    C2 2134   1.290   3.617  13.375  0.1198  0.0604 -0.2031
  140MPD2    C3 2135   1.382   3.527  13.419 -0.6063  0.0114 -0.1434
  140MPD2    C4 2136   1.459   3.562  13.523  0.8436 -0.6818 -0.7663
  140MPD2    C5 2137   1.452   3.686  13.579  0.8207 -0.5548  0.2048
  140MPD2     H 2138   1.221   3.585  13.299  0.4212 -0.1917 -0.3702
  140MPD2    H1 2139   1.535   3.501  13.570 -2.5657 -1.4320  3.8966
  140MPD2    H2 2140   1.391   3.887  13.554  2.2816  0.4521 -1.5309
  140MPD2    H3 2141   1.526   3.706  13.655  0.0710 -1.6377  1.2068
  140MPD2     N 2142   1.392   3.407  13.352 -0.6967 -0.1484  0.3212
  140MPD2    H5 2143   1.331   3.391  13.272 -0.4822 -0.2526  0.1767
  140MPD2    N1 2144   1.193   3.842  13.383  0.5296 -0.8981 -0.0707
  140MPD2    H7 2145   1.206   3.938  13.412  1.2607 -0.6023 -1.4110
  141TCq2    C1 2146   2.437   0.674  14.356 -0.0491 -0.5656  0.4454
  141TCq2    O2 2147   2.359   0.694  14.261 -0.1417 -0.1006 -0.1317
  141TCq2    C2 2148   2.422   0.758  14.468 -0.3948  0.5121 -0.8682
  141TCq2    C3 2149   2.480   0.706  14.583  0.6934 -0.0190 -0.2899
  141TCq2    C4 2150   2.537   0.791  14.671 -0.8455  0.0957  0.1076
  141TCq2    C5 2151   2.535   0.927  14.661 -0.2991  0.0522  0.0204
  141TCq2    C6 2152   2.486   0.974  14.538  0.1284  0.4533 -0.1489
  141TCq2    C7 2153   2.441   0.894  14.439  0.1896  0.3601  0.3341
  141TCq2    C8 2154   2.544   1.099  14.491 -0.8977 -0.1053  0.1019
  141TCq2    O4 2155   2.495   1.144  14.385  0.0605 -0.0759 -0.0149
  141TCq2    C9 2156   2.590   0.738  14.785 -0.4325  0.0567  1.4844
  141TCq2    O5 2157   2.603   0.612  14.801  0.0741  0.3022  0.4005
  141TCq2    O6 2158   2.647   0.815  14.863  0.3002 -0.5865  0.0799
  141TCq2    H2 2159   2.491   0.601  14.607 -1.1343  0.3629  2.1660
  141TCq2    H3 2160   2.581   0.987  14.739 -0.3192 -1.4314  1.1846
  141TCq2    H4 2161   2.425   0.926  14.337 -0.1509  0.9158  0.5614
  142MPD2     C 2162   4.464   3.400  10.843  0.5534 -0.5114 -0.4878
  142MPD2    C1 2163   4.485   3.290  10.759  0.4216 -0.1396  0.5376
  142MPD2    C2 2164   4.499   3.308  10.620 -0.1429 -0.6181 -0.3354
  142MPD2    C3 2165   4.509   3.429  10.566  0.1744  0.8540 -0.0014
  142MPD2    C4 2166   4.503   3.534  10.656 -0.3462 -0.3397  0.1832
  142MPD2    C5 2167   4.457   3.521  10.787 -0.0922  0.1857  0.1339
  142MPD2     H 2168   4.510   3.224  10.552 -2.0495  0.5333 -2.0322
  142MPD2    H1 2169   4.514   3.638  10.628  1.9613 -0.6000  0.1708
  142MPD2    H2 2170   4.458   3.382  10.949 -0.2733  0.4033 -0.3801
  142MPD2    H3 2171   4.429   3.605  10.849  1.6761  0.6202  0.3444
  142MPD2     N 2172   4.550   3.446  10.427 -0.4829 -0.1713 -0.2973
  142MPD2    H5 2173   4.577   3.541  10.401 -0.9295 -0.4608 -1.8285
  142MPD2    N1 2174   4.478   3.162  10.812  0.5939 -0.6651 -0.9093
  142MPD2    H7 2175   4.435   3.165  10.904  0.3587 -2.1450 -0.9771
  143TCq2    C1 2176   4.547   3.346  10.332  0.6374 -1.1488  0.3504
  143TCq2    O2 2177   4.492   3.237  10.332 -0.0496  0.0420  0.5424
  143TCq2    C2 2178   4.596   3.402  10.210 -0.1119 -0.3764 -0.4516
  143TCq2    C3 2179   4.690   3.499  10.204  0.3746  0.4608  1.0783
  143TCq2    C4 2180   0.012   3.527  10.079 -0.7367 -0.7694  0.0388
  143TCq2    C5 2181   4.691   3.467   9.968 -0.4322  0.0577 -0.5500
  143TCq2    C6 2182   4.587   3.376   9.975 -0.4892 -0.3575 -0.1585
  143TCq2    C7 2183   4.548   3.337  10.099  0.1866  0.0384  0.3246
  143TCq2    C8 2184   4.551   3.294   9.858 -0.0338 -0.0688 -1.4621
  143TCq2    O4 2185   4.577   3.329   9.743 -0.0552  0.8221 -0.4670
  143TCq2    C9 2186   0.107   3.631  10.062 -0.5821 -0.3140 -0.2999
  143TCq2    O5 2187   0.134   3.701  10.169 -0.0520 -0.5056  0.0377
  143TCq2    O6 2188   0.158   3.652   9.950  0.0093 -0.1595  1.1831
  143TCq2    H2 2189   0.016   3.538  10.292 -0.7858  1.5781  1.2405
  143TCq2    H3 2190   0.008   3.498   9.872 -1.1009 -0.4616 -1.0024
  143TCq2    H4 2191   4.469   3.264  10.107 -0.2189  0.6784  2.1605
  144MPD2     C 2192   2.953   3.477   0.612  0.2153  0.2884 -0.3714
  144MPD2    C1 2193   2.989   3.354   0.663 -0.5137  0.2700 -0.2141
  144MPD2    C2 2194   3.062   3.342   0.778  0.3942  0.0725  0.1486
  144MPD2    C3 2195   3.109   3.451   0.841 -0.4948  0.2612  0.2348
  144MPD2    C4 2196   3.074   3.575   0.797 -0.4169  0.2819 -0.3622
  144MPD2    C5 2197   2.993   3.590   0.675 -0.2727  0.3546  0.0673
  144MPD2     H 2198   3.099   3.243   0.801  2.0059  0.8734  1.0389
  144MPD2    H1 2199   3.101   3.664   0.853  1.5768  1.3518 -3.0621
  144MPD2    H2 2200   2.869   3.486   0.544 -0.5253 -0.3483  0.4649
  144MPD2    H3 2201   2.959   3.686   0.638  1.3544 -0.3610 -3.2936
  144MPD2     N 2202   3.198   3.442   0.952  0.3416 -0.0061  0.2865
  144MPD2    H5 2203   3.222   3.532   0.993  1.4679 -0.6874  1.1462
  144MPD2    N1 2204   2.932   3.235   0.605 -0.1146 -0.0005  0.1152
  144MPD2    H7 2205   2.946   3.151   0.661  2.5420  0.8904  0.7603
  145TCq2    C1 2206   3.270   3.329   0.983  0.0462 -0.3849 -0.0557
  145TCq2    O2 2207   3.300   3.236   0.911 -0.0958 -0.4776 -0.1946
  145TCq2    C2 2208   3.345   3.354   1.104 -0.6625 -0.4531 -0.0208
  145TCq2    C3 2209   3.480   3.326   1.101  0.7029 -0.3680 -0.4084
  145TCq2    C4 2210   3.561   3.386   1.195 -0.5090  0.5909  0.0936
  145TCq2    C5 2211   3.506   3.463   1.292 -0.5274 -0.3500 -1.3765
  145TCq2    C6 2212   3.371   3.470   1.303 -0.2520 -0.9175  0.0080
  145TCq2    C7 2213   3.285   3.420   1.208 -0.3469  0.1436 -0.1039
  145TCq2    C8 2214   3.330   3.533   1.429  0.1970  0.2403  0.3582
  145TCq2    O4 2215   3.411   3.515   1.523  0.2397 -0.1919  0.0641
  145TCq2    C9 2216   3.707   3.359   1.202 -0.0786  0.2506  0.2698
  145TCq2    O5 2217   3.757   3.280   1.115  0.5472  0.0301  0.0146
  145TCq2    O6 2218   3.778   3.430   1.275 -0.0445  0.7272 -0.4064
  145TCq2    H2 2219   3.525   3.269   1.020  1.4011 -0.0069 -0.2757
  145TCq2    H3 2220   3.572   3.512   1.363 -3.0432  0.9705  0.0594
  145TCq2    H4 2221   3.178   3.440   1.210 -0.2539  0.9160 -2.4038
  146TMC2    C1 2222   3.545   1.834  13.204  0.6967  1.0830  0.1218
  146TMC2    C2 2223   3.453   1.914  13.142 -0.0189  0.1817 -0.0091
  146TMC2    C3 2224   3.397   1.884  13.019 -0.7195 -0.1566 -0.7648
  146TMC2    C4 2225   3.578   1.714  13.153 -0.0605  0.5798 -1.0444
  146TMC2    C5 2226   3.517   1.684  13.036 -0.2603  0.0447 -0.5044
  146TMC2    C6 2227   3.431   1.765  12.961  0.0074  0.1113  0.3048
  146TMC2     C 2228   3.628   1.900  13.303 -0.2158  0.3296 -0.0137
  146TMC2     O 2229   3.582   1.983  13.378  0.4606 -0.7616 -0.0062
  146TMC2     H 2230   3.425   2.013  13.176  0.1358  0.5979 -1.0875
  146TMC2    H1 2231   3.631   1.637  13.207 -2.7051 -0.5623 -0.0776
  146TMC2    H2 2232   3.423   1.741  12.856  1.2495 -0.2950  0.3019
  146TMC2    C7 2233   3.554   1.562  12.973 -0.0780 -0.2887  0.6111
  146TMC2    C8 2234   3.313   1.987  12.954 -0.3008 -0.0468  0.7930
  146TMC2    O1 2235   3.482   1.530  12.885 -0.1277 -0.2591 -0.4559
  146TMC2    O2 2236   3.290   2.093  13.004  0.8381 -0.8785  0.2771
  146TMC2    O5 2237   3.224   1.921  12.882 -0.1887  0.0679  0.3317
  146TMC2    H5 2238   3.237   1.824  12.874 -2.5568 -0.2079 -0.2306
  147MPD2     C 2239   3.895   1.242  12.771 -0.2738 -0.3206  0.0002
  147MPD2    C1 2240   3.964   1.331  12.853 -0.2972  0.0515  0.5881
  147MPD2    C2 2241   3.892   1.425  12.930  0.4487  0.0552  0.3145
  147MPD2    C3 2242   3.755   1.434  12.907 -0.1919  0.0772  0.2135
  147MPD2    C4 2243   3.691   1.349  12.817  0.0819 -0.8869 -1.5236
  147MPD2    C5 2244   3.762   1.253  12.753  0.2612 -0.1150 -0.7002
  147MPD2     H 2245   3.942   1.496  12.995 -0.3234 -0.6204  1.6300
  147MPD2    H1 2246   3.584   1.354  12.801  0.3255  1.4194 -2.4029
  147MPD2    H2 2247   3.948   1.164  12.716 -1.4281 -3.0731  2.7784
  147MPD2    H3 2248   3.711   1.181  12.690 -0.4314  0.4808 -0.8225
  147MPD2     N 2249   3.688   1.527  12.992  0.1309  0.8911  0.0777
  147MPD2    H5 2250   3.755   1.584  13.042  0.5750  0.2382  0.2288
  147MPD2    N1 2251   4.104   1.321  12.859 -0.9136  0.3796 -0.3779
  147MPD2    H7 2252   4.144   1.243  12.806  1.3792  2.7173 -2.0521
  148MPD2     C 2253   3.982   0.569   9.882  0.2645  0.3110  0.4292
  148MPD2    C1 2254   4.008   0.519   9.999 -0.3005 -0.1375  0.0110
  148MPD2    C2 2255   3.938   0.402  10.032  0.2172  0.7956  0.3495
  148MPD2    C3 2256   3.846   0.339   9.941  0.1569 -0.5104  0.5818
  148MPD2    C4 2257   3.819   0.392   9.821 -0.4416 -0.7925 -0.6475
  148MPD2    C5 2258   3.880   0.510   9.798  0.4674  0.3341 -0.4788
  148MPD2     H 2259   3.961   0.356  10.127  1.4902 -0.9725 -0.8218
  148MPD2    H1 2260   3.749   0.358   9.746  0.2722 -2.3589 -0.5954
  148MPD2    H2 2261   4.030   0.658   9.842  3.2308 -1.3428  0.3078
  148MPD2    H3 2262   3.868   0.556   9.701  0.7638  1.1675 -0.1217
  148MPD2     N 2263   3.797   0.212   9.966 -0.0202  0.5746  0.9044
  148MPD2    H5 2264   3.726   0.184   9.899 -1.0864 -0.4644  2.4689
  148MPD2    N1 2265   4.092   0.577  10.095  0.3585  0.0923  0.1710
  148MPD2    H7 2266   4.071   0.563  10.194  0.6745 -1.0578  0.0810
  149TCq2    C1 2267   4.193   0.670  10.072 -0.3856 -0.1173  0.1251
  149TCq2    O2 2268   4.233   0.727   9.973  0.4286 -0.0799  0.2275
  149TCq2    C2 2269   4.274   0.686  10.191  0.4706  0.3499 -0.6457
  149TCq2    C3 2270   4.290   0.814  10.247 -0.3941  0.0395 -0.1240
  149TCq2    C4 2271   4.313   0.822  10.381  0.3336 -0.6498 -0.1613
  149TCq2    C5 2272   4.314   0.710  10.463 -0.0933  0.4443 -0.4132
  149TCq2    C6 2273   4.296   0.587  10.401 -0.0937 -0.0775  0.4216
  149TCq2    C7 2274   4.271   0.573  10.268 -0.4960  0.5011  0.4851
  149TCq2    C8 2275   4.263   0.472  10.487 -0.3284 -0.0801  0.7342
  149TCq2    O4 2276   4.270   0.360  10.438 -0.2088  0.3258  0.5691
  149TCq2    C9 2277   4.300   0.952  10.446 -0.0127  0.4967 -0.5976
  149TCq2    O5 2278   4.318   1.048  10.367  0.0382  0.8039 -0.0863
  149TCq2    O6 2279   4.239   0.952  10.553  0.3959  1.0404 -0.6528
  149TCq2    H2 2280   4.276   0.908  10.196  2.3139  0.1614 -0.6013
  149TCq2    H3 2281   4.328   0.723  10.570 -2.0543 -1.8159  0.1033
  149TCq2    H4 2282   4.266   0.478  10.217 -1.0936  0.4438  0.6563
  150MPD2     C 2283   1.302   3.914  12.512 -0.3710  0.0062 -0.0806
  150MPD2    C1 2284   1.262   4.043  12.475  0.3277 -0.3527  0.1722
  150MPD2    C2 2285   1.329   4.159  12.528 -0.2016  0.0285 -0.5016
  150MPD2    C3 2286   1.449   4.146  12.585  0.2546  0.5965 -0.0226
  150MPD2    C4 2287   1.481   4.020  12.632 -0.3447 -0.1155 -0.1480
  150MPD2    C5 2288   1.408   3.908  12.599  0.2005  0.0547  0.0904
  150MPD2     H 2289   1.298   4.261  12.507 -1.0811  0.0111  0.7676
  150MPD2    H1 2290   1.570   3.988  12.685  0.5994  0.3084 -1.4702
  150MPD2    H2 2291   1.236   3.835  12.478 -2.0929  2.7553 -3.1669
  150MPD2    H3 2292   1.439   3.814  12.645  0.3202  0.0309 -0.0372
  150MPD2     N 2293   1.534   4.257  12.614  0.4175  0.7101  0.5393
  150MPD2    H5 2294   1.500   4.348  12.584 -0.6461 -0.1445 -0.8735
  150MPD2    N1 2295   1.145   4.046  12.387  0.7010 -0.1147  0.0013
  150MPD2    H7 2296   1.105   3.957  12.360  0.1011  1.0316 -2.8910
  151TCq2    C1 2297   1.652   4.249  12.682  0.5642  0.6732 -0.1227
  151TCq2    O2 2298   1.722   4.158  12.716 -0.0285 -0.0099 -0.2374
  151TCq2    C2 2299   1.716   4.384  12.696 -0.3144 -0.0826  0.3617
  151TCq2    C3 2300   1.642   4.495  12.684  0.6105  0.1882  0.0060
  151TCq2    C4 2301   1.708   4.614  12.685 -0.5751 -0.4077  0.0580
  151TCq2    C5 2302   1.844   4.620  12.705  0.0988 -0.6253 -0.1388
  151TCq2    C6 2303   1.912   4.502  12.708  0.5289  0.3175 -0.9853
  151TCq2    C7 2304   1.852   4.381  12.698 -0.0029  0.3391 -0.0981
  151TCq2    C8 2305   2.058   4.511  12.714 -1.1417  0.0598 -0.1665
  151TCq2    O4 2306   2.115   4.619  12.705 -0.8059 -0.1273 -0.4246
  151TCq2    C9 2307   1.634   0.014  12.668 -0.0932 -0.1121  0.4189
  151TCq2    O5 2308   1.694   0.125  12.656  0.3426  0.1338 -0.4862
  151TCq2    O6 2309   1.517   4.712  12.628 -0.4294  0.8298  0.0374
  151TCq2    H2 2310   1.536   4.503  12.707  0.7685  0.0316  0.7999
  151TCq2    H3 2311   1.892   4.717  12.713  1.0360 -1.1844  1.0043
  151TCq2    H4 2312   1.902   4.286  12.706  1.2641  0.9403 -0.9049
  152MPD2     C 2313   0.997   3.649  12.821 -0.5908 -0.1452  0.7025
  152MPD2    C1 2314   1.006   3.790  12.800 -0.1858  0.5496  0.7298
  152MPD2    C2 2315   0.904   3.848  12.731 -0.1436  0.8798 -0.0261
  152MPD2    C3 2316   0.792   3.781  12.706 -0.2337  0.2976  0.2254
  152MPD2    C4 2317   0.771   3.651  12.743  0.2967 -0.2640 -0.1064
  152MPD2    C5 2318   0.883   3.586  12.792 -0.1615 -0.1899  0.4306
  152MPD2     H 2319   0.910   3.954  12.711 -1.2046  1.1345  1.0012
  152MPD2    H1 2320   0.682   3.596  12.715 -0.2941  0.1866  0.8881
  152MPD2    H2 2321   1.077   3.593  12.867 -0.2668 -1.9051 -2.0004
  152MPD2    H3 2322   0.876   3.479  12.806 -0.4956 -0.4401 -1.6577
  152MPD2     N 2323   0.682   3.853  12.657 -0.0097 -0.0741 -0.3881
  152MPD2    H5 2324   0.702   3.941  12.610 -1.6285  0.4848 -0.0007
  152MPD2    N1 2325   1.120   3.851  12.849  0.7932  0.4611  0.4052
  152MPD2    H7 2326   1.177   3.789  12.906  0.3896 -0.2009  0.0856
  153TCq2    C1 2327   1.155   3.985  12.844  0.4116 -0.5139 -0.1387
  153TCq2    O2 2328   1.104   4.082  12.796  0.1373 -0.2397  0.3460
  153TCq2    C2 2329   1.276   4.014  12.917  0.0422 -0.4438 -0.8506
  153TCq2    C3 2330   1.381   3.929  12.910  0.8152  0.2665 -0.4556
  153TCq2    C4 2331   1.498   3.970  12.962  0.7037  0.1751  0.9240
  153TCq2    C5 2332   1.510   4.092  13.025 -0.3459  0.5531  0.2485
  153TCq2    C6 2333   1.406   4.179  13.023 -0.1990  0.4769  0.2702
  153TCq2    C7 2334   1.285   4.141  12.972 -0.2401  0.0798  0.2375
  153TCq2    C8 2335   1.432   4.317  13.036 -0.1760 -0.2333  0.0592
  153TCq2    O4 2336   1.329   4.387  13.045  0.1900 -0.5304  0.1459
  153TCq2    C9 2337   1.608   3.874  12.974  0.1422  0.0223  0.2538
  153TCq2    O5 2338   1.724   3.924  12.993 -0.1573  0.4627  0.2999
  153TCq2    O6 2339   1.590   3.758  12.937 -0.0642 -0.3754 -0.0170
  153TCq2    H2 2340   1.359   3.829  12.875  0.6647 -0.0004  0.4006
  153TCq2    H3 2341   1.608   4.127  13.055 -0.1398  0.8409 -0.7509
  153TCq2    H4 2342   1.192   4.196  12.980 -1.5291 -1.9765 -0.6664
  154MPD2     C 2343   1.845   4.542  17.654  0.4088 -0.1905 -0.1383
  154MPD2    C1 2344   1.861   4.669   0.006  0.3746  0.4242 -0.4309
  154MPD2    C2 2345   1.869   4.689   0.141  0.4906 -0.0434 -0.5512
  154MPD2    C3 2346   1.875   4.580   0.229  0.4314  0.7062  0.1634
  154MPD2    C4 2347   1.878   4.455   0.175 -1.1059 -0.2490 -0.1029
  154MPD2    C5 2348   1.858   4.431   0.041  0.5548 -0.3526 -0.0606
  154MPD2     H 2349   1.877   0.061   0.190  0.4505  0.2896 -1.1979
  154MPD2    H1 2350   1.900   4.368   0.236 -0.5215  2.1081  3.0718
  154MPD2    H2 2351   1.835   4.530  17.547  2.3779 -0.3589 -0.3074
  154MPD2    H3 2352   1.862   4.332  17.696 -2.1624 -0.9853  1.1131
  154MPD2     N 2353   1.887   4.602   0.367  0.4480 -0.2936  0.4030
  154MPD2    H5 2354   1.875   4.698   0.398 -3.7627 -0.1922 -1.4902
  154MPD2    N1 2355   1.844   0.051  17.606  0.3742 -0.1993  0.2721
  154MPD2    H7 2356   1.831   0.009  17.514 -1.3613  1.6168 -0.3056
  155TCq2    C1 2357   1.853   0.185  17.627 -0.5434 -0.4500 -0.3556
  155TCq2    O2 2358   1.865   0.249   0.030  0.2305 -0.3258 -0.4168
  155TCq2    C2 2359   1.844   0.259  17.504 -0.0584  0.0438 -0.3597
  155TCq2    C3 2360   1.900   0.219  17.384 -0.3465 -0.5353 -0.1044
  155TCq2    C4 2361   1.900   0.300  17.281 -0.4895  0.2414 -0.0354
  155TCq2    C5 2362   1.830   0.415  17.283  0.2673  0.0130  0.4452
  155TCq2    C6 2363   1.779   0.456  17.409  0.1500  0.4738 -0.8979
  155TCq2    C7 2364   1.780   0.378  17.520  0.1790 -1.0309 -0.0228
  155TCq2    C8 2365   1.726   0.592  17.419  0.5108  0.2397 -0.5837
  155TCq2    O4 2366   1.702   0.655  17.322 -0.3177 -0.4534 -0.7602
  155TCq2    C9 2367   1.963   0.256  17.155  0.6567 -0.2912  0.8419
  155TCq2    O5 2368   1.974   0.343  17.065 -0.0587 -0.6690 -0.5146
  155TCq2    O6 2369   2.015   0.140  17.147  0.3822  0.4699 -0.1298
  155TCq2    H2 2370   1.950   0.124  17.374 -0.7719 -0.6948 -0.6904
  155TCq2    H3 2371   1.838   0.475  17.193 -1.4675  2.0507  1.6589
  155TCq2    H4 2372   1.753   0.405  17.621 -2.0955  1.0427 -1.1709
  156MPD2     C 2373   1.858   1.243  11.441 -0.2743  0.2680 -0.3163
  156MPD2    C1 2374   1.845   1.367  11.384  1.3440 -0.1368 -0.1800
  156MPD2    C2 2375   1.850   1.478  11.470  0.8968 -0.2616  1.0801
  156MPD2    C3 2376   1.866   1.467  11.608  0.2572 -0.2247  0.1669
  156MPD2    C4 2377   1.886   1.344  11.659 -0.8013  0.7098  0.0550
  156MPD2    C5 2378   1.879   1.231  11.573  0.5780  0.4937 -0.1717
  156MPD2     H 2379   1.843   1.576  11.424 -0.1729 -0.7335  0.2470
  156MPD2    H1 2380   1.901   1.338  11.766  1.9316  0.1416 -0.3542
  156MPD2    H2 2381   1.858   1.158  11.374  0.0543  0.4260 -0.5185
  156MPD2    H3 2382   1.879   1.129  11.610  0.9712  1.1167  1.5577
  156MPD2     N 2383   1.844   1.579  11.694  0.4827 -1.0766  0.2133
  156MPD2    H5 2384   1.831   1.665  11.642  0.1622 -0.2255  1.7073
  156MPD2    N1 2385   1.816   1.374  11.249 -0.3220  0.5710  0.1135
  156MPD2    H7 2386   1.787   1.285  11.208  0.6451 -0.3772  1.5141
  157TCq2    C1 2387   1.800   1.490  11.172  0.1033 -1.3113  0.1518
  157TCq2    O2 2388   1.815   1.608  11.207  0.5082  0.6516  0.8599
  157TCq2    C2 2389   1.743   1.456  11.043 -0.2394 -0.4516 -0.2031
  157TCq2    C3 2390   1.685   1.335  11.022 -0.3236 -0.8016 -0.3331
  157TCq2    C4 2391   1.555   1.319  10.982  0.2945  0.5845  0.1431
  157TCq2    C5 2392   1.489   1.425  10.934 -0.0109 -0.0779 -0.9406
  157TCq2    C6 2393   1.555   1.551  10.935 -0.2547  0.1851  0.1954
  157TCq2    C7 2394   1.679   1.567  10.995  0.2465 -0.0607  0.8447
  157TCq2    C8 2395   1.475   1.673  10.939 -0.2361  0.0146  0.1848
  157TCq2    O4 2396   1.538   1.776  10.931 -0.0836  0.0883 -0.6803
  157TCq2    C9 2397   1.507   1.179  10.962  0.1269  0.0760  0.2230
  157TCq2    O5 2398   1.404   1.174  10.889 -0.1539  0.0865 -0.2665
  157TCq2    O6 2399   1.528   1.108  11.068 -0.5335 -0.2001 -0.0237
  157TCq2    H2 2400   1.737   1.244  11.052  0.1367  0.0606  1.4750
  157TCq2    H3 2401   1.386   1.419  10.901  0.9085 -0.1192 -3.8006
  157TCq2    H4 2402   1.730   1.662  11.010 -0.0370  0.3947 -1.0348
  158TMC2    C1 2403   1.802   0.781  13.193  0.7112  0.2469 -0.0546
  158TMC2    C2 2404   1.855   0.801  13.069 -0.2088  0.1258 -0.2412
  158TMC2    C3 2405   1.772   0.854  12.978 -0.0619  0.5098 -0.1898
  158TMC2    C4 2406   1.670   0.793  13.222  1.1699 -0.1777  0.2435
  158TMC2    C5 2407   1.586   0.841  13.126 -0.1254 -0.2772  0.6697
  158TMC2    C6 2408   1.639   0.878  13.003 -0.5973 -0.0959  0.7755
  158TMC2     C 2409   1.901   0.755  13.296 -0.3896  0.1343 -0.1107
  158TMC2     O 2410   2.018   0.776  13.273 -0.0730 -0.5741 -0.1249
  158TMC2     H 2411   1.957   0.784  13.035 -0.0520 -0.0616  0.3206
  158TMC2    H1 2412   1.641   0.773  13.325 -0.2631  2.5177  0.3569
  158TMC2    H2 2413   1.573   0.905  12.921 -0.9176 -0.1712  1.0062
  158TMC2    C7 2414   1.443   0.806  13.128  0.2010  0.3701 -0.2594
  158TMC2    C8 2415   1.828   0.887  12.850  0.2763 -0.3798 -0.1317
  158TMC2    O1 2416   1.392   0.849  13.027  0.1192 -0.2250  0.0852
  158TMC2    O2 2417   1.916   0.816  12.801 -0.2240 -0.2051  0.2124
  158TMC2    O5 2418   1.794   1.009  12.811 -0.2290 -0.2418 -0.0581
  158TMC2    H5 2419   1.735   1.052  12.877  0.0021  0.6924 -0.4632
  159MPD2     C 2420   2.040   0.685  13.792  0.2235  0.1154 -0.4680
  159MPD2    C1 2421   1.908   0.682  13.785  0.4953 -0.1390  0.2093
  159MPD2    C2 2422   1.840   0.701  13.664 -0.4379  0.5601  0.8992
  159MPD2    C3 2423   1.914   0.719  13.547 -0.5609 -0.3634 -0.0852
  159MPD2    C4 2424   2.055   0.708  13.559 -0.1384  0.2101  0.1549
  159MPD2    C5 2425   2.114   0.684  13.675 -0.5282  0.0346 -0.3046
  159MPD2     H 2426   1.733   0.711  13.651  0.0005 -0.4266 -3.5381
  159MPD2    H1 2427   2.118   0.708  13.470 -1.1839 -0.1885 -0.5886
  159MPD2    H2 2428   2.089   0.678  13.888  0.0887  0.4408 -0.3742
  159MPD2    H3 2429   2.222   0.674  13.679 -0.6628 -1.5735 -0.4934
  159MPD2     N 2430   1.848   0.724  13.421  0.7959  0.3701  0.2293
  159MPD2    H5 2431   1.747   0.724  13.422  0.8248  1.2530  2.7166
  159MPD2    N1 2432   1.839   0.656  13.906 -0.9230  0.2813  0.2972
  159MPD2    H7 2433   1.893   0.627  13.987  0.5894 -1.0147 -1.1615
  160TMC2    C1 2434   2.372   3.607   1.473  0.5177  0.4561 -0.2499
  160TMC2    C2 2435   2.480   3.531   1.511  1.0197 -0.5096 -0.1157
  160TMC2    C3 2436   2.569   3.487   1.417  0.6734 -0.2428 -0.3580
  160TMC2    C4 2437   2.345   3.627   1.338 -0.3653 -0.4090 -0.7362
  160TMC2    C5 2438   2.439   3.585   1.247  0.6157 -1.0435 -0.4173
  160TMC2    C6 2439   2.548   3.515   1.285 -0.0665 -0.6386 -0.7315
  160TMC2     C 2440   2.261   3.623   1.573 -0.3147  0.0423 -0.3132
  160TMC2     O 2441   2.295   3.615   1.694  0.5017  0.3338 -0.4219
  160TMC2     H 2442   2.506   3.511   1.614 -1.3653  0.9508  0.7606
  160TMC2    H1 2443   2.256   3.681   1.308  0.1475 -0.2080 -1.8933
  160TMC2    H2 2444   2.621   3.474   1.216  1.3618  0.3682  0.2113
  160TMC2    C7 2445   2.412   3.600   1.103  0.2965  0.0106 -0.5524
  160TMC2    C8 2446   2.677   3.403   1.453 -0.3033 -0.3375 -0.4029
  160TMC2    O1 2447   2.458   3.511   1.033  0.3332 -0.0656 -0.0074
  160TMC2    O2 2448   2.680   3.322   1.543 -0.1356 -0.2174 -0.5369
  160TMC2    O5 2449   2.781   3.475   1.401  0.0524 -0.1625 -0.6888
  160TMC2    H5 2450   2.755   3.549   1.342 -0.3888 -0.5268 -0.9466
  161MPD2     C 2451   1.994   3.661   1.719  0.0132 -0.2577  0.3663
  161MPD2    C1 2452   2.017   3.666   1.584  0.1519  0.5492 -0.1157
  161MPD2    C2 2453   1.910   3.686   1.504  0.2640 -0.4179  0.7315
  161MPD2    C3 2454   1.781   3.701   1.549  0.0042 -0.2048  0.5874
  161MPD2    C4 2455   1.767   3.713   1.684  0.2388  0.2074  1.0098
  161MPD2    C5 2456   1.869   3.682   1.769  0.0488  0.1696 -0.3019
  161MPD2     H 2457   1.938   3.705   1.401  0.6168  0.2459  0.9462
  161MPD2    H1 2458   1.667   3.720   1.725 -0.7636 -3.7209 -0.8484
  161MPD2    H2 2459   2.078   3.644   1.785  2.1519 -0.2241 -2.3261
  161MPD2    H3 2460   1.851   3.679   1.876 -0.3870 -1.5506 -0.4289
  161MPD2     N 2461   1.673   3.722   1.458 -0.0376 -0.5347 -0.2207
  161MPD2    H5 2462   1.590   3.761   1.501  2.3699  0.5398  3.4769
  161MPD2    N1 2463   2.139   3.651   1.517  0.2365 -0.5364 -0.9125
  161MPD2    H7 2464   2.131   3.658   1.416  0.4418  2.3989 -0.7159
  162TMC2    C1 2465   0.222   1.069   1.335  0.0120 -0.5134 -0.4020
  162TMC2    C2 2466   0.165   1.171   1.267  0.1164 -0.5002 -0.2031
  162TMC2    C3 2467   0.083   1.248   1.344 -0.0125  0.1809  0.5693
  162TMC2    C4 2468   0.203   1.055   1.473  0.7167 -0.5423  0.0611
  162TMC2    C5 2469   0.109   1.130   1.533 -0.1729  0.0390 -0.3809
  162TMC2    C6 2470   0.038   1.217   1.469 -0.4314  0.3359 -0.0805
  162TMC2     C 2471   0.289   0.974   1.254  1.5146 -0.4589 -0.0705
  162TMC2     O 2472   0.310   1.009   1.141  0.1529  0.2495 -0.0894
  162TMC2     H 2473   0.192   1.194   1.165  0.0249 -0.5169 -0.2307
  162TMC2    H1 2474   0.259   0.982   1.530  2.4004  1.8759  1.4986
  162TMC2    H2 2475   4.713   1.299   1.520 -0.8961  0.8800 -1.4089
  162TMC2    C7 2476   0.044   1.067   1.654 -0.0465 -0.0058  1.1357
  162TMC2    C8 2477   0.036   1.369   1.282  0.1433 -0.3248 -0.2649
  162TMC2    O1 2478   0.068   0.948   1.671 -0.2013  0.2147  0.1240
  162TMC2    O2 2479   4.637   1.382   1.268  0.3078 -0.0165 -0.4578
  162TMC2    O5 2480   0.140   1.417   1.214  0.2138  0.0184  0.1169
  162TMC2    H5 2481   0.216   1.415   1.276 -2.1408 -0.2297  3.0275
  163MPD2     C 2482   0.495   0.498   1.200 -0.9202 -0.0621 -0.1549
  163MPD2    C1 2483   0.464   0.588   1.108  0.5763  0.2861 -0.0076
  163MPD2    C2 2484   0.409   0.713   1.145  0.6580  0.3035 -0.2704
  163MPD2    C3 2485   0.388   0.743   1.278  0.0325  0.6526 -0.1511
  163MPD2    C4 2486   0.407   0.638   1.365  0.5079 -0.5766 -0.2782
  163MPD2    C5 2487   0.469   0.521   1.330  1.2439  0.2954 -0.4788
  163MPD2     H 2488   0.369   0.779   1.069 -0.1666 -0.1120 -0.1967
  163MPD2    H1 2489   0.365   0.638   1.465 -1.7608  1.2156 -1.2288
  163MPD2    H2 2490   0.531   0.399   1.175 -2.0324 -0.6619  0.6151
  163MPD2    H3 2491   0.471   0.436   1.397 -1.0435  0.4912 -0.1291
  163MPD2     N 2492   0.314   0.857   1.323 -0.4873 -0.1843  0.0248
  163MPD2    H5 2493   0.287   0.851   1.421 -1.7182  0.8173 -0.2474
  163MPD2    N1 2494   0.473   0.538   0.972  0.4039  0.2100  0.1469
  163MPD2    H7 2495   0.501   0.440   0.968  1.0063  0.3924 -0.1102
  164TCq2    C1 2496   4.468   4.591  11.075  0.0548 -0.0538  0.5045
  164TCq2    O2 2497   4.379   4.521  11.122  0.4334 -0.1253  0.0858
  164TCq2    C2 2498   4.495   4.721  11.136 -0.4489  0.1165 -0.3018
  164TCq2    C3 2499   4.615   0.057  11.136 -0.1004  0.2763 -0.8233
  164TCq2    C4 2500   4.622   0.177  11.193 -0.3015 -0.0805  0.0949
  164TCq2    C5 2501   4.511   0.247  11.237  0.1709  0.5572  0.0079
  164TCq2    C6 2502   4.398   0.174  11.247 -0.2289 -0.9519 -0.1719
  164TCq2    C7 2503   4.385   0.049  11.202 -0.1469  0.5508  0.6608
  164TCq2    C8 2504   4.273   0.239  11.281  0.1224 -0.3619 -0.0365
  164TCq2    O4 2505   4.276   0.364  11.287 -0.2386 -0.4652  0.5368
  164TCq2    C9 2506   0.021   0.249  11.179  0.0278  0.2132 -0.6602
  164TCq2    O5 2507   0.037   0.342  11.259  0.2299  0.6156  0.2415
  164TCq2    O6 2508   0.123   0.184  11.127  0.4314  0.0578  0.0814
  164TCq2    H2 2509   4.705   0.019  11.089  0.8038 -0.0600  1.1679
  164TCq2    H3 2510   4.518   0.346  11.280  2.3466 -0.0541  1.0562
  164TCq2    H4 2511   4.288   0.001  11.189  1.0776 -2.5700  3.0364
  165MPD2     C 2512   0.819   2.647   2.337  0.4669  0.3489  0.0222
  165MPD2    C1 2513   0.952   2.652   2.353 -0.4762 -0.1626 -0.3441
  165MPD2    C2 2514   1.019   2.775   2.370 -0.4325  0.8454  0.0044
  165MPD2    C3 2515   0.948   2.890   2.372  0.2159  0.3089  0.1166
  165MPD2    C4 2516   0.806   2.880   2.354  0.4272  0.2734  0.0974
  165MPD2    C5 2517   0.745   2.763   2.334  0.5123 -0.2766 -0.1727
  165MPD2     H 2518   1.127   2.779   2.380 -0.3728 -2.0811  0.5405
  165MPD2    H1 2519   0.744   2.967   2.368  1.6792  1.3865 -1.2740
  165MPD2    H2 2520   0.778   2.547   2.329  1.3110  0.0144 -0.1647
  165MPD2    H3 2521   0.637   2.755   2.331  0.5494 -0.6121 -0.6366
  165MPD2     N 2522   1.002   3.020   2.352  0.1251 -0.2839 -0.7480
  165MPD2    H5 2523   0.935   3.096   2.351 -0.4233 -0.7992 -1.9230
  165MPD2    N1 2524   1.022   2.528   2.364 -0.3427  0.0384 -0.5279
  165MPD2    H7 2525   0.954   2.453   2.362 -1.5945  1.1213  0.6626
  166TCq2    C1 2526   1.140   3.051   2.342  0.2669 -0.0131 -0.9653
  166TCq2    O2 2527   1.236   2.977   2.331 -0.3126  0.1175  0.3369
  166TCq2    C2 2528   1.160   3.195   2.321  0.2279  0.0028 -0.2537
  166TCq2    C3 2529   1.064   3.283   2.360 -0.4784  0.4917 -0.3336
  166TCq2    C4 2530   1.073   3.411   2.315  0.4316  0.0116  0.2638
  166TCq2    C5 2531   1.178   3.445   2.233 -0.4598 -0.3230  0.0819
  166TCq2    C6 2532   1.270   3.355   2.193 -0.2343  0.8204  0.3992
  166TCq2    C7 2533   1.269   3.226   2.241  0.0291  0.5943  0.2424
  166TCq2    C8 2534   1.362   3.389   2.090 -0.6359  0.2212  0.2658
  166TCq2    O4 2535   1.479   3.371   2.117  0.4271  0.1634 -0.5085
  166TCq2    C9 2536   0.975   3.510   2.351 -0.3492  0.3397  0.3632
  166TCq2    O5 2537   0.999   3.621   2.305  0.5020  0.1281  0.6263
  166TCq2    O6 2538   0.871   3.473   2.409  0.3263  0.4150  0.4000
  166TCq2    H2 2539   0.983   3.268   2.430  0.8237 -0.7797  0.8962
  166TCq2    H3 2540   1.184   3.548   2.199 -2.4569  0.2312  1.3815
  166TCq2    H4 2541   1.341   3.152   2.208  0.0144  1.1924 -1.0942
  167TMC2    C1 2542   4.399   4.617  13.124 -0.8855  0.2739  0.3265
  167TMC2    C2 2543   4.342   4.693  13.222 -0.0002 -0.0346  0.1975
  167TMC2    C3 2544   4.261   4.624  13.310 -0.5116 -0.0815 -0.2206
  167TMC2    C4 2545   4.372   4.484  13.113  0.2733  0.0915  0.8756
  167TMC2    C5 2546   4.281   4.418  13.189  0.2123  0.2812  0.8494
  167TMC2    C6 2547   4.234   4.492  13.296  0.1954  0.2564  0.4407
  167TMC2     C 2548   4.423   4.675  12.996  0.0091 -0.0539 -0.6113
  167TMC2     O 2549   4.370   4.622  12.897  0.4573 -0.0665  0.0731
  167TMC2     H 2550   4.339   0.077  13.215  0.6632 -0.0743 -0.8185
  167TMC2    H1 2551   4.435   4.430  13.044 -0.4240  0.4538 -0.0407
  167TMC2    H2 2552   4.176   4.447  13.376 -1.4883  0.5061 -0.6514
  167TMC2    C7 2553   4.171   4.354  13.112  0.4123  0.3626 -0.3508
  167TMC2    C8 2554   4.200   4.709  13.410  0.5205 -0.3461 -0.4007
  167TMC2    O1 2555   4.069   4.336  13.178 -0.7088 -0.0603  0.4179
  167TMC2    O2 2556   4.246   0.088  13.449 -0.7084 -0.7475  0.3165
  167TMC2    O5 2557   4.070   4.700  13.378  0.2458  0.3910 -0.0866
  167TMC2    H5 2558   4.038   4.611  13.350 -1.2891  0.7413  0.5186
  168MPD2     C 2559   4.671   0.214  12.921 -0.5064 -0.3888 -0.3151
  168MPD2    C1 2560   4.563   0.134  12.894 -0.8233  0.2398 -0.3659
  168MPD2    C2 2561   4.503   0.138  12.770  0.5157 -0.3240  0.9693
  168MPD2    C3 2562   4.536   0.240  12.684  0.3969  0.6101 -0.3131
  168MPD2    C4 2563   4.648   0.320  12.716  0.0907 -0.1515 -0.6053
  168MPD2    C5 2564   4.720   0.305  12.827 -0.0690 -0.4689  0.3121
  168MPD2     H 2565   4.416   0.080  12.741  1.5527 -1.9048  1.0238
  168MPD2    H1 2566   4.672   0.410  12.660  1.9362  0.4346  1.1618
  168MPD2    H2 2567   4.710   0.226  13.022 -0.0233 -3.2202 -0.1852
  168MPD2    H3 2568   0.087   0.358  12.853  0.6187 -2.1073  1.2582
  168MPD2     N 2569   4.467   0.272  12.563 -0.0933 -0.4677  0.0001
  168MPD2    H5 2570   4.508   0.344  12.503  2.1560  0.3912  2.5576
  168MPD2    N1 2571   4.517   0.047  13.000 -0.0817 -0.3281 -0.1119
  168MPD2    H7 2572   4.563   0.066  13.088  0.9377  2.2624 -1.1962
  169MPD1     C 2573   3.435   2.053   8.881 -0.2596 -0.5579 -0.2366
  169MPD1    C1 2574   3.484   2.184   8.902  0.3718  0.3412 -0.2220
  169MPD1    C2 2575   3.383   2.274   8.941  0.2449 -0.3873  0.2290
  169MPD1    C3 2576   3.249   2.243   8.949  0.3699 -0.8152 -0.3338
  169MPD1    C4 2577   3.208   2.107   8.941  0.5317 -0.0568 -0.3044
  169MPD1    C5 2578   3.302   2.016   8.909 -0.2164  0.8077  0.0296
  169MPD1     H 2579   3.420   2.375   8.957 -2.1889  0.8513 -2.0378
  169MPD1    H1 2580   3.107   2.067   8.937 -0.3318  2.2138 -0.8281
  169MPD1    H2 2581   3.499   1.972   8.847  1.4077  1.1646 -1.2129
  169MPD1    H3 2582   3.262   1.916   8.893 -1.3724  1.4718 -1.2406
  169MPD1     N 2583   3.162   2.351   8.980 -0.6072 -0.1400 -0.2767
  169MPD1    H5 2584   3.206   2.441   8.986 -0.1824 -0.4026  0.5212
  169MPD1    N1 2585   3.620   2.207   8.918 -0.3664 -0.9280  0.0772
  169MPD1    H6 2586   3.649   2.299   8.885  3.7031 -1.2772  2.6916
  169MPD1    H7 2587   3.669   2.135   8.866  0.2349 -0.8199  0.4988
  170MPD1     C 2588   0.421   2.331  12.764  0.1363 -0.3484  0.2671
  170MPD1    C1 2589   0.480   2.450  12.801  0.0471 -0.0508 -0.4192
  170MPD1    C2 2590   0.484   2.476  12.937  0.0641  0.5564  0.3139
  170MPD1    C3 2591   0.438   2.395  13.034 -0.6587 -0.0782 -0.8405
  170MPD1    C4 2592   0.398   2.267  12.996  0.1799  0.0550 -0.0427
  170MPD1    C5 2593   0.390   2.238  12.866 -0.5301 -0.0778  0.3487
  170MPD1     H 2594   0.506   2.576  12.971  0.8983 -0.6049  3.1898
  170MPD1    H1 2595   0.359   2.201  13.072 -2.0179  1.1875 -0.1987
  170MPD1    H2 2596   0.409   2.306  12.659  0.3328  4.2975 -0.8599
  170MPD1    H3 2597   0.347   2.142  12.840  1.6358 -1.3188  1.3588
  170MPD1     N 2598   0.416   2.449  13.163 -0.1080  0.3004  0.0904
  170MPD1    H5 2599   0.436   2.547  13.179  0.2634 -0.2726  3.0627
  170MPD1    N1 2600   0.506   2.556  12.715 -0.1967 -0.7069  0.3572
  170MPD1    H6 2601   0.555   2.515  12.636  1.1527 -0.5597  1.1017
  170MPD1    H7 2602   0.571   2.622  12.758  0.0810 -1.5257  1.1848
  171MPD1     C 2603   4.649   3.740  16.026  0.2629  0.0241  0.6050
  171MPD1    C1 2604   4.651   3.601  16.015  0.5132 -0.2195  0.5693
  171MPD1    C2 2605   4.526   3.547  15.984  0.2771  0.6657 -0.0820
  171MPD1    C3 2606   4.407   3.624  15.974 -0.2848  0.3104 -0.2735
  171MPD1    C4 2607   4.417   3.757  15.985  1.3387  0.3081  0.0338
  171MPD1    C5 2608   4.535   3.815  16.017  0.3201  0.2710 -0.0040
  171MPD1     H 2609   4.527   3.439  15.983  0.2923  0.6479  1.0330
  171MPD1    H1 2610   4.324   3.811  15.976  0.1792 -1.1710  2.9961
  171MPD1    H2 2611   0.014   3.791  16.061  0.2270 -0.1457  0.9472
  171MPD1    H3 2612   4.539   3.922  16.032 -1.2726  0.4875 -1.1326
  171MPD1     N 2613   4.284   3.559  15.948  0.4705 -0.0514  0.2985
  171MPD1    H5 2614   4.203   3.620  15.941  0.8569  0.6492  1.9521
  171MPD1    N1 2615   0.034   3.525  16.051  0.2198  0.0648  0.0703
  171MPD1    H6 2616   0.040   3.435  16.003 -0.6188 -0.3350  0.7014
  171MPD1    H7 2617   0.128   3.564  16.044  0.2502  0.2958  1.8807
  172MPD1     C 2618   3.467   2.711   0.350  0.1571  0.2065 -0.2898
  172MPD1    C1 2619   3.376   2.803   0.300 -0.8914 -0.5143  0.2401
  172MPD1    C2 2620   3.350   2.924   0.366  0.1512  0.1081 -0.2289
  172MPD1    C3 2621   3.409   2.949   0.488 -0.2103 -0.2027 -0.1714
  172MPD1    C4 2622   3.510   2.856   0.532 -0.3705  0.2330  0.0335
  172MPD1    C5 2623   3.529   2.734   0.466  0.0055 -0.5319  0.4742
  172MPD1     H 2624   3.289   3.001   0.321 -0.5657 -1.2971 -1.6509
  172MPD1    H1 2625   3.565   2.866   0.625 -1.6871  1.4271  0.6902
  172MPD1    H2 2626   3.472   2.617   0.296  0.2754  0.6285 -1.0079
  172MPD1    H3 2627   3.604   2.663   0.501  0.5439 -1.0438 -1.7147
  172MPD1     N 2628   3.394   3.063   0.564 -0.1724 -0.6628  0.0003
  172MPD1    H5 2629   3.435   3.056   0.657  0.1428  1.6167  0.0165
  172MPD1    N1 2630   3.311   2.774   0.175  0.1414 -0.0810  0.1654
  172MPD1    H6 2631   3.302   2.672   0.172 -1.3270  0.0137  1.6341
  172MPD1    H7 2632   3.225   2.828   0.172  1.5510  2.1864  0.2635
  173MPD1     C 2633   4.247   2.556  13.145 -0.1423 -0.5016 -0.6002
  173MPD1    C1 2634   4.332   2.446  13.111 -0.3080  0.0410  0.2455
  173MPD1    C2 2635   4.427   2.403  13.201  0.0772 -0.1719 -0.5695
  173MPD1    C3 2636   4.441   2.456  13.327  0.1881 -0.5501 -0.0077
  173MPD1    C4 2637   4.358   2.569  13.356  0.0213 -0.6121 -0.7230
  173MPD1    C5 2638   4.270   2.621  13.260  0.0293 -0.5271 -0.1882
  173MPD1     H 2639   4.497   2.326  13.171 -0.0516  0.1070 -1.5987
  173MPD1    H1 2640   4.355   2.618  13.453  0.0744  1.7197 -1.8866
  173MPD1    H2 2641   4.159   2.586  13.088  1.1446  2.4063 -1.0554
  173MPD1    H3 2642   4.215   2.711  13.287 -0.2205 -0.8743  0.4600
  173MPD1     N 2643   4.527   2.404  13.423 -0.1057 -0.2943 -0.8155
  173MPD1    H5 2644   4.558   2.312  13.393  0.3651 -0.1389 -0.8100
  173MPD1    N1 2645   4.324   2.388  12.986  0.3695  0.2988  0.0854
  173MPD1    H6 2646   4.226   2.363  12.972  1.2264 -3.1897  0.2140
  173MPD1    H7 2647   4.375   2.299  12.983  0.1779  0.2729 -2.9922
  174MPD1     C 2648   0.451   1.708  13.652  0.1149  0.0365  0.4866
  174MPD1    C1 2649   0.340   1.724  13.570  1.3301 -0.3559 -0.3011
  174MPD1    C2 2650   0.265   1.835  13.582 -0.5793  0.2388  0.6394
  174MPD1    C3 2651   0.300   1.935  13.670 -0.0047  0.2015 -0.3163
  174MPD1    C4 2652   0.418   1.920  13.744  0.3498 -0.4294 -0.4495
  174MPD1    C5 2653   0.492   1.810  13.738  0.3183  0.7339  0.2649
  174MPD1     H 2654   0.180   1.838  13.514  1.1099 -1.0694 -1.5336
  174MPD1    H1 2655   0.452   2.004  13.805 -2.8209  0.9115 -0.4992
  174MPD1    H2 2656   0.530   1.636  13.634 -1.1009 -0.9606 -0.8508
  174MPD1    H3 2657   0.585   1.801  13.793  0.8456  1.7566 -0.4605
  174MPD1     N 2658   0.225   2.047  13.680  0.8509  0.1884 -0.8315
  174MPD1    H5 2659   0.261   2.127  13.732 -1.1132  0.4976  0.0516
  174MPD1    N1 2660   0.299   1.624  13.481  0.2943 -0.1502  0.5067
  174MPD1    H6 2661   0.255   1.661  13.397  1.5593  0.8987  0.2991
  174MPD1    H7 2662   0.384   1.574  13.454  0.9570  0.0031  2.3259
  175MPD1     C 2663   2.727   4.644  15.863 -0.4184  0.4125  0.1921
  175MPD1    C1 2664   2.780   4.574  15.756 -0.9950  0.3304 -0.4027
  175MPD1    C2 2665   2.761   4.436  15.757  0.0383  0.2838  0.1372
  175MPD1    C3 2666   2.704   4.373  15.868 -0.8025 -0.6398 -0.5151
  175MPD1    C4 2667   2.648   4.453  15.967  0.3484 -0.0377 -0.1025
  175MPD1    C5 2668   2.647   4.585  15.959  0.0850  0.2478 -0.1790
  175MPD1     H 2669   2.803   4.385  15.671  1.8964 -0.5109  1.5106
  175MPD1    H1 2670   2.626   4.410  16.065 -0.7053  1.7953  0.4659
  175MPD1    H2 2671   2.728   0.028  15.864 -2.0137  0.4407 -0.3213
  175MPD1    H3 2672   2.613   4.647  16.041  0.8165 -0.8931  1.0071
  175MPD1     N 2673   2.708   4.232  15.890 -0.8885  0.0163 -0.1436
  175MPD1    H5 2674   2.656   4.191  15.968  0.7083  0.6430  1.2566
  175MPD1    N1 2675   2.867   4.637  15.664 -0.7270  0.3322  0.7205
  175MPD1    H6 2676   2.885   4.579  15.583  1.7058  2.1039 -0.0188
  175MPD1    H7 2677   2.863   0.012  15.642 -0.4968  0.1029 -0.3402
  176MPD1     C 2678   4.524   0.929   0.662  0.1191 -0.0948 -0.7812
  176MPD1    C1 2679   4.612   1.024   0.718 -0.0084  0.2937  0.0604
  176MPD1    C2 2680   4.629   1.151   0.661  0.5002 -0.1436  1.0214
  176MPD1    C3 2681   4.553   1.176   0.541 -0.4350 -1.0404  0.0608
  176MPD1    C4 2682   4.452   1.087   0.498 -0.0892  0.3836  0.4220
  176MPD1    C5 2683   4.446   0.969   0.562  0.1758  0.3236  0.5601
  176MPD1     H 2684   4.713   1.210   0.694  1.1799 -0.3854 -0.2763
  176MPD1    H1 2685   4.392   1.103   0.410 -0.4990 -2.0837  0.2586
  176MPD1    H2 2686   4.520   0.823   0.686  0.1126  0.0647 -0.0921
  176MPD1    H3 2687   4.381   0.894   0.518 -0.4795  0.2193  1.7130
  176MPD1     N 2688   4.575   1.300   0.482  0.0348  0.3376 -0.1356
  176MPD1    H5 2689   4.634   1.371   0.524  0.3132  0.0624 -0.0606
  176MPD1    N1 2690   4.705   0.984   0.811  0.0957  0.5187 -0.0404
  176MPD1    H6 2691   4.678   0.915   0.882  0.6494  0.1415 -0.1962
  176MPD1    H7 2692   0.021   1.062   0.862  1.7936 -0.4079  0.0207
  177MPD1     C 2693   2.987   4.275  10.659 -0.0713 -0.4907 -0.4898
  177MPD1    C1 2694   2.931   4.245  10.536  0.1572 -0.1031 -0.5499
  177MPD1    C2 2695   2.890   4.348  10.451 -0.0469 -0.3302 -0.4922
  177MPD1    C3 2696   2.910   4.479  10.493 -1.0807 -0.6303 -0.0667
  177MPD1    C4 2697   2.960   4.511  10.614  0.0416  0.6661  0.7520
  177MPD1    C5 2698   2.994   4.408  10.695  0.0177 -0.4206 -0.0654
  177MPD1     H 2699   2.848   4.325  10.354  0.8894 -1.5615 -0.6114
  177MPD1    H1 2700   2.987   4.610  10.648  0.6883  1.3120 -1.6629
  177MPD1    H2 2701   3.034   4.195  10.714 -1.3039 -0.6126  0.3963
  177MPD1    H3 2702   3.043   4.429  10.790 -0.1124  1.4636 -0.4087
  177MPD1     N 2703   2.873   4.569  10.394  0.5922  0.4995  0.0841
  177MPD1    H5 2704   2.836   4.526  10.310 -0.5496  0.0717  0.8105
  177MPD1    N1 2705   2.936   4.112  10.477  0.4865 -0.2250 -0.6725
  177MPD1    H6 2706   2.851   4.100  10.421 -0.6752 -1.2130  1.3109
  177MPD1    H7 2707   2.916   4.048  10.553 -4.6050  0.5275 -1.3308
  178MPD1     C 2708   0.247   1.185   0.541 -0.4972 -0.1659  0.2502
  178MPD1    C1 2709   0.311   1.302   0.575  0.5246 -0.1996  0.1899
  178MPD1    C2 2710   0.372   1.374   0.468 -0.2518 -0.4513 -0.1198
  178MPD1    C3 2711   0.377   1.321   0.338 -0.1313  0.0868  0.2986
  178MPD1    C4 2712   0.326   1.196   0.309  0.0631 -0.2363  0.1908
  178MPD1    C5 2713   0.260   1.136   0.415 -0.2462 -0.0998  0.5213
  178MPD1     H 2714   0.408   1.475   0.484 -2.5681  0.8594 -3.1434
  178MPD1    H1 2715   0.314   1.159   0.208 -0.9755 -0.7065  0.4788
  178MPD1    H2 2716   0.183   1.124   0.604  2.6798 -1.8116  1.9381
  178MPD1    H3 2717   0.195   1.052   0.393  0.9145 -0.7664 -0.3314
  178MPD1     N 2718   0.435   1.386   0.231  0.1554 -0.3795  0.3672
  178MPD1    H5 2719   0.437   1.338   0.142 -2.3203  0.2524 -0.0395
  178MPD1    N1 2720   0.296   1.356   0.703 -0.1267 -0.0298 -0.6813
  178MPD1    H6 2721   0.294   1.288   0.778  1.8668  1.4236  0.6762
  178MPD1    H7 2722   0.375   1.411   0.734 -0.9032  0.1902  0.9097
  179MPD1     C 2723   0.980   3.920  15.567 -0.0083  0.3447  0.0317
  179MPD1    C1 2724   0.941   4.055  15.563  0.2873  0.2211 -0.4227
  179MPD1    C2 2725   0.810   4.088  15.596  0.5518 -0.2207 -0.2671
  179MPD1    C3 2726   0.721   3.991  15.644 -0.4389  0.0489  0.5246
  179MPD1    C4 2727   0.761   3.860  15.648 -0.0871 -0.4971 -0.4030
  179MPD1    C5 2728   0.890   3.826  15.610 -0.9388  0.1452  0.7568
  179MPD1     H 2729   0.778   4.191  15.599  1.7393  0.1904 -1.6563
  179MPD1    H1 2730   0.697   3.779  15.681 -0.9870 -0.1899 -1.4028
  179MPD1    H2 2731   1.078   3.889  15.532  0.3372  0.2502  1.0554
  179MPD1    H3 2732   0.919   3.722  15.606  2.5054  1.0911  1.0002
  179MPD1     N 2733   0.590   4.022  15.689  0.7817 -0.1010 -0.1038
  179MPD1    H5 2734   0.541   3.939  15.723 -0.4053  0.6159 -0.0464
  179MPD1    N1 2735   1.032   4.147  15.499 -0.0945  0.1258  0.1541
  179MPD1    H6 2736   1.121   4.121  15.542 -0.2663 -0.2913  0.2538
  179MPD1    H7 2737   1.016   4.240  15.538  0.2214  0.1210  0.3022
  180MPD1     C 2738   4.559   1.148  15.426  0.1149 -0.2624  0.1401
  180MPD1    C1 2739   4.682   1.155  15.365  0.1995  0.0708 -0.4700
  180MPD1    C2 2740   4.689   1.157  15.229  0.9516  0.7140  0.3518
  180MPD1    C3 2741   4.580   1.123  15.148  0.4754 -0.3218 -0.1829
  180MPD1    C4 2742   4.465   1.102  15.213 -0.9360  0.4234 -0.5549
  180MPD1    C5 2743   4.445   1.128  15.344  0.3270  1.1418 -0.4595
  180MPD1     H 2744   0.062   1.177  15.186  0.9103  1.1105  0.4439
  180MPD1    H1 2745   4.372   1.071  15.168 -0.8117  0.1911 -0.6528
  180MPD1    H2 2746   4.537   1.149  15.532  0.8513 -1.8704  0.2973
  180MPD1    H3 2747   4.343   1.111  15.377  1.2025  0.4235  1.9310
  180MPD1     N 2748   4.589   1.127  15.008  0.1269  0.2930  0.2087
  180MPD1    H5 2749   4.683   1.123  14.969  0.5838 -1.4775  1.4787
  180MPD1    N1 2750   0.062   1.182  15.452  0.1481 -0.5303  0.1810
  180MPD1    H6 2751   0.142   1.128  15.419  0.8243 -0.8887  2.3654
  180MPD1    H7 2752   0.047   1.161  15.551 -1.1037 -2.3201 -0.3810
  181MPD1     C 2753   2.502   1.708   9.024  0.3126  0.0775  0.5797
  181MPD1    C1 2754   2.499   1.836   9.065  0.0934 -0.5743  0.4468
  181MPD1    C2 2755   2.616   1.900   9.109  0.6360 -0.0462 -0.5942
  181MPD1    C3 2756   2.740   1.835   9.104  0.3114 -0.2173  0.1886
  181MPD1    C4 2757   2.738   1.706   9.052 -0.0807  0.8146 -0.3822
  181MPD1    C5 2758   2.622   1.646   9.012  0.0466  0.1268 -0.0877
  181MPD1     H 2759   2.615   2.004   9.139 -2.3903  0.0297 -0.8976
  181MPD1    H1 2760   2.826   1.644   9.046 -0.9574 -0.3302 -1.3267
  181MPD1    H2 2761   2.417   1.651   8.988  0.4910  1.0414 -1.3520
  181MPD1    H3 2762   2.623   1.546   8.972  1.7639  1.2044 -2.7284
  181MPD1     N 2763   2.859   1.882   9.166 -0.5677 -0.0219 -0.0404
  181MPD1    H5 2764   2.938   1.819   9.168 -0.4963  0.1217  1.3553
  181MPD1    N1 2765   2.380   1.907   9.062 -0.4022  0.1581  0.2006
  181MPD1    H6 2766   2.396   2.008   9.067  0.9951 -0.0697  0.2844
  181MPD1    H7 2767   2.335   1.884   8.974  2.6399 -1.7424 -0.8454
  182MPD1     C 2768   2.701   2.458   1.717 -0.3068 -0.3502 -0.0218
  182MPD1    C1 2769   2.764   2.393   1.615 -0.4306 -0.8333  0.5277
  182MPD1    C2 2770   2.717   2.434   1.486 -0.5465 -0.2037 -0.1783
  182MPD1    C3 2771   2.619   2.528   1.462  0.0871 -0.1492 -0.4117
  182MPD1    C4 2772   2.567   2.588   1.572  0.1123  0.1613  0.3198
  182MPD1    C5 2773   2.603   2.544   1.696 -0.3324 -0.8463 -0.0019
  182MPD1     H 2774   2.746   2.388   1.392  1.3688 -2.8515  1.7125
  182MPD1    H1 2775   2.482   2.652   1.557 -0.7092 -1.1294 -0.4611
  182MPD1    H2 2776   2.727   2.442   1.820 -0.0237 -0.3001 -0.0875
  182MPD1    H3 2777   2.554   2.589   1.782 -1.8398 -0.5635 -0.9897
  182MPD1     N 2778   2.571   2.568   1.341 -0.4971  0.5837  0.0730
  182MPD1    H5 2779   2.500   2.640   1.340  0.7131  1.7729  0.3734
  182MPD1    N1 2780   2.868   2.302   1.638  0.1982 -0.1429 -0.3212
  182MPD1    H6 2781   2.870   2.258   1.730  4.5523  1.3614  0.3080
  182MPD1    H7 2782   2.886   2.239   1.559 -0.5294 -0.8792  0.1003
  183MPD1     C 2783   2.950   2.693   9.814  0.0461 -0.1225  0.3300
  183MPD1    C1 2784   3.035   2.766   9.885  1.0564  0.0571  0.1455
  183MPD1    C2 2785   3.171   2.747   9.863 -0.7027 -0.4670 -1.0510
  183MPD1    C3 2786   3.217   2.646   9.782 -0.0258 -0.1030  0.7554
  183MPD1    C4 2787   3.123   2.579   9.710  0.1507 -0.0376 -0.1382
  183MPD1    C5 2788   2.993   2.605   9.722  0.0431  0.8620 -0.3596
  183MPD1     H 2789   3.237   2.817   9.914  0.0657 -1.5341 -0.5901
  183MPD1    H1 2790   3.154   2.498   9.645 -1.4132 -0.4401 -0.3800
  183MPD1    H2 2791   2.844   2.700   9.837 -0.2130  0.7156 -1.1054
  183MPD1    H3 2792   2.932   2.526   9.679 -1.1169 -0.4546  3.6351
  183MPD1     N 2793   3.360   2.638   9.763 -0.6624 -0.1128 -0.1051
  183MPD1    H5 2794   3.412   2.710   9.813 -0.3270  0.2984 -1.0479
  183MPD1    N1 2795   2.993   2.880   9.959  1.2353 -0.5245  0.4735
  183MPD1    H6 2796   2.898   2.876   9.995 -0.4457  0.0832 -3.8109
  183MPD1    H7 2797   3.062   2.905  10.029  0.6923  3.1307 -0.3184
  184MPD1     C 2798   2.418   4.085   9.288  0.3266 -0.2276 -0.2960
  184MPD1    C1 2799   2.297   4.116   9.335  0.5388 -0.0576 -0.2249
  184MPD1    C2 2800   2.277   4.233   9.409  0.7056  1.0781  0.0762
  184MPD1    C3 2801   2.390   4.301   9.457 -0.3739  0.0850 -0.2754
  184MPD1    C4 2802   2.518   4.254   9.422 -0.6382  0.4549  0.5573
  184MPD1    C5 2803   2.527   4.151   9.329 -0.1369  0.1499  0.1390
  184MPD1     H 2804   2.185   4.281   9.442 -0.5980 -2.0195  1.0049
  184MPD1    H1 2805   2.612   4.295   9.456 -0.1739 -1.1481  1.2117
  184MPD1    H2 2806   2.434   4.004   9.218  1.2114  1.0671 -1.5953
  184MPD1    H3 2807   2.626   4.128   9.292  1.2141  0.0839  3.7709
  184MPD1     N 2808   2.388   4.424   9.530  0.2035 -0.3012  0.2070
  184MPD1    H5 2809   2.476   4.475   9.537  2.2233 -3.7601 -0.0518
  184MPD1    N1 2810   2.192   4.045   9.278  0.3359 -0.4243 -0.2872
  184MPD1    H6 2811   2.215   3.948   9.256  1.9270 -0.0250 -0.4605
  184MPD1    H7 2812   2.126   4.038   9.354  0.0037  0.4295 -0.4978
  185MPD1     C 2813   3.086   0.065   9.724  0.6476 -0.1315  0.0552
  185MPD1    C1 2814   3.007   0.173   9.751  0.2933  0.1329 -0.8606
  185MPD1    C2 2815   2.878   0.154   9.771 -0.3115  0.4339  0.2877
  185MPD1    C3 2816   2.822   0.025   9.769 -0.0595  0.4005  0.2546
  185MPD1    C4 2817   2.905   4.641   9.748 -0.2480 -0.8258  0.0178
  185MPD1    C5 2818   3.033   4.662   9.724  0.5561  0.1637  0.0231
  185MPD1     H 2819   2.821   0.246   9.782 -2.5273 -0.8032 -0.8515
  185MPD1    H1 2820   2.862   4.541   9.745  1.4271 -1.5825  0.9413
  185MPD1    H2 2821   3.187   0.073   9.687  0.3047  0.8897 -0.6776
  185MPD1    H3 2822   3.101   4.579   9.706 -0.2166 -0.5626  0.4225
  185MPD1     N 2823   2.683   0.003   9.772  0.1128  0.0706  0.8849
  185MPD1    H5 2824   2.652   4.639   9.732 -2.4718  2.0547 -1.5078
  185MPD1    N1 2825   3.054   0.302   9.741 -0.5324  0.4686 -0.3884
  185MPD1    H6 2826   2.998   0.381   9.770 -0.2668 -0.0916  1.6379
  185MPD1    H7 2827   3.153   0.311   9.765 -0.7052  0.5853  0.2695
  186MPD1     C 2828   0.767   4.280  15.979  0.6214  0.2411  0.0591
  186MPD1    C1 2829   0.886   4.346  16.000 -0.0074  0.8538  0.2082
  186MPD1    C2 2830   0.880   4.471  16.060  0.1746 -0.4534 -0.4901
  186MPD1    C3 2831   0.767   4.519  16.123  0.8950 -0.0763  0.4177
  186MPD1    C4 2832   0.646   4.455  16.091 -0.1948  0.3685  0.9041
  186MPD1    C5 2833   0.651   4.341  16.016  0.3147  0.0139 -0.1849
  186MPD1     H 2834   0.975   4.520  16.077 -0.5898 -0.0255  2.6096
  186MPD1    H1 2835   0.551   4.486  16.133 -1.9976 -2.7386 -0.8540
  186MPD1    H2 2836   0.756   4.187  15.926 -2.1606 -0.2493  1.5161
  186MPD1    H3 2837   0.556   4.295  15.989 -2.3539  2.4649  4.9988
  186MPD1     N 2838   0.768   4.631  16.201 -0.4478 -0.5029 -0.9157
  186MPD1    H5 2839   0.679   4.670  16.232 -0.3342  0.4927 -1.8265
  186MPD1    N1 2840   1.003   4.312  15.937 -0.1102  0.3987 -0.0538
  186MPD1    H6 2841   1.079   4.352  15.991  0.5991 -2.0270  0.7313
  186MPD1    H7 2842   1.032   4.215  15.937  0.1167  0.4665  0.3836
  187MPD1     C 2843   0.066   2.361   0.667  0.9300 -0.1030 -0.1400
  187MPD1    C1 2844   0.084   2.260   0.576 -0.0306 -0.6450 -0.7795
  187MPD1    C2 2845   0.039   2.275   0.448  0.1235  0.2242 -0.0289
  187MPD1    C3 2846   4.686   2.382   0.412  0.3178  0.2810  0.7604
  187MPD1    C4 2847   4.666   2.485   0.505 -0.5039 -0.7708 -0.4211
  187MPD1    C5 2848   0.000   2.471   0.625 -0.1258  0.3994  0.3516
  187MPD1     H 2849   0.045   2.195   0.374  1.8326 -1.4781  1.9475
  187MPD1    H1 2850   4.612   2.573   0.474  2.8095  2.0175  1.7348
  187MPD1    H2 2851   0.103   2.363   0.768  0.4101  2.8758 -0.0145
  187MPD1    H3 2852   4.708   2.558   0.688 -0.0998 -0.4280  1.5018
  187MPD1     N 2853   4.631   2.404   0.284  0.6306 -0.0314 -0.5639
  187MPD1    H5 2854   4.577   2.489   0.273 -1.4807 -1.3171 -0.1532
  187MPD1    N1 2855   0.181   2.161   0.599  0.2953  0.2207  0.1168
  187MPD1    H6 2856   0.201   2.138   0.696 -0.5460 -1.2029 -0.0428
  187MPD1    H7 2857   0.162   2.080   0.540  0.4630 -0.4323  0.9563
  188MPD1     C 2858   0.296   1.391   9.079 -0.1359  0.1240 -0.6364
  188MPD1    C1 2859   0.166   1.440   9.085 -0.2428 -0.2463 -0.2899
  188MPD1    C2 2860   0.074   1.358   9.151  0.0290 -0.8277 -0.4320
  188MPD1    C3 2861   0.108   1.235   9.199 -0.0902 -0.2022  0.4188
  188MPD1    C4 2862   0.237   1.181   9.176 -0.7752 -0.0053  0.7504
  188MPD1    C5 2863   0.333   1.267   9.122 -0.1842 -0.9058  0.3670
  188MPD1     H 2864   4.699   1.401   9.156  1.1617  1.7924 -0.6908
  188MPD1    H1 2865   0.272   1.095   9.232 -1.6054 -1.2400 -0.6232
  188MPD1    H2 2866   0.359   1.439   9.005 -1.8720 -0.0709 -2.2447
  188MPD1    H3 2867   0.437   1.237   9.113  0.2947  0.4064  1.6082
  188MPD1     N 2868   0.018   1.158   9.278 -0.0419  0.2541  0.0147
  188MPD1    H5 2869   0.053   1.077   9.327  1.6677 -0.7659 -2.8667
  188MPD1    N1 2870   0.142   1.577   9.048  0.4344 -0.1403  0.7032
  188MPD1    H6 2871   0.048   1.583   9.009  0.0702 -0.0705  1.5874
  188MPD1    H7 2872   0.207   1.615   8.980 -1.8889 -0.0264 -1.4711
  189MPD1     C 2873   1.297   1.549   0.406 -0.1039 -0.1187  0.3941
  189MPD1    C1 2874   1.348   1.542   0.527  0.3738  0.1495 -0.2460
  189MPD1    C2 2875   1.311   1.645   0.613  0.4144 -0.5691  0.0012
  189MPD1    C3 2876   1.227   1.749   0.573 -0.9635  0.0375 -0.4082
  189MPD1    C4 2877   1.176   1.752   0.442  0.3891 -0.3835 -0.5566
  189MPD1    C5 2878   1.220   1.652   0.369  0.1975  0.7697  0.4510
  189MPD1     H 2879   1.349   1.635   0.714 -1.6240 -0.0698  0.8114
  189MPD1    H1 2880   1.113   1.830   0.400  2.1157  1.6786  0.6843
  189MPD1    H2 2881   1.328   1.478   0.329  0.0705  0.8599 -0.4414
  189MPD1    H3 2882   1.195   1.650   0.263  1.0377 -0.7753  0.2742
  189MPD1     N 2883   1.200   1.854   0.664 -0.0240 -0.2206 -0.0844
  189MPD1    H5 2884   1.244   1.857   0.756  4.0375  1.3121 -2.0431
  189MPD1    N1 2885   1.455   1.455   0.554  0.0615 -0.1226  0.4411
  189MPD1    H6 2886   1.450   1.365   0.507  0.5327  1.0905 -1.9414
  189MPD1    H7 2887   1.465   1.428   0.651  0.4563  1.1615  0.7629
  190MPD1     C 2888   4.275   0.753  15.746  0.3299  0.5473  0.1034
  190MPD1    C1 2889   4.331   0.718  15.863  0.7362  0.1707 -0.5070
  190MPD1    C2 2890   4.459   0.776  15.895  0.6481 -0.3195 -0.2497
  190MPD1    C3 2891   4.524   0.859  15.810  0.2159  0.1520 -1.3081
  190MPD1    C4 2892   4.464   0.901  15.694  0.0822  0.3038  0.3871
  190MPD1    C5 2893   4.340   0.847  15.669 -0.1555 -0.1337 -0.4779
  190MPD1     H 2894   4.508   0.761  15.991 -0.4429 -0.4290  0.2839
  190MPD1    H1 2895   4.515   0.961  15.618 -0.6597 -0.6170 -0.8343
  190MPD1    H2 2896   4.175   0.721  15.717  0.5058  0.3747 -0.3135
  190MPD1    H3 2897   4.297   0.881  15.575 -1.3519 -1.3455 -0.3677
  190MPD1     N 2898   4.658   0.889  15.838  0.1948 -0.8672  0.0701
  190MPD1    H5 2899   4.701   0.835  15.912 -0.0387  0.6549  1.3227
  190MPD1    N1 2900   4.256   0.647  15.959 -0.1354 -0.2759 -0.1531
  190MPD1    H6 2901   4.311   0.577  16.009  0.4041 -1.8296 -2.9412
  190MPD1    H7 2902   4.171   0.607  15.920 -0.6300  1.5094 -0.8983
  191MPD1     C 2903   3.688   2.734  13.151  0.1658 -0.4441 -0.0635
  191MPD1    C1 2904   3.683   2.769  13.014  0.5722 -0.0523  1.1752
  191MPD1    C2 2905   3.689   2.903  12.992  0.4217 -0.1939 -0.2878
  191MPD1    C3 2906   3.691   2.999  13.091 -0.0441 -0.3403  0.3290
  191MPD1    C4 2907   3.682   2.965  13.223 -0.0369  0.0010 -0.4629
  191MPD1    C5 2908   3.682   2.830  13.247 -0.1867 -0.1176 -0.3758
  191MPD1     H 2909   3.695   2.929  12.887 -0.8604  1.9298  0.1661
  191MPD1    H1 2910   3.687   3.046  13.294 -1.2660  0.0105 -0.3922
  191MPD1    H2 2911   3.690   2.630  13.180 -0.1917 -0.3155  0.4270
  191MPD1    H3 2912   3.680   2.791  13.348  0.1919 -0.5684 -0.5411
  191MPD1     N 2913   3.698   3.132  13.043  0.3997  0.0072 -0.6342
  191MPD1    H5 2914   3.701   3.150  12.943  0.7052 -3.5535 -1.2489
  191MPD1    N1 2915   3.702   2.674  12.910 -0.2189 -0.3874 -0.7035
  191MPD1    H6 2916   3.658   2.703  12.823  0.1774  1.0604 -0.4248
  191MPD1    H7 2917   3.656   2.588  12.939  0.8324  0.0580  2.2713
  192MPD1     C 2918   3.621   4.203  13.320  0.9294 -0.4550 -0.5085
  192MPD1    C1 2919   3.615   4.086  13.396  0.2196  0.7649  0.0631
  192MPD1    C2 2920   3.633   3.975  13.325  0.3594 -0.1211 -0.7843
  192MPD1    C3 2921   3.645   3.969  13.186 -0.4832  0.8814  0.4780
  192MPD1    C4 2922   3.638   4.085  13.117 -1.3985 -0.9107 -0.4665
  192MPD1    C5 2923   3.625   4.197  13.187  0.2639 -0.5962 -0.2667
  192MPD1     H 2924   3.652   3.885  13.383 -3.8864 -1.5726 -1.6107
  192MPD1    H1 2925   3.644   4.087  13.009  3.8746 -2.8526 -0.2076
  192MPD1    H2 2926   3.628   4.300  13.366  0.2319 -1.9894  2.8256
  192MPD1    H3 2927   3.616   4.290  13.132 -1.4138 -0.6485 -0.0868
  192MPD1     N 2928   3.667   3.847  13.120  0.1943  0.4258  0.0971
  192MPD1    H5 2929   3.695   3.848  13.022  0.7299  1.6225  0.2619
  192MPD1    N1 2930   3.646   4.087  13.533  0.5748  0.3384 -0.3522
  192MPD1    H6 2931   3.619   3.997  13.571  0.9417  2.3958  4.7188
  192MPD1    H7 2932   3.611   4.167  13.585 -1.9043 -1.4489  0.7281
  193MPD1     C 2933   3.865   2.948  16.934 -0.2352  0.8991  0.4618
  193MPD1    C1 2934   3.874   3.073  16.874  0.4592 -0.1298 -0.6323
  193MPD1    C2 2935   3.963   3.167  16.922  0.6638  0.0848 -0.4825
  193MPD1    C3 2936   4.058   3.129  17.024  0.2090 -0.0956 -0.8667
  193MPD1    C4 2937   4.054   3.001  17.069  0.2225 -0.3361  1.1443
  193MPD1    C5 2938   3.958   2.912  17.024 -1.0225 -0.3403  0.4903
  193MPD1     H 2939   3.972   3.267  16.880 -0.4390  0.2293 -0.3739
  193MPD1    H1 2940   4.118   2.965  17.149  0.8273  0.1489  0.8784
  193MPD1    H2 2941   3.790   2.879  16.896  0.0365  0.4677  0.7102
  193MPD1    H3 2942   3.967   2.808  17.055 -1.6666 -0.6338 -0.3044
  193MPD1     N 2943   4.160   3.209  17.073 -0.0610  0.3421  0.4723
  193MPD1    H5 2944   4.226   3.171  17.140  0.7260  0.4692 -0.2411
  193MPD1    N1 2945   3.772   3.111  16.784 -0.2467  0.3270  0.5255
  193MPD1    H6 2946   3.743   3.036  16.722  1.4771 -0.8334  1.1186
  193MPD1    H7 2947   3.800   3.190  16.727 -2.2799  0.6378 -0.0352
  194MPD1     C 2948   2.010   0.951  16.237  0.1941 -0.4324  0.2277
  194MPD1    C1 2949   1.920   0.866  16.176  0.2228 -0.6404  0.2315
  194MPD1    C2 2950   1.856   0.767  16.256  0.0751  0.0561 -0.3897
  194MPD1    C3 2951   1.874   0.750  16.387 -0.1798  0.8305 -0.3208
  194MPD1    C4 2952   1.952   0.842  16.447  0.4264 -0.4608 -0.2625
  194MPD1    C5 2953   2.024   0.935  16.375 -0.4209  0.6952  0.0058
  194MPD1     H 2954   1.790   0.703  16.198  0.5515  0.4049 -1.3223
  194MPD1    H1 2955   1.971   0.835  16.554  0.3050  0.8902 -0.1480
  194MPD1    H2 2956   2.060   1.033  16.188 -0.5393 -0.3232 -0.3331
  194MPD1    H3 2957   2.094   1.004  16.421  1.0195 -0.0228 -1.0936
  194MPD1     N 2958   1.834   0.633  16.456 -0.2696 -0.0095 -0.0157
  194MPD1    H5 2959   1.833   0.641  16.557  1.2229  0.2596 -0.0235
  194MPD1    N1 2960   1.891   0.882  16.041  0.1074 -0.7734  0.2053
  194MPD1    H6 2961   1.863   0.790  16.006 -0.9318 -1.4571  2.8157
  194MPD1    H7 2962   1.974   0.920  15.996 -1.7718  1.9543 -0.9188
  195MPD1     C 2963   3.621   2.986   1.020  0.2083 -0.5692  0.2219
  195MPD1    C1 2964   3.532   2.922   0.927  0.0653 -0.4189  0.2125
  195MPD1    C2 2965   3.561   2.792   0.889  0.2508  0.1846  0.2558
  195MPD1    C3 2966   3.671   2.727   0.934  0.1844  0.6816  0.6011
  195MPD1    C4 2967   3.748   2.788   1.032 -0.0118 -0.4949 -0.7484
  195MPD1    C5 2968   3.723   2.920   1.078 -0.8555  1.0464 -0.8181
  195MPD1     H 2969   3.501   2.736   0.819 -0.0821  0.9861 -0.0925
  195MPD1    H1 2970   3.835   2.735   1.069 -1.1322 -0.5188  1.8469
  195MPD1    H2 2971   3.601   3.089   1.049  1.4533  0.0527 -1.1309
  195MPD1    H3 2972   3.784   2.976   1.147 -1.9634  0.0411  0.9790
  195MPD1     N 2973   3.709   2.601   0.887 -0.0389  0.0461  0.3957
  195MPD1    H5 2974   3.798   2.563   0.918  0.0912 -1.4327 -1.7912
  195MPD1    N1 2975   3.441   3.005   0.854  0.3987  0.5156 -0.1232
  195MPD1    H6 2976   3.363   2.954   0.815  0.3613 -0.1845  0.8471
  195MPD1    H7 2977   3.404   3.080   0.912 -0.5230 -0.0852  0.0651
  196MPD1     C 2978   3.260   2.022   0.847 -0.4406 -0.5776  0.3158
  196MPD1    C1 2979   3.207   2.140   0.804  0.3569  0.3702 -1.1440
  196MPD1    C2 2980   3.229   2.254   0.875 -1.0698  0.3878 -0.3934
  196MPD1    C3 2981   3.327   2.244   0.979  0.3249  0.1601 -0.4485
  196MPD1    C4 2982   3.384   2.125   1.021  0.5266 -0.5076  0.9738
  196MPD1    C5 2983   3.347   2.017   0.953  0.6062 -0.0027 -0.2364
  196MPD1     H 2984   3.179   2.349   0.862 -1.3583  0.3136  0.1753
  196MPD1    H1 2985   3.450   2.121   1.107  1.7926 -2.0328 -0.0562
  196MPD1    H2 2986   3.244   1.927   0.796 -4.2906  0.7542 -1.0333
  196MPD1    H3 2987   3.384   1.919   0.984 -0.8353 -0.9313 -1.4626
  196MPD1     N 2988   3.362   2.359   1.060 -0.3641  0.6257  0.0873
  196MPD1    H5 2989   3.409   2.348   1.150  0.6268 -1.0932 -0.6272
  196MPD1    N1 2990   3.098   2.136   0.716  0.0239  0.0621 -0.5825
  196MPD1    H6 2991   3.113   2.087   0.628 -1.7434  0.6889 -1.2402
  196MPD1    H7 2992   3.051   2.224   0.693  0.7726  1.2135  2.2980
  197MPD1     C 2993   2.945   3.172  17.672 -0.1807  0.0853 -0.6710
  197MPD1    C1 2994   3.077   3.201  17.690 -0.1104 -0.1715  0.2780
  197MPD1    C2 2995   3.120   3.307  17.614 -0.4142  0.1593  0.6509
  197MPD1    C3 2996   3.051   3.365  17.506 -0.1441 -0.2121  0.6003
  197MPD1    C4 2997   2.920   3.319  17.487  0.6805  0.7989  0.3449
  197MPD1    C5 2998   2.870   3.225  17.572 -0.3460  0.1957  0.4831
  197MPD1     H 2999   3.224   3.330  17.635 -0.2323 -0.6606  0.6494
  197MPD1    H1 3000   2.862   3.357  17.403 -1.3480  0.1593  1.4518
  197MPD1    H2 3001   2.882   3.117   0.043  1.6292 -1.9544 -0.6298
  197MPD1    H3 3002   2.770   3.192  17.547 -0.4560  0.7176  0.2237
  197MPD1     N 3003   3.102   3.469  17.426  0.2445 -0.1183 -0.0503
  197MPD1    H5 3004   3.035   3.501  17.356  1.1762 -0.6391 -1.1865
  197MPD1    N1 3005   3.148   3.159   0.102 -0.3045  0.4478 -0.2160
  197MPD1    H6 3006   3.246   3.141   0.081 -0.7730 -1.4785 -0.7584
  197MPD1    H7 3007   3.110   3.068   0.126 -0.8982  0.2634 -1.8532
  198MPD1     C 3008   1.028   1.564  15.696  0.0309 -0.8857  0.1533
  198MPD1    C1 3009   1.000   1.697  15.681  0.3034  0.5297  0.0260
  198MPD1    C2 3010   0.879   1.741  15.723  0.8622  0.3279  0.4149
  198MPD1    C3 3011   0.786   1.658  15.782 -0.0362  0.4621 -0.3355
  198MPD1    C4 3012   0.823   1.523  15.813  0.1165  0.2666 -0.0260
  198MPD1    C5 3013   0.944   1.480  15.770 -0.1556 -0.0444 -0.9311
  198MPD1     H 3014   0.849   1.843  15.706 -0.9082 -0.1262  0.7916
  198MPD1    H1 3015   0.765   1.454  15.873 -1.3053  1.2484 -0.2653
  198MPD1    H2 3016   1.127   1.535  15.663  0.2283 -1.0871  0.9453
  198MPD1    H3 3017   0.973   1.377  15.784 -1.0327  0.2781  3.1355
  198MPD1     N 3018   0.665   1.718  15.828 -0.1269 -0.2827 -0.6530
  198MPD1    H5 3019   0.654   1.819  15.835  0.5729 -0.3452  1.5403
  198MPD1    N1 3020   1.099   1.784  15.637 -0.0825  0.3685  0.3458
  198MPD1    H6 3021   1.058   1.865  15.590 -2.7525 -0.2204  1.6413
  198MPD1    H7 3022   1.170   1.737  15.582 -0.4251 -0.4991  0.6429
  199MPD1     C 3023   2.873   1.413   9.382  0.6615  0.0853  0.1882
  199MPD1    C1 3024   2.756   1.349   9.355 -0.0753 -0.2393  0.3659
  199MPD1    C2 3025   2.637   1.416   9.329  0.1554 -0.4621  0.6887
  199MPD1    C3 3026   2.632   1.553   9.346  0.4080  0.0259  0.0226
  199MPD1    C4 3027   2.747   1.619   9.384 -0.0644  0.2196  0.1441
  199MPD1    C5 3028   2.861   1.546   9.402  0.1559 -0.1913 -0.5680
  199MPD1     H 3029   2.552   1.357   9.296 -0.4559 -0.4953  2.3223
  199MPD1    H1 3030   2.755   1.726   9.400 -0.3883 -0.0227  1.9164
  199MPD1    H2 3031   2.968   1.364   9.397  0.3589 -0.4140  0.4777
  199MPD1    H3 3032   2.954   1.598   9.423 -0.7898  0.6092  1.6657
  199MPD1     N 3033   2.522   1.639   9.338  0.0418  0.4354  0.2655
  199MPD1    H5 3034   2.531   1.731   9.380 -0.4441  0.4168  0.4134
  199MPD1    N1 3035   2.764   1.211   9.321 -0.1883 -0.5038 -0.9446
  199MPD1    H6 3036   2.828   1.158   9.379 -0.0431  2.8364  1.9498
  199MPD1    H7 3037   2.679   1.159   9.339  0.1958  0.3358  3.2863
  200MPD1     C 3038   0.557   3.153  15.445 -0.6609  0.5041 -0.4128
  200MPD1    C1 3039   0.482   3.240  15.371  0.8057 -0.6866 -0.2591
  200MPD1    C2 3040   0.555   3.323  15.275 -0.0021 -0.3769 -0.3753
  200MPD1    C3 3041   0.683   3.293  15.240 -0.9753  0.7210  0.1183
  200MPD1    C4 3042   0.749   3.188  15.306  1.0732  0.1526 -0.3205
  200MPD1    C5 3043   0.687   3.126  15.412  0.1193 -0.5326 -0.0522
  200MPD1     H 3044   0.500   3.400  15.221 -1.7628  1.0975  3.4587
  200MPD1    H1 3045   0.852   3.179  15.274  0.7834  1.2548 -1.5626
  200MPD1    H2 3046   0.516   3.099  15.530 -0.0880  1.2686  0.3528
  200MPD1    H3 3047   0.740   3.060  15.480  0.6932 -0.2557 -0.2361
  200MPD1     N 3048   0.738   3.374  15.138 -0.0127 -0.8332  0.2486
  200MPD1    H5 3049   0.682   3.454  15.110  1.4940 -0.1427 -0.8386
  200MPD1    N1 3050   0.354   3.268  15.412 -0.2046  1.1180 -0.1012
  200MPD1    H6 3051   0.297   3.291  15.331  1.8255  2.6607 -1.0680
  200MPD1    H7 3052   0.305   3.187  15.452  0.2618  0.6118 -0.5562
  201MPD1     C 3053   2.927   2.823  13.773  0.5587  0.8689 -0.4737
  201MPD1    C1 3054   3.066   2.819  13.769 -0.0913  0.4613 -0.0302
  201MPD1    C2 3055   3.133   2.704  13.724 -0.1155  0.7498 -0.8323
  201MPD1    C3 3056   3.065   2.588  13.703 -0.5983 -0.4947 -0.2438
  201MPD1    C4 3057   2.926   2.589  13.706  0.5435 -0.2672  0.6032
  201MPD1    C5 3058   2.857   2.704  13.743  0.0927 -0.1897 -0.2524
  201MPD1     H 3059   3.240   2.703  13.715 -0.0998 -0.8151 -0.3736
  201MPD1    H1 3060   2.868   2.499  13.688  0.5559 -0.0143 -0.6532
  201MPD1    H2 3061   2.873   2.914  13.798 -0.4340 -0.2931  1.6338
  201MPD1    H3 3062   2.751   2.699  13.764 -0.2467 -1.9083 -2.3728
  201MPD1     N 3063   3.138   2.478  13.655  0.4228 -0.3010 -0.5218
  201MPD1    H5 3064   3.239   2.484  13.647  0.3312  1.7483 -0.0612
  201MPD1    N1 3065   3.127   2.947  13.774 -0.0083 -0.2358  0.2897
  201MPD1    H6 3066   3.224   2.958  13.805 -0.1439 -1.9753  1.2973
  201MPD1    H7 3067   3.077   3.002  13.843  1.9603 -0.1711  1.6530
  202MPD1     C 3068   3.101   1.423   9.105 -0.1601 -0.2254 -0.2836
  202MPD1    C1 3069   3.184   1.530   9.093  0.7242  0.6621 -0.0068
  202MPD1    C2 3070   3.284   1.537   9.188  0.2490 -0.8229 -0.2516
  202MPD1    C3 3071   3.331   1.423   9.262 -0.1658 -0.4219  0.4143
  202MPD1    C4 3072   3.254   1.312   9.249 -0.1689  0.6334  0.1996
  202MPD1    C5 3073   3.133   1.313   9.179  0.6725 -0.7752  0.3130
  202MPD1     H 3074   3.340   1.631   9.193  1.0197 -1.3477  1.0809
  202MPD1    H1 3075   3.290   1.225   9.302  0.4143 -1.3142 -3.3714
  202MPD1    H2 3076   3.016   1.416   9.038 -0.4181 -1.2069  0.1550
  202MPD1    H3 3077   3.072   1.223   9.177 -1.1627  0.4733  0.3475
  202MPD1     N 3078   3.430   1.421   9.356  0.3621  1.0376  0.6039
  202MPD1    H5 3079   3.448   1.326   9.389  0.2659  0.4233 -1.1189
  202MPD1    N1 3080   3.128   1.652   9.040  0.0974  0.6473  0.2938
  202MPD1    H6 3081   3.201   1.717   9.011  2.3466 -2.0417 -0.0350
  202MPD1    H7 3082   3.062   1.639   8.964 -1.7246 -0.1316  1.9934
  203MPD1     C 3083   2.586   3.570  11.999  0.1993 -0.2039  0.2526
  203MPD1    C1 3084   2.628   3.464  11.911 -0.5166  0.2349 -0.1892
  203MPD1    C2 3085   2.582   3.335  11.930  0.5407 -0.2211  0.2187
  203MPD1    C3 3086   2.493   3.309  12.037  0.5882  0.0798  0.6209
  203MPD1    C4 3087   2.442   3.417  12.108 -0.0554  1.1427 -0.5808
  203MPD1    C5 3088   2.487   3.544  12.083  0.3383  0.4485 -1.1014
  203MPD1     H 3089   2.612   3.250  11.870 -2.1504 -1.3375  0.4450
  203MPD1    H1 3090   2.355   3.411  12.173  0.0174 -1.3808 -0.6947
  203MPD1    H2 3091   2.618   3.673  11.994 -0.1905 -0.2427 -2.9732
  203MPD1    H3 3092   2.439   3.626  12.136  2.3798 -0.0598  1.5212
  203MPD1     N 3093   2.454   3.177  12.056  0.2499  0.5409 -0.5779
  203MPD1    H5 3094   2.499   3.110  11.995  0.8216  0.7846 -0.4251
  203MPD1    N1 3095   2.740   3.499  11.824  0.3294  0.6194 -0.1882
  203MPD1    H6 3096   2.729   3.442  11.740  0.7671  0.1867  0.0469
  203MPD1    H7 3097   2.745   3.598  11.802 -2.6431  0.3815 -1.9630
  204MPD1     C 3098   0.800   3.614  16.682 -0.6158 -0.3814 -0.1292
  204MPD1    C1 3099   0.776   3.562  16.808 -0.3445  0.0722 -0.7007
  204MPD1    C2 3100   0.883   3.560  16.895 -0.3848 -0.7095  0.1911
  204MPD1    C3 3101   1.003   3.622  16.859 -0.2252  0.1964  0.5861
  204MPD1    C4 3102   1.017   3.682  16.736  0.4365  0.4638 -0.6828
  204MPD1    C5 3103   0.911   3.683  16.651  0.1743  0.6797 -0.2490
  204MPD1     H 3104   0.877   3.502  16.987 -1.3215  0.2220  0.7261
  204MPD1    H1 3105   1.101   3.743  16.705  0.1210  0.8740 -0.7357
  204MPD1    H2 3106   0.720   3.607  16.609  0.8146 -2.4163 -1.4854
  204MPD1    H3 3107   0.921   3.725  16.551 -0.7566  1.3961 -0.0409
  204MPD1     N 3108   1.104   3.633  16.954 -0.3904 -0.1069  0.7743
  204MPD1    H5 3109   1.088   3.587  17.043  0.6396 -2.0833 -0.0823
  204MPD1    N1 3110   0.656   3.491  16.828  0.2076  0.3135 -0.1062
  204MPD1    H6 3111   0.638   3.476  16.927  0.7885 -0.5505 -0.1353
  204MPD1    H7 3112   0.574   3.546  16.803 -0.1186 -0.7973 -1.4830
  205MPD1     C 3113   1.963   2.704  17.192 -0.6011  0.3999  0.6015
  205MPD1    C1 3114   1.902   2.608  17.274 -0.0030  0.3580 -0.5707
  205MPD1    C2 3115   1.764   2.614  17.298 -0.6319 -0.4091  0.3945
  205MPD1    C3 3116   1.687   2.707  17.227 -0.0278  0.2600 -0.6128
  205MPD1    C4 3117   1.748   2.798  17.145  0.6820 -0.2370  1.1508
  205MPD1    C5 3118   1.882   2.795  17.133 -0.0755 -0.4233  0.6430
  205MPD1     H 3119   1.726   2.535  17.361  0.2245 -0.7827  0.4446
  205MPD1    H1 3120   1.695   2.882  17.101 -0.1826 -1.2165  0.3219
  205MPD1    H2 3121   2.070   2.713  17.177 -1.0297  3.3294 -0.6855
  205MPD1    H3 3122   1.931   2.878  17.082 -2.6413 -0.1756 -1.3747
  205MPD1     N 3123   1.545   2.714  17.224 -0.1458 -0.1451  0.4301
  205MPD1    H5 3124   1.498   2.798  17.192 -0.9127 -0.4800  0.6906
  205MPD1    N1 3125   1.993   2.535  17.349 -0.5374  0.5866 -0.9952
  205MPD1    H6 3126   1.958   2.448  17.389 -2.0517  1.3545 -0.6231
  205MPD1    H7 3127   2.075   2.515  17.293  0.3972  0.4012  0.4448
  206MPD1     C 3128   2.700   1.400  15.239 -0.1236  0.3984  0.1763
  206MPD1    C1 3129   2.775   1.293  15.265 -0.3563  0.3193  0.3474
  206MPD1    C2 3130   2.709   1.175  15.286  0.0782  0.3324 -0.2568
  206MPD1    C3 3131   2.569   1.165  15.286 -0.1694  0.0934  0.3034
  206MPD1    C4 3132   2.498   1.278  15.262  0.0179 -0.2923  0.2423
  206MPD1    C5 3133   2.568   1.388  15.233 -0.7226  0.4049  0.8886
  206MPD1     H 3134   2.770   1.086  15.296  0.8681  0.6699 -2.1295
  206MPD1    H1 3135   2.390   1.278  15.248  0.3103  0.3586 -1.9547
  206MPD1    H2 3136   2.747   1.492  15.208 -0.1988 -0.0825 -1.3527
  206MPD1    H3 3137   2.509   1.473  15.203  0.0052  0.6824  0.2612
  206MPD1     N 3138   2.488   1.047  15.307  0.2802 -0.0843  0.1410
  206MPD1    H5 3139   2.388   1.064  15.315  0.2156 -0.1516 -0.5549
  206MPD1    N1 3140   2.918   1.295  15.259 -0.3264  0.1701  0.1134
  206MPD1    H6 3141   2.965   1.376  15.299 -1.1842  0.5616  0.3409
  206MPD1    H7 3142   2.957   1.208  15.296  0.6571  0.5643 -0.0125
  207MPD1     C 3143   4.136   2.369  10.334  0.3506  0.2831  0.2096
  207MPD1    C1 3144   4.154   2.316  10.459 -0.3770  0.5786  0.4335
  207MPD1    C2 3145   4.208   2.402  10.556  0.1686  0.3388 -0.0734
  207MPD1    C3 3146   4.250   2.527  10.528  0.5251  0.1326  0.4277
  207MPD1    C4 3147   4.216   2.580  10.411  0.3586  0.4075  0.1357
  207MPD1    C5 3148   4.158   2.506  10.316 -0.0927  0.1025  0.5371
  207MPD1     H 3149   4.209   2.371  10.660  0.9289  0.5536 -0.0158
  207MPD1    H1 3150   4.241   2.684  10.392  0.2960  0.6866  1.5767
  207MPD1    H2 3151   4.105   2.315  10.246  1.6096 -0.0641 -0.0216
  207MPD1    H3 3152   4.135   2.547  10.218  1.8538 -0.1230 -0.0080
  207MPD1     N 3153   4.315   2.609  10.629 -0.1184  0.2571 -0.8727
  207MPD1    H5 3154   4.340   2.700  10.590  0.1532 -0.1492 -1.6578
  207MPD1    N1 3155   4.124   2.179  10.483 -0.4879 -0.1453  0.7187
  207MPD1    H6 3156   4.139   2.110  10.410 -2.7457 -0.5001  0.6031
  207MPD1    H7 3157   4.168   2.154  10.572  1.4107  0.7592  0.0269
  208MPD1     C 3158   1.631   1.464  17.650  0.4522 -0.2853  0.1787
  208MPD1    C1 3159   1.527   1.529   0.010 -0.7947 -0.2635 -0.2317
  208MPD1    C2 3160   1.553   1.639   0.087 -0.2413  0.5592 -0.9200
  208MPD1    C3 3161   1.681   1.686   0.092  0.4806  0.0136 -0.3826
  208MPD1    C4 3162   1.786   1.620   0.032 -0.5571 -0.1132  0.3375
  208MPD1    C5 3163   1.759   1.510  17.660  0.1705 -0.5863  0.3147
  208MPD1     H 3164   1.468   1.684   0.137 -1.2084  0.1595 -2.2139
  208MPD1    H1 3165   1.886   1.654   0.052  0.4350 -2.6325 -0.3698
  208MPD1    H2 3166   1.631   1.363  17.611  0.5674 -0.9224  1.8406
  208MPD1    H3 3167   1.846   1.454  17.628  0.5550  1.0099 -1.4129
  208MPD1     N 3168   1.697   1.805   0.171  0.0641  0.0948 -0.8717
  208MPD1    H5 3169   1.611   1.844   0.208  0.8474  1.2637 -0.2837
  208MPD1    N1 3170   1.401   1.465   0.010  0.0280  0.1946 -0.6783
  208MPD1    H6 3171   1.322   1.527   0.024  1.0641  0.8911  2.0067
  208MPD1    H7 3172   1.394   1.415  17.619  0.9729  0.0617 -0.6802
  209MPD1     C 3173   4.321   1.897  12.286 -0.4598  0.0359 -0.3297
  209MPD1    C1 3174   4.250   1.999  12.347  0.0180  0.3764 -0.2168
  209MPD1    C2 3175   4.269   2.123  12.292 -0.7021 -0.1721  0.0812
  209MPD1    C3 3176   4.325   2.148  12.166  0.4442 -0.5798  0.2283
  209MPD1    C4 3177   4.388   2.038  12.109  0.1644 -0.6875  0.4732
  209MPD1    C5 3178   4.394   1.919  12.172 -0.4453 -0.2453 -0.2444
  209MPD1     H 3179   4.229   2.207  12.349 -1.2594  0.2583 -0.9309
  209MPD1    H1 3180   4.420   2.045  12.006 -0.0851  1.3844  0.5495
  209MPD1    H2 3181   4.326   1.798  12.330 -0.8624 -0.4547 -1.3922
  209MPD1    H3 3182   4.451   1.836  12.132  0.1515 -0.7793  1.6751
  209MPD1     N 3183   4.313   2.281  12.114  0.1555 -0.3983  0.7110
  209MPD1    H5 3184   4.261   2.349  12.169 -1.9504 -0.9106 -0.6620
  209MPD1    N1 3185   4.198   1.982  12.480 -0.3889 -0.0004  0.5514
  209MPD1    H6 3186   4.141   1.898  12.491  0.0427 -0.6482 -2.1257
  209MPD1    H7 3187   4.132   2.056  12.498 -0.2850  0.9941 -3.0972
  210MPD1     C 3188   4.156   3.144  12.460  0.1757  0.0386 -0.8003
  210MPD1    C1 3189   4.258   3.056  12.494  0.4121  0.2510  0.7371
  210MPD1    C2 3190   4.296   2.963  12.396 -0.2429  0.2954  0.2996
  210MPD1    C3 3191   4.250   2.965  12.264  0.5949 -1.1175  0.6654
  210MPD1    C4 3192   4.160   3.070  12.230  0.6821  0.2971  0.1688
  210MPD1    C5 3193   4.107   3.151  12.332  0.1697  0.2676 -0.1758
  210MPD1     H 3194   4.357   2.882  12.433 -1.2183 -0.5752 -0.0130
  210MPD1    H1 3195   4.126   3.081  12.128  1.6924  0.2473 -0.1807
  210MPD1    H2 3196   4.116   3.205  12.540 -0.2985  0.4240 -1.3355
  210MPD1    H3 3197   4.043   3.233  12.300 -2.4736 -1.5528  0.4702
  210MPD1     N 3198   4.282   2.868  12.165 -0.4891 -0.3304  0.8879
  210MPD1    H5 3199   4.254   2.890  12.070  2.3726 -1.7973 -0.2995
  210MPD1    N1 3200   4.309   3.060  12.623  0.1393 -0.5582 -0.2905
  210MPD1    H6 3201   4.405   3.027  12.632  0.2887 -0.2241 -0.6721
  210MPD1    H7 3202   4.305   3.153  12.663 -0.8637  0.5369 -2.9235
  211MPD1     C 3203   2.385   2.251  17.425  0.0653  0.3735  0.6593
  211MPD1    C1 3204   2.390   2.227  17.287 -0.3855  0.2763 -0.2308
  211MPD1    C2 3205   2.265   2.221  17.218 -0.7242  0.5718 -0.1323
  211MPD1    C3 3206   2.148   2.232  17.286  0.3305  0.0221  0.1503
  211MPD1    C4 3207   2.150   2.274  17.416 -0.1279 -0.7588 -0.1433
  211MPD1    C5 3208   2.271   2.282  17.479  0.0906 -0.0416 -0.2023
  211MPD1     H 3209   2.270   2.210  17.111  3.1510 -1.2990  0.2155
  211MPD1    H1 3210   2.055   2.300  17.463  1.0531  1.5185  1.0013
  211MPD1    H2 3211   2.476   2.254  17.483 -0.8055  0.5369  2.0126
  211MPD1    H3 3212   2.282   2.316  17.582  2.5101 -2.2468  0.2643
  211MPD1     N 3213   2.030   2.235  17.201  0.3636  0.2779 -0.6702
  211MPD1    H5 3214   2.034   2.217  17.102 -2.8069  2.7008 -1.2401
  211MPD1    N1 3215   2.515   2.196  17.224 -0.2265 -0.9409  0.1301
  211MPD1    H6 3216   2.527   2.236  17.131  0.9577 -0.6863  0.3968
  211MPD1    H7 3217   2.595   2.226  17.278 -0.7662  0.5721  0.0917
  212MPD1     C 3218   1.548   1.124  16.377  0.7402 -0.3099 -0.4637
  212MPD1    C1 3219   1.430   1.172  16.436  0.6501 -0.6092 -0.6423
  212MPD1    C2 3220   1.378   1.098  16.540  0.1469  0.4246 -0.1784
  212MPD1    C3 3221   1.433   0.986  16.591  0.3384 -0.4059 -0.0926
  212MPD1    C4 3222   1.549   0.938  16.528  1.0659  0.1837  0.1893
  212MPD1    C5 3223   1.606   1.009  16.425 -0.0767 -0.5483  0.4265
  212MPD1     H 3224   1.277   1.125  16.570  0.0575  0.2673 -0.3355
  212MPD1    H1 3225   1.603   0.849  16.561  1.6624 -0.0677 -1.4596
  212MPD1    H2 3226   1.596   1.171  16.291  1.3460  0.7469  0.4603
  212MPD1    H3 3227   1.697   0.964  16.388 -0.1694 -1.1243  0.8982
  212MPD1     N 3228   1.372   0.915  16.697 -0.6933 -0.1249 -0.0187
  212MPD1    H5 3229   1.412   0.830  16.735  1.7806  1.2055  0.3289
  212MPD1    N1 3230   1.361   1.287  16.387 -0.3774 -0.2364 -0.1095
  212MPD1    H6 3231   1.299   1.327  16.457 -1.3674 -1.1080 -0.4814
  212MPD1    H7 3232   1.436   1.352  16.364  0.8506 -0.9534  1.8479
  213MPD1     C 3233   4.064   2.410  15.861 -0.6691 -0.2001 -0.8687
  213MPD1    C1 3234   4.190   2.393  15.794  0.6947 -0.2225  0.4577
  213MPD1    C2 3235   4.209   2.269  15.747  0.1546 -0.1462  0.0887
  213MPD1    C3 3236   4.100   2.176  15.729 -0.3197 -0.5296  0.4022
  213MPD1    C4 3237   3.970   2.206  15.784  0.5887 -0.7054  0.4500
  213MPD1    C5 3238   3.960   2.322  15.848  0.4334 -0.0244  0.5445
  213MPD1     H 3239   4.310   2.250  15.715  0.8986  2.3613  0.9070
  213MPD1    H1 3240   3.881   2.147  15.765 -0.3746  1.1377 -0.8622
  213MPD1    H2 3241   4.037   2.505  15.904  0.5675  0.0150 -0.5706
  213MPD1    H3 3242   3.861   2.346  15.884  0.8105  0.8082  1.0146
  213MPD1     N 3243   4.122   2.066  15.645  0.2352  0.5045 -0.0914
  213MPD1    H5 3244   4.208   2.073  15.592  0.0126 -1.3512 -0.7063
  213MPD1    N1 3245   4.300   2.474  15.808 -0.0633  0.5109  0.3917
  213MPD1    H6 3246   4.344   2.455  15.718 -3.2937  3.1237 -1.7495
  213MPD1    H7 3247   4.277   2.573  15.817 -0.7862  0.3877 -0.1426
  214MPD1     C 3248   3.744   1.275  14.952 -0.1287 -0.1301 -0.6648
  214MPD1    C1 3249   3.724   1.292  15.087 -0.5815 -0.3297 -0.0410
  214MPD1    C2 3250   3.791   1.394  15.163 -0.6068 -0.6558 -0.6845
  214MPD1    C3 3251   3.883   1.474  15.099 -0.0976 -0.2592  0.3862
  214MPD1    C4 3252   3.904   1.454  14.968  0.1223 -0.5228  0.1980
  214MPD1    C5 3253   3.839   1.354  14.891 -0.2487  0.0439  0.2361
  214MPD1     H 3254   3.778   1.410  15.269  0.2396  1.8982 -0.9751
  214MPD1    H1 3255   3.973   1.524  14.921  0.3961 -0.3095  0.9184
  214MPD1    H2 3256   3.691   1.198  14.897  1.0006 -0.8894 -0.6757
  214MPD1    H3 3257   3.856   1.354  14.784 -1.5356  0.4567  0.0289
  214MPD1     N 3258   3.940   1.584  15.163 -0.1572 -0.1478  0.4089
  214MPD1    H5 3259   4.003   1.639  15.105 -0.1463  0.2283  0.7785
  214MPD1    N1 3260   3.622   1.214  15.151 -0.4614  0.0157  0.0696
  214MPD1    H6 3261   3.600   1.120  15.121  3.3166 -0.1279 -2.3703
  214MPD1    H7 3262   3.632   1.211  15.252 -1.3167  0.3742  0.1608
  215MPD1     C 3263   3.995   1.767  10.741 -0.8167 -0.1030 -0.4366
  215MPD1    C1 3264   4.093   1.775  10.833 -0.0734 -0.4557  0.0250
  215MPD1    C2 3265   4.109   1.891  10.898  0.0891 -0.0518  0.2692
  215MPD1    C3 3266   4.035   2.001  10.860  0.4273  0.3430  0.6290
  215MPD1    C4 3267   3.947   1.994  10.757  0.2507  0.7692 -0.2660
  215MPD1    C5 3268   3.933   1.876  10.697 -0.0684 -0.3938  0.6950
  215MPD1     H 3269   4.183   1.894  10.978  0.8824  0.0994 -0.4731
  215MPD1    H1 3270   3.882   2.072  10.720  0.1795  1.5476  1.5414
  215MPD1    H2 3271   3.966   1.671  10.701 -1.3643  0.1675 -0.6813
  215MPD1    H3 3272   3.855   1.867  10.622 -1.6437  1.0912  2.1257
  215MPD1     N 3273   4.059   2.124  10.928 -0.4650 -0.2898 -0.1348
  215MPD1    H5 3274   4.128   2.126  11.002  1.2065 -1.8748 -1.6364
  215MPD1    N1 3275   4.152   1.657  10.881  0.3014 -0.2398 -0.1888
  215MPD1    H6 3276   4.160   1.575  10.821 -0.5305 -0.3307 -0.1669
  215MPD1    H7 3277   4.229   1.675  10.945 -0.8725 -1.6707  1.6123
  216MPD1     C 3278   1.228   4.120  15.972  0.2302  0.0294  0.1270
  216MPD1    C1 3279   1.120   4.042  16.008 -0.0092  0.4092  0.1624
  216MPD1    C2 3280   1.100   4.014  16.143 -0.1187  0.0641  0.1769
  216MPD1    C3 3281   1.191   4.063  16.234 -0.2801 -0.3949 -0.2376
  216MPD1    C4 3282   1.298   4.146  16.200 -0.6400  0.1961  0.4880
  216MPD1    C5 3283   1.311   4.177  16.063  0.8026 -1.1562  0.5026
  216MPD1     H 3284   1.014   3.960  16.181  0.3782  0.1132  1.3708
  216MPD1    H1 3285   1.362   4.189  16.277 -0.9427  0.4326  0.6057
  216MPD1    H2 3286   1.231   4.158  15.871 -2.0215 -2.0946 -0.7644
  216MPD1    H3 3287   1.390   4.242  16.029 -1.0860  0.6787 -0.4172
  216MPD1     N 3288   1.154   4.027  16.367  0.0576  0.6340 -0.5629
  216MPD1    H5 3289   1.078   3.961  16.381  0.7824 -0.4702 -1.7979
  216MPD1    N1 3290   1.023   4.020  15.915  0.0862  0.2255  0.2441
  216MPD1    H6 3291   0.950   3.952  15.938  0.4163 -0.9999 -2.2695
  216MPD1    H7 3292   1.058   3.996  15.822  1.1532 -1.4080  1.0693
  217MPD1     C 3293   3.012   2.089   9.611 -0.2691 -0.0293  0.3686
  217MPD1    C1 3294   2.885   2.140   9.597 -0.5813 -0.0736  0.7582
  217MPD1    C2 3295   2.773   2.062   9.621  0.2540  0.5104 -0.0086
  217MPD1    C3 3296   2.791   1.926   9.659 -0.5291  0.6349 -0.9806
  217MPD1    C4 3297   2.922   1.879   9.657  0.4174 -0.2555  0.4514
  217MPD1    C5 3298   3.027   1.952   9.623 -0.4396 -0.2174 -0.6181
  217MPD1     H 3299   2.678   2.113   9.631  0.5277  0.8578  0.7983
  217MPD1    H1 3300   2.936   1.773   9.673 -0.3145 -0.5836 -1.1495
  217MPD1    H2 3301   3.093   2.158   9.589 -0.6224 -0.0912 -1.1764
  217MPD1    H3 3302   3.124   1.905   9.618 -0.9732 -1.4252  0.3004
  217MPD1     N 3303   2.679   1.848   9.705  0.4655 -0.1183 -0.3597
  217MPD1    H5 3304   2.697   1.752   9.735  0.9200 -0.0157 -0.3023
  217MPD1    N1 3305   2.881   2.284   9.581  0.8335  0.3003  0.3330
  217MPD1    H6 3306   2.790   2.312   9.547  1.8809  2.4247 -0.7053
  217MPD1    H7 3307   2.963   2.318   9.530  0.0554  0.1579 -1.0056
  218MPD1     C 3308   3.235   3.613  14.068 -0.8901 -1.0370  0.2544
  218MPD1    C1 3309   3.215   3.644  13.937 -0.7153 -0.3616  0.1273
  218MPD1    C2 3310   3.253   3.552  13.849 -0.3812 -0.2301  0.3391
  218MPD1    C3 3311   3.302   3.428  13.884  0.6480  0.1554  0.1599
  218MPD1    C4 3312   3.330   3.398  14.018  0.2198 -0.5415  0.5184
  218MPD1    C5 3313   3.296   3.493  14.106 -1.2200  0.6575  0.6569
  218MPD1     H 3314   3.236   3.581  13.746 -0.5946  2.8434  1.2419
  218MPD1    H1 3315   3.386   3.313  14.056 -1.3850 -0.0485  4.0134
  218MPD1    H2 3316   3.205   3.691  14.137  0.0375  0.1882 -0.7324
  218MPD1    H3 3317   3.323   3.473  14.209 -0.7179 -0.1041  0.3810
  218MPD1     N 3318   3.321   3.331  13.776  0.3267 -0.6278  0.2419
  218MPD1    H5 3319   3.307   3.365  13.681  1.6880 -0.3650  0.1413
  218MPD1    N1 3320   3.143   3.760  13.906  0.4750 -0.2827 -0.2510
  218MPD1    H6 3321   3.142   3.775  13.805 -0.4536  0.1358 -0.1813
  218MPD1    H7 3322   3.043   3.760  13.927  0.5101  0.8627 -0.0962
  219MPD1     C 3323   3.264   3.394  12.802 -1.0124  0.2736  0.5209
  219MPD1    C1 3324   3.299   3.476  12.906  1.2504 -1.6390 -0.6155
  219MPD1    C2 3325   3.310   3.420  13.025 -0.2533  0.1205  0.0448
  219MPD1    C3 3326   3.313   3.280  13.049 -0.1536 -0.8497  0.5493
  219MPD1    C4 3327   3.302   3.201  12.939  0.7593 -0.1666  0.1345
  219MPD1    C5 3328   3.273   3.257  12.817  0.2893  0.0178  0.2847
  219MPD1     H 3329   3.317   3.487  13.110  0.6617 -1.7262  1.4496
  219MPD1    H1 3330   3.306   3.093  12.936  0.9027 -0.1043 -2.1565
  219MPD1    H2 3331   3.241   3.438  12.705  1.4691 -0.9827 -0.6473
  219MPD1    H3 3332   3.245   3.194  12.733 -0.4761  3.1317 -1.7722
  219MPD1     N 3333   3.310   3.216  13.176 -0.4700  0.6436 -0.3588
  219MPD1    H5 3334   3.305   3.114  13.177 -1.5765  0.7188  2.3665
  219MPD1    N1 3335   3.277   3.612  12.889 -0.3915 -0.0202 -0.2085
  219MPD1    H6 3336   3.271   3.650  12.795  0.6333 -1.2862 -0.7685
  219MPD1    H7 3337   3.313   3.676  12.960 -1.4551 -0.3162  0.5991
  220MPD1     C 3338   3.848   3.700   9.818  0.1463  0.7885  0.0714
  220MPD1    C1 3339   3.861   3.678   9.950  0.1447 -0.5605  0.0495
  220MPD1    C2 3340   3.853   3.552  10.003 -0.4146 -0.0946  0.3238
  220MPD1    C3 3341   3.808   3.444   9.925 -0.1844 -0.7119  0.1016
  220MPD1    C4 3342   3.774   3.470   9.787  0.1950  0.1864 -0.9109
  220MPD1    C5 3343   3.799   3.599   9.738 -0.2068  0.5152 -0.1673
  220MPD1     H 3344   3.880   3.533  10.106 -0.1638 -5.2166 -0.6929
  220MPD1    H1 3345   3.730   3.401   9.716 -0.4621 -0.1743 -0.1478
  220MPD1    H2 3346   3.862   3.801   9.782  1.2369  1.3194  1.9943
  220MPD1    H3 3347   3.780   3.621   9.634 -1.3997  0.7606  0.1033
  220MPD1     N 3348   3.801   3.321   9.979 -0.3173  0.0516 -0.2666
  220MPD1    H5 3349   3.830   3.316  10.076 -1.0978  1.4090  0.0384
  220MPD1    N1 3350   3.905   3.782  10.039  0.1168 -0.2772 -0.3502
  220MPD1    H6 3351   3.869   3.872  10.007 -1.0175 -0.9739 -1.0608
  220MPD1    H7 3352   3.878   3.778  10.137  0.6104  0.4654 -0.1852
  221MPD1     C 3353   1.207   1.850  17.029  0.0541  0.1697  0.4702
  221MPD1    C1 3354   1.302   1.905  17.119 -0.3093  0.2758 -0.0771
  221MPD1    C2 3355   1.434   1.882  17.077  0.2552  0.1235 -0.1768
  221MPD1    C3 3356   1.482   1.827  16.961 -0.0251 -0.0798 -0.1532
  221MPD1    C4 3357   1.386   1.776  16.874 -0.5989 -0.2995  0.0044
  221MPD1    C5 3358   1.258   1.787  16.918 -0.0241 -0.2322 -0.3211
  221MPD1     H 3359   1.505   1.918  17.151 -0.1318  1.2094 -0.3350
  221MPD1    H1 3360   1.407   1.710  16.791  1.2109  3.0081 -2.1460
  221MPD1    H2 3361   1.102   1.851  17.054 -0.3061 -1.1118 -0.9493
  221MPD1    H3 3362   1.184   1.734  16.859 -0.2049  2.3289 -2.4157
  221MPD1     N 3363   1.618   1.824  16.927  0.1645  0.1814  0.0183
  221MPD1    H5 3364   1.640   1.795  16.833  0.2794  0.7733 -0.1405
  221MPD1    N1 3365   1.256   1.935  17.251 -0.6262 -0.7857 -0.1862
  221MPD1    H6 3366   1.320   1.986  17.312  0.4402 -0.6472 -1.4166
  221MPD1    H7 3367   1.171   1.991  17.259 -0.3008 -0.3486  0.2373
  222MPD1     C 3368   1.656   0.951  16.902 -0.3240  0.2390 -0.2602
  222MPD1    C1 3369   1.628   1.059  16.986  0.4899  0.2717  0.2802
  222MPD1    C2 3370   1.566   1.042  17.108 -0.9713 -0.3038  0.4677
  222MPD1    C3 3371   1.536   0.915  17.156  0.3041  0.2135 -0.3267
  222MPD1    C4 3372   1.572   0.812  17.073  0.0442 -0.0777  0.2421
  222MPD1    C5 3373   1.635   0.831  16.957 -0.0895 -0.0016 -0.7768
  222MPD1     H 3374   1.546   1.128  17.171  1.8003  0.0836  0.8425
  222MPD1    H1 3375   1.555   0.711  17.106 -0.7215  0.0506  0.2330
  222MPD1    H2 3376   1.707   0.963  16.807 -0.5671 -2.7368 -0.7745
  222MPD1    H3 3377   1.659   0.745  16.896 -1.8506 -0.7836 -0.3831
  222MPD1     N 3378   1.482   0.894  17.286 -0.4253  0.2178 -0.1470
  222MPD1    H5 3379   1.488   0.800  17.323 -0.6008  0.6236  0.9077
  222MPD1    N1 3380   1.653   1.192  16.934 -0.1457 -0.0734 -0.1383
  222MPD1    H6 3381   1.723   1.176  16.861 -0.0714 -1.5412  0.2680
  222MPD1    H7 3382   1.696   1.248  17.007  1.9266  0.3231 -1.6450
  223MPD1     C 3383   1.579   0.289   0.318  0.2090  0.0203 -0.9788
  223MPD1    C1 3384   1.553   0.407   0.383 -1.1149 -0.1424 -0.3091
  223MPD1    C2 3385   1.518   0.514   0.310  0.2660 -0.0008  0.1809
  223MPD1    C3 3386   1.491   0.509   0.173  0.4915 -0.0194  0.4387
  223MPD1    C4 3387   1.533   0.394   0.109 -0.6626 -0.6042  0.0867
  223MPD1    C5 3388   1.570   0.279   0.184  0.4032  0.0501  0.5026
  223MPD1     H 3389   1.492   0.597   0.374  0.5070 -1.1517  1.7771
  223MPD1    H1 3390   1.529   0.388   0.000  0.3046  0.3508 -0.0026
  223MPD1    H2 3391   1.626   0.211   0.377  0.5934 -0.1629 -1.5286
  223MPD1    H3 3392   1.601   0.194   0.124  2.8478  1.0492  0.3526
  223MPD1     N 3393   1.440   0.623   0.108  0.3090  0.4367 -0.1362
  223MPD1    H5 3394   1.414   0.697   0.172 -0.0272  0.3244 -0.1468
  223MPD1    N1 3395   1.598   0.424   0.515 -0.3099  0.2543 -0.5145
  223MPD1    H6 3396   1.581   0.513   0.562  0.0156 -1.2685  2.4762
  223MPD1    H7 3397   1.612   0.340   0.571  3.1798 -0.5398 -2.5721
  224MPD1     C 3398   4.061   1.566  10.444  0.3927 -0.3719 -0.2931
  224MPD1    C1 3399   3.991   1.451  10.468 -0.3593  0.4755 -0.0835
  224MPD1    C2 3400   3.894   1.414  10.377  0.1297 -0.1268 -0.0342
  224MPD1    C3 3401   3.845   1.500  10.281 -0.8605 -0.1322  0.9809
  224MPD1    C4 3402   3.905   1.626  10.281 -0.0030 -0.2405  0.7031
  224MPD1    C5 3403   4.011   1.663  10.358 -0.6013 -0.0511 -0.1263
  224MPD1     H 3404   3.842   1.322  10.400  0.5563 -0.1688  0.7813
  224MPD1    H1 3405   3.871   1.700  10.210  0.3774 -1.8452 -1.1388
  224MPD1    H2 3406   4.151   1.589  10.501  0.1968 -0.0237 -0.1209
  224MPD1    H3 3407   4.067   1.753  10.335 -1.3612  0.1691 -1.0929
  224MPD1     N 3408   3.736   1.474  10.198 -0.5074 -0.2248  0.6171
  224MPD1    H5 3409   3.695   1.550  10.144 -0.8992 -1.5104 -0.9160
  224MPD1    N1 3410   4.041   1.352  10.549 -0.4701  0.2093 -0.0600
  224MPD1    H6 3411   4.074   1.399  10.633 -1.1545  1.7277 -0.6407
  224MPD1    H7 3412   3.962   1.297  10.584 -1.1711 -0.3365 -2.5488
  225MPD1     C 3413   2.873   2.590  13.303 -0.2135  1.1387  0.2442
  225MPD1    C1 3414   2.841   2.724  13.286  0.0377  0.6134 -0.1181
  225MPD1    C2 3415   2.868   2.782  13.168  0.0215  0.7381 -0.8961
  225MPD1    C3 3416   2.912   2.702  13.057  0.2586  0.0304  0.1463
  225MPD1    C4 3417   2.932   2.566  13.078 -0.2736 -0.5903  0.0183
  225MPD1    C5 3418   2.917   2.513  13.200 -0.0588  0.0852  0.4097
  225MPD1     H 3419   2.853   2.889  13.169  3.0882  1.1423  0.7705
  225MPD1    H1 3420   2.978   2.506  13.000 -3.0783 -1.3006 -1.0931
  225MPD1    H2 3421   2.870   2.546  13.402  2.4641  2.5169  0.9260
  225MPD1    H3 3422   2.943   2.410  13.221  2.8009  0.9735  1.2484
  225MPD1     N 3423   2.952   2.752  12.927  0.5130  0.3579  0.3881
  225MPD1    H5 3424   2.952   2.679  12.856 -0.6810  1.1170 -0.3731
  225MPD1    N1 3425   2.804   2.811  13.395 -0.5804  0.0519 -0.0316
  225MPD1    H6 3426   2.732   2.873  13.359  0.1038  1.1163  0.4395
  225MPD1    H7 3427   2.766   2.748  13.465 -2.5678  1.6335  0.3065
  226MPD1     C 3428   0.078   4.065   9.741  0.3024  0.4254  0.7298
  226MPD1    C1 3429   0.032   3.997   9.858  0.8290 -0.4727 -0.5845
  226MPD1    C2 3430   4.661   3.896   9.855 -0.0710  0.0101 -0.3098
  226MPD1    C3 3431   4.596   3.871   9.737  0.0775  0.0684  0.0108
  226MPD1    C4 3432   4.649   3.926   9.620 -0.2187 -0.2238 -0.0902
  226MPD1    C5 3433   0.023   4.028   9.623  0.3717 -0.3611  1.0695
  226MPD1     H 3434   4.623   3.863   9.951 -0.0328  0.7392 -0.0441
  226MPD1    H1 3435   4.607   3.903   9.523  1.2013  0.1636 -0.7975
  226MPD1    H2 3436   0.155   4.142   9.741 -0.1305  0.8651 -1.2349
  226MPD1    H3 3437   0.056   4.063   9.526 -2.1067  0.4739  0.5220
  226MPD1     N 3438   4.497   3.773   9.741  0.3756  0.9129  0.4114
  226MPD1    H5 3439   4.482   3.731   9.832 -0.9330  1.6419  0.5245
  226MPD1    N1 3440   0.103   4.019   9.978  0.0340 -0.2276 -0.6397
  226MPD1    H6 3441   0.147   4.110   9.992  0.8853 -0.8716  0.8828
  226MPD1    H7 3442   0.037   4.009  10.055 -1.0687  1.0392 -1.4171
  227MPD1     C 3443   4.050   3.535  10.458  0.6469  0.1176  0.2474
  227MPD1    C1 3444   4.069   3.658  10.399  0.1823  0.3367  0.0771
  227MPD1    C2 3445   4.120   3.658  10.266  0.2620 -0.2902  0.8022
  227MPD1    C3 3446   4.146   3.536  10.204  0.5626  0.3461 -0.2173
  227MPD1    C4 3447   4.130   3.417  10.267 -0.2537 -0.1178  0.2528
  227MPD1    C5 3448   4.077   3.420  10.390  0.3088 -0.0007 -0.6384
  227MPD1     H 3449   4.159   3.749  10.222  0.6630 -1.9755 -2.3197
  227MPD1    H1 3450   4.153   3.319  10.228  1.0957 -0.3025  1.5473
  227MPD1    H2 3451   4.003   3.527  10.555 -0.7822 -2.7879 -0.6779
  227MPD1    H3 3452   4.053   3.324  10.435 -0.1095  0.8000  0.8518
  227MPD1     N 3453   4.185   3.537  10.067  0.0547 -0.2042  0.3881
  227MPD1    H5 3454   4.188   3.630  10.028  0.4130 -1.1231 -1.7707
  227MPD1    N1 3455   4.057   3.782  10.470 -0.5161  0.8258  0.5041
  227MPD1    H6 3456   3.990   3.769  10.546 -1.4765  1.8570 -0.1574
  227MPD1    H7 3457   4.014   3.848  10.405 -1.5723 -0.3540 -0.0068
  228MPD1     C 3458   0.356   1.677  12.612 -0.2579 -0.4304  0.3754
  228MPD1    C1 3459   0.308   1.560  12.551 -0.1381  0.4819 -0.7347
  228MPD1    C2 3460   0.189   1.506  12.603 -0.4421  0.6884  0.2661
  228MPD1    C3 3461   0.128   1.559  12.711 -1.1163  0.0114 -0.0819
  228MPD1    C4 3462   0.192   1.658  12.782  0.1996 -0.4701 -0.0272
  228MPD1    C5 3463   0.306   1.721  12.732 -0.9060 -0.7868 -0.1546
  228MPD1     H 3464   0.147   1.415  12.562 -0.6214  0.3436  1.2055
  228MPD1    H1 3465   0.146   1.705  12.868  0.0844  0.3343 -0.5282
  228MPD1    H2 3466   0.443   1.730  12.575  0.5056 -1.5178  0.6067
  228MPD1    H3 3467   0.349   1.807  12.783  1.4389 -0.4707 -2.6740
  228MPD1     N 3468   0.012   1.486  12.760 -0.2359  0.0098  0.2071
  228MPD1    H5 3469   4.715   1.405  12.703 -0.8482 -0.2129  0.7527
  228MPD1    N1 3470   0.356   1.518  12.427  0.6080 -0.3408 -0.4296
  228MPD1    H6 3471   0.323   1.428  12.393  1.2233 -0.7530  0.0580
  228MPD1    H7 3472   0.452   1.544  12.405  1.2538 -0.9101  1.7193
  229MPD1     C 3473   0.453   4.323  13.967 -0.5179 -0.1797  0.0052
  229MPD1    C1 3474   0.566   4.298  14.037  0.1080 -0.1652  0.5613
  229MPD1    C2 3475   0.578   4.346  14.161  0.1624 -0.4931 -0.5641
  229MPD1    C3 3476   0.479   4.435  14.213  0.3072 -0.6191  0.3464
  229MPD1    C4 3477   0.375   4.472  14.136 -0.1145 -0.3671 -0.5135
  229MPD1    C5 3478   0.361   4.408  14.018  0.0054 -0.7719  0.4733
  229MPD1     H 3479   0.658   4.308  14.223  0.6101  0.7074 -0.4152
  229MPD1    H1 3480   0.310   4.551  14.173 -0.0962 -0.8469  0.5296
  229MPD1    H2 3481   0.447   4.272  13.872  0.1385  1.7875 -1.1114
  229MPD1    H3 3482   0.277   4.431  13.954  0.3882 -0.4187  0.0971
  229MPD1     N 3483   0.496   4.492  14.341  0.4815  0.2992 -0.1554
  229MPD1    H5 3484   0.431   4.563  14.372 -2.0656 -1.4437 -1.5469
  229MPD1    N1 3485   0.646   4.189  13.995  0.4311 -0.4209  0.3093
  229MPD1    H6 3486   0.664   4.183  13.895 -0.2529  1.9943  0.0392
  229MPD1    H7 3487   0.741   4.204  14.029  0.3761 -3.9946  1.9820
  230MPD1     C 3488   0.335   0.642  14.795  0.4738  0.6271  0.0890
  230MPD1    C1 3489   0.421   0.587  14.885 -0.1696 -0.2829 -1.0423
  230MPD1    C2 3490   0.447   0.449  14.867 -0.4033  0.6367  0.8002
  230MPD1    C3 3491   0.415   0.386  14.749  0.1104  0.1608 -0.0854
  230MPD1    C4 3492   0.357   0.460  14.648  0.1863 -0.6558  0.7491
  230MPD1    C5 3493   0.307   0.583  14.680 -0.2945  1.3083  0.0841
  230MPD1     H 3494   0.506   0.391  14.937 -1.2223  1.4425  2.1546
  230MPD1    H1 3495   0.335   0.420  14.550  1.7655  1.0146 -0.2740
  230MPD1    H2 3496   0.289   0.739  14.812  1.4455  1.0022  0.5596
  230MPD1    H3 3497   0.245   0.635  14.609  0.8632 -0.2562 -2.0871
  230MPD1     N 3498   0.470   0.262  14.727  0.1281  0.6411  0.4611
  230MPD1    H5 3499   0.513   0.214  14.806 -2.6421 -3.1286 -0.3154
  230MPD1    N1 3500   0.435   0.654  15.007 -0.0837  0.0042 -0.0782
  230MPD1    H6 3501   0.436   0.755  15.012  1.2597 -0.0120 -0.1048
  230MPD1    H7 3502   0.514   0.622  15.063 -0.0040  0.5668  0.1289
  231MPD1     C 3503   3.872   2.198  15.351  0.2727 -0.4313  0.2031
  231MPD1    C1 3504   3.826   2.094  15.277 -0.1709 -0.0427  0.6427
  231MPD1    C2 3505   3.895   2.072  15.158 -0.5393  0.9745 -0.0139
  231MPD1    C3 3506   4.004   2.139  15.116 -0.7977 -0.0859  0.0327
  231MPD1    C4 3507   4.052   2.230  15.202  0.6609 -0.2735 -0.3671
  231MPD1    C5 3508   3.979   2.259  15.312 -0.3405 -0.1359  0.0552
  231MPD1     H 3509   3.865   1.996  15.086  0.9140 -0.2090  0.6208
  231MPD1    H1 3510   4.150   2.275  15.192  0.9301 -0.5650  0.9520
  231MPD1    H2 3511   3.829   2.223  15.448 -1.5053 -1.4058 -0.3399
  231MPD1    H3 3512   4.021   2.333  15.378 -1.3964  0.2579  0.2876
  231MPD1     N 3513   4.059   2.099  14.998  0.6238 -0.6279 -0.6491
  231MPD1    H5 3514   4.026   2.013  14.954  1.5530  0.5845 -3.6922
  231MPD1    N1 3515   3.709   2.019  15.304 -0.5667 -0.4684 -0.1219
  231MPD1    H6 3516   3.680   2.016  15.401  0.4397  2.3515  0.2752
  231MPD1    H7 3517   3.704   1.927  15.260  0.2118 -0.5903  0.0337
  232MPD1     C 3518   0.475   3.373  17.632 -0.2293 -0.5419 -0.4393
  232MPD1    C1 3519   0.388   3.462  17.564  0.6226  0.0017  0.3183
  232MPD1    C2 3520   0.379   3.584  17.625 -0.1904 -0.4564  0.0707
  232MPD1    C3 3521   0.454   3.630   0.037  0.4278  0.1511 -0.2531
  232MPD1    C4 3522   0.544   3.540   0.089 -0.0454  0.1113  0.9657
  232MPD1    C5 3523   0.549   3.412   0.041  0.0726 -0.1774 -0.3992
  232MPD1     H 3524   0.296   3.643  17.587 -0.7153 -1.7412 -0.7808
  232MPD1    H1 3525   0.599   3.563   0.179  0.6041  1.5772  0.2034
  232MPD1    H2 3526   0.480   3.268  17.605 -1.9797 -0.7357  0.0033
  232MPD1    H3 3527   0.615   3.341   0.088 -0.6877 -0.1325  0.7352
  232MPD1     N 3528   0.423   3.757   0.083 -0.2026 -0.5289  0.1894
  232MPD1    H5 3529   0.351   3.816   0.044  2.5572  1.9995 -1.0485
  232MPD1    N1 3530   0.296   3.407  17.474 -0.4244 -0.4944  0.5135
  232MPD1    H6 3531   0.346   3.340  17.417  1.5383  1.9958 -0.6833
  232MPD1    H7 3532   0.265   3.479  17.409 -1.4915 -2.0719 -0.7515
  233MPD1     C 3533   1.006   3.017   1.913  0.0638 -0.1489  0.6394
  233MPD1    C1 3534   1.077   3.081   1.810 -0.9457  0.2370  0.0108
  233MPD1    C2 3535   1.208   3.081   1.807 -0.3871 -0.3662 -0.4171
  233MPD1    C3 3536   1.278   3.001   1.894  0.4251  0.3580  0.1069
  233MPD1    C4 3537   1.211   2.926   1.987  0.8975  0.1035  0.2038
  233MPD1    C5 3538   1.078   2.940   2.002 -0.3737 -0.0876  0.1180
  233MPD1     H 3539   1.255   3.146   1.735 -1.7333 -2.0714 -2.8473
  233MPD1    H1 3540   1.254   2.846   2.046  1.3445 -0.8112 -1.3613
  233MPD1    H2 3541   0.899   3.031   1.924 -0.2669 -1.0269 -1.4838
  233MPD1    H3 3542   1.022   2.893   2.082 -1.4707 -0.7053 -1.0172
  233MPD1     N 3543   1.419   2.992   1.875  0.4808  0.1362 -0.5324
  233MPD1    H5 3544   1.468   2.953   1.955 -3.4419  2.0748  2.7987
  233MPD1    N1 3545   1.020   3.179   1.723 -0.1812  0.6877 -0.5702
  233MPD1    H6 3546   0.921   3.160   1.704  0.0918 -1.9976  0.6547
  233MPD1    H7 3547   1.070   3.183   1.635  0.4499  0.3672 -0.2237
  234MPD1     C 3548   2.576   4.706   9.309  0.3889  0.0557  0.9674
  234MPD1    C1 3549   2.698   0.004   9.371 -0.4002 -0.5025 -0.2668
  234MPD1    C2 3550   2.723   0.128   9.434  0.5614  0.0703 -0.0652
  234MPD1    C3 3551   2.627   0.226   9.426 -0.1254  0.4828  0.1446
  234MPD1    C4 3552   2.510   0.203   9.355  0.0958  0.1775 -0.0103
  234MPD1    C5 3553   2.481   0.077   9.307  0.0552 -0.9214  0.0434
  234MPD1     H 3554   2.822   0.155   9.470  0.9855 -0.3952 -0.8737
  234MPD1    H1 3555   2.435   0.280   9.339  0.1054 -0.5580 -3.5468
  234MPD1    H2 3556   2.562   4.614   9.254  0.3158 -0.3946  1.7322
  234MPD1    H3 3557   2.397   0.063   9.240 -0.3228 -0.1303  0.3545
  234MPD1     N 3558   2.660   0.353   9.485  0.3130  0.0613  0.3586
  234MPD1    H5 3559   2.746   0.354   9.539  0.3274 -1.7512  0.3781
  234MPD1    N1 3560   2.795   4.625   9.374 -0.9025  0.6737  0.3035
  234MPD1    H6 3561   2.869   4.643   9.441 -1.3331  0.1587  0.9204
  234MPD1    H7 3562   2.760   4.529   9.371  0.3616  0.2018  0.4994
  235MPD1     C 3563   4.419   4.691   9.052  0.4995  0.1026 -0.1834
  235MPD1    C1 3564   4.309   4.613   9.038  0.5074  0.2434  0.1912
  235MPD1    C2 3565   4.297   4.493   9.111 -0.3766  0.5494  0.2859
  235MPD1    C3 3566   4.386   4.476   9.217 -0.1162  0.8176  0.5077
  235MPD1    C4 3567   4.484   4.565   9.244  0.8085  0.8886 -0.0988
  235MPD1    C5 3568   4.499   4.667   9.159  0.0862 -0.2730 -0.7544
  235MPD1     H 3569   4.222   4.419   9.088 -1.0829  1.0616  0.9277
  235MPD1    H1 3570   4.531   4.568   9.342 -0.2856  0.1491  0.4536
  235MPD1    H2 3571   4.445   0.046   8.982 -2.7253  0.5231 -0.8953
  235MPD1    H3 3572   4.574   0.017   9.185 -0.2441 -0.4224  0.6082
  235MPD1     N 3573   4.360   4.354   9.292  0.0911  0.5248  0.0818
  235MPD1    H5 3574   4.278   4.300   9.267  0.4968  0.0817 -0.2847
  235MPD1    N1 3575   4.228   4.627   8.920  0.4535  0.2096  0.5528
  235MPD1    H6 3576   4.134   4.590   8.937  0.4080  0.5901  1.1378
  235MPD1    H7 3577   4.231   4.722   8.884 -2.1739  0.9285  2.1961
  236MPD1     C 3578   3.813   4.061   9.567  0.4948 -0.4660  0.2074
  236MPD1    C1 3579   3.760   4.184   9.531  0.2032  0.4837 -0.1654
  236MPD1    C2 3580   3.725   4.278   9.632 -0.4847 -0.3254  1.1432
  236MPD1    C3 3581   3.772   4.263   9.764 -1.1489  0.1028 -0.0352
  236MPD1    C4 3582   3.854   4.158   9.786 -0.6822 -0.4047  0.2356
  236MPD1    C5 3583   3.869   4.055   9.692 -0.4638 -0.0015  0.4284
  236MPD1     H 3584   3.685   4.369   9.590  2.2827  0.8888  1.0940
  236MPD1    H1 3585   3.896   4.141   9.885  1.6844  1.6172 -0.4167
  236MPD1    H2 3586   3.829   3.976   9.502 -2.1676  0.6571 -1.9471
  236MPD1    H3 3587   3.920   3.964   9.723  0.5848 -0.2961 -2.2028
  236MPD1     N 3588   3.734   4.348   9.876  0.6856 -0.4880 -0.2548
  236MPD1    H5 3589   3.785   4.332   9.962 -1.5123  2.9697  1.6708
  236MPD1    N1 3590   3.710   4.200   9.404  0.6332  0.5338  0.4723
  236MPD1    H6 3591   3.678   4.289   9.367  0.0242  1.7874  4.0513
  236MPD1    H7 3592   3.755   4.150   9.327 -0.5062 -0.4199  0.4319
  237MPD1     C 3593   3.783   3.446  15.593 -0.5391 -0.1145 -0.1884
  237MPD1    C1 3594   3.763   3.348  15.505  0.4405  0.2056 -0.1307
  237MPD1    C2 3595   3.660   3.262  15.524  0.6566 -0.5066  0.9318
  237MPD1    C3 3596   3.573   3.265  15.640  1.0514  0.7364 -0.5010
  237MPD1    C4 3597   3.589   3.374  15.722  0.1650 -0.4648  0.3837
  237MPD1    C5 3598   3.692   3.458  15.699 -0.3633  0.2147  0.9905
  237MPD1     H 3599   3.652   3.179  15.454  0.9426 -0.2073  0.5452
  237MPD1    H1 3600   3.527   3.373  15.811 -0.7830 -0.2666 -0.2691
  237MPD1    H2 3601   3.866   3.515  15.587 -2.1476  1.7280 -1.3164
  237MPD1    H3 3602   3.698   3.543  15.766 -1.1843  1.9342 -1.1518
  237MPD1     N 3603   3.471   3.175  15.668 -0.1239 -0.6996 -0.6316
  237MPD1    H5 3604   3.401   3.208  15.734  2.6940  1.0517  1.4744
  237MPD1    N1 3605   3.824   3.341  15.378  0.2677  0.0541  0.1751
  237MPD1    H6 3606   3.921   3.366  15.391  0.2653  0.4463 -0.6099
  237MPD1    H7 3607   3.812   3.247  15.340 -0.2456  0.6235 -1.0490
  238MPD1     C 3608   0.997   1.811  14.843 -0.6504  0.1807  0.3133
  238MPD1    C1 3609   0.929   1.759  14.957  0.0514 -0.4191 -0.2056
  238MPD1    C2 3610   0.809   1.693  14.931 -0.1033  0.3953  0.2458
  238MPD1    C3 3611   0.760   1.675  14.804  0.3676 -0.2687  0.3343
  238MPD1    C4 3612   0.843   1.711  14.696 -0.7234 -0.1448 -0.4854
  238MPD1    C5 3613   0.952   1.789  14.715  0.1620  0.2642 -0.0055
  238MPD1     H 3614   0.753   1.659  15.017 -0.1275  1.0111  0.4697
  238MPD1    H1 3615   0.806   1.693  14.596  1.7203 -0.6431 -1.2948
  238MPD1    H2 3616   1.082   1.876  14.864 -0.0151 -1.3077  2.2379
  238MPD1    H3 3617   1.009   1.837  14.636  2.5274 -1.3819  0.6852
  238MPD1     N 3618   0.627   1.643  14.774  0.3504  0.4369  0.0984
  238MPD1    H5 3619   0.603   1.651  14.675 -0.4148 -0.1652  0.2342
  238MPD1    N1 3620   0.954   1.794  15.089 -0.2898  0.2239 -0.1646
  238MPD1    H6 3621   1.053   1.815  15.100 -0.2918 -0.4989  1.2704
  238MPD1    H7 3622   0.937   1.723  15.161 -0.0636 -1.4054 -1.7228
  239MPD1     C 3623   0.469   2.365  15.173 -0.4406  0.1008  0.3461
  239MPD1    C1 3624   0.608   2.387  15.150  0.4616  0.0285  0.7980
  239MPD1    C2 3625   0.653   2.482  15.057  0.4200 -0.0527 -0.4510
  239MPD1    C3 3626   0.560   2.573  15.006 -0.1695  0.0811 -0.5632
  239MPD1    C4 3627   0.428   2.563  15.049 -0.0765 -0.7925  0.6731
  239MPD1    C5 3628   0.384   2.458  15.128  0.0235 -0.9275  0.0432
  239MPD1     H 3629   0.758   2.475  15.028  0.3045 -1.7860 -0.4591
  239MPD1    H1 3630   0.352   2.618  14.994  2.1988 -0.2568 -1.9524
  239MPD1    H2 3631   0.435   2.282  15.234 -0.1865 -0.2825 -0.0373
  239MPD1    H3 3632   0.281   2.435  15.150 -0.2256 -0.8092 -1.0165
  239MPD1     N 3633   0.592   2.677  14.918  0.1249 -0.0659 -0.2112
  239MPD1    H5 3634   0.512   2.732  14.888 -0.2514 -0.2958  0.3793
  239MPD1    N1 3635   0.698   2.286  15.197 -0.3271 -0.1148  0.2580
  239MPD1    H6 3636   0.797   2.307  15.202 -0.2963  0.1554 -1.4620
  239MPD1    H7 3637   0.659   2.225  15.268 -1.4142  0.0357 -0.2123
  240MPD1     C 3638   0.935   2.138  14.235  0.4035 -0.8176  0.1791
  240MPD1    C1 3639   0.803   2.109  14.214 -0.2920  0.3804  0.0318
  240MPD1    C2 3640   0.731   2.071  14.328  0.1014  0.5874  0.4068
  240MPD1    C3 3641   0.778   2.077  14.456  0.6770  0.5187 -0.3006
  240MPD1    C4 3642   0.911   2.094  14.468  0.3404 -0.5294 -0.1005
  240MPD1    C5 3643   0.989   2.115  14.360  0.0804 -0.7939 -0.1197
  240MPD1     H 3644   0.628   2.042  14.308  0.0783  1.3535 -0.5714
  240MPD1    H1 3645   0.960   2.086  14.565  1.8825  4.2302 -0.4468
  240MPD1    H2 3646   1.003   2.166  14.156  0.9484 -0.7941  0.6611
  240MPD1    H3 3647   1.095   2.129  14.380  0.0029 -1.5500  0.8156
  240MPD1     N 3648   0.691   2.052  14.570 -0.0276  0.0568  0.2874
  240MPD1    H5 3649   0.601   2.009  14.554  0.5585 -1.4588  1.0228
  240MPD1    N1 3650   0.760   2.088  14.086 -0.2648  0.3226 -0.3639
  240MPD1    H6 3651   0.798   2.153  14.016  0.1491  1.9090  1.3310
  240MPD1    H7 3652   0.659   2.100  14.080 -0.2618 -0.3767 -1.8940
  241MPD1     C 3653   0.874   2.082  15.575  0.3426 -0.8036 -0.7657
  241MPD1    C1 3654   0.955   2.060  15.470  0.2810  0.1687  0.6680
  241MPD1    C2 3655   0.899   2.035  15.345  0.3714 -0.3687  0.2767
  241MPD1    C3 3656   0.764   2.021  15.327  0.7937  0.1196  0.1534
  241MPD1    C4 3657   0.678   2.039  15.429  0.4686  0.1671 -0.2418
  241MPD1    C5 3658   0.735   2.073  15.558  0.6558 -0.6000 -1.0393
  241MPD1     H 3659   0.970   2.011  15.267 -0.0134 -0.2588 -0.1085
  241MPD1    H1 3660   0.571   2.038  15.416  0.5859  0.5295 -1.1825
  241MPD1    H2 3661   0.917   2.103  15.672 -1.4662  3.2422 -0.8240
  241MPD1    H3 3662   0.674   2.097  15.644  0.7015 -0.4939 -1.0372
  241MPD1     N 3663   0.710   1.991  15.196 -0.6900  0.1857  0.6049
  241MPD1    H5 3664   0.784   1.968  15.131  0.6449 -0.5457  2.3700
  241MPD1    N1 3665   1.089   2.085  15.478  0.1143 -0.2202  0.5665
  241MPD1    H6 3666   1.122   2.086  15.574  1.7021 -1.2253  0.0160
  241MPD1    H7 3667   1.147   2.021  15.425 -2.2982  0.0685 -2.4431
  242MPD1     C 3668   4.295   0.264  15.971 -0.3234 -0.1141  0.0239
  242MPD1    C1 3669   4.403   0.340  16.021  0.4593  0.1084  0.3799
  242MPD1    C2 3670   4.494   0.404  15.931  0.5982  0.1345 -0.2382
  242MPD1    C3 3671   4.459   0.392  15.800  0.4777  0.2360 -0.6971
  242MPD1    C4 3672   4.356   0.311  15.755  0.0126  0.3633  0.5095
  242MPD1    C5 3673   4.275   0.243  15.839  0.2138 -0.0814 -0.1372
  242MPD1     H 3674   4.588   0.445  15.962 -0.0072  0.5466  1.0351
  242MPD1    H1 3675   4.341   0.300  15.648 -1.4655 -0.5104  0.7982
  242MPD1    H2 3676   4.233   0.219  16.048  0.0783 -0.0531  0.3853
  242MPD1    H3 3677   4.193   0.178  15.810  0.2677 -0.9254  1.5751
  242MPD1     N 3678   4.539   0.452  15.703 -0.2693  0.0957  0.3292
  242MPD1    H5 3679   4.508   0.459  15.606 -0.6742  1.0023  0.5231
  242MPD1    N1 3680   4.436   0.341  16.161 -0.8277  0.1813 -0.0603
  242MPD1    H6 3681   4.357   0.337  16.225 -1.4781  1.1233 -0.8072
  242MPD1    H7 3682   4.501   0.416  16.184 -0.3777 -0.5288  0.9590
  243MPD1     C 3683   1.926   3.579  16.176  0.0072 -0.4105 -0.2345
  243MPD1    C1 3684   1.830   3.677  16.163  0.2489  0.8595  0.3564
  243MPD1    C2 3685   1.704   3.639  16.196 -0.4088 -0.5127  0.2392
  243MPD1    C3 3686   1.668   3.510  16.221  0.5661  0.2549 -0.4585
  243MPD1    C4 3687   1.768   3.412  16.218 -0.4274  0.1635 -0.6663
  243MPD1    C5 3688   1.895   3.452  16.202 -0.6252 -0.0150  0.0941
  243MPD1     H 3689   1.631   3.718  16.211  0.2330  0.0086  0.5629
  243MPD1    H1 3690   1.748   3.305  16.226 -0.7864 -0.0231 -4.2002
  243MPD1    H2 3691   2.029   3.609  16.156  0.0593 -0.1162  0.4806
  243MPD1    H3 3692   1.968   3.371  16.206 -0.5695  0.1768  3.3073
  243MPD1     N 3693   1.536   3.459  16.239  0.5181  0.4248 -0.0972
  243MPD1    H5 3694   1.464   3.529  16.229 -0.0806 -0.5089 -2.3072
  243MPD1    N1 3695   1.873   3.811  16.170  0.0479  0.9421 -0.3940
  243MPD1    H6 3696   1.967   3.828  16.134 -0.6008 -1.0859 -3.0362
  243MPD1    H7 3697   1.806   3.874  16.128 -1.2589  1.7847  2.9102
  244MPD1     C 3698   1.189   2.951  16.966 -0.3687 -0.1221 -0.5676
  244MPD1    C1 3699   1.270   2.911  16.867  0.1818 -0.1094 -0.1021
  244MPD1    C2 3700   1.276   3.004  16.760  0.1356 -0.1341  0.5279
  244MPD1    C3 3701   1.198   3.119  16.746  0.0037  0.4277  0.3881
  244MPD1    C4 3702   1.112   3.147  16.852  0.0371 -0.0693  0.0793
  244MPD1    C5 3703   1.116   3.062  16.958  0.1887  0.7892 -0.1091
  244MPD1     H 3704   1.346   2.977  16.682 -0.1849 -2.0166  0.9070
  244MPD1    H1 3705   1.033   3.221  16.846 -0.5459 -0.7769 -1.1181
  244MPD1    H2 3706   1.176   2.889  17.054 -1.5808 -0.3276 -0.8786
  244MPD1    H3 3707   1.043   3.081  17.036 -0.0826 -1.0609  0.1033
  244MPD1     N 3708   1.200   3.186  16.622 -0.6961 -0.3606 -0.6907
  244MPD1    H5 3709   1.258   3.144  16.550 -1.5777  2.5086 -3.0852
  244MPD1    N1 3710   1.363   2.809  16.887 -0.2725  0.3590  0.2423
  244MPD1    H6 3711   1.402   2.752  16.811 -0.3765 -1.1463  1.3127
  244MPD1    H7 3712   1.333   2.740  16.956 -1.4908  0.0424 -0.6054
  245MPD1     C 3713   3.446   4.236  13.838 -0.6536 -0.5984  0.0063
  245MPD1    C1 3714   3.316   4.269  13.809 -0.3523  0.4939  0.4946
  245MPD1    C2 3715   3.277   4.401  13.804 -0.1810  0.0013 -0.9852
  245MPD1    C3 3716   3.371   4.499  13.821 -0.2255 -0.4902  0.5809
  245MPD1    C4 3717   3.502   4.465  13.854  0.5085 -0.0967 -0.6031
  245MPD1    C5 3718   3.534   4.333  13.871  0.0535 -0.4913 -0.4335
  245MPD1     H 3719   3.177   4.432  13.777 -0.8198 -0.9146  0.3620
  245MPD1    H1 3720   3.582   4.538  13.858  1.9961 -1.8153  1.0168
  245MPD1    H2 3721   3.486   4.135  13.840  1.2631  0.1588 -0.1104
  245MPD1    H3 3722   3.636   4.302  13.889  0.8501  1.7347 -1.0262
  245MPD1     N 3723   3.330   4.631  13.797 -0.3616 -0.4064  0.1238
  245MPD1    H5 3724   3.233   4.647  13.770 -0.4317  1.4843  1.4626
  245MPD1    N1 3725   3.218   4.162  13.800 -0.3120  0.5433  0.1920
  245MPD1    H6 3726   3.257   4.092  13.736 -1.4681 -0.2358  0.3486
  245MPD1    H7 3727   3.134   4.200  13.759  0.0502  1.1226 -0.0037
  246MPD1     C 3728   0.509   1.241   9.576  0.5818 -0.2516  0.2454
  246MPD1    C1 3729   0.595   1.134   9.565 -0.3595 -0.1248  0.3996
  246MPD1    C2 3730   0.538   1.017   9.505 -0.6236  0.0604 -0.6096
  246MPD1    C3 3731   0.400   1.008   9.490  0.3201  0.6550  0.5109
  246MPD1    C4 3732   0.315   1.107   9.529  0.1066 -0.1105 -0.0856
  246MPD1    C5 3733   0.373   1.231   9.554 -0.2892 -0.2999 -0.5223
  246MPD1     H 3734   0.598   0.936   9.468 -1.4252 -1.6157  1.7543
  246MPD1    H1 3735   0.208   1.109   9.513  0.3311 -1.3338 -1.7993
  246MPD1    H2 3736   0.551   1.339   9.590  0.2496 -0.1187  0.3051
  246MPD1    H3 3737   0.313   1.317   9.581 -1.7283 -1.6011  0.4494
  246MPD1     N 3738   0.344   0.884   9.449 -0.3444 -0.0847 -0.2004
  246MPD1    H5 3739   0.411   0.809   9.441 -0.6478 -0.0783 -2.6394
  246MPD1    N1 3740   0.732   1.146   9.572  0.5752  0.1919 -0.1304
  246MPD1    H6 3741   0.758   1.195   9.658 -1.4143  3.9222 -1.6689
  246MPD1    H7 3742   0.766   1.051   9.588  1.1462  0.2896 -0.7780
  247MPD1     C 3743   3.142   4.265  17.191 -0.5808 -0.1629  0.2999
  247MPD1    C1 3744   3.218   4.281  17.078 -0.7736 -0.1968 -0.1959
  247MPD1    C2 3745   3.198   4.392  17.002  0.1858 -0.2995 -0.1866
  247MPD1    C3 3746   3.110   4.490  17.041  0.3315 -0.0830  0.0792
  247MPD1    C4 3747   3.052   4.485  17.168  0.4325 -0.8045 -0.7231
  247MPD1    C5 3748   3.073   4.368  17.236 -0.4670 -0.1853  0.2832
  247MPD1     H 3749   3.242   4.402  16.903  0.2697  1.0627 -0.0090
  247MPD1    H1 3750   2.980   4.559  17.199  0.7139 -1.0868  0.6097
  247MPD1    H2 3751   3.146   4.171  17.244  0.0506  1.0871  2.4682
  247MPD1    H3 3752   3.024   4.368  17.332  0.9526  1.4693  1.0027
  247MPD1     N 3753   3.088   4.595  16.954 -0.1346  0.7689  0.1267
  247MPD1    H5 3754   3.138   4.584  16.866  1.3074 -2.2447  1.3321
  247MPD1    N1 3755   3.281   4.173  17.020  0.1211  0.4534 -0.3296
  247MPD1    H6 3756   3.346   4.193  16.943 -0.8393 -0.2868 -1.3276
  247MPD1    H7 3757   3.325   4.121  17.095  1.5879  2.6901  0.3598
  248MPD1     C 3758   1.701   1.044  17.672 -0.0489  0.3508  0.0975
  248MPD1    C1 3759   1.736   0.944   0.060  0.2175  0.3519 -0.3202
  248MPD1    C2 3760   1.729   0.814   0.018  0.0642 -0.5716  0.1470
  248MPD1    C3 3761   1.727   0.779  17.583  0.6950  1.0550  0.3772
  248MPD1    C4 3762   1.723   0.888  17.500  0.5133  0.5596 -0.0301
  248MPD1    C5 3763   1.695   1.017  17.545  0.7216 -0.2042 -0.0174
  248MPD1     H 3764   1.732   0.734   0.091  3.3982  0.7017  1.4295
  248MPD1    H1 3765   1.726   0.871  17.393 -0.8064 -2.3527  0.4038
  248MPD1    H2 3766   1.676   1.144   0.007 -1.0124 -0.2783  1.2735
  248MPD1    H3 3767   1.697   1.101  17.476  1.3639 -0.0020  0.2476
  248MPD1     N 3768   1.740   0.643  17.539  0.7003 -0.6356  0.2176
  248MPD1    H5 3769   1.764   0.581  17.616 -1.2440 -0.6560  0.8071
  248MPD1    N1 3770   1.741   0.972   0.199  0.0844 -0.4089  0.0499
  248MPD1    H6 3771   1.813   0.919   0.249 -0.6867 -1.5904 -0.1029
  248MPD1    H7 3772   1.777   1.067   0.209 -0.0938 -0.2995 -0.3533
  249MPD1     C 3773   4.501   1.372  11.152 -0.4569 -0.2198 -0.6285
  249MPD1    C1 3774   4.520   1.347  11.016 -0.1207  0.2234  0.2207
  249MPD1    C2 3775   4.520   1.460  10.930  0.9841 -0.6513  0.3638
  249MPD1    C3 3776   4.480   1.585  10.963  0.3465  0.3171  0.8751
  249MPD1    C4 3777   4.456   1.608  11.096 -0.1275  0.4273  0.1730
  249MPD1    C5 3778   4.468   1.506  11.191  0.1976 -0.0518 -0.3915
  249MPD1     H 3779   4.532   1.438  10.824  1.3861 -0.7959  0.4405
  249MPD1    H1 3780   4.421   1.705  11.129  0.0273  0.2506  0.8450
  249MPD1    H2 3781   4.509   1.295  11.228  0.5185  2.5868  2.1209
  249MPD1    H3 3782   4.440   1.520  11.295 -1.7401  1.9641 -1.1657
  249MPD1     N 3783   4.473   1.685  10.867  0.6133 -0.4179  0.4722
  249MPD1    H5 3784   4.489   1.661  10.770 -1.5425 -3.1097  0.7945
  249MPD1    N1 3785   4.563   1.223  10.965 -0.7363 -0.3697 -0.3003
  249MPD1    H6 3786   4.530   1.146  11.023  0.5120 -1.3869 -0.9517
  249MPD1    H7 3787   4.544   1.210  10.866 -1.1962  1.4826 -0.4526
  250MPD2     C 3788   0.842   2.502  13.032 -0.3857 -0.8669 -0.4458
  250MPD2    C1 3789   0.803   2.575  12.922  0.0838 -1.0611  0.2718
  250MPD2    C2 3790   0.804   2.506  12.805  0.4311  0.0587  0.9047
  250MPD2    C3 3791   0.840   2.370  12.795  0.1557  0.3787 -0.0410
  250MPD2    C4 3792   0.890   2.304  12.905 -0.3953 -0.4721 -0.6109
  250MPD2    C5 3793   0.896   2.372  13.026 -0.1007  0.1769 -0.1076
  250MPD2     H 3794   0.772   2.548  12.711  1.0371  3.8101  2.3730
  250MPD2    H1 3795   0.930   2.204  12.897  1.0961  0.0545  0.2917
  250MPD2    H2 3796   0.842   2.546  13.131 -1.0337  1.8726 -1.6561
  250MPD2    H3 3797   0.933   2.323  13.115  0.1373  2.0233  0.8078
  250MPD2     N 3798   0.841   2.297  12.674  0.8241  0.3223 -0.2071
  250MPD2    H5 3799   0.895   2.210  12.679  1.5940  0.6268 -2.9549
  250MPD2    N1 3800   0.769   2.710  12.931 -0.5686 -0.1225 -0.3975
  250MPD2    H7 3801   0.766   2.742  13.027  5.0164 -0.0467 -0.2728
  251TMC3    C1 3802   0.748   2.932  12.871  0.5328 -0.0677  0.2183
  251TMC3    C2 3803   0.785   2.969  12.995 -0.2218  0.1593  0.2904
  251TMC3    C3 3804   0.827   3.099  13.001 -0.1938  1.3482 -0.6215
  251TMC3    C4 3805   0.742   3.015  12.764  0.2099  0.8942  0.2351
  251TMC3    C5 3806   0.775   3.153  12.774  0.0839  0.0305 -0.0017
  251TMC3    C6 3807   0.821   3.192  12.896 -0.2355 -0.0678  0.3508
  251TMC3     C 3808   0.732   2.795  12.832 -0.0061 -0.2570 -0.4269
  251TMC3     O 3809   0.709   2.764  12.715  0.0572  0.4032 -0.1716
  251TMC3     H 3810   0.766   2.908  13.083 -2.5065 -0.8502 -0.9128
  251TMC3    H1 3811   0.711   2.983  12.665  0.4677  1.4684 -0.0331
  251TMC3    H2 3812   0.858   3.292  12.919  0.7602 -0.3184 -0.1788
  251TMC3    C7 3813   0.892   3.179  12.684 -0.1820  0.2559 -0.3610
  251TMC3    C8 3814   0.898   3.148  13.118  0.4200 -0.0565 -0.2740
  251TMC3    O1 3815   0.948   3.287  12.697  0.1051 -0.5127 -0.4694
  251TMC3    O2 3816   0.900   3.265  13.145 -1.0122 -0.2201  0.1026
  252TMC3    C1 3817   2.968   2.466   9.039 -0.0018 -1.3818  0.2409
  252TMC3    C2 3818   3.043   2.577   9.031 -0.0316 -0.5262 -0.2889
  252TMC3    C3 3819   3.018   2.678   9.125  0.9850  0.4916 -0.0223
  252TMC3    C4 3820   2.872   2.448   9.136 -0.3671 -0.6288  0.4334
  252TMC3    C5 3821   2.847   2.551   9.221  0.0065  0.0936 -0.2038
  252TMC3    C6 3822   2.911   2.671   9.213 -0.6482 -0.0374 -0.0358
  252TMC3     C 3823   3.026   2.341   8.986 -0.1174  0.2695  0.5162
  252TMC3     O 3824   2.956   2.239   8.978  0.1528  0.1756 -0.3863
  252TMC3     H 3825   3.118   2.598   8.955 -2.1056  2.9121 -1.3643
  252TMC3    H1 3826   2.823   2.352   9.137 -1.0040 -0.3053 -0.0464
  252TMC3    H2 3827   2.887   2.754   9.279 -0.0929  0.7659 -0.8378
  252TMC3    C7 3828   2.740   2.540   9.321  0.1854  0.6444  0.4015
  252TMC3    C8 3829   3.107   2.794   9.130  0.1365 -0.0152  0.0110
  252TMC3    O1 3830   2.696   2.641   9.374 -0.4501  0.2783  0.1968
  252TMC3    O2 3831   3.211   2.781   9.058  0.0671  0.4778  0.2337
  253MPD2     C 3832   2.982   3.207  16.186  0.5521  0.0683 -0.0242
  253MPD2    C1 3833   2.867   3.156  16.128  0.7576  0.0147 -0.1029
  253MPD2    C2 3834   2.771   3.090  16.207 -0.0890 -0.2335  0.0301
  253MPD2    C3 3835   2.790   3.076  16.343 -0.4681 -0.1245 -0.4399
  253MPD2    C4 3836   2.902   3.139  16.404 -0.1032  0.2991 -0.0716
  253MPD2    C5 3837   2.995   3.201  16.315  0.1444  0.2598  0.1976
  253MPD2     H 3838   2.681   3.048  16.164  2.0630 -4.0432 -0.7154
  253MPD2    H1 3839   2.908   3.134  16.513  0.1658  1.8270 -0.0250
  253MPD2    H2 3840   3.064   3.251  16.131  1.2353 -1.2594 -0.0510
  253MPD2    H3 3841   3.084   3.241  16.362 -1.2151  0.1115  2.8707
  253MPD2     N 3842   2.694   3.017  16.431 -0.0665 -0.0210  0.0053
  253MPD2    H5 3843   2.712   3.030  16.530 -2.1887 -2.2572  0.6849
  253MPD2    N1 3844   2.840   3.166  15.990  0.1121 -0.3550 -0.2154
  253MPD2    H7 3845   2.747   3.136  15.963  0.4462  0.5728 -2.3339
  254TMC3    C1 3846   2.495   2.910  16.511 -0.1792 -0.0042 -0.0822
  254TMC3    C2 3847   2.375   2.866  16.479 -0.0917 -0.9608 -0.5420
  254TMC3    C3 3848   2.288   2.836  16.582 -0.3518 -0.5822  0.8408
  254TMC3    C4 3849   2.538   2.914  16.641 -0.0673  0.3394  0.0814
  254TMC3    C5 3850   2.458   2.874  16.744  0.4878  0.1685  0.9326
  254TMC3    C6 3851   2.330   2.834  16.715  0.7047  0.2774  0.1155
  254TMC3     C 3852   2.579   2.946  16.399  0.3721  0.0373  0.6920
  254TMC3     O 3853   2.534   2.929  16.286  0.2682  0.4853  0.0726
  254TMC3     H 3854   2.336   2.868  16.378 -0.8536 -4.8749 -0.3186
  254TMC3    H1 3855   2.635   2.959  16.655  0.4885 -0.6564 -0.5663
  254TMC3    H2 3856   2.268   2.803  16.798  0.5594  0.7527  0.1864
  254TMC3    C7 3857   2.529   2.846  16.872 -0.4802  0.2139  0.7538
  254TMC3    C8 3858   2.168   2.913  16.564  0.1029 -0.4806  0.2137
  254TMC3    O1 3859   2.649   2.858  16.868 -0.1031  0.2917  0.2852
  254TMC3    O2 3860   2.171   2.999  16.475 -0.1835  0.0987  0.0986
  255MPD2     C 3861   0.783   0.760  11.054 -0.6161  0.4169 -0.2059
  255MPD2    C1 3862   0.877   0.851  11.032 -0.7989 -0.0942  0.8974
  255MPD2    C2 3863   1.000   0.818  10.988 -0.1319 -0.1946 -0.0206
  255MPD2    C3 3864   1.039   0.686  10.963  0.2246 -0.1064  0.1393
  255MPD2    C4 3865   0.947   0.590  11.003 -0.4625  0.6534  0.3010
  255MPD2    C5 3866   0.816   0.630  11.043  0.1799 -0.2953  1.0451
  255MPD2     H 3867   1.073   0.895  10.966  0.5034 -1.1514 -1.2446
  255MPD2    H1 3868   0.952   0.484  10.981  2.4011  0.4923  1.7653
  255MPD2    H2 3869   0.681   0.786  11.081 -0.3216  3.5890 -2.2219
  255MPD2    H3 3870   0.739   0.557  11.066 -1.4349  1.6519  1.8499
  255MPD2     N 3871   1.167   0.655  10.910 -0.2407 -0.1031 -0.1065
  255MPD2    H5 3872   1.214   0.736  10.872 -1.8847  0.4839 -0.9144
  255MPD2    N1 3873   0.832   0.980  11.055 -0.0419  0.0260 -0.1078
  255MPD2    H7 3874   0.739   0.988  11.095 -0.0162 -0.5761  0.0761
  256TMC3    C1 3875   0.816   1.212  11.003  0.1873  0.1009 -0.4958
  256TMC3    C2 3876   0.884   1.328  10.974 -0.0256 -0.6105  0.1741
  256TMC3    C3 3877   0.799   1.426  10.929 -0.8715  0.8511 -0.3354
  256TMC3    C4 3878   0.682   1.196  10.966  0.7822 -0.6962 -0.3784
  256TMC3    C5 3879   0.604   1.297  10.911  0.2068  0.0212  0.5391
  256TMC3    C6 3880   0.667   1.421  10.902  0.4336 -0.4226 -0.4864
  256TMC3     C 3881   0.899   1.092  11.006  0.5359  0.5595  0.3393
  256TMC3     O 3882   1.017   1.112  10.972  0.1105  0.0616  0.6346
  256TMC3     H 3883   0.991   1.339  10.989 -0.3308  2.6902 -0.1341
  256TMC3    H1 3884   0.642   1.095  10.967 -0.7721 -0.0808 -0.8850
  256TMC3    H2 3885   0.612   1.512  10.877 -1.8523 -1.3204  1.2687
  256TMC3    C7 3886   0.576   1.258  10.773  0.2350 -0.6107 -0.4527
  256TMC3    C8 3887   0.851   1.561  10.907  0.0362  0.0828 -0.2657
  256TMC3    O1 3888   0.615   1.144  10.743  0.3097 -0.1738  0.4257
  256TMC3    O2 3889   0.789   1.657  10.944  0.7817  0.0395 -0.1794
  257MPD2     C 3890   0.223   3.277  13.373  0.9217 -0.7180 -0.0844
  257MPD2    C1 3891   0.176   3.190  13.281 -0.3575  0.3579  0.3311
  257MPD2    C2 3892   0.201   3.054  13.296  0.6046 -0.6574  0.0410
  257MPD2    C3 3893   0.272   3.003  13.403 -0.3902  0.5090 -0.3918
  257MPD2    C4 3894   0.310   3.092  13.499 -0.1767 -0.5083  0.4164
  257MPD2    C5 3895   0.282   3.230  13.488  0.0247  0.6483  0.4460
  257MPD2     H 3896   0.166   2.980  13.224 -0.7153  0.3832 -0.3905
  257MPD2    H1 3897   0.348   3.060  13.595 -1.9553 -0.5584  1.1154
  257MPD2    H2 3898   0.213   3.384  13.365 -2.0859 -1.0730 -0.8355
  257MPD2    H3 3899   0.317   3.292  13.570  0.0726  1.7547 -0.4102
  257MPD2     N 3900   0.287   2.863  13.424 -0.0752  0.2305 -0.6191
  257MPD2    H5 3901   0.232   2.810  13.358 -0.1742 -0.8083  0.3028
  257MPD2    N1 3902   0.116   3.247  13.166  0.1489  0.5263  0.2446
  257MPD2    H7 3903   0.124   3.346  13.142 -0.8768 -0.0751 -2.5997
  258TMC3    C1 3904   0.359   2.659  13.507  0.3522  0.5981  0.0259
  258TMC3    C2 3905   0.377   2.594  13.389 -0.0833 -0.3743  0.4332
  258TMC3    C3 3906   0.386   2.459  13.392 -0.2663  0.0200 -0.2345
  258TMC3    C4 3907   0.378   2.597  13.624  0.5000 -0.0197 -0.1717
  258TMC3    C5 3908   0.401   2.466  13.632 -0.3120 -0.2686 -0.4202
  258TMC3    C6 3909   0.396   2.391  13.512 -0.5226 -0.8500 -0.0135
  258TMC3     C 3910   0.369   2.795  13.513 -0.4294 -0.0610 -0.1053
  258TMC3     O 3911   0.455   2.843  13.587  0.0098 -0.3602  0.1406
  258TMC3     H 3912   0.340   2.635  13.295  0.8065 -0.1559  0.1811
  258TMC3    H1 3913   0.361   2.659  13.711 -1.1734 -0.7840  0.0499
  258TMC3    H2 3914   0.407   2.284  13.521 -0.9375 -0.8071  0.9363
  258TMC3    C7 3915   0.387   2.400  13.766  0.0275 -0.5766 -0.1898
  258TMC3    C8 3916   0.379   2.377  13.270 -0.5674  0.0803 -0.3784
  258TMC3    O1 3917   0.340   2.286  13.778 -0.1708  0.0892  0.0159
  258TMC3    O2 3918   0.342   2.264  13.287 -0.2772 -0.2063 -0.2021
  259MPD2     C 3919   4.090   4.097   1.868  0.0415  0.2164  0.9813
  259MPD2    C1 3920   4.054   4.179   1.762  0.5871 -0.5494  0.6281
  259MPD2    C2 3921   4.114   4.170   1.637 -0.9253  0.0228 -0.5254
  259MPD2    C3 3922   4.204   4.071   1.617 -0.3400 -0.1839  0.1100
  259MPD2    C4 3923   4.234   3.983   1.718 -0.0601 -0.0973  0.9377
  259MPD2    C5 3924   4.175   3.992   1.839  0.2833  0.0849 -0.0934
  259MPD2     H 3925   4.086   4.240   1.559  3.6551  0.3056 -1.9521
  259MPD2    H1 3926   4.284   3.888   1.702  0.4177  0.5380 -1.2953
  259MPD2    H2 3927   4.040   4.100   1.964 -1.8449 -0.1983  0.0086
  259MPD2    H3 3928   4.189   3.911   1.909 -1.3250 -1.4190 -1.5111
  259MPD2     N 3929   4.265   4.060   1.486 -0.8725 -0.0119 -0.0872
  259MPD2    H5 3930   4.240   4.122   1.409 -2.3343 -1.0641 -0.4610
  259MPD2    N1 3931   3.956   4.278   1.791  0.1185  0.1947 -0.0788
  259MPD2    H7 3932   3.919   4.286   1.885  0.2784 -2.0623  0.1732
  260TMC3    C1 3933   4.423   4.004   1.319  0.3519 -0.7578 -0.1383
  260TMC3    C2 3934   4.563   3.999   1.304  0.1619 -0.2631  0.3558
  260TMC3    C3 3935   4.603   4.001   1.177 -0.3147 -0.0245 -1.0563
  260TMC3    C4 3936   4.336   4.029   1.218  0.4302  0.1578  0.3488
  260TMC3    C5 3937   4.380   4.031   1.088 -0.3487  0.0520  0.1110
  260TMC3    C6 3938   4.517   4.015   1.069  0.4959  0.0703 -0.3712
  260TMC3     C 3939   4.381   3.990   1.463 -0.2220 -0.2142 -0.2296
  260TMC3     O 3940   4.460   3.937   1.540  0.1489  0.2366  0.7536
  260TMC3     H 3941   4.621   3.968   1.390  1.7242  1.0387 -0.2231
  260TMC3    H1 3942   4.233   4.039   1.251  0.4710 -0.4117  0.6428
  260TMC3    H2 3943   4.554   4.041   0.971 -0.6027 -0.2657 -0.8741
  260TMC3    C7 3944   4.286   4.054   0.974 -0.5259  0.0979 -0.7768
  260TMC3    C8 3945   0.008   3.937   1.148 -0.1516 -0.1817 -0.3224
  260TMC3    O1 3946   4.335   4.078   0.863 -0.2640  0.8845  0.3746
  260TMC3    O2 3947   0.051   3.862   1.234  0.2044 -0.3246  0.1548
  261MPD2     C 3948   0.648   2.380  11.837  0.2323 -0.2503 -0.1607
  261MPD2    C1 3949   0.708   2.446  11.943  0.8819 -0.2665  0.2134
  261MPD2    C2 3950   0.744   2.579  11.917  0.3864 -0.3926  0.0450
  261MPD2    C3 3951   0.741   2.640  11.792  0.3483 -0.4233  0.3157
  261MPD2    C4 3952   0.696   2.557  11.689  0.5373 -0.2823  0.1722
  261MPD2    C5 3953   0.644   2.443  11.715 -0.9811 -0.0229 -0.5350
  261MPD2     H 3954   0.780   2.638  12.001 -0.5895  0.0332  0.1657
  261MPD2    H1 3955   0.688   2.593  11.587  1.1984 -1.9314 -0.4540
  261MPD2    H2 3956   0.621   2.275  11.834  1.6770 -0.6855  2.1673
  261MPD2    H3 3957   0.594   2.386  11.637  1.2122  0.2033 -2.1108
  261MPD2     N 3958   0.800   2.765  11.770  0.1692 -0.8813  0.8503
  261MPD2    H5 3959   0.792   2.834  11.844  0.5702  0.5723 -0.4619
  261MPD2    N1 3960   0.736   2.381  12.069 -0.1245  0.3472 -0.1161
  261MPD2    H7 3961   0.765   2.444  12.143 -2.4271  1.4162 -0.1357
  262TMC3    C1 3962   0.929   2.926  11.643  0.1829 -0.2004 -0.1923
  262TMC3    C2 3963   0.925   3.025  11.738  0.5513  0.1591 -0.6260
  262TMC3    C3 3964   0.982   3.147  11.706  0.3386  0.3236  1.2906
  262TMC3    C4 3965   0.972   2.956  11.515 -0.1537 -0.0333  0.1257
  262TMC3    C5 3966   1.019   3.083  11.490  0.1018  0.0851 -0.4318
  262TMC3    C6 3967   1.030   3.181  11.582 -0.5019 -0.5060  0.1508
  262TMC3     C 3968   0.863   2.794  11.652 -0.5952  0.0494 -0.9469
  262TMC3     O 3969   0.872   2.719  11.553  0.4852  0.2473  0.0776
  262TMC3     H 3970   0.886   3.000  11.836  0.6665 -2.5699 -1.2634
  262TMC3    H1 3971   0.959   2.885  11.433  0.7765  0.3206 -0.3203
  262TMC3    H2 3972   1.051   3.286  11.565  2.6234 -1.2627 -0.5178
  262TMC3    C7 3973   1.071   3.127  11.359 -0.1844 -0.2775 -0.6974
  262TMC3    C8 3974   0.965   3.259  11.790 -0.7696  0.1146  0.3417
  262TMC3    O1 3975   1.147   3.221  11.374  0.0600 -0.1701  0.4756
  262TMC3    O2 3976   1.053   3.340  11.785 -0.5599 -0.0707  0.1358
  263MPD2     C 3977   1.909   2.770  11.094  0.5004  0.2191 -0.3740
  263MPD2    C1 3978   1.983   2.675  11.030  0.1583 -0.0099 -0.3732
  263MPD2    C2 3979   1.988   2.668  10.893 -0.4099  0.1372 -0.5884
  263MPD2    C3 3980   1.952   2.775  10.814 -0.4512 -1.0382  0.2498
  263MPD2    C4 3981   1.867   2.868  10.874 -0.0459 -0.5083 -0.3444
  263MPD2    C5 3982   1.857   2.869  11.012 -0.1768 -0.6094 -0.5331
  263MPD2     H 3983   2.044   2.592  10.840  2.0555 -1.1851  3.8808
  263MPD2    H1 3984   1.826   2.953  10.822  1.2523  0.3329 -0.0042
  263MPD2    H2 3985   1.908   2.775  11.203  1.4907 -1.5586 -0.2831
  263MPD2    H3 3986   1.817   2.959  11.058 -1.6697 -0.9127 -1.2180
  263MPD2     N 3987   2.000   2.787  10.682 -0.0178  0.8043 -0.3184
  263MPD2    H5 3988   2.068   2.720  10.646  1.1238  1.3759  0.7854
  263MPD2    N1 3989   2.050   2.583  11.115 -0.1147 -0.2705 -0.6136
  263MPD2    H7 3990   2.026   2.588  11.213  1.8902 -3.4962  0.0258
  264TMC3    C1 3991   2.073   2.912  10.486  0.9455 -0.4001 -0.1103
  264TMC3    C2 3992   2.112   3.045  10.480 -0.1322 -1.0202 -0.1050
  264TMC3    C3 3993   2.227   3.067  10.409 -0.1376  0.3335 -0.2466
  264TMC3    C4 3994   2.138   2.802  10.429 -0.3694  0.0587 -0.2558
  264TMC3    C5 3995   2.252   2.839  10.355  0.3189 -0.6598 -1.0552
  264TMC3    C6 3996   2.298   2.971  10.346  0.1555 -0.0758 -0.1430
  264TMC3     C 3997   1.974   2.890  10.591 -0.6514  0.3966  0.1286
  264TMC3     O 3998   1.882   2.970  10.598 -0.2095 -0.2582  0.4217
  264TMC3     H 3999   2.049   3.119  10.527  1.0316  2.3253 -3.8675
  264TMC3    H1 4000   2.099   2.702  10.436 -1.2415  0.4378  0.3820
  264TMC3    H2 4001   2.392   2.989  10.295  0.8947 -0.8777  0.9208
  264TMC3    C7 4002   2.326   2.747  10.270  0.2229 -0.0961 -0.1777
  264TMC3    C8 4003   2.292   3.193  10.418 -0.1283 -0.1343 -0.3005
  264TMC3    O1 4004   2.440   2.785  10.244 -0.2505  0.5850 -0.0090
  264TMC3    O2 4005   2.415   3.190  10.406  0.3172  0.1794 -0.0767
  265MPD2     C 4006   3.841   2.984  15.532 -0.6401 -0.2836  0.2437
  265MPD2    C1 4007   3.955   3.053  15.551 -0.2708  0.1119  0.6392
  265MPD2    C2 4008   4.053   3.035  15.455 -0.3796  0.7745  0.2606
  265MPD2    C3 4009   4.015   2.982  15.331 -0.0577  0.2681  0.3470
  265MPD2    C4 4010   3.891   2.935  15.307 -0.8030  0.0042  0.1169
  265MPD2    C5 4011   3.801   2.945  15.412 -0.4671 -0.2582  0.4211
  265MPD2     H 4012   4.153   3.069  15.477 -0.5021  1.7194 -0.5868
  265MPD2    H1 4013   3.875   2.886  15.212 -1.8748  0.9158 -0.1736
  265MPD2    H2 4014   3.767   2.974  15.611  0.4369 -2.0541  1.0307
  265MPD2    H3 4015   3.708   2.892  15.399 -0.0246 -0.5659 -1.5778
  265MPD2     N 4016   4.110   2.950  15.228 -0.1255 -0.9319 -0.1558
  265MPD2    H5 4017   4.085   2.890  15.150 -0.8349 -1.1272  0.2193
  265MPD2    N1 4018   3.988   3.108  15.679 -0.1838  0.6149 -0.2571
  265MPD2    H7 4019   4.075   3.160  15.679 -0.1642  0.5792 -0.0465
  266TMC3    C1 4020   3.958   3.226  15.883  0.2543 -0.0859 -0.0285
  266TMC3    C2 4021   3.871   3.280  15.970 -0.4698 -0.2172 -0.5443
  266TMC3    C3 4022   3.911   3.391  16.043  0.0297  0.8233 -0.3058
  266TMC3    C4 4023   4.078   3.281  15.855 -0.3893 -1.2053  0.2776
  266TMC3    C5 4024   4.116   3.395  15.920 -0.3189 -0.7142 -0.9328
  266TMC3    C6 4025   4.031   3.451  16.014  0.4091 -1.2161 -0.1971
  266TMC3     C 4026   3.906   3.127  15.789  0.2487 -0.1074  0.1929
  266TMC3     O 4027   3.801   3.071  15.822  0.1656 -0.2033  0.4781
  266TMC3     H 4028   3.768   3.247  15.975 -0.0688 -1.3081  0.4302
  266TMC3    H1 4029   4.159   3.226  15.807  0.4798 -0.3560  0.7638
  266TMC3    H2 4030   4.056   3.544  16.063 -0.7902 -0.4752 -0.9847
  266TMC3    C7 4031   4.259   3.427  15.929 -0.1248 -0.6473 -0.1300
  266TMC3    C8 4032   3.821   3.451  16.140 -0.6810 -0.9973  0.5753
  266TMC3    O1 4033   4.342   3.336  15.913 -0.6137 -0.3240 -0.3712
  266TMC3    O2 4034   3.705   3.431  16.126 -0.7115 -0.0972 -0.5268
  267MPD2     C 4035   1.133   4.024  17.453 -0.4640 -0.3853 -0.6002
  267MPD2    C1 4036   1.201   4.117  17.379 -0.1031  0.6592 -0.1352
  267MPD2    C2 4037   1.182   4.110  17.238 -0.8372 -0.3971  0.0900
  267MPD2    C3 4038   1.089   4.020  17.186 -0.5001  0.2783 -0.3739
  267MPD2    C4 4039   1.015   3.936  17.265  0.1533 -0.3735  0.5341
  267MPD2    C5 4040   1.042   3.939  17.396  0.7025  1.3521  0.0983
  267MPD2     H 4041   1.236   4.179  17.173 -1.8697  1.2462  0.9728
  267MPD2    H1 4042   0.946   3.860  17.229 -1.6922  2.2091 -1.3948
  267MPD2    H2 4043   1.137   4.020  17.561 -1.2279  1.0961 -0.5063
  267MPD2    H3 4044   0.984   3.867  17.453  3.8579 -0.6010  0.7960
  267MPD2     N 4045   1.069   4.015  17.047  0.6199 -0.5473 -0.6220
  267MPD2    H5 4046   0.989   3.959  17.019  2.5017 -1.4288 -4.2217
  267MPD2    N1 4047   1.290   4.208  17.448 -0.1992  0.7478  0.7728
  267MPD2    H7 4048   1.291   4.220  17.549  0.7241  2.9909  0.5013
  268TMC3    C1 4049   1.405   4.412  17.473  0.1029  0.3523 -0.9619
  268TMC3    C2 4050   1.440   4.534  17.428  0.1971  0.1114 -0.8031
  268TMC3    C3 4051   1.471   4.638  17.516 -0.1158 -0.1353 -0.5879
  268TMC3    C4 4052   1.426   4.386  17.606  0.3565 -0.1321 -0.2705
  268TMC3    C5 4053   1.455   4.486  17.693  0.9926 -0.7069  0.0458
  268TMC3    C6 4054   1.472   4.615  17.651  0.2837 -0.5501 -0.0492
  268TMC3     C 4055   1.370   4.302  17.381  1.0680 -0.1804 -0.1971
  268TMC3     O 4056   1.383   4.323  17.261  0.2130 -0.3435 -0.2766
  268TMC3     H 4057   1.421   4.546  17.322  0.5072  1.3753 -0.7167
  268TMC3    H1 4058   1.415   4.288  17.651  1.8487 -0.6439 -1.0403
  268TMC3    H2 4059   1.528   4.687   0.011 -1.0936  1.0367 -0.6842
  268TMC3    C7 4060   1.477   4.452   0.133 -0.2168  0.4469  0.3049
  268TMC3    C8 4061   1.465   0.049  17.466  0.6267  0.0265  0.4797
  268TMC3    O1 4062   1.519   4.343   0.167  0.5033 -0.1857 -0.0614
  268TMC3    O2 4063   1.443   0.134  17.551 -0.1485  0.1052  0.4619
  269MPD2     C 4064   2.062   3.255  15.922 -0.0701 -0.0223  0.0813
  269MPD2    C1 4065   1.924   3.268  15.912 -0.1087  0.4869 -0.1037
  269MPD2    C2 4066   1.872   3.389  15.861 -0.3119 -0.4096  0.0017
  269MPD2    C3 4067   1.958   3.483  15.809  0.6303  0.1977  0.6045
  269MPD2    C4 4068   2.096   3.468  15.814  0.0022 -0.1486  0.8195
  269MPD2    C5 4069   2.146   3.358  15.877  0.5423 -0.1212 -0.4520
  269MPD2     H 4070   1.766   3.406  15.844 -0.0467  1.6176  0.3844
  269MPD2    H1 4071   2.165   3.549  15.793  0.7521 -0.9868  0.0057
  269MPD2    H2 4072   2.112   3.166  15.960  0.7367  0.1960 -0.4832
  269MPD2    H3 4073   2.248   3.356  15.913 -0.2324 -4.4002  1.5265
  269MPD2     N 4074   1.907   3.608  15.762 -0.0936  0.3499 -0.0927
  269MPD2    H5 4075   1.811   3.627  15.789 -0.5469  1.4999 -2.5335
  269MPD2    N1 4076   1.844   3.159  15.959 -0.5496  0.0728  0.0064
  269MPD2    H7 4077   1.894   3.080  15.999 -2.6809 -1.6604 -0.7233
  270TMC3    C1 4078   1.662   3.032  15.990  0.2900  0.7747 -0.6633
  270TMC3    C2 4079   1.590   2.949  15.906 -0.2009 -0.2978  0.1001
  270TMC3    C3 4080   1.560   2.826  15.956 -0.1456  0.2296  0.3010
  270TMC3    C4 4081   1.716   2.996  16.107 -0.2215 -0.6851 -0.4912
  270TMC3    C5 4082   1.683   2.873  16.154  0.4867  0.0468 -0.0919
  270TMC3    C6 4083   1.603   2.786  16.076 -0.1249  0.6515  0.0222
  270TMC3     C 4084   1.708   3.156  15.942  0.3595  0.0590 -0.9465
  270TMC3     O 4085   1.629   3.227  15.875 -0.1393  0.2949 -0.7980
  270TMC3     H 4086   1.549   2.979  15.810 -3.3311  1.7801  2.0812
  270TMC3    H1 4087   1.776   3.060  16.171  0.7339 -0.9427 -1.1295
  270TMC3    H2 4088   1.591   2.683  16.108 -2.5081  0.9573  0.1223
  270TMC3    C7 4089   1.776   2.807  16.241  1.0284  0.3285 -0.1726
  270TMC3    C8 4090   1.498   2.736  15.857 -0.3332  0.3581 -0.2255
  270TMC3    O1 4091   1.889   2.858  16.246 -0.0132  0.0318 -0.2883
  270TMC3    O2 4092   1.401   2.671  15.905 -0.1612 -0.2024 -0.3437
  271MPD2     C 4093   1.259   2.963  14.050 -0.1177  0.6009 -0.0823
  271MPD2    C1 4094   1.223   2.956  14.185  0.0559  0.5081  0.4013
  271MPD2    C2 4095   1.109   3.033  14.217 -0.5944 -0.4511 -0.2159
  271MPD2    C3 4096   1.042   3.113  14.120 -0.3475 -0.6411  0.7832
  271MPD2    C4 4097   1.092   3.119  13.994 -0.5522 -0.6073  0.4883
  271MPD2    C5 4098   1.195   3.034  13.960 -0.0921 -0.8377 -0.8041
  271MPD2     H 4099   1.073   3.033  14.319 -0.7008 -1.3447 -0.2565
  271MPD2    H1 4100   1.036   3.164  13.913 -1.2002  1.2402  1.9569
  271MPD2    H2 4101   1.338   2.905  14.003 -1.6548 -1.4150 -0.1862
  271MPD2    H3 4102   1.219   3.025  13.854  1.9913 -0.9655 -0.3189
  271MPD2     N 4103   0.922   3.181  14.145  0.0342  0.6461  0.1788
  271MPD2    H5 4104   0.868   3.207  14.063  3.3432 -0.3850 -2.3307
  271MPD2    N1 4105   1.287   2.878  14.284 -0.4895  0.3225 -0.2438
  271MPD2    H7 4106   1.254   2.892  14.378  0.5424 -1.8251  0.4369
  272TMC3    C1 4107   1.429   2.723  14.381 -0.2539 -0.0887  0.1622
  272TMC3    C2 4108   1.557   2.681  14.388 -0.3119  0.2635  0.2525
  272TMC3    C3 4109   1.612   2.639  14.504  0.6263  0.2834  0.1558
  272TMC3    C4 4110   1.345   2.720  14.496 -0.8115 -0.8901 -0.2488
  272TMC3    C5 4111   1.409   2.674  14.608 -0.5337 -0.2940 -0.1421
  272TMC3    C6 4112   1.538   2.635  14.620 -0.3577 -0.0024  0.1053
  272TMC3     C 4113   1.379   2.779  14.258  0.3515  0.2084 -0.6127
  272TMC3     O 4114   1.422   2.745  14.152 -0.4447  0.1810 -0.5933
  272TMC3     H 4115   1.615   2.676  14.296 -1.4532  2.1122 -0.5623
  272TMC3    H1 4116   1.236   2.722  14.496 -0.8013 -0.3975 -0.3516
  272TMC3    H2 4117   1.576   2.605  14.717 -0.4045  0.9444  0.4146
  272TMC3    C7 4118   1.324   2.698  14.727  0.4465 -0.5343  0.1753
  272TMC3    C8 4119   1.753   2.651  14.505  0.4268  0.1529 -0.0526
  272TMC3    O1 4120   1.201   2.697  14.719  0.0479 -0.0071 -0.0816
  272TMC3    O2 4121   1.807   2.678  14.398  0.5410  0.4309 -0.0231
  273MPD2     C 4122   2.302   1.289  11.765 -0.5141  0.2315  0.1534
  273MPD2    C1 4123   2.377   1.396  11.726 -0.0070 -0.4078  0.2754
  273MPD2    C2 4124   2.405   1.410  11.587  0.0872  0.9471  0.6693
  273MPD2    C3 4125   2.352   1.323  11.488  0.8391  0.7654  0.2444
  273MPD2    C4 4126   2.270   1.226  11.534 -0.1219  0.3470  0.0223
  273MPD2    C5 4127   2.264   1.200  11.667  0.5259 -0.2782  0.0395
  273MPD2     H 4128   2.479   1.484  11.560  1.2333  0.5600  2.7147
  273MPD2    H1 4129   2.240   1.145  11.468  2.3101 -1.5786  1.2807
  273MPD2    H2 4130   2.298   1.273  11.872 -0.2462  0.2905  0.1726
  273MPD2    H3 4131   2.214   1.106  11.691 -0.9432  0.5292  0.1534
  273MPD2     N 4132   2.377   1.338  11.350 -0.2735 -0.0472 -0.2180
  273MPD2    H5 4133   2.343   1.263  11.289 -2.4594  0.5178  0.3069
  273MPD2    N1 4134   2.417   1.490  11.825  0.9811  0.4596  1.4670
  273MPD2    H7 4135   2.422   1.461  11.922 -1.9740 -0.8184  1.2395
  274TMC3    C1 4136   2.499   1.423  11.164  0.1396 -0.6209 -0.0696
  274TMC3    C2 4137   2.434   1.356  11.062 -0.0739 -0.7158 -0.8647
  274TMC3    C3 4138   2.461   1.395  10.934  0.2096  0.0409 -0.2772
  274TMC3    C4 4139   2.592   1.511  11.139  0.0292 -0.2328  0.6500
  274TMC3    C5 4140   2.631   1.532  11.016  0.1788  0.3921  0.3073
  274TMC3    C6 4141   2.570   1.476  10.907  0.3369  0.2880  0.0564
  274TMC3     C 4142   2.435   1.450  11.298 -0.4652 -0.1895  0.8840
  274TMC3     O 4143   2.454   1.560  11.345  0.0798  0.2818 -0.0771
  274TMC3     H 4144   2.350   1.292  11.087  2.6257 -3.1775  1.9661
  274TMC3    H1 4145   2.627   1.572  11.222 -0.7581  1.0148  0.0781
  274TMC3    H2 4146   2.575   1.523  10.810  1.3006 -0.0604 -0.0664
  274TMC3    C7 4147   2.659   1.675  11.001 -0.7213 -0.1816  0.0580
  274TMC3    C8 4148   2.403   1.317  10.829  0.8085 -0.4984  0.8316
  274TMC3    O1 4149   2.555   1.724  10.962  0.6430 -0.0703  0.1832
  274TMC3    O2 4150   2.328   1.228  10.865 -0.1959  0.1866 -0.2638
  275MPD2     C 4151   2.587   4.001  14.724 -0.2815  0.7481 -0.0148
  275MPD2    C1 4152   2.514   3.996  14.838  0.1593  0.0940 -0.0711
  275MPD2    C2 4153   2.394   3.930  14.836  0.0528 -0.5470  0.1591
  275MPD2    C3 4154   2.336   3.894  14.713 -0.1064  1.0438 -0.4316
  275MPD2    C4 4155   2.413   3.895  14.598  0.5722  0.1853  0.2116
  275MPD2    C5 4156   2.541   3.952  14.603 -0.4053  0.1148  0.3148
  275MPD2     H 4157   2.328   3.938  14.921  0.4588 -0.4441  0.4624
  275MPD2    H1 4158   2.368   3.858  14.506 -0.6325  1.7459  0.1738
  275MPD2    H2 4159   2.684   4.047  14.725 -0.5558  1.2920  1.1188
  275MPD2    H3 4160   2.599   3.978  14.516  0.9451 -1.8563  0.6203
  275MPD2     N 4161   2.203   3.852  14.694 -0.1987  0.6831 -0.2821
  275MPD2    H5 4162   2.178   3.829  14.599  1.4225  2.3228 -1.1084
  275MPD2    N1 4163   2.566   4.038  14.964  0.0921 -0.4096  0.4623
  275MPD2    H7 4164   2.493   4.021  15.033  0.5567  2.8490  1.7506
  276TMC3    C1 4165   2.690   4.147  15.121  0.0480  0.3172 -0.4803
  276TMC3    C2 4166   2.613   4.094  15.224  0.0589 -0.0521 -0.1899
  276TMC3    C3 4167   2.595   4.167  15.336 -0.1394  0.0058  0.3674
  276TMC3    C4 4168   2.774   4.252  15.145 -0.2457 -0.0365 -0.0145
  276TMC3    C5 4169   2.746   4.334  15.255 -0.5102 -0.6269  0.3364
  276TMC3    C6 4170   2.657   4.288  15.355 -0.2271 -0.2048  0.7696
  276TMC3     C 4171   2.680   4.106  14.987  0.0465  0.8160  0.3677
  276TMC3     O 4172   2.753   4.157  14.908  0.4902  0.4518  0.2023
  276TMC3     H 4173   2.559   4.000  15.221  1.6988 -1.0220  0.2652
  276TMC3    H1 4174   2.840   4.285  15.065  0.0790 -1.2129 -0.2268
  276TMC3    H2 4175   2.635   4.345  15.444  1.0644  1.2001  0.1807
  276TMC3    C7 4176   2.835   4.439  15.304 -0.5125 -0.8302  0.6973
  276TMC3    C8 4177   2.527   4.116  15.452  0.1168  0.4626  0.1073
  276TMC3    O1 4178   2.835   4.454  15.426 -0.0737  0.2191 -0.6767
  276TMC3    O2 4179   2.470   4.197  15.519 -0.0878 -0.0100  0.4931
  277MPD2     C 4180   3.751   3.128  13.567  0.6926 -0.1568 -0.3237
  277MPD2    C1 4181   3.739   3.206  13.676  0.2703 -0.9260 -0.0335
  277MPD2    C2 4182   3.724   3.144  13.805  0.5302 -0.2056 -0.3085
  277MPD2    C3 4183   3.739   3.005  13.819 -0.4471 -0.0417 -0.0720
  277MPD2    C4 4184   3.759   2.933  13.703  0.5286 -0.7919 -0.4487
  277MPD2    C5 4185   3.767   2.992  13.584  0.9644  0.1574 -0.0758
  277MPD2     H 4186   3.720   3.209  13.891  1.9477  0.9423 -1.1132
  277MPD2    H1 4187   3.773   2.826  13.713 -0.4089 -0.9184 -0.4788
  277MPD2    H2 4188   3.747   3.172  13.468 -0.1708 -0.2364 -0.3265
  277MPD2    H3 4189   3.790   2.937  13.493 -1.7786  0.3905 -0.9062
  277MPD2     N 4190   3.742   2.936  13.947  0.1263  0.3402  0.0562
  277MPD2    H5 4191   3.753   2.836  13.943 -1.0969  0.1092  2.3875
  277MPD2    N1 4192   3.747   3.342  13.662  0.1397  0.4597 -0.5297
  277MPD2    H7 4193   3.752   3.375  13.567  2.0384 -2.5584 -1.4634
  278TMC3    C1 4194   3.697   2.893  14.177  0.1308  0.3032  0.6446
  278TMC3    C2 4195   3.702   2.758  14.149 -0.2199  0.2844  0.4235
  278TMC3    C3 4196   3.687   2.665  14.254 -0.2833  0.1761 -0.0949
  278TMC3    C4 4197   3.656   2.935  14.302 -0.2660 -0.1356 -0.7246
  278TMC3    C5 4198   3.642   2.838  14.401 -0.0492 -0.6232  0.2591
  278TMC3    C6 4199   3.674   2.706  14.383  0.3693  0.0458 -0.8574
  278TMC3     C 4200   3.716   2.994  14.071 -0.1906  0.3169  0.0239
  278TMC3     O 4201   3.720   3.113  14.089 -0.1223 -0.4724  0.0340
  278TMC3     H 4202   3.722   2.723  14.049  1.2434 -1.6879  1.4052
  278TMC3    H1 4203   3.637   3.039  14.328 -1.0562 -0.4556 -0.0293
  278TMC3    H2 4204   3.670   2.637  14.468 -1.9722  1.6572  0.3466
  278TMC3    C7 4205   3.592   2.877  14.531  0.4423 -0.3064 -0.0852
  278TMC3    C8 4206   3.690   2.526  14.229 -0.2179  0.7468 -0.0310
  278TMC3    O1 4207   3.631   2.802  14.620 -0.1941  0.5166 -0.1917
  278TMC3    O2 4208   3.695   2.448  14.326  0.6754  0.1950  0.1275
  279MPD2     C 4209   3.965   3.256   0.502 -0.2421  0.3437 -0.4718
  279MPD2    C1 4210   3.856   3.275   0.423  0.6764 -0.0964  0.4922
  279MPD2    C2 4211   3.856   3.241   0.293 -0.7035  0.1580 -0.0730
  279MPD2    C3 4212   3.975   3.217   0.235  0.3786  0.2060 -0.0283
  279MPD2    C4 4213   4.093   3.227   0.304  0.0927 -0.7070 -0.6982
  279MPD2    C5 4214   4.087   3.238   0.444  0.1358  0.1048 -0.1317
  279MPD2     H 4215   3.764   3.265   0.240 -0.3268  2.3730  0.2952
  279MPD2    H1 4216   4.191   3.226   0.258 -0.6481  1.0371 -2.3037
  279MPD2    H2 4217   3.956   3.275   0.608  0.5371 -1.3019 -0.1154
  279MPD2    H3 4218   4.181   3.231   0.497 -0.9255 -1.4684  1.5750
  279MPD2     N 4219   3.990   3.180   0.097  0.1650  0.7098 -0.5203
  279MPD2    H5 4220   4.082   3.191   0.057  0.1283 -1.2892 -1.1711
  279MPD2    N1 4221   3.730   3.312   0.480 -0.0285 -0.0196 -0.1039
  279MPD2    H7 4222   3.646   3.302   0.424  0.1913  0.0689 -0.4445
  280TMC3    C1 4223   3.566   3.398   0.623 -1.0295 -0.0850  0.5924
  280TMC3    C2 4224   3.487   3.288   0.646 -0.3286  0.2179 -0.5166
  280TMC3    C3 4225   3.357   3.294   0.604  0.4861  0.5225  0.4331
  280TMC3    C4 4226   3.527   3.493   0.532 -0.3507  0.8864 -0.1785
  280TMC3    C5 4227   3.394   3.497   0.499 -0.5131  0.3828 -0.1278
  280TMC3    C6 4228   3.306   3.404   0.546 -0.4825 -0.1043  0.3122
  280TMC3     C 4229   3.704   3.368   0.602  0.3381 -0.4784  0.3788
  280TMC3     O 4230   3.782   3.386   0.692 -0.0287 -0.1846 -0.7258
  280TMC3     H 4231   3.527   3.207   0.705 -1.9050 -0.1446  0.0791
  280TMC3    H1 4232   3.591   3.576   0.504 -3.0190  2.0870 -2.6082
  280TMC3    H2 4233   3.201   3.410   0.518 -0.4926 -1.0315  0.1387
  280TMC3    C7 4234   3.345   3.633   0.473  0.1959  0.3447  0.5921
  280TMC3    C8 4235   3.317   3.175   0.530  0.2220 -0.3636 -0.2414
  280TMC3    O1 4236   3.421   3.723   0.505 -0.3247  0.1625 -0.7389
  280TMC3    O2 4237   3.244   3.191   0.430 -0.3287  0.3741 -0.0317
  281TMC3    C1 4238   1.447   3.189  13.295 -1.2933  0.1184 -0.6704
  281TMC3    C2 4239   1.426   3.216  13.168  0.9786  0.2663 -1.0039
  281TMC3    C3 4240   1.398   3.121  13.081 -0.0207  0.5224  0.1122
  281TMC3    C4 4241   1.446   3.064  13.341 -0.3457 -0.0995 -0.3315
  281TMC3    C5 4242   1.433   2.961  13.247  0.1826 -0.4602  0.6701
  281TMC3    C6 4243   1.395   2.985  13.118 -0.1430 -0.1942 -0.2652
  281TMC3     C 4244   1.459   3.297  13.396 -0.0876 -0.3228  0.7900
  281TMC3     O 4245   1.516   3.279  13.502  0.7345 -0.3205 -0.0064
  281TMC3     H 4246   1.444   3.317  13.132  0.4807  0.4018 -0.8821
  281TMC3    H1 4247   1.462   3.046  13.447  0.9637  0.8946 -0.3641
  281TMC3    H2 4248   1.367   2.910  13.045  0.7158 -0.2038 -0.5882
  281TMC3    C7 4249   1.470   2.827  13.286  0.5083  0.9874  0.6838
  281TMC3    C8 4250   1.345   3.152  12.953  0.3831  0.5193 -0.3699
  281TMC3    O1 4251   1.437   2.733  13.217  0.2687  0.0764 -0.1178
  281TMC3    O2 4252   1.275   3.251  12.944  0.4174 -0.3870 -0.2788
  282MPD2     C 4253   4.009   4.716  15.222 -0.1445 -0.2374 -0.4222
  282MPD2    C1 4254   3.984   0.124  15.252 -0.1788 -0.5877 -0.0464
  282MPD2    C2 4255   3.922   0.209  15.164 -0.3926  0.1281 -0.2490
  282MPD2    C3 4256   3.889   0.157  15.043 -0.2296 -0.4071  0.6415
  282MPD2    C4 4257   3.929   0.032  15.006  0.6051  0.4902 -0.0717
  282MPD2    C5 4258   3.986   4.666  15.095  0.2747 -0.3763  0.2925
  282MPD2     H 4259   3.904   0.314  15.184 -0.3300  0.1121 -0.1069
  282MPD2    H1 4260   3.917   4.716  14.906 -1.6098 -1.7656  1.0895
  282MPD2    H2 4261   4.057   4.651  15.295  1.4281  1.5448  0.1462
  282MPD2    H3 4262   4.019   4.566  15.067 -1.5541 -0.7403 -0.5426
  282MPD2     N 4263   3.802   0.233  14.955  0.0724  0.3537 -0.3421
  282MPD2    H5 4264   3.744   0.306  14.994  0.5030 -0.0448  1.0250
  282MPD2    N1 4265   4.009   0.156  15.385 -0.5452  0.3327 -0.3984
  282MPD2    H7 4266   4.028   0.081  15.450 -2.3657  0.4575  0.2827
  283TMC3    C1 4267   3.986   0.266  15.589  0.2582  0.8830  0.1551
  283TMC3    C2 4268   3.988   0.393  15.648  0.3118  0.2223  0.1614
  283TMC3    C3 4269   3.952   0.399  15.781  0.6449 -0.3592  0.3268
  283TMC3    C4 4270   3.954   0.155  15.653 -0.0950 -0.7339  0.9083
  283TMC3    C5 4271   3.923   0.167  15.788  0.2671 -0.2963 -0.1143
  283TMC3    C6 4272   3.922   0.290  15.858  0.1519 -0.3068  0.1831
  283TMC3     C 4273   3.991   0.278  15.446 -0.8973  0.3345  0.2570
  283TMC3     O 4274   3.963   0.387  15.397 -0.0459  0.2262 -0.4028
  283TMC3     H 4275   4.039   0.473  15.596  0.1009  0.0361 -0.3301
  283TMC3    H1 4276   3.961   0.058  15.605 -0.8851 -1.8019  2.9091
  283TMC3    H2 4277   3.892   0.296  15.962 -1.6367 -1.6929 -0.2683
  283TMC3    C7 4278   3.829   0.082  15.846 -0.4408 -0.9086 -0.0597
  283TMC3    C8 4279   3.943   0.529  15.846 -0.8113 -0.2097 -0.1283
  283TMC3    O1 4280   3.840   0.066  15.969  0.1916 -0.3952 -0.5415
  283TMC3    O2 4281   3.975   0.532  15.962 -0.0935  0.5905  0.2757
  284MPD2     C 4282   2.374   4.137  12.054  0.2265  0.8177  0.1830
  284MPD2    C1 4283   2.497   4.109  11.989  0.4162  0.1181  0.0980
  284MPD2    C2 4284   2.573   4.003  12.036 -0.0853 -0.1820 -0.5420
  284MPD2    C3 4285   2.547   3.930  12.153  0.1567 -0.4681 -0.9756
  284MPD2    C4 4286   2.427   3.955  12.211  0.9140  0.1954  0.0553
  284MPD2    C5 4287   2.341   4.057  12.166 -0.0897  0.2694 -0.3851
  284MPD2     H 4288   2.675   4.002  11.997 -0.2514 -1.0954 -0.9444
  284MPD2    H1 4289   2.398   3.894  12.295 -0.5906  0.0413 -0.5875
  284MPD2    H2 4290   2.306   4.220  12.039  1.0188  2.0298  3.1468
  284MPD2    H3 4291   2.241   4.068  12.205  0.1799 -1.2737  0.7106
  284MPD2     N 4292   2.646   3.839  12.205  0.1113 -0.1565  0.9801
  284MPD2    H5 4293   2.724   3.812  12.146  0.9699  2.4271  0.9338
  284MPD2    N1 4294   2.533   4.170  11.868  0.3013 -0.4322  0.3178
  284MPD2    H7 4295   2.625   4.153  11.830  0.3692  0.5908  0.0270
  285TMC3    C1 4296   2.513   4.302  11.677 -0.0956  0.3410  0.1303
  285TMC3    C2 4297   2.585   4.211  11.607 -0.1464 -0.7403 -0.6194
  285TMC3    C3 4298   2.590   4.225  11.468  0.0007 -0.3387 -0.3205
  285TMC3    C4 4299   2.451   4.412  11.617  0.3556  0.6157 -0.0629
  285TMC3    C5 4300   2.471   4.431  11.485 -0.3526 -0.4162  0.3235
  285TMC3    C6 4301   2.534   4.334  11.403 -0.6913  0.0406 -0.6418
  285TMC3     C 4302   2.465   4.271  11.806 -0.1829  0.8212 -0.1425
  285TMC3     O 4303   2.358   4.314  11.840 -0.3689 -0.0713  0.2290
  285TMC3     H 4304   2.619   4.115  11.645 -2.1828 -1.1929  0.0472
  285TMC3    H1 4305   2.409   4.487  11.683  0.4489 -0.4845  1.2257
  285TMC3    H2 4306   2.524   4.338  11.295 -0.4189 -0.4581 -0.6856
  285TMC3    C7 4307   2.485   4.574  11.459  0.2148 -0.1630 -0.2727
  285TMC3    C8 4308   2.661   4.129  11.384 -0.7358 -0.3104  0.0911
  285TMC3    O1 4309   2.487   4.654  11.552  0.3979  0.6434 -0.2733
  285TMC3    O2 4310   2.604   4.099  11.278 -0.2333  0.5188  0.6879
  286MPD2     C 4311   2.292   3.146   2.115  0.2138  0.2585 -0.5829
  286MPD2    C1 4312   2.308   3.103   1.983  0.2117  0.3538  0.7728
  286MPD2    C2 4313   2.410   3.019   1.956  0.4434  0.9756 -0.9121
  286MPD2    C3 4314   2.498   2.983   2.064  0.1070 -0.3930 -0.5417
  286MPD2    C4 4315   2.484   3.028   2.194 -0.1327 -0.0247 -0.6007
  286MPD2    C5 4316   2.379   3.108   2.218  0.5462  0.6178 -0.1653
  286MPD2     H 4317   2.419   2.979   1.856 -0.5139 -0.3038 -0.5027
  286MPD2    H1 4318   2.553   2.995   2.271 -2.2553  0.8170  1.6337
  286MPD2    H2 4319   2.209   3.210   2.143  0.3893  0.1379  0.2042
  286MPD2    H3 4320   2.348   3.151   2.313  1.3443 -0.9313  0.7873
  286MPD2     N 4321   2.614   2.902   2.032 -0.3283 -0.7131 -0.4626
  286MPD2    H5 4322   2.664   2.884   2.118  1.0433 -2.2127 -1.5715
  286MPD2    N1 4323   2.221   3.130   1.873  0.5377 -0.3022  0.4775
  286MPD2    H7 4324   2.242   3.101   1.778 -0.7643  0.1236  0.0585
  287TMC3    C1 4325   2.800   2.831   1.891 -0.3078 -0.6026 -0.0524
  287TMC3    C2 4326   2.830   2.779   1.764  0.0948 -0.6758 -0.6350
  287TMC3    C3 4327   2.963   2.749   1.742 -0.2579 -0.1728 -0.0777
  287TMC3    C4 4328   2.890   2.865   1.987  0.1701  0.0842 -0.1807
  287TMC3    C5 4329   3.017   2.832   1.960 -0.0352  0.0142  0.2396
  287TMC3    C6 4330   3.062   2.772   1.839 -0.1772  0.9742 -0.3885
  287TMC3     C 4331   2.661   2.875   1.904 -0.1382  0.7996 -0.9344
  287TMC3     O 4332   2.608   2.895   1.795 -0.4629 -0.8264  0.0696
  287TMC3     H 4333   2.748   2.756   1.698 -1.4888  0.9094  0.7653
  287TMC3    H1 4334   2.862   2.922   2.075 -0.8000  0.0480 -0.4707
  287TMC3    H2 4335   3.161   2.736   1.814 -0.5569  0.7310 -1.5481
  287TMC3    C7 4336   3.125   2.899   2.035  0.2709  0.7572 -0.2537
  287TMC3    C8 4337   2.991   2.661   1.629  0.0455  0.5143  0.2828
  287TMC3    O1 4338   3.110   2.918   2.159 -0.1991 -0.3549 -0.7298
  287TMC3    O2 4339   3.071   2.570   1.635  0.3850  0.3096  0.0444
  288TMC3    C1 4340   0.065   2.214  13.665 -0.9211 -0.1029 -0.1605
  288TMC3    C2 4341   0.063   2.244  13.798 -0.3142 -0.0189  0.3716
  288TMC3    C3 4342   0.010   2.368  13.827  0.1600 -0.2172 -0.0086
  288TMC3    C4 4343   4.720   2.288  13.573  0.3068  0.1850 -0.5645
  288TMC3    C5 4344   4.668   2.411  13.612  0.1557 -0.2026  0.3195
  288TMC3    C6 4345   4.673   2.453  13.738 -0.4654 -0.0016 -0.5359
  288TMC3     C 4346   0.111   2.079  13.617 -0.4302 -0.3028  0.4829
  288TMC3     O 4347   0.038   2.018  13.544 -0.1285  0.3076  0.2805
  288TMC3     H 4348   0.087   2.171  13.874  2.2109 -0.1140 -0.5182
  288TMC3    H1 4349   0.014   2.261  13.470 -1.1692  1.6191 -1.1876
  288TMC3    H2 4350   4.609   2.535  13.772 -0.8458  0.1524 -1.6335
  288TMC3    C7 4351   4.570   2.479  13.528  0.0325  0.6573 -0.2142
  288TMC3    C8 4352   0.016   2.415  13.963  0.1893  0.1922 -0.7266
  288TMC3    O1 4353   4.574   2.601  13.532  0.4444 -0.5306  0.2830
  288TMC3    O2 4354   0.049   2.532  13.970  0.4417  0.7801  0.2094
  289MPD2     C 4355   4.682   1.809  14.907  0.7904  0.2564  0.3765
  289MPD2    C1 4356   0.052   1.817  14.813  0.3237 -0.3266  0.1765
  289MPD2    C2 4357   0.023   1.784  14.681  0.2328  0.8314  0.0795
  289MPD2    C3 4358   4.618   1.748  14.646 -0.4845 -0.0147  0.6123
  289MPD2    C4 4359   4.522   1.733  14.744 -0.1407  0.1706 -0.1209
  289MPD2    C5 4360   4.555   1.774  14.873  0.4978  0.5033 -0.1887
  289MPD2     H 4361   0.097   1.787  14.602 -0.2102 -1.5662 -0.4285
  289MPD2    H1 4362   4.423   1.698  14.717  0.2551 -0.9590 -0.1394
  289MPD2    H2 4363   4.702   1.846  15.007  0.8468  0.7373  0.1888
  289MPD2    H3 4364   4.477   1.761  14.946 -0.9821  2.0651 -1.5054
  289MPD2     N 4365   4.591   1.727  14.512 -0.1961  0.5865 -0.0644
  289MPD2    H5 4366   4.499   1.686  14.493 -0.0944 -0.5949  2.0184
  289MPD2    N1 4367   0.182   1.853  14.856 -0.4783 -0.0250  0.4424
  289MPD2    H7 4368   0.194   1.881  14.953  0.9938 -0.7691  0.4689
  290TMC3    C1 4369   4.575   1.755  14.283  0.2038 -0.2241 -0.1667
  290TMC3    C2 4370   4.530   1.871  14.228 -0.4074  0.4693  0.9981
  290TMC3    C3 4371   4.408   1.866  14.173 -0.0488  0.4642  0.3142
  290TMC3    C4 4372   4.494   1.639  14.284  0.3351  0.7096 -0.3530
  290TMC3    C5 4373   4.372   1.640  14.215  0.3360  0.0562 -0.5241
  290TMC3    C6 4374   4.328   1.756  14.164 -0.0754 -0.1807 -0.1831
  290TMC3     C 4375   4.654   1.781  14.403  0.4799 -0.2807 -0.0648
  290TMC3     O 4376   0.006   1.880  14.405 -0.6751 -0.2515 -0.3386
  290TMC3     H 4377   4.578   1.967  14.241 -0.4112  0.5504  0.4239
  290TMC3    H1 4378   4.522   1.546  14.332 -2.0961 -0.1526 -0.6103
  290TMC3    H2 4379   4.235   1.758  14.109  0.4027  1.1715 -0.9518
  290TMC3    C7 4380   4.347   1.535  14.125 -0.2883  0.6939  1.4253
  290TMC3    C8 4381   4.343   1.993  14.194  0.4958 -0.0121  0.4081
  290TMC3    O1 4382   4.319   1.573  14.014  0.2258  0.4684 -0.0189
  290TMC3    O2 4383   4.388   2.065  14.285 -0.3672  0.0446  0.6515
  291MPD2     C 4384   3.678   1.678   0.294 -0.6093  0.8093  0.8433
  291MPD2    C1 4385   3.579   1.706   0.389 -0.1444 -0.7640 -0.1948
  291MPD2    C2 4386   3.604   1.806   0.485  0.0049  0.0551 -0.0922
  291MPD2    C3 4387   3.713   1.886   0.468  0.6945 -0.0257  0.0588
  291MPD2    C4 4388   3.807   1.855   0.376  0.1755  0.3593 -0.7094
  291MPD2    C5 4389   3.800   1.746   0.296 -0.2794 -0.2172  0.0379
  291MPD2     H 4390   3.531   1.825   0.563  1.9744  2.5259  1.1616
  291MPD2    H1 4391   3.896   1.916   0.369  0.1462  0.5203  0.2626
  291MPD2    H2 4392   3.673   1.591   0.229  0.8048  0.8237  0.7093
  291MPD2    H3 4393   3.873   1.737   0.215 -0.5297 -0.1050 -0.2011
  291MPD2     N 4394   3.747   1.998   0.548  0.4190 -0.1127 -0.1505
  291MPD2    H5 4395   3.841   2.035   0.552  0.7351 -0.9061 -0.2635
  291MPD2    N1 4396   3.467   1.623   0.405 -0.1238 -0.3145  0.2803
  291MPD2    H7 4397   3.411   1.634   0.489 -2.7997 -0.2131 -1.5333
  292TMC3    C1 4398   3.309   1.450   0.356  0.2005  0.4664 -0.3405
  292TMC3    C2 4399   3.242   1.473   0.475  0.0973 -0.7234  0.5474
  292TMC3    C3 4400   3.142   1.378   0.508  0.4507  0.2343 -0.2230
  292TMC3    C4 4401   3.277   1.344   0.269  0.3932 -0.1740 -0.1742
  292TMC3    C5 4402   3.178   1.260   0.310 -0.5216  0.5411 -0.3469
  292TMC3    C6 4403   3.109   1.272   0.425  0.4106 -0.0034 -0.2889
  292TMC3     C 4404   3.422   1.533   0.311 -1.2018  0.5591 -0.4403
  292TMC3     O 4405   3.465   1.503   0.200 -0.2020  0.4761  0.2746
  292TMC3     H 4406   3.255   1.564   0.532  2.2170  0.1785 -1.3825
  292TMC3    H1 4407   3.318   1.321   0.171  1.9444  2.2438 -0.0789
  292TMC3    H2 4408   3.050   1.192   0.468  0.6297  0.0220  0.0559
  292TMC3    C7 4409   3.188   1.130   0.247  0.0211 -0.0848 -0.2757
  292TMC3    C8 4410   3.104   1.367   0.648  0.3511 -0.4908 -0.5552
  292TMC3    O1 4411   3.280   1.108   0.165 -0.1172 -0.1026 -0.0411
  292TMC3    O2 4412   3.173   1.430   0.723 -0.9032  0.0634  0.1580
  293MPD2     C 4413   0.464   3.209  12.908 -0.3502  0.8203 -0.2495
  293MPD2    C1 4414   0.444   3.092  12.977 -0.0562  0.4439 -0.0848
  293MPD2    C2 4415   0.484   3.088  13.116  0.0341  0.7494  0.5496
  293MPD2    C3 4416   0.551   3.192  13.175 -0.4261  0.1987 -0.0051
  293MPD2    C4 4417   0.586   3.297  13.089  0.2053  0.7759  0.1848
  293MPD2    C5 4418   0.538   3.313  12.965  0.8655  0.4241  0.1174
  293MPD2     H 4419   0.460   3.005  13.182  0.6692 -0.8092 -1.1672
  293MPD2    H1 4420   0.650   3.381  13.115 -0.0627  0.7322  0.9885
  293MPD2    H2 4421   0.444   3.201  12.802 -1.5624 -0.2054  0.0556
  293MPD2    H3 4422   0.576   3.393  12.903  0.0511  1.0545  0.4473
  293MPD2     N 4423   0.581   3.187  13.315 -0.1306  0.5105  0.2671
  293MPD2    H5 4424   0.566   3.099  13.362  0.2942  1.1296  1.5756
  293MPD2    N1 4425   0.379   2.984  12.913  0.6217  0.5834 -0.3674
  293MPD2    H7 4426   0.332   3.000  12.824 -1.1163 -0.9706  0.2533
  294TMC3    C1 4427   0.275   2.777  12.887  0.1587  0.1957  1.0584
  294TMC3    C2 4428   0.212   2.667  12.943 -0.0210 -0.4450  0.6827
  294TMC3    C3 4429   0.171   2.567  12.861 -0.3131 -0.4467 -0.5367
  294TMC3    C4 4430   0.283   2.789  12.748 -0.1837  0.9945  0.4544
  294TMC3    C5 4431   0.241   2.685  12.673 -0.2257 -0.2441  0.0571
  294TMC3    C6 4432   0.186   2.575  12.727 -0.3756  0.0971  0.2495
  294TMC3     C 4433   0.345   2.869  12.980  0.0889  1.3961  0.2247
  294TMC3     O 4434   0.371   2.816  13.085  0.0586 -0.5986  0.3129
  294TMC3     H 4435   0.193   2.672  13.050  0.3290 -2.9464  0.8433
  294TMC3    H1 4436   0.334   2.873  12.702  2.0774 -0.7501 -0.1868
  294TMC3    H2 4437   0.134   2.505  12.661  0.4591  0.5713 -0.9030
  294TMC3    C7 4438   0.278   2.686  12.536  0.2380 -0.2555 -0.5390
  294TMC3    C8 4439   0.089   2.460  12.925  0.1832  0.2847  0.2729
  294TMC3    O1 4440   0.286   2.796  12.479 -0.2027  0.2950 -0.0226
  294TMC3    O2 4441   0.052   2.477  13.040 -0.2065  0.7077  0.1699
  295MPD2     C 4442   1.122   1.120   1.247  0.9190  0.3703 -0.6820
  295MPD2    C1 4443   1.012   1.212   1.237  0.4269  0.0414 -0.7616
  295MPD2    C2 4444   0.933   1.239   1.354 -0.0309 -0.4039  0.8525
  295MPD2    C3 4445   0.954   1.169   1.471 -0.6741 -0.9174 -0.1442
  295MPD2    C4 4446   1.061   1.081   1.470  0.1820  0.4009 -0.1394
  295MPD2    C5 4447   1.135   1.051   1.365 -0.3425  0.5256  0.1252
  295MPD2     H 4448   0.864   1.322   1.353 -1.4349 -1.5992 -0.3743
  295MPD2    H1 4449   1.082   1.022   1.559 -0.0242 -1.3453 -1.2554
  295MPD2    H2 4450   1.180   1.099   1.158  1.8294  0.6181 -0.1416
  295MPD2    H3 4451   1.207   0.971   1.377 -1.1019  0.3026  3.0177
  295MPD2     N 4452   0.898   1.201   1.597  0.0446  0.2942  0.1735
  295MPD2    H5 4453   0.939   1.161   1.682  1.2218  2.0295  0.4211
  295MPD2    N1 4454   0.987   1.279   1.121 -0.1940 -0.4337  0.0371
  295MPD2    H7 4455   0.910   1.344   1.120 -0.4961 -0.7464  3.0575
  296TMC3    C1 4456   0.781   1.312   1.759 -0.1951  0.0996 -0.3582
  296TMC3    C2 4457   0.743   1.436   1.782  0.7602  0.0376 -0.2161
  296TMC3    C3 4458   0.741   1.476   1.908 -0.4030  0.7136 -0.1089
  296TMC3    C4 4459   0.816   1.218   1.857 -0.0726  0.3144 -0.2455
  296TMC3    C5 4460   0.810   1.261   1.987 -0.2631 -0.6192 -0.0074
  296TMC3    C6 4461   0.773   1.394   2.010 -0.0161  0.1734 -0.2540
  296TMC3     C 4462   0.804   1.295   1.621 -0.5941 -0.5676  0.2057
  296TMC3     O 4463   0.733   1.366   1.545 -0.2201 -0.6967 -0.4802
  296TMC3     H 4464   0.716   1.510   1.707 -1.6566 -1.4285 -0.7852
  296TMC3    H1 4465   0.855   1.119   1.839  0.3528  0.5769 -0.7872
  296TMC3    H2 4466   0.766   1.428   2.113 -0.5672 -0.0941 -0.2050
  296TMC3    C7 4467   0.831   1.179   2.101 -0.2690  0.4521 -0.0411
  296TMC3    C8 4468   0.708   1.614   1.923 -0.3069  0.2096  0.0402
  296TMC3    O1 4469   0.840   1.239   2.207  0.4252  0.4271 -0.2312
  296TMC3    O2 4470   0.610   1.653   1.857  0.5957  0.1218  0.3227
  297MPD2     C 4471   3.195   3.569  15.981 -0.3106  0.6127 -0.7658
  297MPD2    C1 4472   3.174   3.702  15.990  0.0503  0.2520 -0.1397
  297MPD2    C2 4473   3.275   3.784  16.034 -0.1963 -0.3850  0.1527
  297MPD2    C3 4474   3.400   3.742  16.062  0.0354  0.0987 -0.6986
  297MPD2    C4 4475   3.424   3.609  16.044 -0.6981 -0.1468 -0.4829
  297MPD2    C5 4476   3.324   3.525  16.013  0.1903 -0.0964  0.0268
  297MPD2     H 4477   3.252   3.888  16.052 -1.6181 -0.6919  0.1031
  297MPD2    H1 4478   3.518   3.559  16.063  0.3964  1.8655 -0.6010
  297MPD2    H2 4479   3.116   3.496  15.971  0.1805 -0.2379  1.5833
  297MPD2    H3 4480   3.333   3.417  16.007  1.8332 -0.1419  3.2910
  297MPD2     N 4481   3.501   3.811  16.137 -0.4146  0.7906 -0.2366
  297MPD2    H5 4482   3.585   3.760  16.161 -2.0017 -1.1843  1.0750
  297MPD2    N1 4483   3.049   3.767  15.954  0.3621  0.2705  0.0434
  297MPD2    H7 4484   3.048   3.868  15.961  1.5736  0.2545  0.3162
  298TMC3    C1 4485   2.815   3.793  15.916 -0.2753  0.1981 -0.5745
  298TMC3    C2 4486   2.844   3.909  15.852 -0.0639 -0.0675  0.5126
  298TMC3    C3 4487   2.746   4.008  15.843 -0.3359  0.1912  0.4398
  298TMC3    C4 4488   2.698   3.760  15.970 -0.2798  0.1941  0.7039
  298TMC3    C5 4489   2.606   3.864  15.968  0.2226  0.2775 -0.1365
  298TMC3    C6 4490   2.622   3.985  15.902 -0.2808  0.5050 -0.5868
  298TMC3     C 4491   2.925   3.703  15.948 -0.0063 -0.4139 -0.5540
  298TMC3     O 4492   2.903   3.593  15.985 -0.6458  0.1727  0.0103
  298TMC3     H 4493   2.939   3.939  15.810 -0.4655  0.4793 -0.0091
  298TMC3    H1 4494   2.693   3.671  16.032  0.4679 -0.4942 -0.2106
  298TMC3    H2 4495   2.537   4.050  15.886  0.1151  1.4490  1.2162
  298TMC3    C7 4496   2.477   3.853  16.044  0.2156 -0.3609  0.3600
  298TMC3    C8 4497   2.789   4.147  15.821  0.5076  0.1566 -0.2168
  298TMC3    O1 4498   2.406   3.955  16.043 -0.2864  0.3208 -0.2183
  298TMC3    O2 4499   2.879   4.163  15.739  0.9132 -0.0876 -0.1228
  299MPD2     C 4500   4.099   3.453  10.961 -0.3850 -0.2665  0.0159
  299MPD2    C1 4501   4.039   3.381  11.063 -0.4974 -0.2648  0.3174
  299MPD2    C2 4502   3.950   3.280  11.037  0.4375 -0.1698 -0.2167
  299MPD2    C3 4503   3.935   3.237  10.899 -0.1652  0.0291  0.2530
  299MPD2    C4 4504   4.013   3.299  10.801 -0.3304  0.1566  0.8510
  299MPD2    C5 4505   4.093   3.402  10.832  0.5114 -0.2023  0.1415
  299MPD2     H 4506   3.892   3.234  11.116  0.8257  1.5704  1.0859
  299MPD2    H1 4507   4.005   3.263  10.699 -1.8887  0.7574  0.7615
  299MPD2    H2 4508   4.176   3.529  10.965  0.3141 -0.8955 -1.6591
  299MPD2    H3 4509   4.151   3.460  10.762 -0.8774  1.7221  0.5703
  299MPD2     N 4510   3.857   3.137  10.854 -0.1535 -0.2500 -0.3873
  299MPD2    H5 4511   3.845   3.131  10.754  0.1144  0.3842 -0.4565
  299MPD2    N1 4512   4.064   3.432  11.190  0.0111 -0.5451  0.8859
  299MPD2    H7 4513   4.129   3.509  11.196 -0.3640 -0.1408 -0.2466
  300TMC3    C1 4514   3.717   2.962  10.838  0.1496 -0.0822  0.3433
  300TMC3    C2 4515   3.755   2.953  10.703  0.2634  0.1168 -0.9860
  300TMC3    C3 4516   3.679   2.879  10.620  0.1903  0.2110 -0.0545
  300TMC3    C4 4517   3.614   2.890  10.881  0.3274  0.1189 -0.0899
  300TMC3    C5 4518   3.543   2.807  10.797 -0.0866  1.0524  0.1602
  300TMC3    C6 4519   3.574   2.798  10.660 -0.0717  0.2081  0.6777
  300TMC3     C 4520   3.785   3.046  10.929  0.3475  0.4493  0.0823
  300TMC3     O 4521   3.778   3.032  11.051  0.4890 -0.0010 -0.6100
  300TMC3     H 4522   3.845   3.002  10.670  0.0532  0.9138 -0.3761
  300TMC3    H1 4523   3.577   2.905  10.982  0.1522  0.5130 -0.2167
  300TMC3    H2 4524   3.515   2.733  10.597  3.1570 -1.3697 -0.7504
  300TMC3    C7 4525   3.403   2.810  10.833  0.7609  0.6660  0.6591
  300TMC3    C8 4526   3.661   2.958  10.498 -0.1366 -0.6739 -0.0858
  300TMC3    O1 4527   3.353   2.702  10.866  0.1323  0.0449 -0.2770
  300TMC3    O2 4528   3.746   3.044  10.475  0.2772 -0.2513 -0.1799
  301MPD2     C 4529   1.180   4.400   1.632 -0.4361 -0.6815 -0.4299
  301MPD2    C1 4530   1.126   4.373   1.509 -0.1740  0.1811  0.0325
  301MPD2    C2 4531   1.176   4.261   1.439 -0.4952  0.7393 -0.3159
  301MPD2    C3 4532   1.278   4.182   1.487 -0.2840  0.3228 -0.0185
  301MPD2    C4 4533   1.338   4.212   1.609  0.1681  0.2161  0.8707
  301MPD2    C5 4534   1.281   4.316   1.682  0.6073  0.4622 -0.1901
  301MPD2     H 4535   1.142   4.240   1.338 -0.6909  0.5002 -0.2023
  301MPD2    H1 4536   1.425   4.160   1.646  0.8364  0.3426 -0.5350
  301MPD2    H2 4537   1.148   4.477   1.702  1.7569  0.9717 -1.2420
  301MPD2    H3 4538   1.320   4.345   1.778 -0.8352  0.9635  0.2449
  301MPD2     N 4539   1.333   4.064   1.427 -0.2965 -0.2659 -0.3279
  301MPD2    H5 4540   1.401   4.015   1.483  1.7846  1.5764 -1.2572
  301MPD2    N1 4541   1.013   4.438   1.459  0.3178  0.7789  0.2543
  301MPD2    H7 4542   0.970   4.392   1.380  0.6760 -0.5944  0.8609
  302TMC3    C1 4543   1.387   3.913   1.242  0.2218 -0.1167 -0.5461
  302TMC3    C2 4544   1.490   3.859   1.310 -0.1468  0.0285 -0.1352
  302TMC3    C3 4545   1.570   3.768   1.248  0.0010 -0.0895  0.1239
  302TMC3    C4 4546   1.371   3.886   1.106  0.3775  0.4155 -0.6649
  302TMC3    C5 4547   1.453   3.791   1.041 -0.1869  0.1991  0.3672
  302TMC3    C6 4548   1.553   3.732   1.116  0.1620 -0.2542 -0.0427
  302TMC3     C 4549   1.294   4.011   1.303 -0.1789  0.6461  0.7238
  302TMC3     O 4550   1.200   4.047   1.236 -0.3159 -0.2576 -0.2633
  302TMC3     H 4551   1.496   3.880   1.416  0.8779  2.0857 -0.5829
  302TMC3    H1 4552   1.289   3.932   1.052 -0.5599 -0.9587 -0.4065
  302TMC3    H2 4553   1.624   3.660   1.077  0.8945  1.3443 -1.6325
  302TMC3    C7 4554   1.486   3.812   0.903  0.4809  0.1815  0.2901
  302TMC3    C8 4555   1.682   3.710   1.321  0.1129 -0.1481 -0.1850
  302TMC3    O1 4556   1.594   3.784   0.855  0.3088  0.3362 -0.3785
  302TMC3    O2 4557   1.772   3.664   1.250 -0.3507 -0.1910  0.9444
  303MPD2     C 4558   1.359   2.509  10.225  0.4501 -0.4126 -0.0741
  303MPD2    C1 4559   1.225   2.476  10.212 -0.6623  0.0318  0.1765
  303MPD2    C2 4560   1.184   2.388  10.103 -0.2962  0.6035 -0.2967
  303MPD2    C3 4561   1.280   2.330  10.025  0.5761 -0.1764  0.0489
  303MPD2    C4 4562   1.414   2.361  10.046 -0.0584  0.1738 -0.2466
  303MPD2    C5 4563   1.450   2.454  10.140 -0.8063  0.7481 -0.3802
  303MPD2     H 4564   1.083   2.351  10.087 -0.5795  0.8272  0.9891
  303MPD2    H1 4565   1.485   2.309   9.983  1.6699  1.8189  0.3341
  303MPD2    H2 4566   1.389   2.571  10.309 -1.0762 -0.2099  0.3234
  303MPD2    H3 4567   1.555   2.480  10.148  0.0112 -3.0947  1.4650
  303MPD2     N 4568   1.244   2.241   9.921 -0.6233  0.5750  0.0416
  303MPD2    H5 4569   1.318   2.192   9.872 -2.0998 -0.3080 -1.3196
  303MPD2    N1 4570   1.136   2.533  10.307 -0.2058 -0.5365  0.8919
  303MPD2    H7 4571   1.173   2.585  10.386  0.3977 -1.4452  1.2012
  304TMC3    C1 4572   0.955   2.537  10.437 -0.0008 -0.3855 -0.0398
  304TMC3    C2 4573   0.828   2.573  10.440 -0.3896 -0.2198 -0.0931
  304TMC3    C3 4574   0.759   2.578  10.554  0.0700  0.7459 -0.0957
  304TMC3    C4 4575   1.019   2.484  10.552 -0.0715  0.6021  0.0253
  304TMC3    C5 4576   0.947   2.494  10.671  0.2572  0.6678 -0.4947
  304TMC3    C6 4577   0.820   2.551  10.672  0.0057 -0.3508  0.1807
  304TMC3     C 4578   1.006   2.502  10.308  0.0712 -0.2925 -0.2237
  304TMC3     O 4579   0.933   2.438  10.230 -0.1000  0.0088 -1.0412
  304TMC3     H 4580   0.776   2.586  10.346 -0.3340  0.5507 -0.0132
  304TMC3    H1 4581   1.118   2.439  10.549 -0.7585 -0.9312  0.1725
  304TMC3    H2 4582   0.768   2.543  10.767  1.5616  1.3556  1.1851
  304TMC3    C7 4583   0.941   2.360  10.725  0.2393  0.3013 -0.1265
  304TMC3    C8 4584   0.627   2.517  10.535 -0.2575  0.0979  0.3327
  304TMC3    O1 4585   0.966   2.271  10.645 -0.1803 -0.2601  0.2722
  304TMC3    O2 4586   0.611   2.435  10.445 -0.1068 -0.0452  0.3508
  305MPD2     C 4587   3.791   0.404  14.301  0.0129  0.6982 -0.0574
  305MPD2    C1 4588   3.897   0.329  14.328 -0.6775  0.1661 -0.8847
  305MPD2    C2 4589   3.927   0.222  14.239  0.8392  0.1604  0.1118
  305MPD2    C3 4590   3.843   0.187  14.132  0.1722 -0.0265 -0.6411
  305MPD2    C4 4591   3.721   0.260  14.120 -0.3180  0.2638 -0.6216
  305MPD2    C5 4592   3.701   0.369  14.202 -0.3656  0.2115 -0.0547
  305MPD2     H 4593   4.022   0.171  14.248  0.1910 -1.4802 -2.2604
  305MPD2    H1 4594   3.644   0.230  14.049  0.9056 -2.2566 -0.9002
  305MPD2    H2 4595   3.756   0.476  14.373 -3.2568 -0.3162 -0.6542
  305MPD2    H3 4596   3.602   0.412  14.195 -0.0856  0.5251 -1.9015
  305MPD2     N 4597   3.876   0.089  14.033 -0.3123  0.5578 -0.3728
  305MPD2    H5 4598   3.806   0.061  13.965 -0.0284  1.6686 -1.1259
  305MPD2    N1 4599   3.974   0.365  14.442 -0.6206 -0.4148 -0.4224
  305MPD2    H7 4600   3.940   0.435  14.507  0.2502 -0.5562  0.1857
  306TMC3    C1 4601   4.091   0.333  14.646  0.3159 -0.4258 -0.2900
  306TMC3    C2 4602   4.136   0.228  14.725 -0.0874 -0.3325 -0.3125
  306TMC3    C3 4603   4.208   0.268  14.841  0.4094  0.0543 -0.2602
  306TMC3    C4 4604   4.150   0.455  14.651 -0.0294 -1.1065 -0.1623
  306TMC3    C5 4605   4.229   0.483  14.754  0.7313  0.9016  0.3008
  306TMC3    C6 4606   4.260   0.395  14.852 -0.4165  0.3517 -0.1495
  306TMC3     C 4607   4.059   0.283  14.508 -0.4360  0.7491  0.1174
  306TMC3     O 4608   4.093   0.173  14.476  0.3987 -0.0846 -0.3472
  306TMC3     H 4609   4.099   0.126  14.723 -2.0252  0.3725 -0.7151
  306TMC3    H1 4610   4.129   0.530  14.575 -0.2634  0.8865  1.8617
  306TMC3    H2 4611   4.317   0.413  14.943 -1.8916  1.4630  0.5571
  306TMC3    C7 4612   4.315   0.605  14.745  0.4418 -0.8297  0.2331
  306TMC3    C8 4613   4.264   0.150  14.914 -0.3013 -0.0112  0.0206
  306TMC3    O1 4614   4.367   0.623  14.634 -0.3318  0.0524 -0.6239
  306TMC3    O2 4615   4.278   0.043  14.853 -0.3907  0.1442 -0.1370
  307MPD2     C 4616   2.507   2.778   0.649 -0.5405  0.4162 -0.2121
  307MPD2    C1 4617   2.407   2.811   0.558 -0.7855 -0.3582 -0.8640
  307MPD2    C2 4618   2.358   2.938   0.551  0.5496  0.6781 -0.0384
  307MPD2    C3 4619   2.374   3.020   0.658 -0.3601 -0.2327 -0.2317
  307MPD2    C4 4620   2.463   2.991   0.755  0.2289  0.0183 -0.3130
  307MPD2    C5 4621   2.539   2.878   0.738  0.1326 -0.9078 -0.1552
  307MPD2     H 4622   2.288   2.969   0.475 -0.4746  2.1719  1.5264
  307MPD2    H1 4623   2.484   3.047   0.845  2.4714 -0.0075 -0.8216
  307MPD2    H2 4624   2.551   2.681   0.667 -0.2838  0.7524  0.9918
  307MPD2    H3 4625   2.611   2.866   0.817  2.2828  1.4453 -1.7499
  307MPD2     N 4626   2.309   3.147   0.660 -0.0577  0.1605 -0.1790
  307MPD2    H5 4627   2.244   3.167   0.584  1.0158  4.2979 -0.0036
  307MPD2    N1 4628   2.366   2.713   0.461 -0.1186  0.4677 -0.2931
  307MPD2    H7 4629   2.287   2.733   0.401 -0.4048 -2.4185 -0.8541
  308TMC3    C1 4630   2.004   3.414   0.810  0.4587  0.7709  0.6320
  308TMC3    C2 4631   1.960   3.426   0.676  0.8079 -0.1126 -0.1991
  308TMC3    C3 4632   2.048   3.395   0.585  0.1093  0.5232 -0.8362
  308TMC3    C4 4633   2.123   3.358   0.846  0.2476 -0.0929 -0.0546
  308TMC3    C5 4634   2.212   3.335   0.744 -0.0963 -0.1123  0.6417
  308TMC3    C6 4635   2.174   3.352   0.614 -0.6779  0.0639  0.0091
  308TMC3     C 4636   1.907   3.421   0.919  0.1831 -0.0777  0.4767
  308TMC3     O 4637   1.956   3.444   1.032  0.3596 -0.8089  0.3179
  308TMC3     H 4638   1.865   3.473   0.653  1.2399  0.0928 -1.5121
  308TMC3    H1 4639   2.156   3.361   0.949  1.5601  0.6428 -0.4917
  308TMC3    H2 4640   2.242   3.352   0.529  0.1260 -1.9271  0.6545
  308TMC3    C7 4641   2.307   3.230   0.767  0.1331 -0.8625 -0.2779
  308TMC3    C8 4642   2.026   3.434   0.450 -0.5687  0.0234  0.4967
  308TMC3    O1 4643   2.327   3.208   0.883  0.3450  0.0905 -0.1456
  308TMC3    O2 4644   2.128   3.470   0.387 -0.0651 -0.3785  0.1244
  309MPD2     C 4645   0.804   2.926  17.178  0.7698  0.0599  0.9907
  309MPD2    C1 4646   0.782   3.029  17.083  0.0463  0.1536 -0.0255
  309MPD2    C2 4647   0.783   3.159  17.124 -0.2223 -0.4177  0.1711
  309MPD2    C3 4648   0.799   3.190  17.264 -0.4053  0.7653  0.4012
  309MPD2    C4 4649   0.827   3.088  17.353 -0.3197 -0.5150 -0.3711
  309MPD2    C5 4650   0.821   2.961  17.310  0.2168 -0.4371 -0.8806
  309MPD2     H 4651   0.776   3.241  17.054  1.3947 -0.3874  0.0393
  309MPD2    H1 4652   0.838   3.106  17.459 -0.2440 -0.3199 -0.4125
  309MPD2    H2 4653   0.804   2.819  17.159  0.0433  0.2992 -0.3470
  309MPD2    H3 4654   0.838   2.875  17.374 -1.9521 -0.7004 -0.6794
  309MPD2     N 4655   0.792   3.318  17.322 -0.0211  0.1458  0.2138
  309MPD2    H5 4656   0.807   3.325  17.422  0.0450 -0.6840  0.2563
  309MPD2    N1 4657   0.792   3.000  16.940  0.5009  0.4831  0.4465
  309MPD2    H7 4658   0.794   3.081  16.878 -1.7811  1.7152  1.9979
  310TMC3    C1 4659   0.881   2.862  16.751 -0.5341 -0.5122 -0.5510
  310TMC3    C2 4660   0.832   2.946  16.653  0.5016 -0.6361 -1.0321
  310TMC3    C3 4661   0.902   2.930  16.539 -0.0701  0.3232 -0.6049
  310TMC3    C4 4662   0.982   2.769  16.742 -0.0656 -0.4194  0.2118
  310TMC3    C5 4663   1.053   2.768  16.623  0.9432  0.2069 -0.2663
  310TMC3    C6 4664   1.018   2.854  16.520 -0.9961 -0.3341  0.3784
  310TMC3     C 4665   0.829   2.871  16.888  0.2055  0.6346  0.2635
  310TMC3     O 4666   0.818   2.764  16.948 -0.2356 -0.1842  0.0279
  310TMC3     H 4667   0.742   3.005  16.667  1.7178  1.8562 -3.5755
  310TMC3    H1 4668   1.011   2.711  16.829 -1.0795  0.1985  0.9548
  310TMC3    H2 4669   1.074   2.846  16.428 -0.8626 -0.9863  0.5173
  310TMC3    C7 4670   1.177   2.688  16.623 -0.3152 -1.1686  0.4422
  310TMC3    C8 4671   0.876   3.019  16.423 -0.3536 -0.4314  0.2321
  310TMC3    O1 4672   1.164   2.587  16.692  0.6916  0.3752  0.3673
  310TMC3    O2 4673   0.923   2.984  16.319  0.3552  0.3039 -0.0752
  311MPD2     C 4674   2.943   4.436  12.945 -0.0997  0.1890  0.4181
  311MPD2    C1 4675   2.939   4.564  12.996 -0.7358  0.1179  0.6857
  311MPD2    C2 4676   2.833   4.594  13.073  0.3348  0.0019 -0.0261
  311MPD2    C3 4677   2.733   4.502  13.106 -0.2989  0.7875 -0.3166
  311MPD2    C4 4678   2.758   4.372  13.079  0.2661  0.1083 -0.2600
  311MPD2    C5 4679   2.861   4.349  12.994 -0.5250 -0.1468  0.7555
  311MPD2     H 4680   2.814   4.695  13.107 -1.6318 -0.0760 -0.8712
  311MPD2    H1 4681   2.692   4.287  13.095  1.1601 -0.6866 -0.7906
  311MPD2    H2 4682   3.010   4.402  12.867 -2.0597  0.3735 -1.3505
  311MPD2    H3 4683   2.874   4.244  12.971 -0.8886  0.0035 -0.1435
  311MPD2     N 4684   2.618   4.552  13.156  0.1218 -0.2456 -0.1455
  311MPD2    H5 4685   2.597   4.647  13.128 -2.5214 -0.9969 -0.7180
  311MPD2    N1 4686   3.040   4.662  12.962 -0.2286  0.7427  0.6167
  311MPD2    H7 4687   3.037   0.026  13.011  0.2088  1.2255 -0.2216
  312TMC3    C1 4688   2.394   4.552  13.216 -0.2880 -0.1163  0.1889
  312TMC3    C2 4689   2.274   4.484  13.191 -0.5519 -0.0557 -0.2966
  312TMC3    C3 4690   2.169   4.570  13.204  0.3259  0.4137  0.3170
  312TMC3    C4 4691   2.409   4.679  13.271 -0.3960  0.1771  0.3203
  312TMC3    C5 4692   2.291   0.015  13.301  0.6747  0.5698  0.7698
  312TMC3    C6 4693   2.176   4.692  13.265  0.9868  0.3245  0.0917
  312TMC3     C 4694   2.518   4.479  13.212  0.1080 -0.6208 -0.6958
  312TMC3     O 4695   2.511   4.360  13.212  0.0180 -0.1473  0.0595
  312TMC3     H 4696   2.262   4.388  13.142  1.9633 -2.1273  3.0412
  312TMC3    H1 4697   2.506   4.723  13.290 -1.1545  1.3399  1.5108
  312TMC3    H2 4698   2.091   0.034  13.277  0.1424 -0.3975 -1.8187
  312TMC3    C7 4699   2.293   0.127  13.392 -0.1866 -0.1362  0.5330
  312TMC3    C8 4700   2.039   4.522  13.140  0.0249 -0.5281 -0.2650
  312TMC3    O1 4701   2.204   0.210  13.377  0.4992  0.4324 -0.5848
  312TMC3    O2 4702   2.036   4.406  13.103  0.1018 -0.2777  0.0020
  313MPD2     C 4703   3.429   3.710  10.019  0.0347  0.4394 -0.5669
  313MPD2    C1 4704   3.317   3.645  10.068  0.2544  0.6309 -0.5612
  313MPD2    C2 4705   3.269   3.542   9.993 -0.2686  0.0535  0.2865
  313MPD2    C3 4706   3.324   3.499   9.869 -0.9648 -0.4232 -0.5859
  313MPD2    C4 4707   3.433   3.567   9.823  0.0362 -0.2869 -0.3755
  313MPD2    C5 4708   3.485   3.658   9.902 -0.1356  0.2312  0.0540
  313MPD2     H 4709   3.180   3.491  10.027  0.9792 -1.9867  0.4983
  313MPD2    H1 4710   3.485   3.533   9.734  1.6413 -0.1939  0.5402
  313MPD2    H2 4711   3.484   3.789  10.068  1.2230 -1.8860  1.8386
  313MPD2    H3 4712   3.568   3.709   9.853 -2.2251  1.1485 -2.5583
  313MPD2     N 4713   3.285   3.376   9.805 -0.2579  0.2045  0.2327
  313MPD2    H5 4714   3.342   3.332   9.733 -0.8976  1.6411 -1.1711
  313MPD2    N1 4715   3.248   3.683  10.186 -0.5021 -0.2559  0.1140
  313MPD2    H7 4716   3.168   3.628  10.213 -0.3298 -0.9440 -0.7817
  314TMC3    C1 4717   3.198   3.778  10.375  0.3852  0.8042  0.2696
  314TMC3    C2 4718   3.243   3.830  10.494 -0.2881  0.4213  0.0452
  314TMC3    C3 4719   3.150   3.839  10.591 -0.4633  0.3860 -0.1553
  314TMC3    C4 4720   3.064   3.751  10.345 -0.5790  0.1761  0.2630
  314TMC3    C5 4721   2.978   3.767  10.453  0.2844 -0.1470 -0.9649
  314TMC3    C6 4722   3.018   3.806  10.576 -0.2952 -0.0378 -0.2811
  314TMC3     C 4723   3.284   3.787  10.270 -0.2756  0.5988  0.4415
  314TMC3     O 4724   3.392   3.843  10.283  0.3664 -1.0506 -0.2220
  314TMC3     H 4725   3.349   3.855  10.500 -1.2595  4.4407  0.6083
  314TMC3    H1 4726   3.036   3.734  10.242 -0.3119 -0.0132  0.2232
  314TMC3    H2 4727   2.951   3.789  10.660  2.9641  2.1441  2.7807
  314TMC3    C7 4728   2.844   3.715  10.432  0.7371 -0.0352  0.0443
  314TMC3    C8 4729   3.203   3.898  10.712  0.6344  0.2601 -0.1056
  314TMC3    O1 4730   2.747   3.780  10.472 -0.0256  0.5781 -0.2522
  314TMC3    O2 4731   3.325   3.891  10.725  0.0504  0.5387 -0.0436
  315MPD2     C 4732   2.513   3.097   0.022  0.6699  0.3266  0.4924
  315MPD2    C1 4733   2.533   3.163   0.135  0.5082 -0.2699  0.9750
  315MPD2    C2 4734   2.554   3.303   0.134 -0.2457  0.3506  0.1048
  315MPD2    C3 4735   2.543   3.374   0.013  0.0706  0.2350  0.0957
  315MPD2    C4 4736   2.498   3.302  17.596  0.0814  0.5833  0.1818
  315MPD2    C5 4737   2.494   3.165  17.606  0.1953  0.3574  1.0009
  315MPD2     H 4738   2.581   3.344   0.231  0.4725  0.0761  0.0121
  315MPD2    H1 4739   2.484   3.346  17.498 -0.6300  0.6380  0.3046
  315MPD2    H2 4740   2.522   2.989   0.013  0.8646  0.3584  0.3060
  315MPD2    H3 4741   2.469   3.107  17.517 -0.6247  1.0536  0.7705
  315MPD2     N 4742   2.559   3.514   0.020  0.3132 -0.5114  0.2670
  315MPD2    H5 4743   2.603   3.548   0.105  1.8466  1.6072 -1.3722
  315MPD2    N1 4744   2.552   3.096   0.259  0.4619  0.3485 -0.2538
  315MPD2    H7 4745   2.571   3.153   0.341 -1.8623 -0.5772  0.9453
  316TMC3    C1 4746   2.532   3.744  17.664  1.0451 -0.5501 -0.0891
  316TMC3    C2 4747   2.653   3.781   0.033 -0.7572  0.2261  0.5790
  316TMC3    C3 4748   2.650   3.907   0.088 -0.0224  0.0493  0.6357
  316TMC3    C4 4749   2.445   3.842  17.613 -0.3976  0.2372 -0.3012
  316TMC3    C5 4750   2.459   3.968  17.666  0.7631  0.5210 -0.0752
  316TMC3    C6 4751   2.555   3.998   0.062 -0.8782  0.1627 -0.6543
  316TMC3     C 4752   2.531   3.604  17.612 -0.3634  0.3235 -0.1683
  316TMC3     O 4753   2.467   3.583  17.510 -0.3296 -0.0078 -0.3514
  316TMC3     H 4754   2.717   3.696   0.053 -0.1965  0.8093  1.2306
  316TMC3    H1 4755   2.363   3.816  17.548 -0.7931  1.4175 -0.2859
  316TMC3    H2 4756   2.542   4.087   0.121 -1.2942  1.8185 -3.2436
  316TMC3    C7 4757   2.355   4.060  17.632  1.2828 -0.0816  0.2914
  316TMC3    C8 4758   2.756   3.950   0.176  0.4678 -0.2644 -0.2362
  316TMC3    O1 4759   2.357   4.170  17.688 -0.0650 -0.5792  0.0379
  316TMC3    O2 4760   2.755   4.065   0.216  0.7669  0.5786 -0.0217
  317MPD2     C 4761   3.860   1.952  13.506 -0.5758  0.4805  0.3258
  317MPD2    C1 4762   3.869   1.883  13.393  0.7447 -0.0939  1.1910
  317MPD2    C2 4763   3.992   1.830  13.352 -0.3189 -0.1490 -0.8178
  317MPD2    C3 4764   4.113   1.853  13.424 -0.1665  0.0983  0.2003
  317MPD2    C4 4765   4.104   1.934  13.531 -0.6480 -0.2196  0.2169
  317MPD2    C5 4766   3.978   1.975  13.575 -0.7290  0.5545 -0.0533
  317MPD2     H 4767   4.001   1.769  13.263  0.9757 -0.3150 -0.5661
  317MPD2    H1 4768   4.192   1.959  13.589  0.5405  2.6557 -2.8317
  317MPD2    H2 4769   3.777   2.018  13.530 -0.4485  1.5399 -2.0635
  317MPD2    H3 4770   3.969   2.038  13.663 -0.1786  0.2845  0.1974
  317MPD2     N 4771   4.232   1.783  13.385 -0.1442  0.2466  0.2156
  317MPD2    H5 4772   4.232   1.715  13.309  0.2080  0.8051 -0.2856
  317MPD2    N1 4773   3.758   1.852  13.305 -0.3755  0.5653 -0.8169
  317MPD2    H7 4774   3.778   1.786  13.231 -0.2591 -2.4418  1.9146
  318TMC3    C1 4775   4.443   1.694  13.368 -0.1118 -0.3476 -0.4272
  318TMC3    C2 4776   4.389   1.573  13.328 -0.2507  0.1495 -0.1030
  318TMC3    C3 4777   4.470   1.489  13.263 -0.3560 -0.2599  0.5143
  318TMC3    C4 4778   4.573   1.731  13.335  0.6135  0.2566  0.0454
  318TMC3    C5 4779   4.656   1.644  13.276 -0.4614  0.5818  0.4743
  318TMC3    C6 4780   4.599   1.531  13.225 -0.2949  0.4390  0.2850
  318TMC3     C 4781   4.363   1.801  13.430  0.4618  0.0012  0.5030
  318TMC3     O 4782   4.411   1.885  13.503  0.4877  0.3983  0.0040
  318TMC3     H 4783   4.296   1.552  13.380  0.7042 -2.0429  0.7359
  318TMC3    H1 4784   4.611   1.823  13.379  1.6523  0.1385 -0.6041
  318TMC3    H2 4785   4.657   1.464  13.163  0.7919  3.3634 -1.8096
  318TMC3    C7 4786   0.063   1.690  13.234 -0.3516  0.1700 -0.1699
  318TMC3    C8 4787   4.422   1.353  13.230  0.2819 -0.2972 -0.5441
  318TMC3    O1 4788   0.085   1.807  13.263 -0.2582  0.4530  0.3979
  318TMC3    O2 4789   4.513   1.275  13.206 -0.0629 -0.2452  0.1452
  319MPD2     C 4790   0.464   2.846  16.983 -0.2927  0.4807  0.7044
  319MPD2    C1 4791   0.375   2.775  17.058  0.1579 -0.2009  0.0880
  319MPD2    C2 4792   0.295   2.672  17.001 -0.5105 -0.3091 -0.2116
  319MPD2    C3 4793   0.287   2.662  16.867  1.1385 -0.7511  0.9462
  319MPD2    C4 4794   0.364   2.742  16.792  0.1427  0.0485  0.0420
  319MPD2    C5 4795   0.450   2.833  16.847 -0.5509  0.2788 -0.0824
  319MPD2     H 4796   0.229   2.608  17.059  0.1927  1.2523  2.3069
  319MPD2    H1 4797   0.351   2.729  16.685  0.0706  2.7047 -0.2768
  319MPD2    H2 4798   0.549   2.902  17.018  0.1551  2.1621 -3.0513
  319MPD2    H3 4799   0.514   2.884  16.776  0.7963 -0.0397  0.8984
  319MPD2     N 4800   0.201   2.576  16.793  0.0988 -0.0270  0.1451
  319MPD2    H5 4801   0.196   2.586  16.692 -3.2205  1.6218  0.4821
  319MPD2    N1 4802   0.379   2.781  17.201 -0.1588 -0.0336  0.4168
  319MPD2    H7 4803   0.318   2.717  17.252  0.6930 -0.0029  1.4805
  320TMC3    C1 4804   0.044   2.416  16.737 -0.4920 -0.4075 -0.2996
  320TMC3    C2 4805   0.002   2.507  16.643  1.0719  0.1908  0.2820
  320TMC3    C3 4806   4.678   2.452  16.524 -0.7029  0.2709  0.5410
  320TMC3    C4 4807   0.048   2.284  16.713 -0.1079 -0.3334 -0.1456
  320TMC3    C5 4808   4.707   2.236  16.603 -0.0867  0.0577  0.0602
  320TMC3    C6 4809   4.655   2.315  16.509  1.0147 -0.2347  0.2911
  320TMC3     C 4810   0.128   2.472  16.837 -0.6526 -0.6203 -1.1456
  320TMC3     O 4811   0.143   2.413  16.944 -0.3081  0.0767  0.0823
  320TMC3     H 4812   0.001   2.613  16.664 -0.7275 -0.0720  1.5926
  320TMC3    H1 4813   0.100   2.225  16.788 -0.5936  2.5261  2.4394
  320TMC3    H2 4814   4.599   2.277  16.425 -1.0047 -0.1919  1.6294
  320TMC3    C7 4815   4.682   2.099  16.578  0.3009  0.0891 -0.3700
  320TMC3    C8 4816   4.609   2.542  16.435 -0.5203  0.6876  0.0441
  320TMC3    O1 4817   4.649   2.055  16.472  0.0628 -0.0160 -0.2298
  320TMC3    O2 4818   4.649   2.657  16.455  0.2028  0.4780  0.0564
  321TMC3    C1 4819   0.401   2.872  17.421  0.1848  0.3331 -1.1024
  321TMC3    C2 4820   0.290   2.797  17.453  0.0908 -1.1708  0.7476
  321TMC3    C3 4821   0.224   2.838  17.571 -0.3034 -0.1079 -1.0097
  321TMC3    C4 4822   0.443   2.973  17.495 -0.7445 -0.4988 -0.2458
  321TMC3    C5 4823   0.376   3.005  17.611 -0.2664  0.0293  0.0915
  321TMC3    C6 4824   0.262   2.947  17.647  0.3800  0.3431  0.2797
  321TMC3     C 4825   0.446   2.874  17.276  0.0070  0.5102  0.3204
  321TMC3     O 4826   0.501   2.978  17.236 -0.4246  0.0704 -0.2561
  321TMC3     H 4827   0.258   2.712  17.393  1.6946 -1.2396 -0.0283
  321TMC3    H1 4828   0.542   3.010  17.473  0.1545 -3.0946 -0.5644
  321TMC3    H2 4829   0.189   2.979   0.022  0.8468  2.2962 -0.1099
  321TMC3    C7 4830   0.458   3.038   0.022 -0.5307  0.3390 -0.9478
  321TMC3    C8 4831   0.210   2.732  17.666  0.1500 -0.1333 -0.3730
  321TMC3    O1 4832   0.569   3.080  17.695 -0.1043 -0.1284  0.0767
  321TMC3    O2 4833   0.233   2.770   0.083  0.1239  0.0359 -0.0061
  322MPD2     C 4834   4.118   3.592  13.713 -0.3893  0.7716 -0.0567
  322MPD2    C1 4835   4.067   3.607  13.837 -0.3431 -0.3590  0.2761
  322MPD2    C2 4836   4.039   3.488  13.904  0.4060  0.5811  0.0117
  322MPD2    C3 4837   4.057   3.362  13.856  0.1815 -0.2379 -0.8589
  322MPD2    C4 4838   4.100   3.349  13.727 -0.2420 -0.7649 -0.1990
  322MPD2    C5 4839   4.136   3.463  13.662 -0.5596  0.1864  0.1626
  322MPD2     H 4840   4.006   3.495  14.007  2.9299 -2.8162  1.0409
  322MPD2    H1 4841   4.115   3.253  13.680  1.4894 -1.7932  2.4240
  322MPD2    H2 4842   4.145   3.673  13.647  2.4148 -0.2961 -0.2305
  322MPD2    H3 4843   4.174   3.445  13.562 -1.6255 -1.3644  0.0341
  322MPD2     N 4844   4.038   3.254  13.948  0.4852  0.1828 -0.4549
  322MPD2    H5 4845   4.017   3.278  14.044 -1.9763 -0.3094 -0.8745
  322MPD2    N1 4846   4.051   3.731  13.897  0.1561 -0.3807  0.1451
  322MPD2    H7 4847   4.114   3.803  13.865 -1.3264  1.4134  1.2804
  323TMC3    C1 4848   4.041   3.858  14.098 -0.9112  0.0626  0.0700
  323TMC3    C2 4849   4.128   3.944  14.041  0.2967 -1.1450 -0.3494
  323TMC3    C3 4850   4.154   4.064  14.105 -0.3636 -0.0584 -0.4698
  323TMC3    C4 4851   3.994   3.873  14.228 -0.8698  0.0769 -0.0267
  323TMC3    C5 4852   4.037   3.988  14.293 -0.1379 -0.0899 -0.7344
  323TMC3    C6 4853   4.115   4.087  14.240 -0.5232 -0.7260  0.2097
  323TMC3     C 4854   3.987   3.748  14.019  0.4594 -0.2560 -0.0668
  323TMC3     O 4855   3.894   3.685  14.071  0.4571 -0.6005  0.0334
  323TMC3     H 4856   4.168   3.930  13.941  0.5371 -0.9868 -0.2756
  323TMC3    H1 4857   3.943   3.789  14.272  0.8195 -1.7867 -1.6314
  323TMC3    H2 4858   4.142   4.175  14.298 -0.1884  0.7101 -2.1014
  323TMC3    C7 4859   4.046   3.984  14.441 -0.3189  0.0771 -0.7791
  323TMC3    C8 4860   4.245   4.158  14.042  0.4253  0.4188  0.3342
  323TMC3    O1 4861   4.144   4.038  14.498 -0.0386 -0.5560 -0.2306
  323TMC3    O2 4862   4.284   4.126  13.929  0.4147  0.0627 -0.7778
  324MPD2     C 4863   1.314   0.501  15.154  0.4746 -0.5383 -0.1777
  324MPD2    C1 4864   1.322   0.496  15.015  0.5418  0.4774 -0.4849
  324MPD2    C2 4865   1.212   0.471  14.943 -0.3364 -0.5787  0.3078
  324MPD2    C3 4866   1.091   0.450  15.004  0.3658 -0.2471  0.0406
  324MPD2    C4 4867   1.086   0.448  15.140 -0.0244  0.4970 -0.4347
  324MPD2    C5 4868   1.197   0.477  15.214 -0.1699  0.5204 -0.0796
  324MPD2     H 4869   1.226   0.460  14.836 -1.5413  0.3507  0.0607
  324MPD2    H1 4870   0.995   0.422  15.193  0.9412 -1.0315  0.4952
  324MPD2    H2 4871   1.397   0.527  15.219  0.7142 -0.8220 -0.3662
  324MPD2    H3 4872   1.188   0.474  15.322  0.5173 -0.5209 -0.0521
  324MPD2     N 4873   0.971   0.429  14.937  0.2439  0.3817 -0.4399
  324MPD2    H5 4874   0.883   0.428  14.988  0.6795  0.7374  0.3182
  324MPD2    N1 4875   1.441   0.518  14.945  0.4028 -0.0874  0.4430
  324MPD2    H7 4876   1.431   0.509  14.844  0.4455 -0.9229  0.5164
  325TMC3    C1 4877   0.852   0.446  14.741 -0.2178  0.3415  0.2024
  325TMC3    C2 4878   0.819   0.383  14.624  0.0051 -0.1531 -0.1202
  325TMC3    C3 4879   0.735   0.452  14.542  1.0023  0.2205 -0.4576
  325TMC3    C4 4880   0.816   0.571  14.777 -0.0558 -0.5580  0.2911
  325TMC3    C5 4881   0.730   0.635  14.692  0.3293 -0.7633 -0.0793
  325TMC3    C6 4882   0.688   0.579  14.575 -0.1047  0.0329 -0.6025
  325TMC3     C 4883   0.972   0.403  14.803 -0.4593 -0.8018  0.8888
  325TMC3     O 4884   1.056   0.371  14.722  0.7363 -0.2042 -0.0991
  325TMC3     H 4885   0.859   0.284  14.603  2.3823  1.1603 -1.7709
  325TMC3    H1 4886   0.843   0.612  14.873 -1.7440  1.0617  0.0864
  325TMC3    H2 4887   0.645   0.650  14.505 -2.7032 -0.0201  0.9571
  325TMC3    C7 4888   0.683   0.769  14.730 -0.1846 -0.3841 -0.5925
  325TMC3    C8 4889   0.692   0.396  14.414  0.1064 -0.2915 -0.3450
  325TMC3    O1 4890   0.737   0.820  14.827 -0.1585  0.0156 -0.7424
  325TMC3    O2 4891   0.623   0.469  14.343  0.1035 -0.2612  0.1552
  326MPD2     C 4892   2.000   1.268  10.965 -0.8747 -0.4107  0.5768
  326MPD2    C1 4893   1.978   1.298  10.834  0.1258 -0.0644  0.3980
  326MPD2    C2 4894   2.032   1.414  10.784 -0.0798 -0.1103 -0.3423
  326MPD2    C3 4895   2.108   1.498  10.869 -0.1388 -0.7191  0.2456
  326MPD2    C4 4896   2.111   1.468  11.004  0.0311 -0.4205 -0.8495
  326MPD2    C5 4897   2.062   1.350  11.051  0.8416  0.5474 -0.0951
  326MPD2     H 4898   2.031   1.449  10.682 -0.4496 -0.3386 -0.4153
  326MPD2    H1 4899   2.160   1.535  11.074  1.4649 -0.7551 -1.5331
  326MPD2    H2 4900   1.957   1.180  11.012 -2.5487  1.0030  1.7133
  326MPD2    H3 4901   2.063   1.339  11.159 -1.9792  0.2153 -0.1183
  326MPD2     N 4902   2.175   1.606  10.802 -0.0980 -0.1352 -0.0545
  326MPD2    H5 4903   2.174   1.608  10.701  2.9961  3.1678 -0.0264
  326MPD2    N1 4904   1.890   1.217  10.757 -0.3452 -0.0900  0.1305
  326MPD2    H7 4905   1.875   1.255  10.664 -3.4665  0.3646  0.8276
  327TMC3    C1 4906   1.776   1.043  10.665  0.0825  0.5898 -0.1918
  327TMC3    C2 4907   1.683   1.124  10.602 -0.5988  0.0704  0.7105
  327TMC3    C3 4908   1.683   1.133  10.463  0.0870  0.0489 -0.0524
  327TMC3    C4 4909   1.876   0.984  10.591 -0.1587  0.0233  0.0195
  327TMC3    C5 4910   1.880   0.992  10.453  0.6822 -0.3915  0.6038
  327TMC3    C6 4911   1.773   1.055  10.395  0.1900  1.0024  0.1960
  327TMC3     C 4912   1.842   1.093  10.786  0.7789  0.3901  0.1511
  327TMC3     O 4913   1.851   1.020  10.882 -0.4675  0.0747  0.3178
  327TMC3     H 4914   1.602   1.174  10.655 -0.2579  0.4301  0.8982
  327TMC3    H1 4915   1.961   0.944  10.645 -1.1099 -0.8713  0.8615
  327TMC3    H2 4916   1.790   1.064  10.288  0.4319 -1.3274  0.0204
  327TMC3    C7 4917   2.007   1.038  10.396  0.0625 -0.1843 -0.6124
  327TMC3    C8 4918   1.605   1.231  10.386  0.3530  0.5896  0.0956
  327TMC3    O1 4919   2.021   1.062  10.273  0.4641  0.1311  0.3638
  327TMC3    O2 4920   1.660   1.260  10.283  0.0343  0.1649 -0.1186
  328MPD2     C 4921   4.695   1.981  17.582  0.2121  0.7076 -0.1234
  328MPD2    C1 4922   4.601   1.884  17.594  0.0173  0.5958 -0.0311
  328MPD2    C2 4923   4.518   1.854  17.485 -0.0099  0.2109  0.3908
  328MPD2    C3 4924   4.529   1.929  17.366 -0.1960 -0.8351 -0.2147
  328MPD2    C4 4925   4.634   2.016  17.353  0.3216 -0.3029 -0.2288
  328MPD2    C5 4926   4.714   2.045  17.464  0.0082 -1.4157  0.0095
  328MPD2     H 4927   4.450   1.770  17.493  2.5121 -1.8952 -0.2406
  328MPD2    H1 4928   4.644   2.069  17.259  0.0659  0.3958  0.1362
  328MPD2    H2 4929   0.041   2.003  17.662 -0.3290  2.4247 -0.1135
  328MPD2    H3 4930   0.066   2.122  17.454 -1.9151  0.0229 -3.4658
  328MPD2     N 4931   4.449   1.907  17.255  0.3168 -0.0844  0.2220
  328MPD2    H5 4932   4.445   1.984  17.190  1.8461 -0.6982 -0.5921
  328MPD2    N1 4933   4.588   1.815   0.016 -0.3057 -0.3259 -0.5820
  328MPD2    H7 4934   4.641   1.851   0.095  1.4015 -1.0028 -1.4086
  329TMC3    C1 4935   4.517   1.643   0.175 -0.4103 -0.2960  0.9760
  329TMC3    C2 4936   4.519   1.746   0.268 -0.3823  0.5184 -0.2177
  329TMC3    C3 4937   4.521   1.700   0.399  0.2698  0.5221 -0.1112
  329TMC3    C4 4938   4.513   1.507   0.204 -0.6105  0.7020 -0.8543
  329TMC3    C5 4939   4.529   1.472   0.330  0.2684  0.3773 -0.7195
  329TMC3    C6 4940   4.537   1.566   0.435 -0.5851  0.7213  0.3061
  329TMC3     C 4941   4.536   1.687   0.032 -1.3557 -0.2768  1.1232
  329TMC3     O 4942   4.496   1.610  17.643 -0.4016  0.5429  0.1547
  329TMC3     H 4943   4.496   1.850   0.246 -0.0958  0.7178  0.4083
  329TMC3    H1 4944   4.500   1.436   0.124 -0.6278 -0.7287  0.4138
  329TMC3    H2 4945   4.542   1.542   0.540 -0.5189  1.4303  0.4613
  329TMC3    C7 4946   4.515   1.335   0.358  0.2050 -1.0599  0.4534
  329TMC3    C8 4947   4.549   1.800   0.497 -0.1136 -0.7802  0.0593
  329TMC3    O1 4948   4.457   1.263   0.278 -0.2460 -0.5395  0.6697
  329TMC3    O2 4949   4.648   1.795   0.570  0.3609 -0.0332  0.2252
  330TMC3    C1 4950   2.721   0.222  10.179 -0.2495 -0.6250 -0.7807
  330TMC3    C2 4951   2.605   0.164  10.147  0.3108  0.1756 -0.4147
  330TMC3    C3 4952   2.585   0.033  10.187  0.2482  0.2839  0.3285
  330TMC3    C4 4953   2.813   0.162  10.264 -0.2919 -0.3091  0.0664
  330TMC3    C5 4954   2.790   0.028  10.295  1.2596 -0.3936 -0.3205
  330TMC3    C6 4955   2.676   4.686  10.264 -0.2603 -0.2921 -0.3119
  330TMC3     C 4956   2.737   0.358  10.138  0.3556  0.0096 -0.1678
  330TMC3     O 4957   2.802   0.423  10.217  0.2215  0.0359  0.4444
  330TMC3     H 4958   2.529   0.216  10.091 -0.0916  1.9622  1.7883
  330TMC3    H1 4959   2.909   0.207  10.284  0.7053 -3.1907  1.7313
  330TMC3    H2 4960   2.651   4.588  10.300  2.7552  0.1029  2.8816
  330TMC3    C7 4961   2.869   4.702  10.405 -0.5549 -0.8391 -0.3714
  330TMC3    C8 4962   2.470   4.694  10.128 -0.1807 -0.0639 -0.9363
  330TMC3    O1 4963   2.925   0.052  10.484  0.4026 -0.3572 -0.7880
  330TMC3    O2 4964   2.382   0.044  10.095 -0.4592  0.2832 -0.3051
  331MPD2     C 4965   4.703   4.366  13.047  0.4508  0.4753 -0.2933
  331MPD2    C1 4966   0.069   4.440  12.979  0.3256  0.4170 -0.3164
  331MPD2    C2 4967   0.132   4.371  12.872  0.0089 -1.4604  0.2946
  331MPD2    C3 4968   0.091   4.244  12.833 -1.2120 -0.3271 -0.3930
  331MPD2    C4 4969   4.716   4.177  12.903 -0.3200  0.2502 -0.2045
  331MPD2    C5 4970   4.668   4.238  13.011 -0.3621 -0.3217 -0.1095
  331MPD2     H 4971   0.216   4.418  12.823 -1.2860  0.2690 -0.2897
  331MPD2    H1 4972   4.673   4.079  12.883 -2.3424  1.2366 -0.7051
  331MPD2    H2 4973   4.654   4.414  13.130  1.3768  2.7646 -1.0744
  331MPD2    H3 4974   4.601   4.178  13.072  1.9618 -0.4331  2.3344
  331MPD2     N 4975   0.155   4.178  12.722  0.7723 -0.8918 -0.5792
  331MPD2    H5 4976   0.223   4.237  12.676 -0.3324  0.2716 -0.7510
  331MPD2    N1 4977   0.090   4.578  13.026  0.2985  0.0756 -0.9188
  331MPD2    H7 4978   0.066   4.599  13.122 -3.3829  0.1187 -1.8448
  332TMC3    C1 4979   0.248   4.007  12.591 -0.4717 -0.5351  0.7720
  332TMC3    C2 4980   0.298   4.093  12.493  0.0964  0.4410  0.3150
  332TMC3    C3 4981   0.422   4.068  12.445 -0.7809 -0.6469 -0.1866
  332TMC3    C4 4982   0.321   3.899  12.641 -0.1328  0.4713 -0.6200
  332TMC3    C5 4983   0.451   3.888  12.594 -0.5718  0.0996 -0.0844
  332TMC3    C6 4984   0.501   3.966  12.488 -0.3193 -0.0465  0.6547
  332TMC3     C 4985   0.139   4.046  12.680 -0.3345 -0.0478 -0.0891
  332TMC3     O 4986   0.081   3.955  12.738 -0.0531  0.4393  0.8076
  332TMC3     H 4987   0.238   4.169  12.445  1.2686  0.6204 -0.8535
  332TMC3    H1 4988   0.287   3.848  12.731  0.3642 -1.7871 -1.7143
  332TMC3    H2 4989   0.595   3.937  12.442 -1.8010 -4.0227  0.2035
  332TMC3    C7 4990   0.548   3.815  12.680 -0.4283  0.1716 -0.1533
  332TMC3    C8 4991   0.460   4.112  12.315  0.4812  0.1017 -0.2160
  332TMC3    O1 4992   0.496   3.740  12.762  0.3492  0.4107  0.2087
  332TMC3    O2 4993   0.378   4.100  12.227 -0.2807  0.4441  0.0369
  333MPD2     C 4994   0.271   4.344  11.116 -0.1404 -0.2297  0.1539
  333MPD2    C1 4995   0.357   4.255  11.183 -0.6206  0.1882  0.0424
  333MPD2    C2 4996   0.304   4.137  11.235 -0.5720  0.2367  0.0447
  333MPD2    C3 4997   0.178   4.105  11.213  0.5877 -0.1601 -0.2791
  333MPD2    C4 4998   0.086   4.182  11.140  0.5601  0.2544 -0.0956
  333MPD2    C5 4999   0.143   4.297  11.082 -0.0536 -0.0601 -0.4258
  333MPD2     H 5000   0.360   4.078  11.306  0.4748  1.5558  0.3255
  333MPD2    H1 5001   4.706   4.158  11.124  0.4197 -1.3129  3.2074
  333MPD2    H2 5002   0.301   4.430  11.057  0.2576 -1.3426 -1.2574
  333MPD2    H3 5003   0.090   4.356  11.008 -1.0324 -0.5437 -0.1092
  333MPD2     N 5004   0.144   3.975  11.263 -0.0554  0.4328  0.2678
  333MPD2    H5 5005   0.216   3.923  11.311 -0.7833  1.2451  2.2506
  333MPD2    N1 5006   0.492   4.292  11.203 -0.0545 -0.0153 -0.1112
  333MPD2    H7 5007   0.530   4.384  11.180 -1.0525  0.0846 -1.2862
  334TMC3    C1 5008   0.715   4.274  11.262 -0.5079 -0.3166 -0.2091
  334TMC3    C2 5009   0.821   4.195  11.240 -0.3995 -0.2224 -0.7229
  334TMC3    C3 5010   0.939   4.266  11.211  0.2280 -0.8959 -0.1341
  334TMC3    C4 5011   0.717   4.412  11.256  0.0591  0.4711  0.6981
  334TMC3    C5 5012   0.843   4.472  11.252  0.3623 -0.2972 -0.1041
  334TMC3    C6 5013   0.952   4.401  11.218 -0.4147 -0.3345  0.2581
  334TMC3     C 5014   0.591   4.208  11.241 -0.2466  0.3671 -0.3523
  334TMC3     O 5015   0.591   4.087  11.250  0.0961 -0.5098 -0.7700
  334TMC3     H 5016   0.818   4.087  11.233 -0.6875 -0.4195  2.3784
  334TMC3    H1 5017   0.634   4.475  11.286  0.3077  0.8941  0.5013
  334TMC3    H2 5018   1.050   4.446  11.210 -0.6191  0.4058  1.9273
  334TMC3    C7 5019   0.863   4.612  11.259 -0.2886 -0.6164  0.5079
  334TMC3    C8 5020   1.045   4.179  11.165 -0.0308 -0.0536  0.1046
  334TMC3    O1 5021   0.976   4.656  11.262  0.1295  0.4411 -0.3750
  334TMC3    O2 5022   1.031   4.057  11.176  0.0754 -0.5983 -0.0587
  335TMC3    C1 5023   0.559   1.544   0.117  0.2081  0.2080 -0.0887
  335TMC3    C2 5024   0.514   1.482   0.005 -0.4568 -0.2345  0.2146
  335TMC3    C3 5025   0.578   1.510  17.586 -0.0211  0.8236 -0.3508
  335TMC3    C4 5026   0.654   1.643   0.115  0.4202  0.6502 -0.2232
  335TMC3    C5 5027   0.695   1.680  17.692  0.7253  0.5323 -0.3542
  335TMC3    C6 5028   0.668   1.608  17.579  0.1805  0.6568 -0.2236
  335TMC3     C 5029   0.504   1.505   0.237 -0.0643  0.0065  0.5182
  335TMC3     O 5030   0.542   1.571   0.333  0.1084  0.0990  0.1523
  335TMC3     H 5031   0.425   1.421   0.002 -1.2953  1.1087 -2.0132
  335TMC3    H1 5032   0.686   1.698   0.203  1.4650 -1.4879  0.7383
  335TMC3    H2 5033   0.718   1.629  17.485 -1.7551  0.0034 -1.4085
  335TMC3    C7 5034   0.809   1.775  17.677  0.8916  0.0590 -0.5850
  335TMC3    C8 5035   0.523   1.473  17.459 -0.2045 -0.1118 -0.4335
  335TMC3    O1 5036   0.851   1.797  17.565  0.7594 -0.2218  0.4270
  335TMC3    O2 5037   0.541   1.552  17.366 -0.2905  0.1199  0.0310
  336MPD2     C 5038   0.133   3.939  16.296 -0.0660 -0.3183  0.0104
  336MPD2    C1 5039   0.225   3.885  16.213  0.3231  0.7069 -0.1921
  336MPD2    C2 5040   0.280   3.757  16.225 -0.4618 -0.8418  0.1691
  336MPD2    C3 5041   0.228   3.677  16.316 -1.2517 -0.7066 -0.2128
  336MPD2    C4 5042   0.147   3.731  16.412 -0.3234  0.1579  0.2198
  336MPD2    C5 5043   0.098   3.862  16.405 -0.7461 -0.5154 -0.0869
  336MPD2     H 5044   0.364   3.727  16.164 -0.8239  1.4260 -1.4269
  336MPD2    H1 5045   0.093   3.667  16.481  0.1765  0.3169  0.7574
  336MPD2    H2 5046   0.113   4.045  16.302  0.9892 -0.0528 -1.1499
  336MPD2    H3 5047   0.025   3.905  16.472 -0.7758 -0.9237  0.1418
  336MPD2     N 5048   0.257   3.539  16.325 -0.2381  0.0281  0.1259
  336MPD2    H5 5049   0.236   3.489  16.410  1.4942  1.1377  1.2154
  336MPD2    N1 5050   0.262   3.950  16.091  0.1807 -0.2373 -0.2389
  336MPD2    H7 5051   0.320   3.897  16.026 -1.6851 -1.1585 -1.1477
  337TMC3    C1 5052   0.266   4.119  15.926 -0.3906  0.3918  0.7311
  337TMC3    C2 5053   0.203   4.230  15.892  0.4342 -0.2500  0.2884
  337TMC3    C3 5054   0.227   4.288  15.776 -0.0298 -0.4132  0.0929
  337TMC3    C4 5055   0.367   4.066  15.847 -0.1345  0.5490 -0.3507
  337TMC3    C5 5056   0.387   4.125  15.722 -0.5602 -1.1687 -0.5104
  337TMC3    C6 5057   0.317   4.237  15.685 -0.1426  0.6799 -0.0005
  337TMC3     C 5058   0.232   4.077  16.058  0.6007 -0.3783  0.5756
  337TMC3     O 5059   0.182   4.162  16.127  0.0547 -0.5276 -0.2563
  337TMC3     H 5060   0.141   4.285  15.961  2.4246 -0.3288  2.1655
  337TMC3    H1 5061   0.428   3.985  15.886  0.9190  1.3393 -0.3447
  337TMC3    H2 5062   0.336   4.283  15.588  1.3609  0.9555  0.4236
  337TMC3    C7 5063   0.523   4.142  15.679  0.2251  0.2865  0.5027
  337TMC3    C8 5064   0.106   4.342  15.717 -0.1069  1.0614 -0.4038
  337TMC3    O1 5065   0.555   4.254  15.636  0.5617 -0.0327  0.3074
  337TMC3    O2 5066   0.072   4.309  15.606 -0.5647  0.2552  0.3512
  338MPD2     C 5067   0.466   3.056   0.996  0.7132  0.2599 -0.1374
  338MPD2    C1 5068   0.492   3.166   0.908  0.4236  0.4874 -0.1508
  338MPD2    C2 5069   0.387   3.256   0.890  0.5443 -0.0051 -0.1471
  338MPD2    C3 5070   0.258   3.235   0.942 -0.0399  0.3254  0.0871
  338MPD2    C4 5071   0.234   3.128   1.021  0.5550 -0.5946  0.3553
  338MPD2    C5 5072   0.338   3.042   1.046 -0.5356 -0.4796  0.3151
  338MPD2     H 5073   0.422   3.337   0.827 -1.2270 -1.9052 -3.5682
  338MPD2    H1 5074   0.139   3.109   1.070  0.4300 -1.2130 -0.1148
  338MPD2    H2 5075   0.535   2.975   1.018 -2.2499 -2.6715 -1.5152
  338MPD2    H3 5076   0.309   2.957   1.106  0.2220  0.3742  1.8872
  338MPD2     N 5077   0.159   3.334   0.906 -0.0420 -0.2512 -0.1833
  338MPD2    H5 5078   0.167   3.389   0.821 -2.5228 -1.7323 -1.3514
  338MPD2    N1 5079   0.621   3.181   0.836  0.7457 -0.9896 -0.0967
  338MPD2    H7 5080   0.621   3.254   0.767 -2.2281  0.0764  1.0028
  339TMC3    C1 5081   4.680   3.457   0.936 -0.2954  0.2261 -0.3294
  339TMC3    C2 5082   4.592   3.508   1.024  0.3959 -0.0115 -0.7399
  339TMC3    C3 5083   4.510   3.612   0.978 -0.7652 -0.7310  0.1027
  339TMC3    C4 5084   4.683   3.489   0.805  0.1970  0.0421  0.3016
  339TMC3    C5 5085   4.599   3.589   0.768 -0.1132 -0.4734 -0.5081
  339TMC3    C6 5086   4.509   3.657   0.846 -0.0110 -0.2008  0.5435
  339TMC3     C 5087   0.054   3.358   0.989  0.2104  0.8458  0.5181
  339TMC3     O 5088   0.045   3.324   1.105 -0.2529 -0.3851  0.1186
  339TMC3     H 5089   4.600   3.485   1.130 -0.9487 -0.1147 -0.6633
  339TMC3    H1 5090   0.038   3.461   0.737 -0.4471  0.3845 -0.5779
  339TMC3    H2 5091   4.441   3.733   0.809 -0.1021 -1.0576 -1.0489
  339TMC3    C7 5092   4.609   3.640   0.626  0.2778 -0.0549 -0.0591
  339TMC3    C8 5093   4.410   3.666   1.067  0.2363  0.3944 -0.4968
  339TMC3    O1 5094   4.548   3.749   0.601  0.3691  0.2391 -0.2626
  339TMC3    O2 5095   4.321   3.733   1.016 -0.2510  0.0454 -0.2438
  340MPD2     C 5096   0.461   1.365  10.285 -0.2473 -0.1991  0.4302
  340MPD2    C1 5097   0.486   1.244  10.343 -0.4994  0.6191 -0.7789
  340MPD2    C2 5098   0.511   1.231  10.484 -0.0092 -0.2558 -0.4470
  340MPD2    C3 5099   0.492   1.345  10.559 -0.4710 -0.8074  0.0500
  340MPD2    C4 5100   0.451   1.460  10.495 -0.3014  0.0924 -0.5668
  340MPD2    C5 5101   0.436   1.477  10.364  0.7602 -0.3333 -0.5943
  340MPD2     H 5102   0.558   1.140  10.520 -1.4486 -0.2592  1.4850
  340MPD2    H1 5103   0.434   1.549  10.555  0.2395  0.4071 -0.8891
  340MPD2    H2 5104   0.444   1.384  10.180  0.2641 -1.2658  0.1491
  340MPD2    H3 5105   0.415   1.577  10.328  0.6302 -1.4181 -3.5241
  340MPD2     N 5106   0.518   1.354  10.694 -0.5095 -0.3701 -0.3158
  340MPD2    H5 5107   0.495   1.443  10.736  0.2080 -0.8034  1.0203
  340MPD2    N1 5108   0.504   1.135  10.252 -0.8361 -0.1678 -0.2995
  340MPD2    H7 5109   0.493   1.156  10.153 -2.7879  0.9541  0.1646
  341TMC3    C1 5110   0.543   0.926  10.173 -0.6406  0.7860 -0.0540
  341TMC3    C2 5111   0.523   0.790  10.189  0.3109 -0.6000  0.1603
  341TMC3    C3 5112   0.555   0.714  10.077  0.0509  0.2435 -0.2993
  341TMC3    C4 5113   0.591   0.986  10.057 -0.6761  0.6462 -0.0655
  341TMC3    C5 5114   0.620   0.901   9.949  0.6224  0.4462 -0.2848
  341TMC3    C6 5115   0.609   0.762   9.966  0.0715 -0.9977 -0.3942
  341TMC3     C 5116   0.513   1.006  10.286 -0.4512  0.8976 -0.0758
  341TMC3     O 5117   0.502   0.950  10.394 -0.0618 -0.0810  0.1642
  341TMC3     H 5118   0.475   0.751  10.278  0.1699  1.3236  0.9262
  341TMC3    H1 5119   0.630   1.086  10.039 -0.7911  0.7292  0.1499
  341TMC3    H2 5120   0.632   0.697   9.882  1.4065 -1.3849  0.2735
  341TMC3    C7 5121   0.737   0.940   9.868 -0.0987 -0.3557 -0.2977
  341TMC3    C8 5122   0.551   0.572  10.103 -0.2228 -0.1987  0.0022
  341TMC3    O1 5123   0.820   1.020   9.917  0.2350 -0.0567  0.8583
  341TMC3    O2 5124   0.463   0.532  10.180  0.4151  0.1978  0.7347
  342MPD2     C 5125   3.558   4.482   0.184 -0.7658  0.2789  0.5608
  342MPD2    C1 5126   3.549   4.496   0.047  0.0645  0.0701  0.2857
  342MPD2    C2 5127   3.475   4.597  17.694 -0.2289  1.1856  0.1395
  342MPD2    C3 5128   3.409   4.679   0.081 -0.7232 -0.1347 -0.1111
  342MPD2    C4 5129   3.431   4.672   0.216 -0.6397 -0.1932 -0.6847
  342MPD2    C5 5130   3.504   4.571   0.271  0.1455  0.2396  0.5267
  342MPD2     H 5131   3.475   4.607  17.586 -0.5064 -0.2650  0.0012
  342MPD2    H1 5132   3.383   0.017   0.285  0.0042  0.3938 -0.8220
  342MPD2    H2 5133   3.609   4.401   0.236 -0.0968 -0.2441 -0.9074
  342MPD2    H3 5134   3.520   4.563   0.378  2.2310 -0.2029  0.1946
  342MPD2     N 5135   3.328   0.062   0.036 -0.1348 -0.2359 -1.1720
  342MPD2    H5 5136   3.297   0.133   0.101 -2.5901 -1.7822 -0.6584
  342MPD2    N1 5137   3.615   4.407  17.656 -0.2195  0.0652  0.5973
  342MPD2    H7 5138   3.605   4.433  17.558  1.0200 -0.0074  0.4412
  343TMC3    C1 5139   3.709   4.203  17.572 -0.1535 -0.5888  0.6391
  343TMC3    C2 5140   3.761   4.258  17.458 -0.2987 -0.4099  0.6825
  343TMC3    C3 5141   3.798   4.172  17.362  1.0923 -0.5049  0.4633
  343TMC3    C4 5142   3.690   4.068  17.592  0.6675  0.0393  0.1035
  343TMC3    C5 5143   3.702   3.991  17.478 -0.3544 -0.0311  0.3688
  343TMC3    C6 5144   3.765   4.035  17.365  0.1462  0.6434  0.1633
  343TMC3     C 5145   3.690   4.293  17.686  0.2865 -1.1372  0.7429
  343TMC3     O 5146   3.736   4.251   0.094 -0.2389  0.0904 -0.2304
  343TMC3     H 5147   3.783   4.364  17.451 -0.8572 -0.3333  0.1201
  343TMC3    H1 5148   3.635   4.039  17.680 -0.8058  0.2291 -0.7599
  343TMC3    H2 5149   3.770   3.970  17.278 -0.7075  1.1590 -0.2754
  343TMC3    C7 5150   3.675   3.847  17.473 -0.1267  0.1774 -0.3433
  343TMC3    C8 5151   3.928   4.199  17.297  0.6386  0.4398  0.0239
  343TMC3    O1 5152   3.691   3.786  17.369  0.6343  0.1249  0.0118
  343TMC3    O2 5153   3.977   4.311  17.307 -0.3532  0.1996 -0.6265
  344MPD2     C 5154   4.145   4.115  11.445  0.3796 -0.6588  0.8661
  344MPD2    C1 5155   4.078   4.035  11.352  0.1962  0.8053 -0.5337
  344MPD2    C2 5156   4.048   4.090  11.227  0.3874  0.1994 -0.3576
  344MPD2    C3 5157   4.079   4.217  11.202 -0.5443 -0.9044  1.0970
  344MPD2    C4 5158   4.143   4.295  11.291 -0.3455  0.2402  0.1523
  344MPD2    C5 5159   4.174   4.244  11.412  0.3556 -0.6603  0.2510
  344MPD2     H 5160   3.997   4.022  11.161  1.1291 -0.1937 -0.5318
  344MPD2    H1 5161   4.159   4.399  11.266 -0.0777  0.0338 -0.5314
  344MPD2    H2 5162   4.160   4.093  11.550 -2.1323  1.3891  1.6599
  344MPD2    H3 5163   4.220   4.312  11.483  0.9999  0.5845 -1.3550
  344MPD2     N 5164   4.052   4.290  11.083  0.8023 -0.3541  0.7743
  344MPD2    H5 5165   4.063   4.391  11.087 -1.4812  0.1020 -4.3822
  344MPD2    N1 5166   4.056   3.903  11.381  0.7035 -0.3669 -0.2270
  344MPD2    H7 5167   4.007   3.856  11.306  1.6335  0.6325 -1.4756
  345TMC3    C1 5168   4.061   4.353  10.859  0.7840  0.0216  0.1508
  345TMC3    C2 5169   4.056   4.474  10.914  0.0687 -0.9494  0.5461
  345TMC3    C3 5170   4.134   4.577  10.864 -0.4355  0.1522  0.0251
  345TMC3    C4 5171   4.131   4.325  10.747 -0.0263 -0.0161  0.8389
  345TMC3    C5 5172   4.206   4.429  10.696 -0.7102 -0.0214  0.1218
  345TMC3    C6 5173   4.213   4.553  10.754  0.4357 -0.3359 -0.2609
  345TMC3     C 5174   4.043   4.242  10.954  0.2843 -0.8059 -0.2961
  345TMC3     O 5175   4.066   4.129  10.919 -0.2552  0.1183  0.2057
  345TMC3     H 5176   3.967   4.496  10.972 -1.2453  0.6299 -2.0695
  345TMC3    H1 5177   4.144   4.224  10.709 -1.5857  0.4248 -0.8867
  345TMC3    H2 5178   4.265   4.636  10.708 -0.8636  0.1931 -0.7874
  345TMC3    C7 5179   4.221   4.434  10.553 -0.0498  0.2239  0.3171
  345TMC3    C8 5180   4.111   4.704  10.924  0.2294 -0.1200 -0.6188
  345TMC3    O1 5181   4.284   4.530  10.502  0.6902  0.0521 -0.0282
  345TMC3    O2 5182   4.094   0.005  11.046 -0.0052  0.0774  0.0671
  346MPD2     C 5183   4.122   0.663  14.141  0.5357 -0.0647 -0.2924
  346MPD2    C1 5184   4.238   0.709  14.087 -0.2393 -0.8504 -0.0388
  346MPD2    C2 5185   4.332   0.762  14.175 -0.5101 -0.2748 -0.0016
  346MPD2    C3 5186   4.303   0.782  14.312 -0.5250  0.3177  0.1210
  346MPD2    C4 5187   4.185   0.720  14.361  0.6548  0.0499 -0.0009
  346MPD2    C5 5188   4.104   0.662  14.275 -0.0060 -0.3165  0.0332
  346MPD2     H 5189   4.432   0.792  14.143 -0.5229 -0.4325 -0.1932
  346MPD2    H1 5190   4.154   0.718  14.465  3.1629  0.5025  0.7488
  346MPD2    H2 5191   4.049   0.611  14.080  0.1703  0.1269 -0.0243
  346MPD2    H3 5192   4.019   0.605  14.312 -2.3044  1.5727 -2.4174
  346MPD2     N 5193   4.386   0.870  14.392 -0.2559 -0.1005 -0.5854
  346MPD2    H5 5194   4.474   0.902  14.353  0.3742  1.1651  1.8664
  346MPD2    N1 5195   4.248   0.699  13.949 -0.2640  0.0029 -0.2617
  346MPD2    H7 5196   4.164   0.663  13.905 -1.4252  2.2344  0.1147
  347TMC3    C1 5197   4.460   0.988  14.588 -0.2351 -0.9507  0.7900
  347TMC3    C2 5198   4.590   0.992  14.544  0.1394 -0.4410  0.2576
  347TMC3    C3 5199   4.682   1.071  14.611 -0.1605  0.4174 -0.7450
  347TMC3    C4 5200   4.421   1.044  14.711  0.1013 -0.0789 -0.0207
  347TMC3    C5 5201   4.523   1.114  14.781 -0.2331 -0.1826  0.1484
  347TMC3    C6 5202   4.650   1.121  14.736  0.7182 -0.7228 -0.2681
  347TMC3     C 5203   4.350   0.924  14.514 -0.4465  0.6097 -0.1751
  347TMC3     O 5204   4.233   0.929  14.556  0.2797  0.2844 -0.5179
  347TMC3     H 5205   4.614   0.947  14.448  0.5445 -0.5554  0.4111
  347TMC3    H1 5206   4.317   1.051  14.741  0.4095 -0.4159  1.1272
  347TMC3    H2 5207   4.722   1.176  14.795  0.7398 -0.9871 -0.0489
  347TMC3    C7 5208   4.484   1.134  14.916  0.6761  0.7309  0.3517
  347TMC3    C8 5209   0.093   1.029  14.590 -0.2511  0.1045 -0.1943
  347TMC3    O1 5210   4.369   1.161  14.941 -0.0466 -0.2942  0.2163
  347TMC3    O2 5211   0.108   0.917  14.544 -0.7372 -0.3731 -0.3379
  348MPD2     C 5212   2.577   0.391  12.192 -1.1040 -0.3076  1.0213
  348MPD2    C1 5213   2.609   0.351  12.066  0.1387 -0.2758  0.2402
  348MPD2    C2 5214   2.587   0.430  11.950 -0.1970  0.2818  0.4213
  348MPD2    C3 5215   2.533   0.561  11.981 -0.2108  0.6248 -0.6763
  348MPD2    C4 5216   2.506   0.602  12.110 -0.0221 -0.1808  0.2435
  348MPD2    C5 5217   2.523   0.515  12.219 -0.0347 -0.1617  0.1168
  348MPD2     H 5218   2.634   0.398  11.858  3.2949  1.6018  1.7370
  348MPD2    H1 5219   2.455   0.694  12.133 -0.3395 -0.5435  1.0034
  348MPD2    H2 5220   2.611   0.336  12.279  0.0819 -1.6121 -0.2753
  348MPD2    H3 5221   2.511   0.545  12.323  1.2560  0.2570  0.1409
  348MPD2     N 5222   2.517   0.647  11.871  0.2224  0.3663  0.1881
  348MPD2    H5 5223   2.506   0.599  11.782  1.0651  0.7028 -0.0967
  348MPD2    N1 5224   2.687   0.237  12.039  0.2332  0.0110 -0.1483
  348MPD2    H7 5225   2.721   0.229  11.944 -2.1850  0.3990 -1.0421
  349TMC3    C1 5226   2.837   0.053  12.091  0.5165 -0.2219  0.5177
  349TMC3    C2 5227   2.875   4.682  12.178 -0.2374  0.1306  0.8145
  349TMC3    C3 5228   3.001   4.636  12.172 -0.2777  0.2511  0.1773
  349TMC3    C4 5229   2.920   0.097  11.995 -0.0800 -0.2089 -1.0083
  349TMC3    C5 5230   3.042   0.043  11.984 -0.2083 -0.3399  0.1450
  349TMC3    C6 5231   3.086   4.673  12.072 -0.2369 -0.7364 -0.6242
  349TMC3     C 5232   2.715   0.129  12.127 -0.5132 -1.1331  0.4624
  349TMC3     O 5233   2.681   0.119  12.243 -0.2520 -0.4216  0.3834
  349TMC3     H 5234   2.799   4.649  12.248  0.7336 -0.7364  1.4673
  349TMC3    H1 5235   2.899   0.191  11.946 -0.9139  0.0597 -0.1354
  349TMC3    H2 5236   3.187   4.638  12.059  0.6000  0.4115  2.7517
  349TMC3    C7 5237   3.136   0.137  11.929  0.1138  0.2256 -0.8394
  349TMC3    C8 5238   3.046   4.551  12.283 -0.2107 -0.0757 -0.5431
  349TMC3    O1 5239   3.125   0.142  11.806  0.0085  0.4266 -0.6547
  349TMC3    O2 5240   2.984   4.543  12.386  0.1256 -0.1171 -0.7935
  350MPD2     C 5241   3.454   2.563   9.232 -0.1777 -0.1560  0.2950
  350MPD2    C1 5242   3.334   2.532   9.296  0.4491 -0.3287  0.1301
  350MPD2    C2 5243   3.276   2.624   9.377  0.0048  0.9783  0.2846
  350MPD2    C3 5244   3.342   2.736   9.417  0.2314 -0.1092 -0.0915
  350MPD2    C4 5245   3.455   2.771   9.343  0.0289 -0.0360 -0.3164
  350MPD2    C5 5246   3.515   2.682   9.258 -0.1816  0.6225 -0.4006
  350MPD2     H 5247   3.180   2.601   9.423  0.0109 -0.9352 -0.6372
  350MPD2    H1 5248   3.499   2.869   9.361  1.9108 -1.2472  1.6268
  350MPD2    H2 5249   3.510   2.496   9.168 -0.0719  0.7947 -0.6104
  350MPD2    H3 5250   3.612   2.704   9.214  0.7805  0.9904  1.8894
  350MPD2     N 5251   3.279   2.822   9.507 -0.2833 -0.5241  0.0087
  350MPD2    H5 5252   3.186   2.792   9.533  0.2134 -1.0869  1.1641
  350MPD2    N1 5253   3.281   2.400   9.274  0.3254  0.9686  0.1042
  350MPD2    H7 5254   3.337   2.334   9.221 -1.8120 -0.8935  0.1313
  351TMC3    C1 5255   3.160   2.203   9.298 -0.6451 -0.1959 -0.5602
  351TMC3    C2 5256   3.265   2.118   9.298  0.3843 -0.4639 -0.2735
  351TMC3    C3 5257   3.236   1.987   9.284  0.3223 -0.5164 -0.2847
  351TMC3    C4 5258   3.030   2.159   9.292  0.0574  0.3274  0.1195
  351TMC3    C5 5259   3.012   2.026   9.263 -0.6937  0.1945  0.3368
  351TMC3    C6 5260   3.113   1.937   9.250  0.0285 -0.1657  0.2751
  351TMC3     C 5261   3.174   2.342   9.334 -0.0713 -0.4921 -0.5561
  351TMC3     O 5262   3.088   2.398   9.401 -0.4636 -0.6319  0.4214
  351TMC3     H 5263   3.367   2.153   9.311  1.0929 -1.9286 -1.9430
  351TMC3    H1 5264   2.952   2.234   9.288 -1.5832 -1.4624 -1.7511
  351TMC3    H2 5265   3.096   1.832   9.227  2.5580 -0.2389 -1.2389
  351TMC3    C7 5266   2.874   1.995   9.233 -0.3058  0.3345  0.2458
  351TMC3    C8 5267   3.306   1.905   9.379 -0.1401  0.0168  0.1518
  351TMC3    O1 5268   2.789   2.077   9.260  0.6484  0.2518 -0.1266
  351TMC3    O2 5269   3.266   1.789   9.404  0.8247 -0.4280 -0.1825
  352MPD2     C 5270   0.845   0.603   0.977  1.1694 -0.0006  0.1459
  352MPD2    C1 5271   0.816   0.606   1.114 -0.7992  0.1679  0.1033
  352MPD2    C2 5272   0.807   0.483   1.185  0.3734  0.2352  0.2582
  352MPD2    C3 5273   0.810   0.361   1.120 -0.2824 -0.0727  0.0260
  352MPD2    C4 5274   0.842   0.361   0.985 -0.2364  0.1918 -0.1572
  352MPD2    C5 5275   0.857   0.480   0.913  0.0383  0.5732  0.6723
  352MPD2     H 5276   0.774   0.495   1.288 -0.4717  0.2959 -0.0267
  352MPD2    H1 5277   0.854   0.269   0.931  1.6465 -0.1797  0.8692
  352MPD2    H2 5278   0.846   0.695   0.919 -1.5863 -0.0058  0.1017
  352MPD2    H3 5279   0.876   0.479   0.807  1.4637  1.2251  0.9072
  352MPD2     N 5280   0.788   0.242   1.180  0.1759 -0.2126  0.2840
  352MPD2    H5 5281   0.796   0.164   1.116  1.4300 -0.4835  0.7605
  352MPD2    N1 5282   0.791   0.730   1.180  0.3627 -0.1201 -0.4134
  352MPD2    H7 5283   0.779   0.809   1.118  2.5095  0.1270 -0.5155
  353TMC3    C1 5284   0.763   0.073   1.338  0.1902  0.4594 -0.1272
  353TMC3    C2 5285   0.840   0.025   1.432 -0.1164  0.0920  0.3296
  353TMC3    C3 5286   0.853   4.612   1.433  0.3096 -0.0100  0.0844
  353TMC3    C4 5287   0.697   0.003   1.241  0.1404  0.7820  0.2136
  353TMC3    C5 5288   0.692   4.592   1.258  0.3233  0.5222 -0.5307
  353TMC3    C6 5289   0.770   4.536   1.354 -0.1876 -0.6384  0.5241
  353TMC3     C 5290   0.773   0.214   1.313 -0.4564 -0.4281 -0.4543
  353TMC3     O 5291   0.807   0.292   1.402  0.0263  0.0286  0.0069
  353TMC3     H 5292   0.911   0.080   1.493  0.8488 -0.5525 -0.2019
  353TMC3    H1 5293   0.630   0.051   1.170 -1.4502 -1.1011  0.4638
  353TMC3    H2 5294   0.774   4.427   1.356  1.1221 -0.5609  1.7317
  353TMC3    C7 5295   0.652   4.521   1.142  0.2187 -0.9704  0.3830
  353TMC3    C8 5296   0.950   4.545   1.517  0.4808  0.0350 -0.2083
  353TMC3    O1 5297   0.646   4.582   1.039  0.6113  0.4309 -0.4330
  353TMC3    O2 5298   0.979   4.619   1.614  0.3327  0.1422 -0.5230
  354TMC3    C1 5299   2.038   2.214  13.188 -0.3073 -0.4037 -0.1056
  354TMC3    C2 5300   2.074   2.347  13.171  1.0100 -0.7906  0.2366
  354TMC3    C3 5301   2.067   2.392  13.042  0.2196 -0.3800 -0.6070
  354TMC3    C4 5302   1.994   2.130  13.089 -0.5680 -0.1705  0.0333
  354TMC3    C5 5303   1.986   2.176  12.960 -0.0255 -0.4911  0.0277
  354TMC3    C6 5304   2.041   2.304  12.942  0.4740  0.2972  0.6265
  354TMC3     C 5305   2.079   2.152  13.309 -0.1028 -0.3187  0.4677
  354TMC3     O 5306   2.016   2.057  13.355 -0.3150  0.0857  0.2318
  354TMC3     H 5307   2.107   2.407  13.255 -0.4955 -0.0917  0.3319
  354TMC3    H1 5308   1.954   2.033  13.116  0.7398 -0.4756  0.8838
  354TMC3    H2 5309   2.053   2.335  12.839  1.2275 -0.4622  0.4789
  354TMC3    C7 5310   2.013   2.069  12.860 -0.0139 -0.2951 -0.0289
  354TMC3    C8 5311   2.080   2.538  13.031 -0.0525 -0.0563  0.2752
  354TMC3    O1 5312   1.935   1.971  12.850 -0.2151 -0.3051 -0.7850
  354TMC3    O2 5313   2.071   2.605  13.128 -1.0304  0.3955 -0.2174
  355MPD2     C 5314   2.122   2.900  11.393  0.7218  0.7535  0.4110
  355MPD2    C1 5315   2.225   2.857  11.315 -0.0247 -0.4510  0.4024
  355MPD2    C2 5316   2.328   2.800  11.372  0.0602 -0.3391 -0.0928
  355MPD2    C3 5317   2.330   2.771  11.508  0.9536  0.2928 -0.6395
  355MPD2    C4 5318   2.229   2.813  11.588  0.1388  0.4729  0.1206
  355MPD2    C5 5319   2.130   2.886  11.529  0.1223 -0.8400  0.3917
  355MPD2     H 5320   2.416   2.776  11.314  0.7886  1.3896  0.2751
  355MPD2    H1 5321   2.228   2.793  11.695  1.6237  1.0623  0.2536
  355MPD2    H2 5322   2.044   2.952  11.338 -1.3254 -0.1398  2.4370
  355MPD2    H3 5323   2.049   2.923  11.590  1.0400  1.1496  0.3986
  355MPD2     N 5324   2.442   2.700  11.571  1.1145  0.4119 -0.2662
  355MPD2    H5 5325   2.433   2.671  11.668  0.0763 -2.8908 -1.3440
  355MPD2    N1 5326   2.231   2.902  11.178 -0.2679  0.8075 -0.1528
  355MPD2    H7 5327   2.156   2.966  11.152  1.0439  1.6671 -1.8565
  356TMC3    C1 5328   2.661   2.601  11.590  0.1622  0.2857  0.9505
  356TMC3    C2 5329   2.789   2.606  11.550  0.1948  0.0580  0.4136
  356TMC3    C3 5330   2.888   2.577  11.638 -0.0949 -0.0330  0.5221
  356TMC3    C4 5331   2.629   2.557  11.717  0.7083 -0.2143  0.3466
  356TMC3    C5 5332   2.732   2.523  11.798 -0.0810 -0.1357  0.0338
  356TMC3    C6 5333   2.862   2.543  11.775 -0.5349 -0.7889  0.3466
  356TMC3     C 5334   2.563   2.670  11.511  0.5550  0.0363  0.1006
  356TMC3     O 5335   2.602   2.691  11.400  0.0141  0.1274 -0.3992
  356TMC3     H 5336   2.814   2.637  11.450  1.4165  1.2203  1.0686
  356TMC3    H1 5337   2.524   2.547  11.743  0.4841 -0.6780 -0.7410
  356TMC3    H2 5338   2.946   2.519  11.840 -0.7322 -3.0237 -0.2081
  356TMC3    C7 5339   2.695   2.503  11.938  0.1302  0.2851  0.2933
  356TMC3    C8 5340   3.025   2.591  11.587 -0.5862 -0.3121  0.2716
  356TMC3    O1 5341   2.580   2.464  11.958  0.5422 -0.5148  0.6173
  356TMC3    O2 5342   3.048   2.551  11.473  0.0971 -0.5861 -0.0332
  357MPD2     C 5343   2.014   3.047   1.045  0.2554  0.9702  0.2949
  357MPD2    C1 5344   2.083   2.981   1.137 -0.2284  0.8027  0.4827
  357MPD2    C2 5345   2.030   2.961   1.261  0.4053 -0.5173  0.0223
  357MPD2    C3 5346   1.917   3.026   1.303 -0.2859  0.1532  0.5243
  357MPD2    C4 5347   1.848   3.100   1.214 -0.4336  0.2876 -0.2363
  357MPD2    C5 5348   1.898   3.111   1.086 -0.2578 -0.4275 -0.5414
  357MPD2     H 5349   2.081   2.901   1.336  0.1999  0.8000  1.2058
  357MPD2    H1 5350   1.757   3.155   1.237  0.7659  1.8580  0.8049
  357MPD2    H2 5351   2.041   3.044   0.940 -0.7143 -0.1695  0.0929
  357MPD2    H3 5352   1.844   3.148   1.000 -0.8295 -0.2225 -0.0902
  357MPD2     N 5353   1.861   3.011   1.437  0.3768  0.4970 -0.6846
  357MPD2    H5 5354   1.775   3.065   1.444  1.0207  1.0808  2.6440
  357MPD2    N1 5355   2.189   2.896   1.083 -0.1517  0.2703  0.1471
  357MPD2    H7 5356   2.214   2.919   0.988  1.9187  1.6823  1.0478
  358TMC3    C1 5357   2.367   2.748   1.079 -0.2473 -0.0003  0.2470
  358TMC3    C2 5358   2.325   2.687   0.969  0.1126  0.0603 -0.5605
  358TMC3    C3 5359   2.403   2.580   0.928 -0.8871  0.1500  0.1768
  358TMC3    C4 5360   2.479   2.709   1.144 -0.0599  0.0559 -0.6669
  358TMC3    C5 5361   2.545   2.599   1.108  0.2016  0.5031  0.3311
  358TMC3    C6 5362   2.518   2.542   0.991  0.1528  0.1176  0.1672
  358TMC3     C 5363   2.274   2.820   1.159  0.1066 -0.2265 -0.9059
  358TMC3     O 5364   2.284   2.799   1.282  0.0898  0.2037 -0.2413
  358TMC3     H 5365   2.234   2.711   0.916  0.2004  0.9087 -0.3269
  358TMC3    H1 5366   2.517   2.780   1.217 -0.4908  1.3618 -1.7150
  358TMC3    H2 5367   2.558   2.443   0.974  1.0223  0.3390  0.9868
  358TMC3    C7 5368   2.604   2.516   1.217 -0.3957 -0.7226 -0.3382
  358TMC3    C8 5369   2.350   2.506   0.816 -0.3873  0.3244  0.0410
  358TMC3    O1 5370   2.655   2.407   1.187  1.1767 -0.3184  0.2940
  358TMC3    O2 5371   2.229   2.512   0.792  0.4784  0.5754  0.0494
  359MPD2     C 5372   2.499   1.569  12.534  0.4250  0.3398  0.3100
  359MPD2    C1 5373   2.526   1.495  12.418  0.8481  0.1431 -0.1102
  359MPD2    C2 5374   2.564   1.360  12.438 -0.2105 -0.5919  0.8963
  359MPD2    C3 5375   2.574   1.300  12.566  0.8686  0.0381 -0.3059
  359MPD2    C4 5376   2.546   1.376  12.679  0.5445  0.2746  0.3522
  359MPD2    C5 5377   2.506   1.512  12.660 -0.2934  0.1014 -1.0188
  359MPD2     H 5378   2.591   1.312  12.345 -0.0778 -0.7326  1.0086
  359MPD2    H1 5379   2.541   1.337  12.780 -0.8250 -1.4226 -0.3558
  359MPD2    H2 5380   2.458   1.670  12.533  1.1079  0.6221  0.4577
  359MPD2    H3 5381   2.464   1.573  12.739  2.2212  0.2637  0.1743
  359MPD2     N 5382   2.626   1.173  12.589 -0.0558 -0.6011  0.2821
  359MPD2    H5 5383   2.627   1.144  12.686 -0.4113 -1.4406  0.0397
  359MPD2    N1 5384   2.534   1.553  12.285 -0.6814 -0.2209  0.5039
  359MPD2    H7 5385   2.548   1.490  12.207 -0.9393  0.9524 -0.4872
  360TMC3    C1 5386   2.578   1.713  12.125  0.6395  0.0159 -0.4634
  360TMC3    C2 5387   2.656   1.823  12.103  0.8019 -0.2866  0.0000
  360TMC3    C3 5388   2.692   1.843  11.975 -0.0177 -0.2000 -0.5763
  360TMC3    C4 5389   2.510   1.643  12.033 -0.5702 -0.4897 -0.5782
  360TMC3    C5 5390   2.544   1.678  11.906 -0.2037  0.2242 -0.7686
  360TMC3    C6 5391   2.637   1.773  11.873 -0.4619  0.1829  0.9138
  360TMC3     C 5392   2.549   1.687  12.264  1.1359 -0.8230 -0.4945
  360TMC3     O 5393   2.580   1.772  12.350 -0.1458 -0.3028  0.0486
  360TMC3     H 5394   2.727   1.866  12.173  0.3595  1.3328 -0.5506
  360TMC3    H1 5395   2.432   1.573  12.063  0.9274 -1.9973 -0.1751
  360TMC3    H2 5396   2.651   1.787  11.766 -0.1872 -0.9067  0.8097
  360TMC3    C7 5397   2.479   1.612  11.794 -0.3488  0.3669 -0.2595
  360TMC3    C8 5398   2.834   1.869  11.956  0.0583  0.1321 -0.3649
  360TMC3    O1 5399   2.478   1.672  11.687  0.0218 -0.5379  0.7360
  360TMC3    O2 5400   2.893   1.956  12.017  0.1746  0.3093 -0.0863
  361MPD2     C 5401   4.594   0.486   0.398 -0.2201 -0.1178  0.9464
  361MPD2    C1 5402   4.597   0.434   0.271  0.8431 -0.1133 -0.1695
  361MPD2    C2 5403   4.668   0.317   0.244 -0.3387  0.0449  0.1082
  361MPD2    C3 5404   0.040   0.271   0.335 -0.5739 -0.0819  0.4834
  361MPD2    C4 5405   0.047   0.336   0.457 -0.0703 -0.9347  0.0749
  361MPD2    C5 5406   4.684   0.438   0.485  0.1603 -0.1514 -0.3258
  361MPD2     H 5407   4.652   0.285   0.142 -0.1678  2.3353 -0.6474
  361MPD2    H1 5408   0.110   0.300   0.538  1.8913  2.8835  0.2280
  361MPD2    H2 5409   4.529   0.565   0.434  1.0479  0.6196  1.6419
  361MPD2    H3 5410   4.681   0.472   0.588  0.0080 -1.2198  0.0267
  361MPD2     N 5411   0.115   0.159   0.303 -0.1423 -0.0182 -0.0534
  361MPD2    H5 5412   0.171   0.124   0.380 -0.3243  0.6631  0.3941
  361MPD2    N1 5413   4.516   0.488   0.168  0.3942  0.2874  0.1926
  361MPD2    H7 5414   4.512   0.440   0.079 -1.4188 -0.8927  0.9086
  362TMC3    C1 5415   4.378   0.628   0.046  0.9144 -0.3875 -0.0341
  362TMC3    C2 5416   4.252   0.681   0.046 -0.2376 -0.1635 -0.3168
  362TMC3    C3 5417   4.203   0.731  17.624  0.0631  0.3849  0.1504
  362TMC3    C4 5418   4.454   0.618  17.633 -0.1169 -0.7324  0.3680
  362TMC3    C5 5419   4.397   0.644  17.514 -0.2901 -0.5262  0.5184
  362TMC3    C6 5420   4.273   0.704  17.503  0.6334 -0.8088  0.0060
  362TMC3     C 5421   4.441   0.603   0.174 -0.3594  0.1741 -0.3667
  362TMC3     O 5422   4.401   0.670   0.266 -0.0466 -0.1048  0.0263
  362TMC3     H 5423   4.187   0.684   0.133 -0.2649  0.9975 -0.3849
  362TMC3    H1 5424   4.557   0.586  17.635  0.3872  0.7338 -1.8399
  362TMC3    H2 5425   4.243   0.741  17.406  1.0430 -0.5761 -0.0305
  362TMC3    C7 5426   4.471   0.605  17.392  0.4949  0.0276  0.3310
  362TMC3    C8 5427   4.064   0.732  17.607 -0.2484 -0.3253  0.4365
  362TMC3    O1 5428   4.556   0.526  17.418  0.0579  0.4871  0.1335
  362TMC3    O2 5429   4.000   0.652  17.674  0.5085  0.7120  0.3953
  363TMC3    C1 5430   3.561   2.559   9.683 -0.1013  0.4064 -0.2855
  363TMC3    C2 5431   3.649   2.454   9.691  0.1001 -0.0770  0.1065
  363TMC3    C3 5432   3.782   2.483   9.699  0.5335 -0.1124  0.4778
  363TMC3    C4 5433   3.599   2.689   9.670  1.6128 -0.1250  0.3233
  363TMC3    C5 5434   3.735   2.714   9.682  0.0398  0.2635 -0.2439
  363TMC3    C6 5435   3.827   2.618   9.707  0.9792  0.0765 -0.1953
  363TMC3     C 5436   3.419   2.527   9.702  0.3251  0.3075  0.1289
  363TMC3     O 5437   3.373   2.415   9.678  0.1640  0.0418 -0.1795
  363TMC3     H 5438   3.608   2.355   9.709 -1.2534  0.9269  2.6165
  363TMC3    H1 5439   3.526   2.767   9.654  0.8835 -1.0095 -0.6633
  363TMC3    H2 5440   3.933   2.631   9.688  0.8550 -1.1553 -1.7371
  363TMC3    C7 5441   3.789   2.844   9.671 -1.0364  0.6005 -0.0581
  363TMC3    C8 5442   3.849   2.379   9.765  0.5003  0.2742 -0.3047
  363TMC3    O1 5443   3.889   2.870   9.736  0.3693 -0.5337  0.2779
  363TMC3    O2 5444   3.919   2.404   9.867  0.0840 -1.1705 -0.2479
  364MPD2     C 5445   1.477   1.717  10.498  1.3310  0.2574 -0.0379
  364MPD2    C1 5446   1.561   1.660  10.401  0.4499 -0.1938  0.1155
  364MPD2    C2 5447   1.562   1.521  10.387 -0.2096 -0.1867  0.0348
  364MPD2    C3 5448   1.492   1.439  10.473 -0.4832 -0.1508  0.2047
  364MPD2    C4 5449   1.406   1.500  10.563 -0.3874  0.4841 -0.7715
  364MPD2    C5 5450   1.409   1.636  10.584 -0.2351  0.6477  0.8996
  364MPD2     H 5451   1.620   1.482  10.304 -1.0423 -0.8675 -0.2340
  364MPD2    H1 5452   1.343   1.444  10.631  4.1913 -3.0413  0.5524
  364MPD2    H2 5453   1.482   1.825  10.500 -3.3970  0.3887  3.3343
  364MPD2    H3 5454   1.365   1.682  10.672 -1.0275  1.6010  0.0131
  364MPD2     N 5455   1.514   1.301  10.468 -0.3735 -0.1152 -0.6524
  364MPD2    H5 5456   1.472   1.253  10.547 -0.9472 -0.7067 -1.3147
  364MPD2    N1 5457   1.639   1.755  10.323  0.1173 -0.4469 -0.4068
  364MPD2    H7 5458   1.626   1.852  10.352 -2.1352 -1.0965  0.7711
  365TMC3    C1 5459   1.827   1.828  10.210  0.0768 -0.4311  0.4531
  365TMC3    C2 5460   1.949   1.780  10.174 -0.2360  0.2128 -0.0897
  365TMC3    C3 5461   2.046   1.873  10.140  0.4787  0.2644 -0.0906
  365TMC3    C4 5462   1.796   1.960  10.210  0.6021  0.4171  0.4243
  365TMC3    C5 5463   1.894   2.048  10.181  0.2012  0.2410  0.4112
  365TMC3    C6 5464   2.018   2.010  10.137  0.2678  0.2519 -0.2608
  365TMC3     C 5465   1.737   1.718  10.236 -0.4091 -0.1818 -0.3960
  365TMC3     O 5466   1.761   1.605  10.197  0.3128  0.0594 -0.2064
  365TMC3     H 5467   1.961   1.672  10.172  1.3155  0.3715  0.7304
  365TMC3    H1 5468   1.695   2.000  10.211  0.2914 -0.4257  2.2067
  365TMC3    H2 5469   2.098   2.081  10.120  0.1503  0.9872  2.2948
  365TMC3    C7 5470   1.885   2.193  10.218  0.5704 -0.3025  0.1309
  365TMC3    C8 5471   2.180   1.829  10.115  0.6835 -0.1838  0.3252
  365TMC3    O1 5472   1.987   2.261  10.214 -0.1847 -0.2999  0.4426
  365TMC3    O2 5473   2.273   1.907  10.102  0.3739 -0.2356  0.3668
  366MPD2     C 5474   4.367   2.942  15.591  0.3931 -0.7075  0.5213
  366MPD2    C1 5475   4.462   3.019  15.536  0.0379 -0.3727 -0.0663
  366MPD2    C2 5476   4.569   2.962  15.477 -0.5813 -0.2833  0.1705
  366MPD2    C3 5477   4.569   2.827  15.459 -0.3303 -0.4663  0.3341
  366MPD2    C4 5478   4.464   2.748  15.507 -0.9372 -0.2831 -0.5396
  366MPD2    C5 5479   4.367   2.807  15.574 -0.0631 -0.3720  0.2535
  366MPD2     H 5480   4.643   3.029  15.433  0.6578 -0.8510  1.3925
  366MPD2    H1 5481   4.459   2.643  15.481 -1.0048 -0.4947  0.3136
  366MPD2    H2 5482   4.288   2.990  15.647  0.8806 -1.7639  2.1177
  366MPD2    H3 5483   4.275   2.756  15.600  0.4888 -1.4817  0.0397
  366MPD2     N 5484   4.678   2.791  15.382  0.2424 -0.0814 -0.2233
  366MPD2    H5 5485   0.013   2.865  15.347  1.9293 -0.4903  1.7747
  366MPD2    N1 5486   4.475   3.160  15.562 -0.1658 -0.0299  0.4226
  366MPD2    H7 5487   4.559   3.207  15.532  0.1080 -1.2270 -0.6634
  367TMC3    C1 5488   4.423   3.374  15.619  0.5354  0.7344  0.0230
  367TMC3    C2 5489   4.553   3.398  15.658 -0.4055  0.7818 -0.2158
  367TMC3    C3 5490   4.612   3.523  15.658  0.1271 -0.3032  0.4916
  367TMC3    C4 5491   4.348   3.477  15.582  0.2513  0.1999  0.3409
  367TMC3    C5 5492   4.413   3.597  15.561  0.8619 -0.1580 -0.4034
  367TMC3    C6 5493   4.543   3.624  15.599  0.0986 -0.5262 -0.6986
  367TMC3     C 5494   4.374   3.246  15.597  1.0930 -0.2788  0.0618
  367TMC3     O 5495   4.252   3.230  15.604  0.0299 -0.2562  0.2828
  367TMC3     H 5496   4.619   3.314  15.680 -0.3329  0.9817  0.3278
  367TMC3    H1 5497   4.246   3.456  15.553 -0.3761  0.4973  2.3122
  367TMC3    H2 5498   4.582   3.725  15.587 -0.4742 -0.1307  0.7826
  367TMC3    C7 5499   4.335   3.712  15.514  0.6138  0.0843 -0.8436
  367TMC3    C8 5500   0.032   3.527  15.642  0.7689 -0.6007  0.1911
  367TMC3    O1 5501   4.367   3.821  15.553 -0.3001 -0.1120  0.5041
  367TMC3    O2 5502   0.094   3.435  15.694  0.7174  0.1635  0.3819
  368MPD2     C 5503   1.622   0.361  13.401  0.2155  0.7575  0.5554
  368MPD2    C1 5504   1.645   0.395  13.267  0.3167  0.1381  0.3084
  368MPD2    C2 5505   1.767   0.419  13.214  0.0426  0.0352 -0.6597
  368MPD2    C3 5506   1.874   0.399  13.296 -0.2905 -0.1725  0.2517
  368MPD2    C4 5507   1.856   0.369  13.426  0.3530 -0.2624  0.1617
  368MPD2    C5 5508   1.731   0.350  13.484 -0.3747  0.6141  0.3562
  368MPD2     H 5509   1.784   0.456  13.113 -1.5110 -0.0864 -0.9594
  368MPD2    H1 5510   1.945   0.349  13.484  1.5358  1.8096 -0.9124
  368MPD2    H2 5511   1.517   0.349  13.425  0.3341  0.5120  0.9471
  368MPD2    H3 5512   1.729   0.321  13.589  0.3410 -1.0379 -0.0773
  368MPD2     N 5513   2.006   0.420  13.263 -0.2228  0.8225 -0.3682
  368MPD2    H5 5514   2.070   0.403  13.340 -0.0165  0.9760 -0.5072
  368MPD2    N1 5515   1.525   0.396  13.186 -0.3639  0.2493 -0.7799
  368MPD2    H7 5516   1.437   0.367  13.228  0.5677  2.6027  2.8649
  369TMC3    C1 5517   1.378   0.429  12.999 -0.3695  0.4045 -0.6322
  369TMC3    C2 5518   1.343   0.530  12.912  0.2073 -0.6655  0.0047
  369TMC3    C3 5519   1.220   0.522  12.849  0.3333  0.3325  0.0907
  369TMC3    C4 5520   1.290   0.333  13.031 -0.1480  0.2503  0.0255
  369TMC3    C5 5521   1.166   0.335  12.969  0.3435  0.4912 -0.6782
  369TMC3    C6 5522   1.135   0.423  12.874 -0.4143 -0.2968 -0.5406
  369TMC3     C 5523   1.511   0.449  13.056  0.1679 -0.2329  0.4454
  369TMC3     O 5524   1.593   0.500  12.980 -0.1212 -0.4778 -0.2989
  369TMC3     H 5525   1.412   0.609  12.885  1.1748 -1.5481 -0.1316
  369TMC3    H1 5526   1.314   0.258  13.106 -1.3525 -1.6513 -1.5186
  369TMC3    H2 5527   1.045   0.416  12.814 -1.4006  0.5229  0.8279
  369TMC3    C7 5528   1.059   0.266  13.039 -0.7417  0.5473  0.3059
  369TMC3    C8 5529   1.174   0.646  12.797  0.2312 -0.0045  0.2775
  369TMC3    O1 5530   1.077   0.264  13.160 -0.0097  0.3372  0.2573
  369TMC3    O2 5531   1.242   0.709  12.722  0.5360 -0.7957  0.1975
  370TMC3    C1 5532   0.778   1.126  16.421 -0.5388  0.2888  0.3002
  370TMC3    C2 5533   0.688   1.063  16.504 -0.1418 -0.7669 -0.5591
  370TMC3    C3 5534   0.658   0.933  16.473 -0.3861 -0.7242 -0.2446
  370TMC3    C4 5535   0.844   1.071  16.318  0.1823  0.0177  0.2665
  370TMC3    C5 5536   0.804   0.938  16.292 -0.1538  0.0941 -0.0309
  370TMC3    C6 5537   0.714   0.868  16.372  0.2745  1.0345  0.4168
  370TMC3     C 5538   0.853   1.217  16.517 -0.5806 -0.0297 -0.7922
  370TMC3     O 5539   0.843   1.186  16.633 -0.4078  0.4339 -0.0297
  370TMC3     H 5540   0.642   1.128  16.577 -0.2717  0.6474 -1.8974
  370TMC3    H1 5541   0.899   1.125  16.242  0.3080 -0.0082  0.3387
  370TMC3    H2 5542   0.695   0.763  16.350 -1.1964  1.3344  0.2772
  370TMC3    C7 5543   0.862   0.871  16.173 -0.4726 -0.6663 -1.0252
  370TMC3    C8 5544   0.661   0.849  16.593 -0.6920  0.0388  0.4149
  370TMC3    O1 5545   0.912   0.939  16.081  0.3906  0.7149  0.0320
  370TMC3    O2 5546   0.685   0.730  16.580  0.8534  0.5325  0.7268
  371TMC3    C1 5547   1.936   3.835  15.687  0.3728  0.0083  0.0739
  371TMC3    C2 5548   1.835   3.876  15.771  0.2093 -0.2649 -0.7381
  371TMC3    C3 5549   1.828   4.014  15.796 -0.0395  0.9261  0.2134
  371TMC3    C4 5550   2.013   3.926  15.620 -0.2649  0.5386  0.1208
  371TMC3    C5 5551   1.991   4.056  15.635 -0.2897 -0.3243  0.1126
  371TMC3    C6 5552   1.906   4.107  15.730 -0.5645 -0.1421 -0.8874
  371TMC3     C 5553   1.975   3.695  15.683  0.3879  0.3761  0.5238
  371TMC3     O 5554   2.066   3.670  15.605  0.5245 -0.3446  0.0908
  371TMC3     H 5555   1.771   3.812  15.832 -1.1045 -0.9290 -2.8277
  371TMC3    H1 5556   2.098   3.888  15.563  0.9675  2.6752  0.5386
  371TMC3    H2 5557   1.908   4.213  15.753 -3.1237  0.0595 -1.6933
  371TMC3    C7 5558   2.066   4.153  15.558  0.0268  0.4908  0.1192
  371TMC3    C8 5559   1.767   4.051  15.924  0.7869 -0.5128 -0.0697
  371TMC3    O1 5560   2.069   4.272  15.592 -0.5869 -0.2768 -0.4013
  371TMC3    O2 5561   1.729   3.957  15.991  0.5823 -0.0728  0.2854
  372MPD2     C 5562   1.164   0.750  13.161 -0.2871 -0.3741  0.2625
  372MPD2    C1 5563   1.257   0.720  13.258  0.2285 -0.3139  0.2449
  372MPD2    C2 5564   1.211   0.641  13.363 -0.3651  0.0534  0.0399
  372MPD2    C3 5565   1.081   0.584  13.359 -0.2839 -1.1570  0.2865
  372MPD2    C4 5566   0.993   0.618  13.261  0.5605  0.5169 -0.6636
  372MPD2    C5 5567   1.035   0.703  13.160 -0.3502  0.0346 -1.4786
  372MPD2     H 5568   1.278   0.630  13.448 -1.7973 -0.2529  1.1316
  372MPD2    H1 5569   0.892   0.579  13.259  0.6243  0.3106  0.1051
  372MPD2    H2 5570   1.192   0.816  13.079  2.4700  0.3100  1.7342
  372MPD2    H3 5571   0.974   0.721  13.071 -1.5712 -0.7789 -0.8090
  372MPD2     N 5572   1.048   0.493  13.463  0.4178  0.1067 -0.1867
  372MPD2    H5 5573   1.110   0.488  13.543  1.5939  0.0461 -1.0954
  372MPD2    N1 5574   1.390   0.764  13.248  0.0597  0.0108 -0.5244
  372MPD2    H7 5575   1.451   0.741  13.325 -0.6481 -1.4676 -0.3978
  373TMC3    C1 5576   0.918   0.337  13.592  0.0209 -0.2365  0.9521
  373TMC3    C2 5577   0.934   0.402  13.710 -0.6568 -0.1667 -0.4156
  373TMC3    C3 5578   0.903   0.338  13.827  0.0758 -0.0702 -0.6880
  373TMC3    C4 5579   0.856   0.216  13.584 -0.6295  0.0025  0.5480
  373TMC3    C5 5580   0.847   0.156  13.709 -0.3788 -0.4564  0.1050
  373TMC3    C6 5581   0.871   0.206  13.833 -0.2507  0.4498 -0.6280
  373TMC3     C 5582   0.932   0.410  13.472  0.5176 -1.0829 -0.3739
  373TMC3     O 5583   0.831   0.396  13.403 -0.1554  0.2550  0.2779
  373TMC3     H 5584   0.961   0.507  13.709  3.0973 -1.1157 -1.5829
  373TMC3    H1 5585   0.836   0.162  13.491  0.2481 -1.9207  1.4806
  373TMC3    H2 5586   0.863   0.153  13.927 -2.0206 -0.1682 -1.1289
  373TMC3    C7 5587   0.818   0.012  13.695  0.0062  0.0915  0.2714
  373TMC3    C8 5588   0.929   0.409  13.948 -0.0392 -0.8152 -0.2199
  373TMC3    O1 5589   0.771   4.694  13.591 -0.2973  0.1597  0.0918
  373TMC3    O2 5590   0.991   0.343  14.031 -0.2015 -0.3193  0.6011
  374TMC3    C1 5591   2.310   4.629   9.611  0.5942 -0.1400  0.4090
  374TMC3    C2 5592   2.201   4.692   9.668  0.0684  0.3522 -0.3415
  374TMC3    C3 5593   2.224   0.083   9.736  0.0944  0.3299 -0.2993
  374TMC3    C4 5594   2.439   4.672   9.631 -0.4804  0.2749 -0.1848
  374TMC3    C5 5595   2.463   0.066   9.701  0.2804  0.0856 -0.1064
  374TMC3    C6 5596   2.353   0.134   9.757 -0.7668 -0.5139  0.4206
  374TMC3     C 5597   2.275   4.500   9.560 -0.0284  0.2820  0.1622
  374TMC3     O 5598   2.156   4.472   9.542  0.4883  0.3012  0.5307
  374TMC3     H 5599   2.098   4.663   9.658  0.3187 -0.1037 -1.5463
  374TMC3    H1 5600   2.530   4.639   9.582  0.6724  1.8344  0.9046
  374TMC3    H2 5601   2.377   0.236   9.786 -1.6603  0.2524 -1.5630
  374TMC3    C7 5602   2.596   0.111   9.754 -0.5700 -0.6040  0.0274
  374TMC3    C8 5603   2.127   0.141   9.822 -0.0266  0.9330 -0.5102
  374TMC3    O1 5604   2.593   0.215   9.818 -0.2494  0.3811 -0.3859
  374TMC3    O2 5605   2.009   0.124   9.798  0.4989  0.3091 -0.1756
  375MPD2     C 5606   2.170   1.921  17.412 -0.4352  0.1911 -0.0798
  375MPD2    C1 5607   2.081   1.864  17.320 -0.1864 -0.5081 -0.0013
  375MPD2    C2 5608   2.131   1.812  17.196  0.3226 -0.0958 -0.1860
  375MPD2    C3 5609   2.265   1.820  17.171 -0.1358  0.1843  0.2305
  375MPD2    C4 5610   2.345   1.877  17.265  0.0557  0.3103 -0.5999
  375MPD2    C5 5611   2.302   1.923  17.388  0.1133 -0.2776  0.0843
  375MPD2     H 5612   2.067   1.780  17.115  0.2557  0.3949 -0.3268
  375MPD2    H1 5613   2.451   1.870  17.244  0.0381 -0.6900 -0.3615
  375MPD2    H2 5614   2.139   1.956  17.510  0.9077  1.0048  0.0587
  375MPD2    H3 5615   2.375   1.965  17.456  0.3037  0.5501 -0.6256
  375MPD2     N 5616   2.324   1.765  17.052  0.4106  0.3469  0.6963
  375MPD2    H5 5617   2.418   1.794  17.028  0.6748 -0.2593  0.9821
  375MPD2    N1 5618   1.945   1.855  17.346  0.0469  0.8125 -0.8369
  375MPD2    H7 5619   1.892   1.831  17.262  0.5301  0.5763 -1.0755
  376TMC3    C1 5620   2.353   1.588  16.878 -0.0329 -0.1658 -0.6992
  376TMC3    C2 5621   2.490   1.617  16.872  0.1442 -0.0702 -0.1215
  376TMC3    C3 5622   2.557   1.551  16.778  0.7815  0.6889 -0.2003
  376TMC3    C4 5623   2.286   1.509  16.786  0.5891  0.1587 -0.0197
  376TMC3    C5 5624   2.363   1.461  16.680 -0.2658  0.5917 -0.0170
  376TMC3    C6 5625   2.498   1.486  16.675  0.3661  0.3739  0.0426
  376TMC3     C 5626   2.270   1.661  16.979  0.6529  0.4258 -0.3255
  376TMC3     O 5627   2.163   1.602  17.004  0.4854  0.2025 -0.3479
  376TMC3     H 5628   2.538   1.685  16.942 -2.8374  2.1101 -0.2090
  376TMC3    H1 5629   2.178   1.500  16.786  0.5830  0.1733  1.8985
  376TMC3    H2 5630   2.553   1.444  16.592 -0.1316 -0.4356  0.1224
  376TMC3    C7 5631   2.299   1.382  16.573  0.0384 -0.5112  0.0597
  376TMC3    C8 5632   2.704   1.550  16.781  0.3209 -0.5328  0.3637
  376TMC3    O1 5633   2.364   1.369  16.474  0.1142  0.0163 -0.2129
  376TMC3    O2 5634   2.769   1.552  16.679  0.1383  0.0623 -0.3723
  377MPD2     C 5635   4.659   0.640  12.882  0.0151  0.4718  0.0038
  377MPD2    C1 5636   0.067   0.623  12.898 -0.2167 -0.3683  0.5465
  377MPD2    C2 5637   0.116   0.580  13.019 -0.3129 -0.3186  0.0257
  377MPD2    C3 5638   0.017   0.536  13.115  0.1971 -0.5829  0.3557
  377MPD2    C4 5639   4.604   0.552  13.094 -0.3224 -0.3090 -0.0661
  377MPD2    C5 5640   4.571   0.623  12.986  0.2637  0.1018  0.4139
  377MPD2     H 5641   0.223   0.573  13.034 -0.1669  0.0493 -0.8203
  377MPD2    H1 5642   4.532   0.516  13.167  0.4929  1.3367  1.5402
  377MPD2    H2 5643   4.614   0.689  12.797  0.7132  0.0462 -0.6026
  377MPD2    H3 5644   4.468   0.655  12.981  0.0933 -0.7699 -1.8002
  377MPD2     N 5645   0.046   0.485  13.244  0.8505  0.4696  0.2178
  377MPD2    H5 5646   4.684   0.469  13.295  0.3383  1.9920 -0.1692
  377MPD2    N1 5647   0.144   0.643  12.778 -0.5256 -0.3277 -0.0812
  377MPD2    H7 5648   0.092   0.658  12.693 -0.5479 -1.5699 -0.2837
  378TMC3    C1 5649   0.226   0.475  12.443  0.5054  1.0593  0.5947
  378TMC3    C2 5650   0.211   0.512  12.577 -0.3914 -0.3488  0.1564
  378TMC3    C3 5651   0.309   0.587  12.632 -0.5162  0.5271  0.2368
  378TMC3    C4 5652   0.338   0.502  12.375 -0.4639  0.1585 -0.1549
  378TMC3    C5 5653   0.433   0.580  12.437 -0.0216 -0.1255  0.4837
  378TMC3    C6 5654   0.422   0.637  12.568  0.2740 -0.3392 -0.1605
  378TMC3     C 5655   0.119   0.392  12.384  0.4143 -0.3936 -0.1725
  378TMC3     O 5656   0.002   0.412  12.415  0.0296  0.1512 -0.5417
  378TMC3     H 5657   0.134   0.459  12.631 -0.1805 -1.6600 -0.8113
  378TMC3    H1 5658   0.348   0.479  12.269  0.8914 -1.2689  0.2815
  378TMC3    H2 5659   0.504   0.688  12.616 -0.8575  2.0170 -0.7684
  378TMC3    C7 5660   0.559   0.603  12.379  0.2531  0.7572  0.3991
  378TMC3    C8 5661   0.280   0.629  12.769  0.0219  1.0088  0.6849
  378TMC3    O1 5662   0.633   0.690  12.427 -1.0755  0.0044 -0.7117
  378TMC3    O2 5663   0.365   0.649  12.855 -0.4952 -0.5717  0.1700
  379MPD2     C 5664   0.645   3.443  16.222  0.4323 -0.6315 -1.0797
  379MPD2    C1 5665   0.711   3.345  16.152  0.8053  0.1971 -0.8061
  379MPD2    C2 5666   0.766   3.234  16.228 -0.1070  1.2805 -0.1381
  379MPD2    C3 5667   0.746   3.233  16.370  0.0368  0.3768 -0.9003
  379MPD2    C4 5668   0.686   3.338  16.434 -0.1792  0.3074  0.5439
  379MPD2    C5 5669   0.632   3.443  16.360  0.0156 -0.9110 -0.1307
  379MPD2     H 5670   0.817   3.152  16.178  1.5748  0.0633  3.6266
  379MPD2    H1 5671   0.671   3.341  16.541 -3.1277 -1.1791  0.1978
  379MPD2    H2 5672   0.612   3.531  16.167 -1.3263  0.4946  1.7400
  379MPD2    H3 5673   0.583   3.529  16.404  0.6533 -0.8324  0.4368
  379MPD2     N 5674   0.802   3.130  16.459  0.7576 -0.4705  1.0139
  379MPD2    H5 5675   0.797   3.149  16.558  0.1921 -0.1223  0.9218
  379MPD2    N1 5676   0.734   3.363  16.011  0.6790 -0.1220  0.3886
  379MPD2    H7 5677   0.693   3.446  15.970  0.4788 -0.7092 -0.5990
  380TMC3    C1 5678   0.852   3.340  15.804 -0.2125  0.0025 -0.0571
  380TMC3    C2 5679   0.982   3.341  15.763 -0.5642 -0.4439  0.3457
  380TMC3    C3 5680   1.005   3.389  15.642  0.2065  0.3256 -0.3182
  380TMC3    C4 5681   0.746   3.387  15.732  0.2000  0.1340  0.2329
  380TMC3    C5 5682   0.772   3.440  15.604 -0.1202  0.9064 -0.1251
  380TMC3    C6 5683   0.901   3.445  15.566  0.0319  0.3039  1.2442
  380TMC3     C 5684   0.841   3.306  15.946  0.4516 -0.2885  0.1574
  380TMC3     O 5685   0.924   3.233  15.998  0.0617 -0.1105  0.3805
  380TMC3     H 5686   1.065   3.324  15.831 -0.0978  0.9430  0.1275
  380TMC3    H1 5687   0.644   3.376  15.767  0.7969  1.0607  2.2622
  380TMC3    H2 5688   0.930   3.488  15.472  0.3809 -0.6894  0.8961
  380TMC3    C7 5689   0.679   3.519  15.536 -0.0334  0.2061 -0.1699
  380TMC3    C8 5690   1.122   3.473  15.626 -0.0246  0.0916  1.3803
  380TMC3    O1 5691   0.725   3.587  15.445 -0.3535  0.0041 -0.1293
  380TMC3    O2 5692   1.148   3.491  15.507  0.3932 -0.0611  0.3483
  381TMC3    C1 5693   0.845   0.102  16.317  0.4400  0.4901 -0.1082
  381TMC3    C2 5694   0.937   0.199  16.329 -0.0359 -0.2448  0.8542
  381TMC3    C3 5695   0.934   0.270  16.449  0.0583  0.1704 -0.1469
  381TMC3    C4 5696   0.740   0.091  16.406 -0.1770 -0.1640  0.7863
  381TMC3    C5 5697   0.736   0.174  16.516 -0.2773 -0.4649  1.2039
  381TMC3    C6 5698   0.846   0.250  16.551  0.5385 -0.8166 -0.0491
  381TMC3     C 5699   0.868   0.000  16.216  0.7766 -0.1400  0.2245
  381TMC3     O 5700   0.971   0.007  16.153  0.4671  0.6393  0.1947
  381TMC3     H 5701   1.015   0.214  16.254 -0.1254 -1.4534  0.5312
  381TMC3    H1 5702   0.643   0.048  16.382  0.5998  0.9888 -4.2679
  381TMC3    H2 5703   0.850   0.304  16.645 -2.2647 -1.5783  0.5330
  381TMC3    C7 5704   0.656   0.115  16.619  0.3872 -0.6257 -0.4932
  381TMC3    C8 5705   1.038   0.378  16.459 -0.4892 -0.0200  0.2485
  381TMC3    O1 5706   0.620   4.721  16.604 -0.5520 -0.2036  0.8951
  381TMC3    O2 5707   1.139   0.364  16.387 -0.0636  0.6956  0.3471
  382MPD2     C 5708   0.068   3.057  17.274 -0.4442 -0.5333 -0.3537
  382MPD2    C1 5709   4.716   3.066  17.389 -0.1992  0.2809 -0.6208
  382MPD2    C2 5710   4.657   2.950  17.438  0.2563 -0.3136  0.4340
  382MPD2    C3 5711   4.663   2.825  17.377  0.0735 -0.0819 -0.7912
  382MPD2    C4 5712   0.007   2.822  17.258 -0.0343  0.2751 -0.1167
  382MPD2    C5 5713   0.067   2.933  17.215 -0.3624  0.3925 -0.1226
  382MPD2     H 5714   4.596   2.970  17.526  2.6945  2.3714  1.5470
  382MPD2    H1 5715   0.013   2.728  17.205  2.3840  1.0515 -1.1951
  382MPD2    H2 5716   0.115   3.141  17.223  0.1533  0.6418  2.1029
  382MPD2    H3 5717   0.123   2.922  17.123  0.5078 -0.5809  0.5146
  382MPD2     N 5718   4.603   2.707  17.425 -0.7446 -0.8261 -0.3462
  382MPD2    H5 5719   4.601   2.626  17.364  0.1737 -0.1415 -1.2837
  382MPD2    N1 5720   4.697   3.185  17.457 -0.1720 -0.8491 -0.0141
  382MPD2    H7 5721   4.673   3.182  17.555  1.4234  0.7938  0.4387
  383TMC3    C1 5722   4.561   2.546  17.594  0.5187 -0.3202  0.1653
  383TMC3    C2 5723   4.494   2.465  17.509 -0.2777 -0.1912  0.1408
  383TMC3    C3 5724   4.474   2.334  17.545  0.0207  0.3048 -0.2295
  383TMC3    C4 5725   4.597   2.506   0.024  0.1099  0.6146  0.7462
  383TMC3    C5 5726   4.572   2.377   0.056 -0.3932 -0.0377  0.8678
  383TMC3    C6 5727   4.528   2.287  17.657  0.2035 -0.3963 -0.0495
  383TMC3     C 5728   4.577   2.685  17.555 -0.0126  0.5410 -0.5109
  383TMC3     O 5729   4.610   2.759  17.649  0.2443  0.0541  0.4330
  383TMC3     H 5730   4.459   2.499  17.412  1.2799 -1.1776 -0.7520
  383TMC3    H1 5731   4.657   2.574   0.084  1.9583  0.4492 -0.9303
  383TMC3    H2 5732   4.528   2.180  17.674 -0.0895 -0.3463  0.2686
  383TMC3    C7 5733   4.638   2.319   0.177  0.2242 -0.2592 -0.9041
  383TMC3    C8 5734   4.380   2.255  17.466 -0.2588  0.3212 -0.4963
  383TMC3    O1 5735   4.677   2.206   0.174 -0.2113 -0.0538 -0.8335
  383TMC3    O2 5736   4.371   2.289  17.349 -0.2161 -0.2442 -0.8148
  384MPD2     C 5737   1.282   3.753  12.109  0.4383 -0.2814 -0.3369
  384MPD2    C1 5738   1.238   3.624  12.118  0.1822 -0.0472  0.1764
  384MPD2    C2 5739   1.280   3.525  12.036 -0.0701 -0.0887  0.1608
  384MPD2    C3 5740   1.382   3.548  11.946 -0.4066 -0.1369  0.3548
  384MPD2    C4 5741   1.434   3.680  11.934 -0.1683  0.1596  0.0525
  384MPD2    C5 5742   1.387   3.780  12.024 -0.1493  0.5727 -0.0267
  384MPD2     H 5743   1.234   3.427  12.043 -0.2169  0.1685  2.8488
  384MPD2    H1 5744   1.517   3.702  11.867  0.0698 -2.4003 -0.4657
  384MPD2    H2 5745   1.235   3.829  12.169  1.4895 -2.0689  2.7473
  384MPD2    H3 5746   1.427   3.880  12.028 -0.8247  0.8754 -0.9966
  384MPD2     N 5747   1.450   3.442  11.876  0.1426  0.4955 -0.4030
  384MPD2    H5 5748   1.507   3.472  11.797  0.3082  1.5454  0.1169
  384MPD2    N1 5749   1.148   3.580  12.216 -0.1431 -0.0780  0.2530
  384MPD2    H7 5750   1.128   3.481  12.204  3.0101 -0.7607  0.3928
  385TMC3    C1 5751   1.491   3.229  11.793  0.2576 -0.4022 -0.1400
  385TMC3    C2 5752   1.456   3.248  11.664  0.1512 -0.9449  0.4338
  385TMC3    C3 5753   1.435   3.142  11.576 -0.4234 -0.7919 -0.2560
  385TMC3    C4 5754   1.499   3.098  11.841 -0.1427 -0.6157 -0.6639
  385TMC3    C5 5755   1.466   2.996  11.755 -0.4998  0.3718 -0.7372
  385TMC3    C6 5756   1.446   3.012  11.617  0.4883  0.3433 -0.1453
  385TMC3     C 5757   1.427   3.308  11.894  0.0199  0.3594 -0.7856
  385TMC3     O 5758   1.382   3.245  11.990  0.4859  0.4513  0.1828
  385TMC3     H 5759   1.438   3.349  11.628  0.4161 -0.3750  1.9082
  385TMC3    H1 5760   1.528   3.077  11.943  1.5536  0.0714 -1.0045
  385TMC3    H2 5761   1.433   2.925  11.555  2.5058  0.0199 -0.1264
  385TMC3    C7 5762   1.349   2.926  11.807 -0.0168  0.2950 -0.2968
  385TMC3    C8 5763   1.472   3.172  11.440 -0.6781 -0.0092 -0.2885
  385TMC3    O1 5764   1.308   2.832  11.737 -0.7016 -0.1799 -0.2637
  385TMC3    O2 5765   1.521   3.281  11.412 -0.0258 -0.4250 -0.0492
  386TMC3    C1 5766   1.879   0.929  12.190 -0.1515 -0.5407 -0.3305
  386TMC3    C2 5767   1.856   0.876  12.068  0.7428 -0.0424  0.2240
  386TMC3    C3 5768   1.814   0.955  11.966  0.9624 -0.3663 -0.2611
  386TMC3    C4 5769   1.861   1.066  12.217 -0.3961 -0.4712 -0.3368
  386TMC3    C5 5770   1.810   1.137  12.114  0.7407  0.2419  0.1411
  386TMC3    C6 5771   1.790   1.090  11.986 -0.4287  0.5734 -0.2438
  386TMC3     C 5772   1.948   0.856  12.291  0.0975  0.0194  0.7399
  386TMC3     O 5773   1.998   0.922  12.383  0.4434 -0.0316  0.3378
  386TMC3     H 5774   1.886   0.774  12.048 -0.2089 -0.2686 -0.0557
  386TMC3    H1 5775   1.882   1.097  12.319  1.2673 -0.3218 -0.7144
  386TMC3    H2 5776   1.746   1.152  11.908 -0.4765 -0.7378 -1.2548
  386TMC3    C7 5777   1.742   1.257  12.162  0.3088  0.4971  0.5587
  386TMC3    C8 5778   1.736   0.894  11.862 -0.2189  0.5747 -0.2926
  386TMC3    O1 5779   1.738   1.275  12.282 -0.1335 -0.2014  0.0432
  386TMC3    O2 5780   1.669   0.960  11.787  0.3676  0.5224  0.0590
  387MPD2     C 5781   4.024   0.658   9.325  0.2488 -0.2556  0.1808
  387MPD2    C1 5782   4.147   0.636   9.375  0.0114  0.2536  0.1253
  387MPD2    C2 5783   4.166   0.517   9.442 -0.4233 -0.3653 -0.0402
  387MPD2    C3 5784   4.070   0.422   9.465 -0.5754  0.4239 -0.3277
  387MPD2    C4 5785   3.940   0.456   9.419  0.0957  0.2892  0.3793
  387MPD2    C5 5786   3.922   0.570   9.346 -0.4354 -0.1863 -0.6189
  387MPD2     H 5787   4.267   0.497   9.476 -0.9365 -0.0246  1.7049
  387MPD2    H1 5788   3.858   0.387   9.438 -2.5904  3.0803 -1.2415
  387MPD2    H2 5789   4.009   0.752   9.273  0.6535 -1.3306 -1.8789
  387MPD2    H3 5790   3.825   0.578   9.298 -0.2758  1.3616 -0.6843
  387MPD2     N 5791   4.107   0.313   9.553 -0.2354  0.6124 -0.1126
  387MPD2    H5 5792   4.205   0.295   9.572 -0.4228  1.5698  1.8361
  387MPD2    N1 5793   4.256   0.724   9.373 -0.2923  0.2523  0.5299
  387MPD2    H7 5794   4.342   0.682   9.407 -0.5168 -0.8828 -0.3230
  388TMC3    C1 5795   4.373   0.921   9.376 -0.2696  1.0459 -0.1714
  388TMC3    C2 5796   4.421   1.030   9.309  0.0452 -0.5022  1.0774
  388TMC3    C3 5797   4.536   1.085   9.362 -0.2856  0.9292  0.3511
  388TMC3    C4 5798   4.424   0.875   9.493  0.1795  0.8675 -0.1332
  388TMC3    C5 5799   4.538   0.932   9.541 -0.1999 -0.2398 -0.1973
  388TMC3    C6 5800   4.596   1.038   9.474  1.1371 -0.6553  0.0380
  388TMC3     C 5801   4.251   0.854   9.337  0.1152 -0.6666  0.6244
  388TMC3     O 5802   4.166   0.926   9.281  0.0734  0.1508  0.6286
  388TMC3     H 5803   4.393   1.055   9.208  0.4117 -1.6517  0.6906
  388TMC3    H1 5804   4.364   0.808   9.555 -0.6305 -0.0290 -1.8989
  388TMC3    H2 5805   4.683   1.089   9.513  3.0672 -1.3764 -3.3654
  388TMC3    C7 5806   4.600   0.883   9.666 -0.4236  0.4220  0.1163
  388TMC3    C8 5807   4.606   1.181   9.281  0.1013  0.4197 -0.2948
  388TMC3    O1 5808   4.659   0.959   9.741  0.0700  0.2428  0.2588
  388TMC3    O2 5809   4.535   1.266   9.228  0.2983 -0.0422 -0.1966
  389MPD2     C 5810   3.435   3.704  10.977  0.0463  0.3341  0.0390
  389MPD2    C1 5811   3.442   3.592  10.896 -0.0545  0.2494  0.5220
  389MPD2    C2 5812   3.430   3.467  10.954  0.7869  0.0420 -0.2818
  389MPD2    C3 5813   3.437   3.453  11.097 -0.2565  0.2405 -0.6101
  389MPD2    C4 5814   3.430   3.568  11.172 -0.0097 -0.5441 -0.0444
  389MPD2    C5 5815   3.429   3.690  11.109  0.2798  0.5083  0.8819
  389MPD2     H 5816   3.431   3.373  10.899  0.4143 -0.4220  0.4927
  389MPD2    H1 5817   3.422   3.569  11.280 -0.6478  2.5154 -0.1070
  389MPD2    H2 5818   3.442   3.809  10.950 -0.9225  0.0723 -1.2300
  389MPD2    H3 5819   3.414   3.775  11.176  0.7271  0.9035  0.4791
  389MPD2     N 5820   3.424   3.328  11.169  0.6528 -0.1674  0.2686
  389MPD2    H5 5821   3.421   3.338  11.270 -0.7694  0.5298  0.1717
  389MPD2    N1 5822   3.451   3.622  10.764 -0.2381  0.3650 -0.7589
  389MPD2    H7 5823   3.470   3.720  10.749  2.5137 -0.5095 -2.9522
  390TMC3    C1 5824   3.368   3.109  11.215  0.3554  0.1099  0.1817
  390TMC3    C2 5825   3.247   3.067  11.180 -0.7599 -0.2113 -0.5274
  390TMC3    C3 5826   3.139   3.098  11.256  0.2209 -0.4622 -0.9352
  390TMC3    C4 5827   3.384   3.156  11.343 -0.3246  1.1930  0.1699
  390TMC3    C5 5828   3.273   3.184  11.420  0.1169  0.4283 -0.6751
  390TMC3    C6 5829   3.143   3.165  11.378  0.0136 -0.6202  0.1844
  390TMC3     C 5830   3.409   3.207  11.113  0.4722  0.1579  0.3262
  390TMC3     O 5831   3.438   3.172  10.995 -0.3366  0.4514  0.3483
  390TMC3     H 5832   3.220   3.025  11.084  0.5452 -0.0969 -0.9480
  390TMC3    H1 5833   3.488   3.182  11.364 -0.2098 -1.2142  2.5724
  390TMC3    H2 5834   3.053   3.188  11.435  1.6604 -0.7918  2.8655
  390TMC3    C7 5835   3.289   3.310  11.495  0.7370 -0.5030 -0.1337
  390TMC3    C8 5836   3.008   3.104  11.190 -0.1548  0.4421 -0.2882
  390TMC3    O1 5837   3.383   3.371  11.447  0.6768 -0.2177 -0.2170
  390TMC3    O2 5838   2.984   3.017  11.105  0.0754 -0.9428 -0.4194
  391MPD2     C 5839   2.167   0.513  11.327  0.1659 -0.3513 -0.0944
  391MPD2    C1 5840   2.276   0.599  11.300 -0.2872  0.7654  0.3851
  391MPD2    C2 5841   2.341   0.594  11.177 -0.2612 -0.3439 -0.4824
  391MPD2    C3 5842   2.289   0.516  11.077  0.0837 -0.0062  0.0121
  391MPD2    C4 5843   2.184   0.430  11.106 -0.5033  0.7028  0.4862
  391MPD2    C5 5844   2.126   0.428  11.230 -0.3027  0.4015  0.6121
  391MPD2     H 5845   2.431   0.651  11.156 -0.8330  0.6774 -0.1836
  391MPD2    H1 5846   2.127   0.370  11.036 -0.9155  1.9134 -0.2309
  391MPD2    H2 5847   2.131   0.502  11.429 -0.7779 -4.3031 -0.8399
  391MPD2    H3 5848   2.057   0.348  11.250 -0.9761  0.4835 -1.4075
  391MPD2     N 5849   2.354   0.523  10.950 -0.7303  0.5557  0.1011
  391MPD2    H5 5850   2.433   0.586  10.940 -2.3996  2.3114 -2.1719
  391MPD2    N1 5851   2.314   0.685  11.404 -0.4786  0.3264  0.2384
  391MPD2    H7 5852   2.259   0.672  11.488 -1.2388  1.8910 -0.0090
  392TMC3    C1 5853   2.390   0.499  10.711  0.1098 -0.6443 -0.5628
  392TMC3    C2 5854   2.334   0.487  10.583 -0.4571 -0.5318 -0.0054
  392TMC3    C3 5855   2.407   0.487  10.474  0.1936 -0.1748 -0.0235
  392TMC3    C4 5856   2.521   0.528  10.722 -0.4417 -0.0080 -0.0784
  392TMC3    C5 5857   2.592   0.545  10.601  0.0630  0.5064 -0.2868
  392TMC3    C6 5858   2.544   0.520  10.477  0.1390  0.2892 -0.6308
  392TMC3     C 5859   2.316   0.455  10.835 -0.6344 -0.2304  1.2881
  392TMC3     O 5860   2.214   0.393  10.819 -0.4170 -0.0220 -0.2246
  392TMC3     H 5861   2.230   0.460  10.573 -0.2629 -1.2443 -0.1217
  392TMC3    H1 5862   2.580   0.522  10.813  0.2668  0.2749 -0.5105
  392TMC3    H2 5863   2.593   0.524  10.380  0.6511 -0.5072 -0.4049
  392TMC3    C7 5864   2.714   0.623  10.603 -0.3341 -0.3437 -0.8751
  392TMC3    C8 5865   2.356   0.430  10.349  0.0377 -0.1774  0.8180
  392TMC3    O1 5866   2.758   0.646  10.713 -0.0792  0.4615 -0.2633
  392TMC3    O2 5867   2.436   0.362  10.290  0.1481 -0.3459 -0.2433
  393TMC3    C1 5868   2.399   2.632   9.182 -0.1471 -0.3105 -0.1766
  393TMC3    C2 5869   2.343   2.509   9.149 -0.0637  0.2020 -0.0107
  393TMC3    C3 5870   2.277   2.443   9.252  0.3112  0.4523 -0.0380
  393TMC3    C4 5871   2.381   2.692   9.303  0.3623  0.4655 -0.7192
  393TMC3    C5 5872   2.321   2.617   9.401 -0.0242 -0.2717 -0.3709
  393TMC3    C6 5873   2.265   2.499   9.375  0.3800  0.1868 -0.4121
  393TMC3     C 5874   2.507   2.688   9.101  0.4583  0.1277 -0.0759
  393TMC3     O 5875   2.547   2.803   9.120  0.5431  0.2000  0.1692
  393TMC3     H 5876   2.347   2.473   9.047  0.2150 -0.7352  0.3368
  393TMC3    H1 5877   2.422   2.791   9.321 -2.5257  1.6991 -0.9546
  393TMC3    H2 5878   2.214   2.443   9.453 -1.2138  1.0307 -0.8395
  393TMC3    C7 5879   2.316   2.669   9.535 -0.6777  0.2177 -0.6872
  393TMC3    C8 5880   2.207   2.324   9.221  0.0257 -0.5788  0.1706
  393TMC3    O1 5881   2.229   2.634   9.613 -0.3717 -0.2944  0.0240
  393TMC3    O2 5882   2.251   2.264   9.124 -0.3958  0.0661 -0.3814
  394TMC3    C1 5883   3.499   3.569  10.534 -0.8663  0.7055  0.4517
  394TMC3    C2 5884   3.502   3.485  10.426  0.8410  0.9990  0.4124
  394TMC3    C3 5885   3.573   3.521  10.312 -0.8456  0.7237  0.2210
  394TMC3    C4 5886   3.579   3.684  10.535 -0.2467 -0.5912  0.9034
  394TMC3    C5 5887   3.653   3.712  10.426  0.5263 -0.0339 -0.1081
  394TMC3    C6 5888   3.651   3.629  10.317 -0.6878  0.6690 -0.5016
  394TMC3     C 5889   3.452   3.524  10.664 -0.1128 -0.7122  0.5522
  394TMC3     O 5890   3.414   3.406  10.668 -0.1130  0.6159  0.1056
  394TMC3     H 5891   3.453   3.388  10.431  0.7577  1.0974  1.6580
  394TMC3    H1 5892   3.577   3.756  10.616 -0.3367  0.3598  0.0489
  394TMC3    H2 5893   3.717   3.646  10.233  1.0581 -1.3277  0.4627
  394TMC3    C7 5894   3.715   3.837  10.406  0.0222 -0.4206  0.0105
  394TMC3    C8 5895   3.617   3.407  10.241 -0.0576 -0.1108  0.3790
  394TMC3    O1 5896   3.757   3.871  10.295  0.0288 -0.0962  0.0144
  394TMC3    O2 5897   3.729   3.365  10.255 -0.1266 -0.0474 -0.2170
  395TMC3    C1 5898   3.349   1.399  14.932  0.3351  0.2177  0.1397
  395TMC3    C2 5899   3.252   1.364  14.837 -0.2888 -0.2160  0.2388
  395TMC3    C3 5900   3.286   1.395  14.708 -0.4625 -0.2818 -0.1784
  395TMC3    C4 5901   3.470   1.457  14.903 -0.1749  0.5387  0.3347
  395TMC3    C5 5902   3.496   1.472  14.771  0.5114  0.3272  0.1325
  395TMC3    C6 5903   3.408   1.448  14.672 -0.1002  0.0281  0.0982
  395TMC3     C 5904   3.327   1.351  15.064 -0.4169 -0.2018  0.2146
  395TMC3     O 5905   3.351   1.423  15.158 -0.0481  0.2509  0.3777
  395TMC3     H 5906   3.156   1.323  14.865 -0.2048 -1.7923 -1.7619
  395TMC3    H1 5907   3.534   1.492  14.983 -1.2294  0.7780  1.0632
  395TMC3    H2 5908   3.429   1.464  14.567 -0.0647 -1.0188 -0.0543
  395TMC3    C7 5909   3.622   1.532  14.737  0.3627 -0.8346  0.1730
  395TMC3    C8 5910   3.177   1.412  14.618 -0.1679  0.0492 -0.1015
  395TMC3    O1 5911   3.664   1.615  14.821 -0.4563  0.4656  0.2527
  395TMC3    O2 5912   3.190   1.519  14.563 -0.0372 -0.0336 -0.5955
  396MPD2     C 5913   3.242   2.365   0.391 -0.2432 -0.4484 -0.6818
  396MPD2    C1 5914   3.331   2.312   0.304  0.7316 -0.1472 -0.6243
  396MPD2    C2 5915   3.329   2.357   0.173  0.2581  0.7357  0.4547
  396MPD2    C3 5916   3.234   2.447   0.123  0.1430  0.9899  0.3686
  396MPD2    C4 5917   3.139   2.488   0.214  0.4085 -0.1017  0.2056
  396MPD2    C5 5918   3.149   2.453   0.345 -0.1105  0.3225 -0.5102
  396MPD2     H 5919   3.387   2.307   0.097 -1.7091 -1.1769  0.2183
  396MPD2    H1 5920   3.057   2.555   0.194  0.4968 -0.2179 -0.5488
  396MPD2    H2 5921   3.246   2.348   0.498  1.3389 -0.2702 -0.7019
  396MPD2    H3 5922   3.086   2.504   0.417  1.6380 -0.6306  1.7005
  396MPD2     N 5923   3.221   2.474  17.686 -0.6287  0.2190 -0.2090
  396MPD2    H5 5924   3.296   2.443  17.624  0.4873  2.0992  0.2097
  396MPD2    N1 5925   3.418   2.214   0.352 -0.2566 -0.1179 -0.2543
  396MPD2    H7 5926   3.383   2.155   0.427 -0.0700  1.5218  1.1347
  397TMC3    C1 5927   3.497   2.013   0.267  0.1446 -0.0945 -0.9599
  397TMC3    C2 5928   3.498   1.966   0.136 -0.1706  0.1736 -0.3022
  397TMC3    C3 5929   3.380   1.918   0.079 -0.8086 -0.1444 -0.5247
  397TMC3    C4 5930   3.396   1.969   0.343  0.0304 -0.2565 -0.3141
  397TMC3    C5 5931   3.288   1.907   0.284  0.1568  0.0847  0.1174
  397TMC3    C6 5932   3.277   1.879   0.151 -0.5346 -0.1843  0.3012
  397TMC3     C 5933   3.504   2.155   0.269 -0.2588 -0.0408 -0.3256
  397TMC3     O 5934   3.568   2.198   0.173 -0.2906 -0.1458 -0.5617
  397TMC3     H 5935   3.584   1.983   0.071 -0.3058  4.1733  0.6193
  397TMC3    H1 5936   3.401   1.974   0.451 -1.8842  1.2455 -0.2922
  397TMC3    H2 5937   3.187   1.836   0.109 -0.4902 -2.2947  2.3496
  397TMC3    C7 5938   3.175   1.903   0.376  0.2319 -0.1841  0.1446
  397TMC3    C8 5939   3.348   1.989  17.654  0.7234 -0.3882 -0.1885
  397TMC3    O1 5940   3.170   1.999   0.450  0.0658  0.2391 -0.4611
  397TMC3    O2 5941   3.254   1.959  17.587  0.1501  0.3418  0.3966
  398MPD2     C 5942   0.931   2.645   0.762 -0.4511  0.1526 -0.3387
  398MPD2    C1 5943   1.044   2.572   0.722  0.1772  0.4647 -0.3045
  398MPD2    C2 5944   1.134   2.629   0.633 -0.0071  0.0203  0.1321
  398MPD2    C3 5945   1.115   2.751   0.570 -0.6026 -0.5372 -0.1682
  398MPD2    C4 5946   1.014   2.826   0.620 -0.0329 -0.7277 -0.4067
  398MPD2    C5 5947   0.925   2.767   0.710 -0.0341  0.1875  0.5875
  398MPD2     H 5948   1.216   2.568   0.596 -0.3190 -0.7946  0.7808
  398MPD2    H1 5949   0.989   2.929   0.598 -1.9661 -0.6927  1.8422
  398MPD2    H2 5950   0.854   2.612   0.831 -0.8838  1.1195 -0.3570
  398MPD2    H3 5951   0.839   2.829   0.732  0.3083  0.6384  0.6681
  398MPD2     N 5952   1.203   2.789   0.465 -0.2246  0.6755  0.4384
  398MPD2    H5 5953   1.274   2.719   0.444 -1.2752 -0.4707  0.6438
  398MPD2    N1 5954   1.064   2.442   0.768  0.4332 -0.1093  0.8666
  398MPD2    H7 5955   1.142   2.387   0.732 -1.5330 -2.5227  0.3095
  399TMC3    C1 5956   1.026   2.238   0.870 -0.4683  0.6044  0.1348
  399TMC3    C2 5957   1.070   2.175   0.752 -0.1009  1.0831 -0.1756
  399TMC3    C3 5958   1.112   2.042   0.766 -0.0152  0.6459  0.7564
  399TMC3    C4 5959   1.007   2.182   0.997 -0.2766 -0.6941 -0.0342
  399TMC3    C5 5960   1.038   2.049   0.992 -0.1921  0.4532  0.3713
  399TMC3    C6 5961   1.084   1.975   0.883  0.3978  0.4242  0.1403
  399TMC3     C 5962   0.994   2.377   0.869 -0.4661 -0.0356 -0.2901
  399TMC3     O 5963   0.907   2.422   0.949 -0.5642 -0.4545 -0.0022
  399TMC3     H 5964   1.097   2.222   0.657  1.7812 -0.4695 -0.4042
  399TMC3    H1 5965   0.966   2.235   1.083 -0.9453  0.9015 -1.3453
  399TMC3    H2 5966   1.084   1.867   0.883 -0.2298  0.4286  0.3190
  399TMC3    C7 5967   1.004   1.980   1.113 -0.0094  0.9319 -0.5079
  399TMC3    C8 5968   1.112   1.953   0.648 -0.8148 -0.0916 -0.6226
  399TMC3    O1 5969   0.943   2.045   1.196 -0.1992  0.0015  0.1574
  399TMC3    O2 5970   1.042   1.990   0.551 -0.3884 -0.0601  0.5698
  400TMC3    C1 5971   4.301   1.812  17.109  0.5050 -0.5121 -0.2508
  400TMC3    C2 5972   4.202   1.724  17.101 -0.1091 -0.3454 -0.5743
  400TMC3    C3 5973   4.157   1.685  16.978  0.0534  0.4996  1.2273
  400TMC3    C4 5974   4.350   1.879  17.002 -0.2988 -0.4073 -0.2072
  400TMC3    C5 5975   4.298   1.849  16.879  0.2564 -0.4296  0.5477
  400TMC3    C6 5976   4.191   1.755  16.867 -0.1645 -0.2546 -0.3879
  400TMC3     C 5977   4.370   1.800  17.231  0.5970 -0.0353 -0.0692
  400TMC3     O 5978   4.356   1.695  17.298 -0.3787 -0.3997  0.8076
  400TMC3     H 5979   4.176   1.667  17.190 -1.0486  1.8935  0.5886
  400TMC3    H1 5980   4.434   1.947  17.011 -1.0715  0.2770  1.8357
  400TMC3    H2 5981   4.138   1.727  16.777 -1.3088 -0.2931  0.2913
  400TMC3    C7 5982   4.299   1.934  16.769 -0.6622  0.2628  0.0665
  400TMC3    C8 5983   4.054   1.586  16.976 -0.3941  0.1411 -0.2437
  400TMC3    O1 5984   4.248   1.896  16.667 -0.0086  0.2664  0.0968
  400TMC3    O2 5985   3.982   1.585  17.082 -0.1681  0.3374  0.1835
  401MPD2     C 5986   1.961   0.602   0.885  0.2984  0.0353 -0.0253
  401MPD2    C1 5987   2.059   0.512   0.882  0.3644 -0.7362 -0.1154
  401MPD2    C2 5988   2.026   0.382   0.864 -0.6582 -0.0817  0.4127
  401MPD2    C3 5989   1.898   0.338   0.838  0.3634  0.4178  0.2357
  401MPD2    C4 5990   1.798   0.425   0.855  0.3819  0.7136 -0.4734
  401MPD2    C5 5991   1.830   0.556   0.888  0.1559 -0.0745  0.8240
  401MPD2     H 5992   2.107   0.310   0.859  0.2465  0.9858 -0.3132
  401MPD2    H1 5993   1.697   0.393   0.837  0.7031 -0.5792  0.0295
  401MPD2    H2 5994   1.978   0.708   0.903 -1.9139  0.3137  0.5370
  401MPD2    H3 5995   1.750   0.626   0.905  0.1512  0.5247 -1.7633
  401MPD2     N 5996   1.877   0.198   0.819 -0.2015 -0.1500 -0.1118
  401MPD2    H5 5997   1.959   0.142   0.837 -1.4002 -2.1808 -0.9735
  401MPD2    N1 5998   2.202   0.542   0.874  0.4700 -0.6833  0.0112
  401MPD2    H7 5999   2.266   0.470   0.905 -0.0090 -1.2051 -0.2166
  402TMC3    C1 6000   1.779   0.009   0.748  0.0691 -0.5656 -0.2777
  402TMC3    C2 6001   1.819   4.653   0.855 -0.5497  0.5258 -0.0497
  402TMC3    C3 6002   1.898   4.545   0.826 -0.1132  0.0313  0.3082
  402TMC3    C4 6003   1.807   4.694   0.618 -0.0718  0.5732  0.0699
  402TMC3    C5 6004   1.876   4.573   0.600  0.7067 -0.2556  0.1338
  402TMC3    C6 6005   1.917   4.504   0.700 -0.0186 -0.1318 -0.0980
  402TMC3     C 6006   1.762   0.145   0.771 -0.2015  0.4762 -0.1537
  402TMC3     O 6007   1.681   0.203   0.700  0.0652  0.2679 -0.2021
  402TMC3     H 6008   1.794   4.685   0.955  0.3732  0.0112  0.3442
  402TMC3    H1 6009   1.778   0.031   0.533 -3.0352  2.0785  2.1788
  402TMC3    H2 6010   1.959   4.406   0.680  0.8874  0.5300 -1.4048
  402TMC3    C7 6011   1.900   4.515   0.469  0.2747 -0.4621 -0.6613
  402TMC3    C8 6012   1.959   4.453   0.925 -0.0261  0.6238  0.1793
  402TMC3    O1 6013   1.900   4.391   0.467 -0.2492  0.1349  0.2064
  402TMC3    O2 6014   2.048   4.371   0.895  0.3480  0.3389 -0.4010
  403MPD2     C 6015   0.736   3.730  13.848  0.1060 -0.0748 -0.0311
  403MPD2    C1 6016   0.780   3.610  13.888  0.7564  0.2063 -0.4924
  403MPD2    C2 6017   0.884   3.606  13.983 -0.4427 -0.3266  0.7077
  403MPD2    C3 6018   0.936   3.721  14.037 -0.2459 -0.4508  0.1553
  403MPD2    C4 6019   0.872   3.836  14.012  0.0830 -0.2282 -0.5851
  403MPD2    C5 6020   0.772   3.841  13.919 -0.5509  0.4188  0.1620
  403MPD2     H 6021   0.914   3.513  14.029 -0.4899 -1.7932 -2.2837
  403MPD2    H1 6022   0.911   3.931  14.047  2.4136 -1.3395 -0.1546
  403MPD2    H2 6023   0.658   3.748  13.775 -0.4397 -1.6598  0.1501
  403MPD2    H3 6024   0.730   3.938  13.897 -0.4738 -0.0647 -2.0839
  403MPD2     N 6025   1.042   3.710  14.130 -0.1097  0.3413 -0.1258
  403MPD2    H5 6026   1.091   3.621  14.140 -1.2494  0.2118  4.5457
  403MPD2    N1 6027   0.736   3.498  13.825  0.6799 -0.2655 -0.3391
  403MPD2    H7 6028   0.654   3.508  13.765  2.2793 -0.9641 -2.6362
  404TMC3    C1 6029   0.757   3.275  13.733  0.2382 -0.4437 -0.4014
  404TMC3    C2 6030   0.770   3.144  13.765  0.2726 -0.2424  0.6455
  404TMC3    C3 6031   0.738   3.052  13.671  0.2830 -0.6727  0.3510
  404TMC3    C4 6032   0.714   3.316  13.606 -0.3708  0.7771 -0.2352
  404TMC3    C5 6033   0.681   3.217  13.518 -0.0514  0.7462  0.5905
  404TMC3    C6 6034   0.687   3.076  13.543  0.2675  0.0071 -1.0981
  404TMC3     C 6035   0.787   3.369  13.837 -0.3143 -0.4803 -0.3276
  404TMC3     O 6036   0.864   3.330  13.922  0.6817 -0.0737  0.3520
  404TMC3     H 6037   0.826   3.123  13.855  1.3062  0.9045  0.2807
  404TMC3    H1 6038   0.702   3.421  13.583  2.3798  1.1486 -0.0080
  404TMC3    H2 6039   0.671   2.998  13.469 -1.8384 -0.9437  0.3664
  404TMC3    C7 6040   0.650   3.274  13.388 -0.0878 -0.1112 -0.0301
  404TMC3    C8 6041   0.758   2.920  13.721  0.3163  0.0097  0.4736
  404TMC3    O1 6042   0.714   3.371  13.363  0.4822 -0.1534 -0.4290
  404TMC3    O2 6043   0.802   2.832  13.652  0.6112  0.0070 -0.1823
  405MPD2     C 6044   0.581   3.955  15.101  0.7069  0.3841 -0.2501
  405MPD2    C1 6045   0.687   3.936  15.011  0.2425 -0.6187  0.2265
  405MPD2    C2 6046   0.681   4.003  14.892 -0.2407  0.6675  0.1132
  405MPD2    C3 6047   0.571   4.088  14.865 -0.4155 -0.1678  0.2666
  405MPD2    C4 6048   0.467   4.114  14.963 -0.2322 -0.0183  0.7981
  405MPD2    C5 6049   0.474   4.040  15.078  0.1117  0.4738  0.0721
  405MPD2     H 6050   0.763   3.994  14.821 -1.3167  0.0039 -1.0550
  405MPD2    H1 6051   0.373   4.161  14.940  0.1235  1.1681  1.7444
  405MPD2    H2 6052   0.583   3.896  15.192 -1.5431 -2.1095 -1.8320
  405MPD2    H3 6053   0.394   4.048  15.151  0.7410  1.3928  0.6576
  405MPD2     N 6054   0.558   4.122  14.733 -0.3006  0.7187  0.1463
  405MPD2    H5 6055   0.623   4.072  14.673  0.3466 -0.0588  1.5088
  405MPD2    N1 6056   0.794   3.846  15.040  0.1460 -0.1757  0.1635
  405MPD2    H7 6057   0.803   3.826  15.139 -0.7886  0.0348  0.2989
  406TMC3    C1 6058   0.312   4.189  14.337 -0.0662  0.1451 -0.0866
  406TMC3    C2 6059   0.369   4.075  14.288  0.2455 -0.3639 -0.3169
  406TMC3    C3 6060   0.471   4.017  14.363  0.3127  0.5322  0.3633
  406TMC3    C4 6061   0.352   4.228  14.462 -0.0513 -0.2224  0.2473
  406TMC3    C5 6062   0.443   4.160  14.532 -0.7621 -0.0249  0.0736
  406TMC3    C6 6063   0.503   4.056  14.484  0.1065 -0.2549 -0.2106
  406TMC3     C 6064   0.173   4.202  14.310  0.5317  0.1599  0.4954
  406TMC3     O 6065   0.129   4.174  14.197 -0.1616 -0.3567 -0.2076
  406TMC3     H 6066   0.342   4.037  14.190 -0.9894  2.7197 -1.1414
  406TMC3    H1 6067   0.301   4.317  14.498  0.6149  0.0682  0.4692
  406TMC3    H2 6068   0.554   3.986  14.550 -1.8920 -1.8973 -0.3956
  406TMC3    C7 6069   0.456   4.193  14.673 -0.0152  0.0085 -0.2602
  406TMC3    C8 6070   0.543   3.902  14.317 -0.2788 -0.1269 -0.3830
  406TMC3    O1 6071   0.388   4.285  14.719 -0.0778 -0.3014  0.1379
  406TMC3    O2 6072   0.505   3.844  14.215 -0.0915 -0.2506 -0.2287
  407MPD2     C 6073   3.480   0.235   9.333  0.2909 -0.6874  0.2776
  407MPD2    C1 6074   3.575   0.200   9.430  0.0843  0.1086 -0.2759
  407MPD2    C2 6075   3.546   0.230   9.562  0.4074  0.2489  0.3484
  407MPD2    C3 6076   3.431   0.305   9.596 -0.6149  0.7366  0.0749
  407MPD2    C4 6077   3.352   0.355   9.496  0.2892 -0.0258 -0.0270
  407MPD2    C5 6078   3.366   0.308   9.371  0.3384  0.6531 -1.0792
  407MPD2     H 6079   3.629   0.212   9.629  1.2346 -0.9913 -0.9951
  407MPD2    H1 6080   3.258   0.408   9.506 -0.5126 -1.9223  2.3813
  407MPD2    H2 6081   3.473   0.207   9.228 -1.4634  2.0193 -0.3209
  407MPD2    H3 6082   3.287   0.324   9.299  1.3876 -1.0588 -2.6117
  407MPD2     N 6083   3.412   0.356   9.720 -0.8758  0.0639  0.2331
  407MPD2    H5 6084   3.360   0.442   9.719 -1.6009 -0.3875 -0.8522
  407MPD2    N1 6085   3.699   0.136   9.404  0.2675  0.1478  0.6069
  407MPD2    H7 6086   3.762   0.109   9.479 -0.3869 -2.3542  0.2628
  408TMC3    C1 6087   3.886   0.070   9.277 -0.2713 -0.0703 -0.6073
  408TMC3    C2 6088   3.932   4.697   9.362  0.1144  0.3810  0.2080
  408TMC3    C3 6089   4.067   4.673   9.368  0.1866 -0.1746 -0.1239
  408TMC3    C4 6090   3.971   0.152   9.214 -1.1250  0.2436 -0.2755
  408TMC3    C5 6091   4.104   0.124   9.227 -0.1850  0.4049 -0.0690
  408TMC3    C6 6092   4.155   0.019   9.294  0.1607  0.0430  0.3503
  408TMC3     C 6093   3.747   0.117   9.276  0.2889 -0.1473 -0.1370
  408TMC3     O 6094   3.697   0.147   9.169 -0.3873  0.0746  0.5313
  408TMC3     H 6095   3.868   4.615   9.394  1.0780  0.0791  1.3783
  408TMC3    H1 6096   3.935   0.235   9.154 -1.8185 -2.0522 -3.0219
  408TMC3    H2 6097   4.259   4.716   9.280 -0.2234 -0.7303 -0.9367
  408TMC3    C7 6098   4.197   0.227   9.206 -0.2885  0.6939 -0.0129
  408TMC3    C8 6099   4.116   4.589   9.474  0.4034 -0.3042 -0.4603
  408TMC3    O1 6100   4.306   0.211   9.262 -0.2832 -0.6833  0.4265
  408TMC3    O2 6101   4.037   4.514   9.526  0.3346 -0.0175  0.6636
  409MPD2     C 6102   3.501   1.330  16.720  0.3046 -0.6103 -0.0749
  409MPD2    C1 6103   3.501   1.390  16.845 -0.5873 -0.2133  0.1116
  409MPD2    C2 6104   3.580   1.502  16.865 -0.2789 -0.7293 -0.6125
  409MPD2    C3 6105   3.660   1.544  16.759 -0.1916  0.3278  0.1519
  409MPD2    C4 6106   3.668   1.485  16.635  0.2562 -0.4670 -0.9991
  409MPD2    C5 6107   3.578   1.381  16.620  0.1227  0.2036 -0.3678
  409MPD2     H 6108   3.568   1.569  16.949 -1.4067 -0.0425 -1.3261
  409MPD2    H1 6109   3.723   1.517  16.547 -0.8229 -0.0078 -1.5015
  409MPD2    H2 6110   3.434   1.252  16.685 -0.3798  0.9460 -2.2503
  409MPD2    H3 6111   3.558   1.337  16.523  0.0650 -0.7358  0.0681
  409MPD2     N 6112   3.743   1.662  16.776 -0.2689 -0.2274  0.0842
  409MPD2    H5 6113   3.810   1.677  16.701 -1.6031  0.5540 -0.9517
  409MPD2    N1 6114   3.399   1.346  16.940 -0.6706  0.2638  1.0464
  409MPD2    H7 6115   3.327   1.288  16.898  1.4747 -0.4646 -1.6350
  410TMC3    C1 6116   3.838   1.854  16.867  0.0489 -0.6008 -0.2278
  410TMC3    C2 6117   3.886   1.900  16.981  0.2785 -0.2854 -0.3596
  410TMC3    C3 6118   3.964   2.014  16.971 -0.0903  0.3255  0.1135
  410TMC3    C4 6119   3.849   1.914  16.741  0.0386 -0.2673 -0.5497
  410TMC3    C5 6120   3.921   2.034  16.737 -0.3855  0.6427 -0.7254
  410TMC3    C6 6121   3.981   2.077  16.850 -0.1223  0.2283  0.1370
  410TMC3     C 6122   3.753   1.739  16.891 -0.4400 -0.1137 -0.2877
  410TMC3     O 6123   3.694   1.723  17.000  0.1210 -0.0041  0.5011
  410TMC3     H 6124   3.859   1.846  17.071  2.0891 -0.1007  0.2910
  410TMC3    H1 6125   3.798   1.878  16.652  1.1531  0.1068 -1.3382
  410TMC3    H2 6126   4.045   2.164  16.842 -1.0048  0.7319 -1.2790
  410TMC3    C7 6127   3.929   2.090  16.605  0.1410  0.6463  0.2414
  410TMC3    C8 6128   4.027   2.059  17.095  0.5361  0.0904  0.2147
  410TMC3    O1 6129   3.904   2.007  16.518  0.2012  0.1837 -0.2013
  410TMC3    O2 6130   4.089   2.166  17.098  0.1082 -0.7178  0.2116
  411MPD2     C 6131   3.336   2.002  14.909  0.1255 -0.0656 -0.2803
  411MPD2    C1 6132   3.399   2.084  14.813  0.1799 -0.5031 -0.0210
  411MPD2    C2 6133   3.441   2.012  14.698  0.2321 -0.0321  0.2246
  411MPD2    C3 6134   3.405   1.876  14.670 -0.1964  0.4434 -0.6815
  411MPD2    C4 6135   3.331   1.806  14.764  0.1947  0.1171 -0.3048
  411MPD2    C5 6136   3.311   1.866  14.891 -0.1079 -0.3653 -0.3719
  411MPD2     H 6137   3.493   2.077  14.629  0.1165 -0.8273 -0.6105
  411MPD2    H1 6138   3.293   1.705  14.756  2.8499 -0.8300 -0.6841
  411MPD2    H2 6139   3.293   2.055  14.993 -2.2942 -0.5615 -1.1924
  411MPD2    H3 6140   3.251   1.810  14.961 -0.8761  2.2546  1.0834
  411MPD2     N 6141   3.427   1.816  14.546 -0.1267 -0.3966 -0.1534
  411MPD2    H5 6142   3.381   1.727  14.531  1.1187 -1.0415 -0.2134
  411MPD2    N1 6143   3.419   2.220  14.846  0.1417  0.1356 -0.4875
  411MPD2    H7 6144   3.380   2.248  14.935 -0.5732  0.5323 -0.9300
  412TMC3    C1 6145   3.486   1.794  14.313 -0.5679  0.2492  0.1777
  412TMC3    C2 6146   3.457   1.659  14.317 -0.0383  0.3748 -0.5886
  412TMC3    C3 6147   3.443   1.599  14.195 -0.3039  0.0263  0.2063
  412TMC3    C4 6148   3.479   1.870  14.202  0.1732  0.8230 -0.6320
  412TMC3    C5 6149   3.451   1.810  14.083  0.7725 -0.0348  0.0732
  412TMC3    C6 6150   3.452   1.675  14.080  0.6371  0.0957  0.5139
  412TMC3     C 6151   3.497   1.874  14.438 -0.5786  0.0934 -0.6803
  412TMC3     O 6152   3.566   1.978  14.427  0.5536 -0.1224 -0.1932
  412TMC3     H 6153   3.462   1.598  14.406  0.3614  0.9981 -0.1846
  412TMC3    H1 6154   3.471   1.978  14.215  1.4929  0.7074  1.1468
  412TMC3    H2 6155   3.439   1.640  13.978 -1.0797  1.1355  0.3632
  412TMC3    C7 6156   3.343   1.858  13.999 -0.2933 -0.2909 -0.3443
  412TMC3    C8 6157   3.336   1.506  14.189 -0.1312 -0.5052  0.7684
  412TMC3    O1 6158   3.273   1.780  13.935 -0.4451  0.0898  0.3213
  412TMC3    O2 6159   3.333   1.419  14.277 -0.5215  0.1258 -0.0327
  413MPD2     C 6160   0.577   0.824  15.509  0.6105 -0.7832  0.4864
  413MPD2    C1 6161   0.503   0.708  15.522 -0.1751  0.5342  0.2687
  413MPD2    C2 6162   0.577   0.584  15.518  0.1505 -0.2047 -0.2456
  413MPD2    C3 6163   0.719   0.579  15.527 -0.3985 -0.1931  0.4427
  413MPD2    C4 6164   0.783   0.703  15.530  0.4157 -0.5266  0.3357
  413MPD2    C5 6165   0.715   0.823  15.514 -0.2679  0.3790 -0.0058
  413MPD2     H 6166   0.525   0.493  15.489  2.7452 -1.6043 -0.5650
  413MPD2    H1 6167   0.891   0.709  15.521  0.2034  0.6202 -1.5705
  413MPD2    H2 6168   0.534   0.923  15.507  0.3029 -0.9617 -2.1220
  413MPD2    H3 6169   0.772   0.914  15.499 -1.0983  0.5568 -2.1367
  413MPD2     N 6170   0.787   0.457  15.510 -0.0216 -0.7791  1.0110
  413MPD2    H5 6171   0.719   0.384  15.527 -0.8608 -0.9052 -2.8515
  413MPD2    N1 6172   0.363   0.702  15.529  0.3098  0.3251 -0.3567
  413MPD2    H7 6173   0.316   0.618  15.560  0.3544  0.0005 -1.1666
  414TMC3    C1 6174   0.950   0.296  15.491  0.3172  0.3202  0.6204
  414TMC3    C2 6175   1.045   0.239  15.576  0.4712 -0.9174  0.1505
  414TMC3    C3 6176   1.038   0.106  15.607  0.3201 -0.2366 -0.0523
  414TMC3    C4 6177   0.851   0.214  15.450  0.4764 -0.0007  0.6097
  414TMC3    C5 6178   0.852   0.080  15.465 -0.2768 -0.6094 -0.2621
  414TMC3    C6 6179   0.942   0.021  15.545  0.2619 -0.7016  0.4626
  414TMC3     C 6180   0.918   0.435  15.509  1.0093  0.3998  0.5343
  414TMC3     O 6181   1.004   0.514  15.523  0.1757  0.0643 -0.0757
  414TMC3     H 6182   1.091   0.302  15.651 -3.3565 -0.0251  1.7181
  414TMC3    H1 6183   0.765   0.252  15.397  0.5082 -2.6115 -1.3451
  414TMC3    H2 6184   0.961   4.640  15.561  0.5889 -0.3873  2.2298
  414TMC3    C7 6185   0.736   0.018  15.415 -0.7607 -0.2263  0.3922
  414TMC3    C8 6186   1.156   0.039  15.673  0.7075 -0.1689 -0.2183
  414TMC3    O1 6187   0.662   4.713  15.505 -0.2179 -0.4334 -0.3489
  414TMC3    O2 6188   1.141   4.643  15.700 -0.5514  0.5295 -0.1016
  415TMC3    C1 6189   1.131   2.099   9.795 -0.4087  0.1880  0.5042
  415TMC3    C2 6190   1.237   2.086   9.704  0.0587  0.1729  0.4576
  415TMC3    C3 6191   1.247   1.966   9.639 -0.7454  0.4137 -0.2931
  415TMC3    C4 6192   1.054   1.987   9.829  0.1467  0.6160  0.8557
  415TMC3    C5 6193   1.073   1.871   9.762 -0.1346 -0.0491 -0.0619
  415TMC3    C6 6194   1.166   1.861   9.669 -0.0149  0.6421 -0.6381
  415TMC3     C 6195   1.120   2.218   9.876  0.7837  0.1408 -0.8880
  415TMC3     O 6196   1.009   2.246   9.930  0.1104 -0.1338 -0.6210
  415TMC3     H 6197   1.300   2.170   9.680  0.9811 -0.8464 -0.7105
  415TMC3    H1 6198   0.975   1.996   9.902  1.0552 -0.5296  1.9648
  415TMC3    H2 6199   1.158   1.769   9.611 -1.4531  1.7193 -2.1849
  415TMC3    C7 6200   1.036   1.747   9.822  0.4209  0.5598  0.0107
  415TMC3    C8 6201   1.388   1.919   9.611  0.4890 -0.0372 -0.6757
  415TMC3    O1 6202   1.101   1.648   9.792 -0.0731 -0.3809  0.0669
  415TMC3    O2 6203   1.476   2.002   9.608 -0.1396 -0.4611 -0.4871
  416MPD2     C 6204   2.774   2.066  11.306 -0.2290  0.4726 -0.9166
  416MPD2    C1 6205   2.658   2.040  11.244 -0.1607 -0.2388 -0.6960
  416MPD2    C2 6206   2.648   1.924  11.170  0.0033 -0.3354  0.4952
  416MPD2    C3 6207   2.755   1.836  11.159  0.3002 -0.2483 -0.4760
  416MPD2    C4 6208   2.872   1.863  11.225 -0.1756  0.1807 -0.8969
  416MPD2    C5 6209   2.880   1.983  11.292 -0.6208  0.4231  0.6145
  416MPD2     H 6210   2.563   1.921  11.103 -1.4516  1.5796  2.2367
  416MPD2    H1 6211   2.954   1.794  11.236 -2.0139 -1.8706 -0.1998
  416MPD2    H2 6212   2.794   2.156  11.364 -0.0421 -1.3312  1.8055
  416MPD2    H3 6213   2.966   2.007  11.353  0.9526 -0.4511 -1.2546
  416MPD2     N 6214   2.747   1.710  11.093  0.4079 -0.4122  1.0110
  416MPD2    H5 6215   2.829   1.653  11.109  0.7311 -0.3932 -0.5031
  416MPD2    N1 6216   2.557   2.133  11.261 -0.4404  0.1626 -0.1669
  416MPD2    H7 6217   2.589   2.226  11.283 -2.4976  0.9132 -0.4055
  417TMC3    C1 6218   2.359   2.254  11.235  0.2357  0.1131 -0.9362
  417TMC3    C2 6219   2.374   2.306  11.361  0.9142  0.0801 -0.4426
  417TMC3    C3 6220   2.297   2.414  11.399  0.4730 -0.3607  0.1339
  417TMC3    C4 6221   2.277   2.303  11.146 -0.0869 -0.1124 -0.7813
  417TMC3    C5 6222   2.220   2.425  11.175 -0.3697 -0.3808  0.2242
  417TMC3    C6 6223   2.226   2.480  11.305  0.4886  0.3362  0.1286
  417TMC3     C 6224   2.433   2.131  11.200 -0.7705  0.1027 -0.3060
  417TMC3     O 6225   2.375   2.041  11.147 -0.2715 -0.0660  0.8335
  417TMC3     H 6226   2.429   2.253  11.438 -0.0254  0.3565  0.4192
  417TMC3    H1 6227   2.279   2.260  11.047  0.8259 -0.3298 -0.6616
  417TMC3    H2 6228   2.199   2.583  11.326 -0.1620  0.0369  0.7371
  417TMC3    C7 6229   2.142   2.491  11.066  0.1782  0.5594  0.1988
  417TMC3    C8 6230   2.288   2.440  11.540  0.2874 -0.3459 -0.6053
  417TMC3    O1 6231   2.169   2.458  10.956 -0.1791 -0.2980 -0.0364
  417TMC3    O2 6232   2.378   2.386  11.606 -0.3216 -0.2134 -0.0949
  418TMC3    C1 6233   1.448   2.883   0.116  0.0225  0.5439 -0.3860
  418TMC3    C2 6234   1.364   2.843   0.220  0.1746 -0.0700 -0.9766
  418TMC3    C3 6235   1.294   2.932   0.287  0.6938 -0.1643  0.1485
  418TMC3    C4 6236   1.447   3.013   0.068  0.3245 -0.3272  0.6758
  418TMC3    C5 6237   1.378   3.108   0.145  0.3557  0.7206  0.6849
  418TMC3    C6 6238   1.304   3.067   0.255 -0.1149 -0.6017  0.7026
  418TMC3     C 6239   1.516   2.781   0.037  0.1198 -0.1768 -0.3664
  418TMC3     O 6240   1.503   2.781  17.616  0.1116 -0.0702 -0.1126
  418TMC3     H 6241   1.350   2.737   0.234 -2.0598  0.3523 -0.1252
  418TMC3    H1 6242   1.498   3.036  17.673  3.0472 -2.9889  1.5088
  418TMC3    H2 6243   1.248   3.137   0.315 -1.3946 -1.8084  0.9371
  418TMC3    C7 6244   1.462   3.225   0.184  0.0302 -0.9024 -0.1709
  418TMC3    C8 6245   1.183   2.899   0.382  0.0311 -0.4508 -0.1093
  418TMC3    O1 6246   1.454   3.264   0.300 -0.1573  0.1165  0.0180
  418TMC3    O2 6247   1.098   2.986   0.387  0.0176  0.2659  0.0883
  419MPD2     C 6248   3.984   1.704  12.691  0.0159  0.1752  0.0844
  419MPD2    C1 6249   4.087   1.742  12.768  0.3920  0.0259  0.1620
  419MPD2    C2 6250   4.069   1.819  12.884 -0.3262  0.8056  0.0140
  419MPD2    C3 6251   3.947   1.879  12.912  0.0499 -0.5059 -0.6479
  419MPD2    C4 6252   3.846   1.840  12.832  0.1625 -0.0812  0.1858
  419MPD2    C5 6253   3.857   1.749  12.729 -0.0937  0.4081  0.4319
  419MPD2     H 6254   4.152   1.853  12.945  0.8436  1.4133 -1.8948
  419MPD2    H1 6255   3.744   1.870  12.855  0.1248  1.6920 -2.2721
  419MPD2    H2 6256   3.981   1.651  12.597  1.7066  3.6423 -1.9079
  419MPD2    H3 6257   3.772   1.717  12.669 -0.7834  2.2044  0.4460
  419MPD2     N 6258   3.945   1.967  13.019 -0.0106 -0.0172 -0.2953
  419MPD2    H5 6259   4.029   1.969  13.077 -0.5522 -0.7294  0.5197
  419MPD2    N1 6260   4.219   1.700  12.738  0.2073 -0.3322  0.0974
  419MPD2    H7 6261   4.292   1.729  12.803  0.3587 -0.6639  0.0754
  420TMC3    C1 6262   3.875   2.148  13.164  0.0459  0.3393  0.2868
  420TMC3    C2 6263   3.772   2.209  13.230 -0.2237 -0.2491  0.7284
  420TMC3    C3 6264   3.795   2.284  13.341 -0.6478  0.4993 -0.2147
  420TMC3    C4 6265   4.008   2.161  13.202  0.2950  0.1446 -0.1591
  420TMC3    C5 6266   4.023   2.237  13.316 -0.1223  0.1482 -0.3982
  420TMC3    C6 6267   3.921   2.297  13.386 -0.2834  0.4708 -0.3325
  420TMC3     C 6268   3.838   2.049  13.059 -0.3608 -0.2515 -0.5387
  420TMC3     O 6269   3.725   2.054  13.021  0.3239  0.5718 -0.0814
  420TMC3     H 6270   3.675   2.208  13.182 -1.1872  1.2123  2.6577
  420TMC3    H1 6271   4.096   2.116  13.156  0.1685 -0.8589  0.5826
  420TMC3    H2 6272   3.923   2.341  13.485 -0.6004  0.1852 -0.2016
  420TMC3    C7 6273   4.160   2.241  13.375 -0.5436 -0.2692 -0.1240
  420TMC3    C8 6274   3.681   2.353  13.407  0.3708  0.3084  0.0139
  420TMC3    O1 6275   4.237   2.150  13.348 -0.1556  0.2320 -0.0754
  420TMC3    O2 6276   3.701   2.436  13.496  0.0557  0.1356 -0.3915
  421TMC3    C1 6277   1.187   3.768  14.312 -0.6495  0.2053  0.1479
  421TMC3    C2 6278   1.200   3.852  14.422  0.7089 -0.1272  0.8616
  421TMC3    C3 6279   1.325   3.845  14.484 -0.3747 -0.0425 -0.8487
  421TMC3    C4 6280   1.283   3.668  14.289 -0.3669 -0.1164 -0.6644
  421TMC3    C5 6281   1.395   3.656  14.370  0.0968 -0.6652 -0.6107
  421TMC3    C6 6282   1.421   3.749  14.464  0.4425 -0.3497  0.0682
  421TMC3     C 6283   1.093   3.807  14.211 -1.1282  1.0407  1.1568
  421TMC3     O 6284   1.064   3.925  14.199 -0.3207 -0.5743 -0.1866
  421TMC3     H 6285   1.135   3.936  14.439 -1.4067 -1.8431  1.1527
  421TMC3    H1 6286   1.275   3.596  14.208  1.8461 -1.3513  0.1991
  421TMC3    H2 6287   1.497   3.726  14.537 -1.2999  0.1084  2.0212
  421TMC3    C7 6288   1.499   3.568  14.325 -0.4179 -0.2928  0.0037
  421TMC3    C8 6289   1.363   3.940  14.584  0.4229  0.0073  0.8190
  421TMC3    O1 6290   1.614   3.604  14.351  0.0416  0.7791 -0.0408
  421TMC3    O2 6291   1.276   3.970  14.666  0.1685  0.5045 -0.6006
  422TMC3    C1 6292   3.406   0.141  12.741  0.4788 -0.7657  0.2686
  422TMC3    C2 6293   3.437   0.220  12.842  0.0534 -0.3554 -0.3056
  422TMC3    C3 6294   3.355   0.208  12.957 -0.0908 -0.4746  0.4771
  422TMC3    C4 6295   3.308   0.047  12.743  0.3360  0.3736 -0.3053
  422TMC3    C5 6296   3.235   0.030  12.857 -0.8968 -0.1766  0.4173
  422TMC3    C6 6297   3.259   0.119  12.964 -0.2734 -0.0266 -0.4802
  422TMC3     C 6298   3.521   0.118  12.659 -0.2930 -0.3227  0.0572
  422TMC3     O 6299   3.631   0.154  12.707 -0.3296  0.3993  0.4596
  422TMC3     H 6300   3.513   0.297  12.835 -0.0350 -0.2727 -0.3560
  422TMC3    H1 6301   3.288   4.713  12.654  0.1330  0.0371 -0.0381
  422TMC3    H2 6302   3.209   0.104  13.059  0.2851  0.1851 -0.1566
  422TMC3    C7 6303   3.135   4.650  12.863 -0.0202  0.1725 -0.2297
  422TMC3    C8 6304   3.356   0.325  13.043 -0.1673 -0.2638 -0.5477
  422TMC3    O1 6305   3.160   4.569  12.777 -0.0913 -0.6576 -0.6987
  422TMC3    O2 6306   3.441   0.408  13.019 -0.0724 -0.3202  0.1839
  423MPD2     C 6307   0.606   1.374   0.896  0.0901 -0.6267 -0.0253
  423MPD2    C1 6308   0.634   1.236   0.901 -0.2496 -0.5470  0.4660
  423MPD2    C2 6309   0.636   1.161   0.784 -0.0188 -0.1616 -0.1110
  423MPD2    C3 6310   0.639   1.228   0.664 -0.3619 -1.1017  0.5220
  423MPD2    C4 6311   0.627   1.368   0.662  0.1523  0.2260 -0.3972
  423MPD2    C5 6312   0.615   1.447   0.775  0.2331  0.1558 -0.1521
  423MPD2     H 6313   0.663   1.057   0.794 -2.9644 -0.9589 -0.6472
  423MPD2    H1 6314   0.630   1.420   0.567  2.2852 -0.9750 -0.9891
  423MPD2    H2 6315   0.595   1.441   0.981  0.6145  0.2885 -0.6882
  423MPD2    H3 6316   0.608   1.553   0.758  2.6517  0.6798  2.3024
  423MPD2     N 6317   0.656   1.162   0.542  0.1800  0.0539  0.0987
  423MPD2    H5 6318   0.667   1.217   0.457 -1.2083 -0.1609 -0.2204
  423MPD2    N1 6319   0.643   1.159   1.022  0.0605 -0.0844 -0.8823
  423MPD2    H7 6320   0.635   1.058   1.011 -0.2380 -0.0461 -1.0389
  424TMC3    C1 6321   0.657   1.105   1.251 -0.4134  0.4256 -0.4002
  424TMC3    C2 6322   0.726   0.988   1.229  0.1073 -0.2727 -0.1031
  424TMC3    C3 6323   0.728   0.893   1.333 -0.1339 -0.5179 -0.2834
  424TMC3    C4 6324   0.605   1.137   1.371  0.2239 -0.2226  0.1129
  424TMC3    C5 6325   0.617   1.046   1.477  0.1183  0.3874  0.2989
  424TMC3    C6 6326   0.675   0.927   1.453 -1.2689 -0.1718  0.4053
  424TMC3     C 6327   0.628   1.205   1.145 -0.1856  0.0273  0.6457
  424TMC3     O 6328   0.583   1.313   1.176  0.4068 -0.1377  0.1089
  424TMC3     H 6329   0.767   0.964   1.132  3.3136 -2.0223  1.6781
  424TMC3    H1 6330   0.537   1.222   1.378 -0.3598 -0.7149  0.4347
  424TMC3    H2 6331   0.684   0.853   1.532  1.1490  1.8644  2.0364
  424TMC3    C7 6332   0.533   1.061   1.593 -0.2717 -0.2159 -0.1992
  424TMC3    C8 6333   0.771   0.756   1.311 -0.8049  0.7163  0.3073
  424TMC3    O1 6334   0.514   0.959   1.661  0.1778 -0.2854  0.3689
  424TMC3    O2 6335   0.783   0.681   1.408  0.5319  0.6097 -0.1595
  425MPD2     C 6336   3.884   0.424  17.153  0.4086  0.7014 -0.1047
  425MPD2    C1 6337   3.867   0.322  17.242  0.4378 -0.2936  0.2562
  425MPD2    C2 6338   3.749   0.317  17.315 -0.2265 -0.0703 -0.2010
  425MPD2    C3 6339   3.645   0.402  17.286 -0.5947 -0.5371 -0.2692
  425MPD2    C4 6340   3.664   0.503  17.195  0.1370 -0.2491 -0.1436
  425MPD2    C5 6341   3.783   0.513  17.125 -0.1569 -0.5528  0.1042
  425MPD2     H 6342   3.735   0.229  17.378  0.6083 -0.0712 -0.0064
  425MPD2    H1 6343   3.585   0.573  17.169  0.8178  0.8945  0.8698
  425MPD2    H2 6344   3.966   0.437  17.085  0.8054  0.1545  0.2705
  425MPD2    H3 6345   3.805   0.592  17.055 -0.5649  0.6489  1.3152
  425MPD2     N 6346   3.528   0.380  17.361  0.1366  0.1115  0.0636
  425MPD2    H5 6347   3.519   0.297  17.420  1.6880  0.0708  0.2335
  425MPD2    N1 6348   3.969   0.229  17.252 -0.3674 -0.3848 -0.4368
  425MPD2    H7 6349   4.046   0.234  17.187 -1.7238 -2.6666 -2.2240
  426TMC3    C1 6350   4.116   0.093  17.364 -0.4962 -0.0120  0.1613
  426TMC3    C2 6351   4.181   0.068  17.244  0.6074 -0.2364  0.0403
  426TMC3    C3 6352   4.293   4.718  17.247  0.2246  0.8605  0.7878
  426TMC3    C4 6353   4.154   0.042  17.483  0.6273 -0.5981  0.7305
  426TMC3    C5 6354   4.273   4.696  17.483 -0.0247  0.2807 -0.0831
  426TMC3    C6 6355   4.340   4.666  17.366 -0.8261 -0.4189  0.3987
  426TMC3     C 6356   3.992   0.161  17.365  0.2301  0.6679 -0.6283
  426TMC3     O 6357   3.924   0.151  17.465  0.5369 -0.0743  0.6489
  426TMC3     H 6358   4.136   0.096  17.149  1.5034 -0.0068 -0.3098
  426TMC3    H1 6359   4.099   0.064  17.574  0.7477  3.5978 -0.2134
  426TMC3    H2 6360   4.424   4.597  17.362 -0.2198  0.1806  2.5051
  426TMC3    C7 6361   4.335   4.660  17.609 -0.3244  0.7249  0.0784
  426TMC3    C8 6362   4.339   4.645  17.123 -0.5542 -0.5382 -1.4465
  426TMC3    O1 6363   4.455   4.647  17.608 -0.6251  0.6728  0.2965
  426TMC3    O2 6364   4.357   4.523  17.130 -0.3447 -0.1221  0.3626
  427MPD2     C 6365   3.006   2.328  14.955 -0.5607 -0.3081  0.2230
  427MPD2    C1 6366   2.956   2.313  15.080 -0.2661 -0.2337 -0.5673
  427MPD2    C2 6367   2.816   2.304  15.100  0.7807  0.6317  0.5300
  427MPD2    C3 6368   2.733   2.294  14.993 -0.0210 -0.0721  0.1790
  427MPD2    C4 6369   2.786   2.308  14.870  0.3593  0.3884  0.5591
  427MPD2    C5 6370   2.920   2.322  14.845 -0.6257  0.5181  0.3159
  427MPD2     H 6371   2.771   2.294  15.199 -3.3485 -2.4437 -1.6625
  427MPD2    H1 6372   2.719   2.308  14.785 -1.0807 -0.9123  1.7090
  427MPD2    H2 6373   3.112   2.335  14.935 -0.3987  0.9311  1.5276
  427MPD2    H3 6374   2.971   2.355  14.755 -1.1432 -0.2084 -0.2337
  427MPD2     N 6375   2.600   2.266  14.997 -1.0500  0.5333 -0.2205
  427MPD2    H5 6376   2.535   2.271  14.920  1.8871  0.0002 -2.7153
  427MPD2    N1 6377   3.044   2.298  15.193  0.0104 -0.2034  0.3698
  427MPD2    H7 6378   3.004   2.288  15.286  1.1347 -1.7772  0.6909
  428TMC3    C1 6379   3.237   2.277  15.326  0.1009  0.3554  0.9957
  428TMC3    C2 6380   3.161   2.215  15.422 -0.0347  0.0736  0.3753
  428TMC3    C3 6381   3.200   2.198  15.551 -0.0380  0.0317  0.0509
  428TMC3    C4 6382   3.362   2.321  15.358 -0.0597  1.2651  0.5832
  428TMC3    C5 6383   3.394   2.320  15.490  0.5352 -0.9237 -0.3416
  428TMC3    C6 6384   3.314   2.259  15.591 -0.2429  0.3815  0.4025
  428TMC3     C 6385   3.179   2.288  15.194 -0.0992  0.0548 -0.3455
  428TMC3     O 6386   3.255   2.291  15.100 -0.5234  0.3544 -0.2043
  428TMC3     H 6387   3.073   2.157  15.398 -0.0062  0.3186 -0.3133
  428TMC3    H1 6388   3.412   2.380  15.282 -1.2173  0.9484 -0.4140
  428TMC3    H2 6389   3.366   2.234  15.683  0.2825  2.4653  0.6854
  428TMC3    C7 6390   3.517   2.379  15.537 -0.2632  0.0168  1.1467
  428TMC3    C8 6391   3.143   2.091  15.632  0.1064  0.3966 -0.4866
  428TMC3    O1 6392   3.530   2.389  15.660  0.2785 -0.7260  0.1840
  428TMC3    O2 6393   3.076   2.004  15.578  0.0175  0.1283  0.3291
  429MPD2     C 6394   4.233   2.742  17.622 -0.2219  0.3895 -0.3851
  429MPD2    C1 6395   4.195   2.642  17.540 -0.5641 -0.3714  0.4425
  429MPD2    C2 6396   4.201   2.662  17.407 -0.7809 -0.9139  0.2403
  429MPD2    C3 6397   4.250   2.785  17.359  0.4782 -0.5139  0.6062
  429MPD2    C4 6398   4.286   2.886  17.440  0.3667 -0.3182  1.0247
  429MPD2    C5 6399   4.277   2.865  17.576  0.2979  0.0316  0.3822
  429MPD2     H 6400   4.191   2.584  17.332 -0.6483  0.0011 -0.7343
  429MPD2    H1 6401   4.326   2.984  17.417 -0.5249 -0.1491  0.1867
  429MPD2    H2 6402   4.223   2.732   0.031  1.4753  0.8760 -0.1795
  429MPD2    H3 6403   4.297   2.940  17.651  1.0015 -0.7226  0.9608
  429MPD2     N 6404   4.300   2.789  17.227 -1.1972 -0.2856 -0.1432
  429MPD2    H5 6405   4.293   2.701  17.179  1.7572 -0.0149 -1.0687
  429MPD2    N1 6406   4.145   2.520  17.591  0.3594 -0.3927 -0.2013
  429MPD2    H7 6407   4.074   2.478  17.531 -1.2267  1.1930  0.5690
  430TMC3    C1 6408   4.453   2.870  17.061 -0.2806 -0.7037  0.0358
  430TMC3    C2 6409   4.455   2.958  16.956  0.1452 -0.1644 -0.4216
  430TMC3    C3 6410   4.486   2.910  16.830 -0.4654 -0.5138  0.1592
  430TMC3    C4 6411   4.486   2.735  17.047  0.1874 -0.6913  0.7194
  430TMC3    C5 6412   4.520   2.691  16.925  0.7726 -0.5173  0.3049
  430TMC3    C6 6413   4.517   2.777  16.814 -0.4157  0.4211 -0.4712
  430TMC3     C 6414   4.365   2.903  17.173  0.4248  0.0344 -0.3073
  430TMC3     O 6415   4.347   3.025  17.191 -0.1576 -0.4194  0.2558
  430TMC3     H 6416   4.395   3.048  16.958 -0.8367 -0.7721 -2.4733
  430TMC3    H1 6417   4.486   2.664  17.130  0.8595 -1.3648  0.1369
  430TMC3    H2 6418   4.549   2.733  16.720 -0.7733 -1.1435  0.1495
  430TMC3    C7 6419   4.484   2.550  16.912  0.3924  0.2662 -0.0313
  430TMC3    C8 6420   4.429   2.970  16.716 -0.4923  0.3866  0.5367
  430TMC3    O1 6421   4.524   2.467  16.989 -0.3854 -0.7851 -0.1285
  430TMC3    O2 6422   4.386   2.904  16.622  0.4547 -0.0265 -0.3501
  431MPD2     C 6423   0.032   2.189  13.031  0.0228 -0.0225  0.4933
  431MPD2    C1 6424   0.039   2.221  12.900  0.0726 -0.0027 -0.5173
  431MPD2    C2 6425   0.017   2.117  12.810  0.1092 -0.4376  0.2468
  431MPD2    C3 6426   4.702   1.993  12.854 -0.1096 -0.5981  0.1678
  431MPD2    C4 6427   4.693   1.966  12.989  0.6723  0.1591  0.1253
  431MPD2    C5 6428   0.004   2.065  13.074  0.4410  0.4372 -0.1955
  431MPD2     H 6429   0.007   2.133  12.703  0.2950 -2.4225 -0.0615
  431MPD2    H1 6430   4.661   1.871  13.031 -0.7939  0.8614  0.5782
  431MPD2    H2 6431   0.053   2.251  13.117 -0.0142 -0.7535  1.0189
  431MPD2    H3 6432   0.008   2.052  13.181 -1.2429  2.2332  0.0830
  431MPD2     N 6433   4.648   1.893  12.772  0.0520 -0.1853  0.5692
  431MPD2    H5 6434   4.621   1.807  12.819 -1.2033 -0.5542 -0.8521
  431MPD2    N1 6435   0.070   2.350  12.844  0.1542  0.1653  0.0410
  431MPD2    H7 6436   0.069   2.361  12.743  2.9847 -1.8776 -0.2101
  432TMC3    C1 6437   4.593   1.770  12.597 -0.0603 -0.2045 -0.2435
  432TMC3    C2 6438   4.636   1.699  12.493 -0.8405  0.3121  0.1010
  432TMC3    C3 6439   4.568   1.587  12.446 -0.7945  0.2559  0.6872
  432TMC3    C4 6440   4.469   1.741  12.654 -0.7126  0.5720  0.4441
  432TMC3    C5 6441   4.399   1.636  12.603  0.5598 -0.2204  0.9506
  432TMC3    C6 6442   4.450   1.552  12.510  0.4380  0.4388 -0.2830
  432TMC3     C 6443   4.651   1.895  12.636  0.5124  0.0475  0.6843
  432TMC3     O 6444   0.006   1.952  12.559 -0.2860  0.2037  0.0894
  432TMC3     H 6445   4.716   1.742  12.434 -0.6205 -0.1213  0.0822
  432TMC3    H1 6446   4.431   1.815  12.724  0.8574  1.4397  0.3886
  432TMC3    H2 6447   4.391   1.466  12.483 -0.3428  0.9556 -0.2364
  432TMC3    C7 6448   4.257   1.626  12.633  0.6658 -0.3854 -0.1789
  432TMC3    C8 6449   4.620   1.497  12.338  0.1624  0.1147  0.1893
  432TMC3    O1 6450   4.193   1.585  12.539 -0.2263  0.5234  0.9678
  432TMC3    O2 6451   4.549   1.406  12.305  0.1437  0.0104 -0.3421
  433MPD2     C 6452   3.422   0.935  10.839 -0.5852 -0.0813 -0.2458
  433MPD2    C1 6453   3.297   0.899  10.871 -0.6743 -0.0560  0.5956
  433MPD2    C2 6454   3.222   0.947  10.977  0.6848 -0.1391  0.1488
  433MPD2    C3 6455   3.289   1.039  11.057 -0.0196  0.8202  0.5359
  433MPD2    C4 6456   3.417   1.071  11.029 -0.3060  0.2100  0.1049
  433MPD2    C5 6457   3.487   1.016  10.924  0.3026  0.8155  0.1530
  433MPD2     H 6458   3.119   0.920  10.996  0.2623 -1.2775 -3.8838
  433MPD2    H1 6459   3.468   1.144  11.090  1.9471  0.7561 -2.4918
  433MPD2    H2 6460   3.478   0.895  10.756 -2.1031  0.9858 -1.7765
  433MPD2    H3 6461   3.589   1.044  10.901  0.0120 -0.7659 -2.9564
  433MPD2     N 6462   3.197   1.089  11.154 -0.7549  0.5985  0.0730
  433MPD2    H5 6463   3.101   1.058  11.143 -0.4689  0.4134 -1.8702
  433MPD2    N1 6464   3.239   0.793  10.793 -0.1714 -0.2122  0.6064
  433MPD2    H7 6465   3.303   0.757  10.723 -0.4511  0.1866  0.1535
  434TMC3    C1 6466   3.176   0.590  10.756 -0.2589  0.3003 -0.1475
  434TMC3    C2 6467   3.205   0.484  10.834  0.2868  0.1428  0.1901
  434TMC3    C3 6468   3.267   0.372  10.781  0.5986  0.7463  0.4631
  434TMC3    C4 6469   3.215   0.589  10.623  0.4236  0.3903  0.1097
  434TMC3    C5 6470   3.281   0.475  10.573 -0.3883 -1.1456 -0.4688
  434TMC3    C6 6471   3.302   0.364  10.648  0.9097  0.1475 -0.5653
  434TMC3     C 6472   3.136   0.708  10.821  0.8247 -0.2474  0.2745
  434TMC3     O 6473   3.072   0.700  10.924  0.1659 -0.0983 -0.8151
  434TMC3     H 6474   3.184   0.488  10.940 -2.3205  3.2452 -0.4449
  434TMC3    H1 6475   3.183   0.673  10.562 -2.2235 -0.8584 -0.2075
  434TMC3    H2 6476   3.369   0.283  10.620  0.3282 -1.0475  1.4707
  434TMC3    C7 6477   3.257   0.448  10.429 -1.0006  0.2768  0.2470
  434TMC3    C8 6478   3.335   0.283  10.876  0.2255 -0.7231 -0.0383
  434TMC3    O1 6479   3.192   0.527  10.364  0.9378 -0.3948  0.0331
  434TMC3    O2 6480   3.371   0.339  10.979  0.5368  0.4937 -0.1591
  435MPD2     C 6481   0.730   1.188  15.638 -0.3264  0.3748 -0.3205
  435MPD2    C1 6482   0.712   1.110  15.747 -0.1408 -0.5727  0.3997
  435MPD2    C2 6483   0.816   1.037  15.799 -0.4391  0.6594  0.1204
  435MPD2    C3 6484   0.946   1.051  15.756  0.2682  0.5483 -0.4777
  435MPD2    C4 6485   0.964   1.133  15.646 -0.2419  0.3270 -0.7099
  435MPD2    C5 6486   0.856   1.197  15.590 -0.1647 -0.6614  0.0329
  435MPD2     H 6487   0.794   0.974  15.884 -0.4702  0.6173  0.0812
  435MPD2    H1 6488   1.060   1.143  15.596 -0.2134  0.5411 -0.6107
  435MPD2    H2 6489   0.656   1.236  15.574  0.1350  1.4592 -0.0318
  435MPD2    H3 6490   0.864   1.253  15.498 -2.0043  0.8042  0.7782
  435MPD2     N 6491   1.041   0.975  15.826  0.4316 -0.0282  0.1790
  435MPD2    H5 6492   1.007   0.928  15.909 -0.9446  0.0286 -0.3676
  435MPD2    N1 6493   0.586   1.090  15.811  0.7513 -0.0873  0.2908
  435MPD2    H7 6494   0.584   1.031  15.893  2.7922 -1.6866 -0.8171
  436TMC3    C1 6495   0.266   0.964  16.028  0.0598  0.2294  0.2703
  436TMC3    C2 6496   0.368   1.023  15.961  0.4215  0.1721 -0.7245
  436TMC3    C3 6497   0.351   1.070  15.838  0.2306  0.4054  0.4673
  436TMC3    C4 6498   0.144   0.937  15.969  0.6167 -0.0741 -0.0207
  436TMC3    C5 6499   0.132   0.992  15.844  0.0334 -0.7775 -0.3594
  436TMC3    C6 6500   0.232   1.050  15.773  0.2404  0.3272  0.2817
  436TMC3     C 6501   0.291   0.920  16.161 -0.2490 -0.6330 -0.1808
  436TMC3     O 6502   0.401   0.875  16.188 -0.3884 -0.0367  0.3114
  436TMC3     H 6503   0.463   1.034  16.014 -1.6852 -1.7573  3.4757
  436TMC3    H1 6504   0.068   0.900  16.036  0.0190  2.1675  0.5366
  436TMC3    H2 6505   0.218   1.088  15.673 -0.1928  1.4411  0.7582
  436TMC3    C7 6506   0.009   0.987  15.774 -0.0849 -0.6983 -0.8025
  436TMC3    C8 6507   0.465   1.128  15.758  0.3657 -0.2339  0.5813
  436TMC3    O1 6508   4.709   1.073  15.695 -0.0635  0.2337 -0.4261
  436TMC3    O2 6509   0.442   1.183  15.649  0.1525 -0.1116 -0.0079
  437TMC3    C1 6510   3.701   3.377  13.048 -1.7659  0.3316  0.3955
  437TMC3    C2 6511   3.660   3.492  13.115  0.8820 -1.2105  0.0524
  437TMC3    C3 6512   3.694   3.618  13.079  0.2370 -0.1696 -0.0901
  437TMC3    C4 6513   3.772   3.393  12.930 -0.5992  0.6330 -0.5785
  437TMC3    C5 6514   3.802   3.522  12.895 -0.0328  0.3305 -0.0060
  437TMC3    C6 6515   3.761   3.635  12.961 -0.1383  0.5825 -0.4769
  437TMC3     C 6516   3.697   3.248  13.121  0.4409  0.1946 -0.0948
  437TMC3     O 6517   3.678   3.263  13.242 -0.1600  0.4865 -0.1522
  437TMC3     H 6518   3.582   3.484  13.189  0.8483 -0.7060  0.0687
  437TMC3    H1 6519   3.799   3.306  12.871 -2.0937  0.8186 -1.5422
  437TMC3    H2 6520   3.794   3.730  12.921  0.4581 -0.1081 -1.6235
  437TMC3    C7 6521   3.874   3.544  12.768  0.2858  0.4565 -0.3604
  437TMC3    C8 6522   3.644   3.720  13.169 -0.5037  0.0250  0.8624
  437TMC3    O1 6523   3.845   3.638  12.696 -0.3067  0.7646  0.1550
  437TMC3    O2 6524   3.606   3.691  13.281  0.1192  0.1256 -0.4623
  438MPD2     C 6525   2.111   3.770  17.343  0.8134  0.3102  0.0531
  438MPD2    C1 6526   2.055   3.739  17.224  0.7132 -0.4185 -0.8340
  438MPD2    C2 6527   1.922   3.759  17.198  0.1997  0.7703  0.0218
  438MPD2    C3 6528   1.838   3.820  17.293 -0.0277 -0.2663  0.0244
  438MPD2    C4 6529   1.900   3.861  17.412  0.2465 -0.4629 -0.0157
  438MPD2    C5 6530   2.034   3.829  17.437 -0.1982  0.5061  0.0993
  438MPD2     H 6531   1.887   3.740  17.098  0.0142  1.0206  0.0376
  438MPD2    H1 6532   1.837   3.896  17.493 -1.1290 -0.2826 -1.1789
  438MPD2    H2 6533   2.209   3.742  17.381  0.0882 -0.7923  1.1030
  438MPD2    H3 6534   2.071   3.843  17.538 -0.2188 -1.6899  0.4192
  438MPD2     N 6535   1.699   3.826  17.278  0.1944  0.6234  0.8796
  438MPD2    H5 6536   1.661   3.882  17.354  1.4445  0.8594  1.3337
  438MPD2    N1 6537   2.136   3.681  17.123 -0.1913 -0.4392  0.1712
  438MPD2    H7 6538   2.093   3.665  17.032  0.0623  0.0599 -0.0364
  439TMC3    C1 6539   2.320   3.623  16.989  0.1811  0.7761 -0.0113
  439TMC3    C2 6540   2.241   3.552  16.912 -0.3393 -0.0584 -0.6783
  439TMC3    C3 6541   2.294   3.517  16.794 -0.0716  0.4291 -0.1797
  439TMC3    C4 6542   2.453   3.648  16.964  0.1900  0.0239  0.0700
  439TMC3    C5 6543   2.500   3.615  16.843 -0.2469 -0.0840 -0.0158
  439TMC3    C6 6544   2.422   3.555  16.758 -0.3625 -0.3398  0.2301
  439TMC3     C 6545   2.273   3.669  17.119 -0.0639 -0.0137  0.2843
  439TMC3     O 6546   2.362   3.704  17.198  0.4487 -0.4142  0.2211
  439TMC3     H 6547   2.146   3.522  16.954 -0.0782  2.7267  1.8781
  439TMC3    H1 6548   2.511   3.717  17.023  0.0731  1.2596 -1.2558
  439TMC3    H2 6549   2.455   3.518  16.661 -0.1313  0.2128  0.1019
  439TMC3    C7 6550   2.631   3.556  16.862 -0.0294 -0.7640 -1.0206
  439TMC3    C8 6551   2.232   3.406  16.722  0.0932 -0.0802  0.1240
  439TMC3    O1 6552   2.665   3.524  16.975  0.1478 -0.5244  0.2262
  439TMC3    O2 6553   2.310   3.346  16.651  0.7691  0.3124  0.1220
  440MPD2     C 6554   0.663   4.354  15.118 -0.0224 -0.5074  0.0391
  440MPD2    C1 6555   0.763   4.399  15.028  0.1397  0.0182 -0.3680
  440MPD2    C2 6556   0.895   4.359  15.052 -0.4958 -0.1021 -0.6272
  440MPD2    C3 6557   0.923   4.270  15.157  0.1256 -0.0914  0.2282
  440MPD2    C4 6558   0.824   4.221  15.234 -0.4563 -0.2486 -0.2737
  440MPD2    C5 6559   0.696   4.272  15.223 -0.8792  0.1699  0.0661
  440MPD2     H 6560   0.970   4.389  14.979  1.4164 -0.1493  1.3163
  440MPD2    H1 6561   0.841   4.139  15.304 -0.4278 -1.4856 -1.7256
  440MPD2    H2 6562   0.558   4.376  15.107  0.4571  1.8137  0.1693
  440MPD2    H3 6563   0.612   4.229  15.276 -0.3043 -0.3676  0.5561
  440MPD2     N 6564   1.059   4.232  15.184 -0.6255 -0.6388  0.1816
  440MPD2    H5 6565   1.069   4.167  15.261  0.3151 -1.1613 -0.3676
  440MPD2    N1 6566   0.735   4.479  14.919 -0.1665 -0.1344 -0.3512
  440MPD2    H7 6567   0.814   4.505  14.861  0.8235  0.0502  1.0745
  441TMC3    C1 6568   1.282   4.210  15.189  0.1541  0.6642  0.2367
  441TMC3    C2 6569   1.369   4.303  15.240  0.6378  0.2542 -0.1890
  441TMC3    C3 6570   1.461   4.252  15.328  0.3734  0.5235 -0.3369
  441TMC3    C4 6571   1.280   4.076  15.225 -0.1163  0.4178  0.0199
  441TMC3    C5 6572   1.368   4.036  15.317  0.2595  0.7208  0.6752
  441TMC3    C6 6573   1.458   4.124  15.369 -0.0834 -0.0679 -0.0600
  441TMC3     C 6574   1.175   4.262  15.118  0.4435  0.1719  0.4342
  441TMC3     O 6575   1.189   4.356  15.043  0.0371  0.3934 -0.2944
  441TMC3     H 6576   1.372   4.406  15.205  1.5082  0.8296  1.6059
  441TMC3    H1 6577   1.206   4.013  15.177  3.5490 -1.4886 -3.1442
  441TMC3    H2 6578   1.533   4.085  15.438  1.1687 -0.8227 -1.8692
  441TMC3    C7 6579   1.343   3.921  15.399  0.5573  0.0742 -0.0277
  441TMC3    C8 6580   1.538   4.343  15.410  0.3541 -0.5825 -0.1146
  441TMC3    O1 6581   1.289   3.824  15.350 -0.1026  0.1123  0.2101
  441TMC3    O2 6582   1.643   4.312  15.464  0.2269 -0.5125 -0.1707
  442MPD2     C 6583   3.800   0.002  16.636 -1.3517  0.4530 -0.1618
  442MPD2    C1 6584   3.758   4.612  16.710  0.3451 -0.2520  0.5653
  442MPD2    C2 6585   3.750   4.495  16.639  0.3488  0.1312 -0.1639
  442MPD2    C3 6586   3.768   4.491  16.496  0.2411 -0.0465  0.4051
  442MPD2    C4 6587   3.808   4.606  16.432  0.1556  0.0594 -0.0872
  442MPD2    C5 6588   3.836   4.719  16.504  0.1818 -0.2268 -0.2479
  442MPD2     H 6589   3.731   4.405  16.696 -1.8868  0.4320 -0.4319
  442MPD2    H1 6590   3.837   4.608  16.327  0.4612  0.1338 -0.0009
  442MPD2    H2 6591   3.809   0.105  16.669  0.3152  0.4989 -0.7114
  442MPD2    H3 6592   3.858   0.087  16.451 -1.5397 -1.4352 -3.1026
  442MPD2     N 6593   3.749   4.374  16.422 -0.5365 -0.3603  0.3069
  442MPD2    H5 6594   3.766   4.376  16.321 -0.9589 -3.0380  0.1627
  442MPD2    N1 6595   3.713   4.619  16.847 -0.7108 -0.1628  0.1093
  442MPD2    H7 6596   3.692   4.531  16.893 -1.4023  0.5036  1.0592
  443TMC3    C1 6597   3.626   4.724  17.039 -0.6880 -0.9074 -0.2074
  443TMC3    C2 6598   3.532   0.099  17.056 -0.2136  0.3145 -0.6375
  443TMC3    C3 6599   3.414   0.073  17.124  0.4045 -0.3675  0.0244
  443TMC3    C4 6600   3.617   4.607  17.107  0.0912 -0.6426  0.1316
  443TMC3    C5 6601   3.496   4.588  17.172 -0.0121  0.2962  0.1972
  443TMC3    C6 6602   3.393   4.675  17.173 -0.5315  0.1305 -0.0759
  443TMC3     C 6603   3.697   0.013  16.913 -0.1200 -0.2490 -0.0411
  443TMC3     O 6604   3.703   0.128  16.869  0.0256  0.4323 -0.1136
  443TMC3     H 6605   3.543   0.199  17.015  1.6070 -0.0908 -1.1499
  443TMC3    H1 6606   3.698   4.535  17.105 -0.9307 -1.7813 -0.4562
  443TMC3    H2 6607   3.297   4.663  17.223 -0.7540  1.2363 -0.2262
  443TMC3    C7 6608   3.491   4.468  17.259 -0.7230 -0.5962 -0.5639
  443TMC3    C8 6609   3.294   0.161  17.125  0.1496 -0.3380 -0.5431
  443TMC3    O1 6610   3.556   4.378  17.211  0.4443  0.1848 -0.3029
  443TMC3    O2 6611   3.209   0.160  17.206 -0.8884  1.1771  0.6099
  444MPD2     C 6612   4.192   4.185  17.129  0.1444  0.2492 -0.1501
  444MPD2    C1 6613   4.103   4.080  17.165 -0.4951 -0.0777  0.2569
  444MPD2    C2 6614   4.149   3.953  17.142  0.3583  0.4540 -0.2402
  444MPD2    C3 6615   4.272   3.923  17.094 -0.2318 -0.3677 -0.3578
  444MPD2    C4 6616   4.357   4.025  17.049  0.1100  0.8985 -0.0708
  444MPD2    C5 6617   4.311   4.155  17.068  0.3554 -0.1174 -0.7101
  444MPD2     H 6618   4.081   3.876  17.176  1.7260 -0.9647 -0.7075
  444MPD2    H1 6619   4.460   4.014  17.016  0.6661  2.8012  1.0048
  444MPD2    H2 6620   4.163   4.289  17.144 -0.2076 -0.3520  3.1462
  444MPD2    H3 6621   4.374   4.240  17.047 -0.2063  0.1100 -1.5046
  444MPD2     N 6622   4.304   3.789  17.088 -0.1648 -1.0444  0.3175
  444MPD2    H5 6623   4.238   3.718  17.117  0.0573 -1.9237 -1.3479
  444MPD2    N1 6624   3.978   4.091  17.232  0.0890  0.2171  0.5964
  444MPD2    H7 6625   3.924   4.005  17.230  0.8787 -0.2352 -2.1939
  445TMC3    C1 6626   4.426   3.587  17.084 -0.3134  0.0574  0.3469
  445TMC3    C2 6627   4.307   3.525  17.112 -0.2157 -0.2636  0.4200
  445TMC3    C3 6628   4.311   3.387  17.105 -0.1028 -0.0212 -0.0699
  445TMC3    C4 6629   4.548   3.524  17.064 -0.7185  0.4454 -0.4947
  445TMC3    C5 6630   4.543   3.393  17.051 -0.3207  0.0442  0.1393
  445TMC3    C6 6631   4.430   3.326  17.067 -0.3474 -0.1798 -0.5330
  445TMC3     C 6632   4.428   3.731  17.065  0.0723  0.0947 -0.2290
  445TMC3     O 6633   4.535   3.784  17.045 -0.1856  0.1079  0.0801
  445TMC3     H 6634   4.212   3.572  17.133 -0.4091 -0.5718  0.2316
  445TMC3    H1 6635   4.630   3.593  17.047  1.7661 -2.3917  0.0040
  445TMC3    H2 6636   4.430   3.219  17.050 -0.4474 -0.0646 -1.2467
  445TMC3    C7 6637   4.648   3.315  16.968  0.4990 -0.3952  0.0257
  445TMC3    C8 6638   4.193   3.331  17.029 -0.0783  0.0460  0.4974
  445TMC3    O1 6639   4.605   3.259  16.869  0.2316 -0.2833 -0.2349
  445TMC3    O2 6640   4.125   3.407  16.959 -0.3463 -0.2137 -0.2990
  446MPD2     C 6641   2.955   0.224  11.406  0.5523 -0.3466  0.6387
  446MPD2    C1 6642   3.005   0.191  11.283 -0.2548  0.4782 -0.2890
  446MPD2    C2 6643   3.106   0.277  11.227  0.1445 -0.0858  0.3271
  446MPD2    C3 6644   3.159   0.379  11.296 -0.2563 -0.1727  0.3660
  446MPD2    C4 6645   3.109   0.406  11.422  0.0154  0.5391 -0.0293
  446MPD2    C5 6646   3.000   0.333  11.469  0.1122  0.0175 -0.5313
  446MPD2     H 6647   3.140   0.248  11.128  2.3420 -0.6630  1.2463
  446MPD2    H1 6648   3.141   0.496  11.474  0.0162  0.7118 -0.3294
  446MPD2    H2 6649   2.874   0.169  11.452 -2.3883  1.7880 -1.9992
  446MPD2    H3 6650   2.941   0.362  11.555 -0.7284 -0.1553 -1.0508
  446MPD2     N 6651   3.266   0.457  11.236  0.2213 -0.5535 -0.4579
  446MPD2    H5 6652   3.304   0.435  11.145  0.4947 -0.1509 -0.4400
  446MPD2    N1 6653   2.957   0.091  11.199  0.0110 -0.1465  0.0672
  446MPD2    H7 6654   2.986   0.093  11.102  1.7005 -1.8604  0.5184
  447TMC3    C1 6655   3.460   0.590  11.228  0.6050  0.5116  0.4136
  447TMC3    C2 6656   3.451   0.606  11.086  0.2075  0.2303 -0.4760
  447TMC3    C3 6657   3.573   0.611  11.018 -0.5753  0.4519  0.1444
  447TMC3    C4 6658   3.584   0.583  11.292 -0.1621 -0.3543 -0.2591
  447TMC3    C5 6659   3.697   0.610  11.219 -0.3729  0.1278 -0.3563
  447TMC3    C6 6660   3.693   0.631  11.082 -0.5830  0.4172 -0.5883
  447TMC3     C 6661   3.347   0.541  11.307 -0.5570  0.2663  0.6314
  447TMC3     O 6662   3.361   0.537  11.431  0.1952 -0.4343 -0.0667
  447TMC3     H 6663   3.356   0.596  11.034 -0.7819  0.9830  1.1948
  447TMC3    H1 6664   3.590   0.578  11.400  0.1432 -1.2959 -0.3121
  447TMC3    H2 6665   3.786   0.647  11.028 -1.5222 -0.7417 -2.5684
  447TMC3    C7 6666   3.815   0.543  11.271  0.1783  0.5625  0.4052
  447TMC3    C8 6667   3.581   0.571  10.878 -0.5577  0.0488 -0.1108
  447TMC3    O1 6668   3.915   0.544  11.200  0.1967  0.6455  0.1743
  447TMC3    O2 6669   3.508   0.632  10.798 -0.2794 -0.2043 -0.1446
  448TMC3    C1 6670   1.767   0.411  16.498  0.5000  0.2651 -0.1042
  448TMC3    C2 6671   1.789   0.282  16.457  0.5375 -0.0628  0.3243
  448TMC3    C3 6672   1.776   0.185  16.554  0.5377 -0.4569  0.2485
  448TMC3    C4 6673   1.738   0.442  16.629 -0.6279  0.6855  0.3529
  448TMC3    C5 6674   1.729   0.343  16.723  0.3189 -0.0979 -0.6313
  448TMC3    C6 6675   1.739   0.213  16.680  0.2060 -0.8268  0.2558
  448TMC3     C 6676   1.788   0.518  16.399 -0.5685  0.0035 -0.5992
  448TMC3     O 6677   1.796   0.473  16.286 -0.0918 -0.2182  0.3347
  448TMC3     H 6678   1.806   0.261  16.352  2.4961 -0.3717  0.7090
  448TMC3    H1 6679   1.715   0.545  16.654 -1.0227  0.6746  0.0327
  448TMC3    H2 6680   1.723   0.128  16.745  0.0778 -1.9029 -1.1764
  448TMC3    C7 6681   1.678   0.377  16.852  0.3577  0.4894 -0.1475
  448TMC3    C8 6682   1.761   0.045  16.515 -0.4041 -0.4943  0.0112
  448TMC3    O1 6683   1.673   0.494  16.882 -0.1937 -0.2268 -0.3358
  448TMC3    O2 6684   1.741   4.684  16.600 -0.0372  0.2018  0.1223
  449MPD2     C 6685   3.578   4.153  15.160  0.1403 -0.1277  0.5837
  449MPD2    C1 6686   3.498   4.092  15.068 -0.0352 -0.4852 -0.7895
  449MPD2    C2 6687   3.420   3.989  15.099 -0.1910 -0.4179 -0.6200
  449MPD2    C3 6688   3.434   3.918  15.213  0.8627 -0.8215 -0.1971
  449MPD2    C4 6689   3.532   3.968  15.303  0.5368 -0.8343 -0.1774
  449MPD2    C5 6690   3.605   4.076  15.274 -0.1240 -0.3143 -0.4129
  449MPD2     H 6691   3.361   3.949  15.017 -0.5264  0.9354 -1.0311
  449MPD2    H1 6692   3.553   3.921  15.398 -1.6177  1.7761  1.5960
  449MPD2    H2 6693   3.637   4.242  15.141  0.4632 -0.4911 -0.1026
  449MPD2    H3 6694   3.677   4.120  15.343  0.1932  2.9815 -2.8270
  449MPD2     N 6695   3.362   3.795  15.234 -0.2371  0.0381 -0.1296
  449MPD2    H5 6696   3.305   3.759  15.158 -0.4497 -0.8631  0.4566
  449MPD2    N1 6697   3.492   4.131  14.936 -0.3214 -0.3386 -0.9106
  449MPD2    H7 6698   3.420   4.088  14.880 -1.6536 -0.0620  0.5654
  450TMC3    C1 6699   3.530   4.245  14.736  0.1233  0.2654  0.4344
  450TMC3    C2 6700   3.637   4.237  14.652  0.6949  0.2315  0.5803
  450TMC3    C3 6701   3.617   4.168  14.537  0.7942  0.3197 -0.1059
  450TMC3    C4 6702   3.413   4.182  14.707 -0.1998  0.8806 -0.7403
  450TMC3    C5 6703   3.412   4.088  14.603  0.3546 -0.1137  0.1060
  450TMC3    C6 6704   3.511   4.083  14.514  0.4034  0.0124 -0.1631
  450TMC3     C 6705   3.560   4.241  14.879  1.2747  0.0657  0.7784
  450TMC3     O 6706   3.643   4.314  14.927  0.1763  0.0805  0.3299
  450TMC3     H 6707   3.721   4.305  14.662 -0.4953  1.6820  0.7435
  450TMC3    H1 6708   3.324   4.188  14.768  0.4277  1.4987  0.1309
  450TMC3    H2 6709   3.509   4.004  14.440 -0.8526 -1.9952  1.9856
  450TMC3    C7 6710   3.354   3.959  14.642  0.1709 -0.7227 -0.2504
  450TMC3    C8 6711   3.702   4.197  14.428 -0.1131  0.0542  0.4398
  450TMC3    O1 6712   3.350   3.955  14.765 -0.0131  0.1382 -0.0362
  450TMC3    O2 6713   3.784   4.290  14.440 -0.0724 -0.4855  0.0707
  451MPD2     C 6714   4.433   3.165   2.376  0.2740 -0.8856  0.0602
  451MPD2    C1 6715   4.446   3.115   2.247  1.1454 -0.1004  0.0150
  451MPD2    C2 6716   4.533   3.003   2.229  0.0005 -0.6877  0.0406
  451MPD2    C3 6717   4.603   2.950   2.337  0.2661  1.1112 -0.0323
  451MPD2    C4 6718   4.591   3.018   2.462  0.2166 -0.1540  0.2748
  451MPD2    C5 6719   4.505   3.119   2.477 -0.6594 -0.2562  0.0060
  451MPD2     H 6720   4.538   2.950   2.135 -0.5699 -0.9649  0.1634
  451MPD2    H1 6721   4.655   2.989   2.544  0.3222  0.2961  0.3530
  451MPD2    H2 6722   4.370   3.251   2.395  1.7077  0.4308 -1.1618
  451MPD2    H3 6723   4.499   3.164   2.576  1.8744 -1.1759  0.5886
  451MPD2     N 6724   4.691   2.838   2.320  0.0165  0.3470 -0.1546
  451MPD2    H5 6725   0.026   2.819   2.400 -0.4669 -1.1565 -0.1600
  451MPD2    N1 6726   4.357   3.168   2.150  0.5584 -0.2449 -0.8068
  451MPD2    H7 6727   4.287   3.232   2.188 -0.4764 -1.0925 -1.2654
  452TMC3    C1 6728   0.059   2.647   2.220  0.7814  0.0615 -0.2733
  452TMC3    C2 6729   0.167   2.655   2.305  0.0593 -0.5444 -0.4351
  452TMC3    C3 6730   0.247   2.539   2.329 -0.1786  0.6931  0.8465
  452TMC3    C4 6731   0.048   2.540   2.137 -0.4587  0.0041  0.3561
  452TMC3    C5 6732   0.133   2.434   2.156 -0.6506 -0.9147 -0.5030
  452TMC3    C6 6733   0.227   2.430   2.253  0.0693  0.0486 -0.5117
  452TMC3     C 6734   4.695   2.756   2.207  0.1979  0.0153  0.6628
  452TMC3     O 6735   4.611   2.738   2.120 -0.1186  0.0779  0.2990
  452TMC3     H 6736   0.185   2.752   2.350  0.0983  0.4526 -2.5869
  452TMC3    H1 6737   4.693   2.537   2.063  0.9835  2.2610 -1.3005
  452TMC3    H2 6738   0.289   2.342   2.269  0.6780  0.4692 -0.5620
  452TMC3    C7 6739   0.134   2.319   2.060 -0.5749  0.3029  0.4256
  452TMC3    C8 6740   0.352   2.542   2.441 -0.3000 -0.7804 -0.1935
  452TMC3    O1 6741   0.223   2.236   2.072 -0.3896 -0.2710  0.2673
  452TMC3    O2 6742   0.406   2.434   2.468  0.1458  0.3667 -0.0583
  453TMC3    C1 6743   1.019   4.120  12.207  0.5216  0.7630 -0.2801
  453TMC3    C2 6744   0.940   4.015  12.219 -0.7948  0.3358 -0.1268
  453TMC3    C3 6745   0.911   3.944  12.103  0.3651 -0.0047 -0.5944
  453TMC3    C4 6746   1.073   4.152  12.083 -0.6073 -0.2451 -0.0310
  453TMC3    C5 6747   1.036   4.085  11.973  0.4755 -0.3711 -0.1260
  453TMC3    C6 6748   0.954   3.977  11.978  0.8102 -0.7069 -0.3866
  453TMC3     C 6749   1.104   4.154  12.320  0.0482 -0.4762 -0.1960
  453TMC3     O 6750   1.149   4.270  12.326  0.3530 -0.1490  0.5468
  453TMC3     H 6751   0.912   3.973  12.315 -0.5055  0.1811 -0.1101
  453TMC3    H1 6752   1.150   4.229  12.081  1.5285 -2.3381  3.1691
  453TMC3    H2 6753   0.920   3.926  11.888  0.5559 -0.4979 -0.4082
  453TMC3    C7 6754   1.116   4.116  11.852 -0.7004  0.0461  0.9977
  453TMC3    C8 6755   0.839   3.813  12.115  0.0934 -0.1430  0.1576
  453TMC3    O1 6756   1.197   4.206  11.852  0.0052  0.1239 -0.2245
  453TMC3    O2 6757   0.752   3.809  12.201  0.0467 -0.0251 -0.8314
  454MPD2     C 6758   0.020   3.493  16.671 -0.0357 -0.3238  0.0517
  454MPD2    C1 6759   4.622   3.504  16.605 -0.5292  0.3472 -0.3162
  454MPD2    C2 6760   4.542   3.609  16.638 -0.4379  0.0314 -0.5472
  454MPD2    C3 6761   4.578   3.704  16.729 -0.2872 -0.5850 -0.2895
  454MPD2    C4 6762   4.706   3.698  16.786 -0.1464 -0.5632 -0.0804
  454MPD2    C5 6763   0.056   3.588  16.764 -0.4009 -0.3548  0.4422
  454MPD2     H 6764   4.461   3.632  16.571 -1.0088  4.1577  1.5794
  454MPD2    H1 6765   0.007   3.771  16.863 -2.3278 -1.8895  1.8724
  454MPD2    H2 6766   0.101   3.422  16.657  0.8997  0.5324  1.0931
  454MPD2    H3 6767   0.152   3.591  16.816 -0.1262 -0.9779 -0.0250
  454MPD2     N 6768   4.493   3.815  16.744  0.0728 -0.0525 -0.0061
  454MPD2    H5 6769   4.525   3.901  16.787 -2.1878  0.6063  0.3802
  454MPD2    N1 6770   4.579   3.427  16.498 -0.3926  0.1519 -0.8123
  454MPD2    H7 6771   4.484   3.441  16.466  0.3410  0.8855 -2.6491
  455TMC3    C1 6772   4.287   3.927  16.739 -0.5095 -0.0941 -0.0657
  455TMC3    C2 6773   4.340   4.049  16.710 -0.1774 -0.2019  0.3703
  455TMC3    C3 6774   4.254   4.144  16.673  0.5537  0.3120 -0.1434
  455TMC3    C4 6775   4.157   3.898  16.736  0.3200 -0.1819  0.1240
  455TMC3    C5 6776   4.077   4.004  16.706 -0.2490 -0.3248  0.0947
  455TMC3    C6 6777   4.121   4.119  16.661  0.2968 -0.8930  0.1931
  455TMC3     C 6778   4.358   3.806  16.713 -0.6822 -0.9190 -0.0496
  455TMC3     O 6779   4.283   3.712  16.686  0.1739 -0.6480 -0.5443
  455TMC3     H 6780   4.446   4.072  16.707 -0.3015  0.0773 -1.6634
  455TMC3    H1 6781   4.110   3.817  16.792 -1.5329  0.5477 -0.3886
  455TMC3    H2 6782   4.046   4.193  16.633 -0.0278 -0.8147  1.2811
  455TMC3    C7 6783   3.956   3.961  16.640  0.2588 -0.1982  0.3321
  455TMC3    C8 6784   4.283   4.273  16.728 -0.4714 -0.5224 -0.6724
  455TMC3    O1 6785   3.862   4.039  16.631 -0.0257 -0.5172  0.1701
  455TMC3    O2 6786   4.369   4.269  16.810 -0.1146  0.1441 -0.6214
  456MPD2     C 6787   2.335   3.554  16.229  0.0579  0.2068 -0.3245
  456MPD2    C1 6788   2.358   3.685  16.197 -0.5461 -0.7632 -0.1716
  456MPD2    C2 6789   2.291   3.777  16.274  0.7728  0.2084 -0.4592
  456MPD2    C3 6790   2.221   3.752  16.391 -0.1074 -0.4271  0.0781
  456MPD2    C4 6791   2.208   3.620  16.422 -0.3940  0.4803 -0.4517
  456MPD2    C5 6792   2.260   3.525  16.338 -0.2601 -0.6698 -0.4351
  456MPD2     H 6793   2.307   3.883  16.256  0.1936  0.6025  1.2979
  456MPD2    H1 6794   2.149   3.585  16.506 -0.2293 -0.2808 -0.6580
  456MPD2    H2 6795   2.385   3.474  16.175 -1.1254  0.4006 -1.7141
  456MPD2    H3 6796   2.256   3.419  16.362  1.5680 -0.6397 -0.0026
  456MPD2     N 6797   2.173   3.855  16.475 -0.2585 -0.2116 -0.4200
  456MPD2    H5 6798   2.171   3.951  16.443  0.0387  0.0146  0.2457
  456MPD2    N1 6799   2.459   3.728  16.103 -0.1926  0.2217 -0.5478
  456MPD2    H7 6800   2.518   3.654  16.068 -1.2169 -1.2536  0.8490
  457TMC3    C1 6801   2.103   3.956  16.678 -0.4877  0.1827 -0.1166
  457TMC3    C2 6802   2.049   4.063  16.609  0.1881  0.2320 -0.0475
  457TMC3    C3 6803   2.015   4.174  16.679 -0.6599  0.0596  0.7677
  457TMC3    C4 6804   2.128   3.955  16.810  0.0197  0.1622 -0.9309
  457TMC3    C5 6805   2.083   4.063  16.876  0.6558  0.3736  0.2598
  457TMC3    C6 6806   2.038   4.175  16.815 -1.0861  0.0559 -0.8201
  457TMC3     C 6807   2.142   3.834  16.608  0.1854 -0.0632  1.0666
  457TMC3     O 6808   2.141   3.733  16.676  0.0918  0.0671 -0.3787
  457TMC3     H 6809   2.002   4.040  16.514  0.1095 -0.5339  0.1820
  457TMC3    H1 6810   2.192   3.877  16.851  0.2815  1.1926  0.5805
  457TMC3    H2 6811   2.014   4.263  16.874  0.3928  0.2547 -0.5263
  457TMC3    C7 6812   2.140   4.088  17.006  1.0631  0.0780 -0.2519
  457TMC3    C8 6813   1.947   4.287  16.613 -0.8512  0.3786 -0.7109
  457TMC3    O1 6814   2.246   4.030  17.032 -0.3079  0.5073  0.0691
  457TMC3    O2 6815   1.896   4.371  16.687 -0.2594 -0.1434  0.8428
  458MPD2     C 6816   4.282   3.479  12.483 -0.8677  1.0626 -0.4556
  458MPD2    C1 6817   4.306   3.417  12.605  1.1894 -0.5311  0.2625
  458MPD2    C2 6818   4.201   3.413  12.693 -0.1069 -0.6562 -0.0716
  458MPD2    C3 6819   4.076   3.470  12.664  0.2368  0.3213  0.5697
  458MPD2    C4 6820   4.053   3.519  12.538 -0.1894  0.5819 -0.2253
  458MPD2    C5 6821   4.156   3.524  12.455 -0.5001 -0.1416  0.3515
  458MPD2     H 6822   4.225   3.392  12.796 -0.3198 -1.0483 -0.0981
  458MPD2    H1 6823   3.957   3.559  12.505  0.2173  1.4718 -0.3301
  458MPD2    H2 6824   4.361   3.498  12.411  1.2699  0.6340  1.8075
  458MPD2    H3 6825   4.146   3.570  12.358 -0.8646 -0.3894  0.2738
  458MPD2     N 6826   3.980   3.467  12.767 -0.2075  0.3066 -0.0440
  458MPD2    H5 6827   4.007   3.404  12.842 -0.1612 -1.1149 -1.2587
  458MPD2    N1 6828   4.443   3.389  12.644  0.2031 -0.2627  0.1778
  458MPD2    H7 6829   4.514   3.410  12.574  0.8420 -3.9335 -0.2821
  459TMC3    C1 6830   4.620   3.314  12.784 -0.4930  0.0687 -0.1214
  459TMC3    C2 6831   4.700   3.415  12.747  0.6582  0.4035 -0.0292
  459TMC3    C3 6832   0.090   3.435  12.802 -0.3295 -0.9372  0.4155
  459TMC3    C4 6833   4.649   3.229  12.883  0.3820  0.1837 -0.6101
  459TMC3    C5 6834   0.049   3.245  12.941  0.2698 -0.4048 -0.3831
  459TMC3    C6 6835   0.131   3.340  12.901  0.3912 -0.1295 -0.1635
  459TMC3     C 6836   4.475   3.317  12.757 -0.1361  0.1868  0.0993
  459TMC3     O 6837   4.400   3.251  12.826  0.4612  0.1817  0.4126
  459TMC3     H 6838   4.655   3.480  12.673 -1.2541 -0.9696 -0.0552
  459TMC3    H1 6839   4.574   3.169  12.933 -0.9689  1.9272 -0.5382
  459TMC3    H2 6840   0.226   3.350  12.952  0.1552  0.6126  0.1288
  459TMC3    C7 6841   0.066   3.173  13.066 -1.0888  0.1504 -0.3251
  459TMC3    C8 6842   0.200   3.501  12.727 -0.0361 -0.4961  0.6589
  459TMC3    O1 6843   0.010   3.064  13.074  0.5987 -0.0038  0.0201
  459TMC3    O2 6844   0.313   3.498  12.767 -0.0322 -0.3000 -0.2590
  460MPD2     C 6845   3.765   0.279  10.743  0.0483 -0.3437 -0.1334
  460MPD2    C1 6846   3.691   0.401  10.740  0.3013 -0.4334  0.2472
  460MPD2    C2 6847   3.649   0.449  10.615  0.4710 -0.5687 -0.3666
  460MPD2    C3 6848   3.681   0.374  10.505  0.1547  0.1863  0.2816
  460MPD2    C4 6849   3.755   0.254  10.517  0.6646  0.1702 -0.3034
  460MPD2    C5 6850   3.806   0.213  10.636  0.4017 -0.2822 -0.6543
  460MPD2     H 6851   3.593   0.540  10.597  1.7418  0.1362 -0.7874
  460MPD2    H1 6852   3.771   0.184  10.435  1.9323  0.4571 -0.3050
  460MPD2    H2 6853   3.788   0.245  10.843  1.2656 -0.4721 -0.4603
  460MPD2    H3 6854   3.871   0.127  10.641  1.3517  0.4384 -0.6669
  460MPD2     N 6855   3.636   0.427  10.383 -0.3842 -0.5250 -0.2224
  460MPD2    H5 6856   3.599   0.521  10.381 -2.2121 -1.2218 -0.1815
  460MPD2    N1 6857   3.658   0.460  10.858  0.5089  0.7182  0.2932
  460MPD2    H7 6858   3.706   0.425  10.940 -0.8607  2.1536  1.7191
  461TMC3    C1 6859   3.556   0.421  10.158  0.0406  0.0022  0.0926
  461TMC3    C2 6860   3.482   0.348  10.070  0.1316  0.1274  0.0697
  461TMC3    C3 6861   3.452   0.399   9.949  0.3649 -0.0077 -0.1907
  461TMC3    C4 6862   3.597   0.547  10.127  0.1112 -0.5136 -0.2702
  461TMC3    C5 6863   3.561   0.599  10.011  0.0166  0.0614 -0.0957
  461TMC3    C6 6864   3.491   0.526   9.918  0.0815  0.3630 -0.2920
  461TMC3     C 6865   3.617   0.354  10.265 -0.2716  1.0423 -0.0478
  461TMC3     O 6866   3.611   0.231  10.254 -0.1335 -0.3944  0.5356
  461TMC3     H 6867   3.448   0.249  10.098 -0.0722  0.6755  1.7520
  461TMC3    H1 6868   3.670   0.590  10.195  2.6189 -0.6957 -2.8652
  461TMC3    H2 6869   3.496   0.560   9.816  1.6666 -2.5083 -1.1809
  461TMC3    C7 6870   3.597   0.730   9.960  0.0083  0.1370 -0.2831
  461TMC3    C8 6871   3.477   0.312   9.837 -0.6204 -0.2793 -0.1615
  461TMC3    O1 6872   3.549   0.788   9.866 -0.4781 -0.2563  0.0887
  461TMC3    O2 6873   3.538   0.204   9.860 -0.3920  0.2035  0.3151
  462TMC3    C1 6874   3.723   2.403   0.759 -0.5095  0.0415 -0.3098
  462TMC3    C2 6875   3.856   2.400   0.770  0.6462 -0.2837  0.1645
  462TMC3    C3 6876   3.916   2.281   0.747  0.3209  0.2391  0.8420
  462TMC3    C4 6877   3.649   2.291   0.714  0.0353  0.5335 -0.2134
  462TMC3    C5 6878   3.715   2.169   0.701 -0.1110  0.1165  0.2299
  462TMC3    C6 6879   3.848   2.167   0.716 -0.2388 -0.0214 -0.0073
  462TMC3     C 6880   3.648   2.524   0.792  1.0532 -0.0301  0.7752
  462TMC3     O 6881   3.536   2.527   0.751 -0.8692  0.2621  0.1041
  462TMC3     H 6882   3.909   2.491   0.798  1.5735 -1.1737  1.3125
  462TMC3    H1 6883   3.541   2.287   0.703  0.3151 -2.4453 -1.9392
  462TMC3    H2 6884   3.901   2.075   0.739  0.5125  0.2191 -0.8111
  462TMC3    C7 6885   3.655   2.067   0.624 -0.0480 -0.2283 -0.1271
  462TMC3    C8 6886   4.064   2.271   0.771  0.4586 -0.4072 -0.8204
  462TMC3    O1 6887   3.532   2.070   0.604  0.1013 -0.3531 -0.3559
  462TMC3    O2 6888   4.126   2.364   0.824 -0.0732 -0.0156 -0.1332
  463MPD2     C 6889   0.060   0.026   2.003  0.0763  0.2305  0.1667
  463MPD2    C1 6890   0.099   0.158   2.005 -0.4512  0.2501  0.2352
  463MPD2    C2 6891   0.232   0.201   2.013 -0.1661  0.0667  0.6406
  463MPD2    C3 6892   0.331   0.104   2.014 -0.0050 -1.0024  0.8158
  463MPD2    C4 6893   0.291   4.695   2.011  0.2091 -0.2073 -0.1045
  463MPD2    C5 6894   0.156   4.658   2.001  0.0706 -0.1922  0.1265
  463MPD2     H 6895   0.250   0.307   2.002 -1.2943  0.2302  0.4076
  463MPD2    H1 6896   0.365   4.616   2.004  0.6225  0.3046 -1.6053
  463MPD2    H2 6897   4.683   4.713   2.000  0.3744 -0.8311  3.1885
  463MPD2    H3 6898   0.126   4.554   2.003 -0.3849 -0.0915 -1.2994
  463MPD2     N 6899   0.471   0.124   2.015  0.1280  0.0093 -0.4027
  463MPD2    H5 6900   0.529   0.051   2.055  0.9314  0.7689 -0.1800
  463MPD2    N1 6901   0.001   0.261   2.025  0.0725 -0.2791  0.0439
  463MPD2    H7 6902   0.036   0.356   2.030 -1.7510  0.5540 -2.4977
  464TMC3    C1 6903   4.522   0.367   2.061 -0.2499  0.0108 -0.2057
  464TMC3    C2 6904   4.565   0.485   2.007  0.2264 -0.3534  0.2027
  464TMC3    C3 6905   4.494   0.602   2.034 -0.1175 -0.7531  0.3272
  464TMC3    C4 6906   4.400   0.361   2.125  0.1783 -0.0549 -0.4700
  464TMC3    C5 6907   4.332   0.478   2.144 -0.5474 -0.1587 -1.1866
  464TMC3    C6 6908   4.377   0.607   2.107  0.5597 -0.0535  0.2062
  464TMC3     C 6909   4.589   0.239   2.048 -0.0799  0.5432  0.2208
  464TMC3     O 6910   4.522   0.136   2.069  0.0233  0.2954  0.3115
  464TMC3     H 6911   4.659   0.497   1.954  1.3692  0.6331  2.4355
  464TMC3    H1 6912   4.360   0.272   2.171 -1.6450 -0.2533 -2.4646
  464TMC3    H2 6913   4.317   0.695   2.125  1.5742  0.3029  1.8925
  464TMC3    C7 6914   4.195   0.464   2.196  0.4104 -0.3743 -0.3100
  464TMC3    C8 6915   4.539   0.727   1.976 -0.1114  0.0155  0.0724
  464TMC3    O1 6916   4.149   0.543   2.275  0.1875 -0.0477 -0.2106
  464TMC3    O2 6917   4.631   0.713   1.896 -0.1991 -0.0574 -0.4126
  465MPD2     C 6918   0.854   3.646  16.005  0.1880 -0.1257 -0.5051
  465MPD2    C1 6919   0.885   3.655  16.134  0.1653  0.0915 -0.7372
  465MPD2    C2 6920   0.833   3.751  16.214 -0.0197  0.4229 -0.0427
  465MPD2    C3 6921   0.740   3.841  16.159 -0.1938  0.0885 -0.0136
  465MPD2    C4 6922   0.694   3.827  16.035 -0.9866 -0.1366 -0.0486
  465MPD2    C5 6923   0.757   3.726  15.962 -0.6273 -0.6520 -0.6375
  465MPD2     H 6924   0.876   3.759  16.313  1.9995  0.0998 -0.8951
  465MPD2    H1 6925   0.620   3.881  15.976 -0.7600 -0.6120 -0.7691
  465MPD2    H2 6926   0.892   3.567  15.941  1.2554 -1.2777  1.5523
  465MPD2    H3 6927   0.720   3.712  15.861  0.5975  0.4247 -1.2274
  465MPD2     N 6928   0.708   3.949  16.245  0.6466  0.7401  0.7701
  465MPD2    H5 6929   0.751   3.945  16.337  3.1773  0.1308 -0.4228
  465MPD2    N1 6930   0.978   3.571  16.193 -0.7315 -0.0690  0.1897
  465MPD2    H7 6931   0.996   3.583  16.292 -0.6915  0.7023  0.0915
  466TMC3    C1 6932   0.470   4.292  16.438  0.3344  0.6977  0.3577
  466TMC3    C2 6933   0.592   4.361  16.464  0.1867  0.2389 -0.0906
  466TMC3    C3 6934   0.710   4.311  16.421 -0.5330  0.6460  0.5706
  466TMC3    C4 6935   0.469   4.188  16.344  0.2201 -0.7870 -0.1625
  466TMC3    C5 6936   0.595   4.145  16.310  0.3515  0.2423 -0.3215
  466TMC3    C6 6937   0.710   4.212  16.334  0.2837  0.2839  0.5388
  466TMC3     C 6938   0.352   4.337  16.499  0.6334  0.0417  0.5010
  466TMC3     O 6939   0.362   4.403  16.602  0.0646 -0.0495  0.6183
  466TMC3     H 6940   0.594   4.443  16.535 -0.9037  0.5384 -0.4143
  466TMC3    H1 6941   0.389   4.123  16.313 -0.6660  0.1770  0.0879
  466TMC3    H2 6942   0.795   4.183  16.273  0.8012  0.8289  0.9931
  466TMC3    C7 6943   0.610   4.041  16.210  0.4197 -0.1058 -0.0236
  466TMC3    C8 6944   0.839   4.374  16.456  0.3101 -0.1359  0.1374
  466TMC3    O1 6945   0.546   4.060  16.109 -0.0268  0.2884  0.1705
  466TMC3    O2 6946   0.941   4.345  16.384 -0.3503  0.1935 -0.2400
  467TMC3    C1 6947   2.065   2.690  14.088  0.2446  0.6848  0.3317
  467TMC3    C2 6948   2.012   2.713  13.963  0.5128  0.3000 -0.6668
  467TMC3    C3 6949   1.920   2.630  13.920  0.1593 -0.6208 -0.0557
  467TMC3    C4 6950   2.010   2.594  14.169  0.0628  0.3681  0.0235
  467TMC3    C5 6951   1.910   2.512  14.116 -0.3688  0.1122 -0.0071
  467TMC3    C6 6952   1.857   2.534  13.992 -0.2584 -0.2310 -0.0501
  467TMC3     C 6953   2.148   2.786  14.156 -0.1204  0.1721  0.3953
  467TMC3     O 6954   2.206   2.750  14.256  0.7781 -0.6871  0.5079
  467TMC3     H 6955   2.062   2.781  13.895 -0.7948  0.8636 -1.0798
  467TMC3    H1 6956   2.043   2.572  14.270 -2.2790 -0.2881  0.6550
  467TMC3    H2 6957   1.774   2.481  13.945  0.8782 -0.7914 -1.4192
  467TMC3    C7 6958   1.834   2.427  14.210  0.3515 -0.3830  0.0681
  467TMC3    C8 6959   1.839   2.681  13.816 -0.2816  0.8392 -0.3259
  467TMC3    O1 6960   1.909   2.382  14.292 -0.6880  0.2362 -0.2785
  467TMC3    O2 6961   1.812   2.800  13.791 -0.6621 -0.1670 -0.1513
  468MPD2     C 6962   0.668   0.363  11.339  0.2868  0.0270  0.6277
  468MPD2    C1 6963   0.795   0.316  11.331  0.0809  0.8511 -0.0105
  468MPD2    C2 6964   0.827   0.182  11.310 -0.0217  0.2534  0.9038
  468MPD2    C3 6965   0.725   0.088  11.304 -0.4846  0.0883  0.0683
  468MPD2    C4 6966   0.601   0.135  11.313  0.2932  1.0084  0.2323
  468MPD2    C5 6967   0.570   0.267  11.335 -0.0383 -0.9094 -0.3488
  468MPD2     H 6968   0.930   0.148  11.301  0.7821  3.2191 -1.3128
  468MPD2    H1 6969   0.520   0.062  11.308  0.7122  0.5245  0.5265
  468MPD2    H2 6970   0.642   0.466  11.360 -0.1358 -0.3557  1.9889
  468MPD2    H3 6971   0.467   0.291  11.359  0.2744 -0.2847  0.3754
  468MPD2     N 6972   0.746   4.678  11.275  0.6856  0.1220 -0.4813
  468MPD2    H5 6973   0.660   4.627  11.256 -1.4897  4.1322 -1.3134
  468MPD2    N1 6974   0.904   0.399  11.342 -0.1534  0.2626  0.1600
  468MPD2    H7 6975   0.994   0.352  11.333 -0.2656  0.3329 -1.2323
  469TMC3    C1 6976   1.018   0.606  11.355  0.5502  0.6989  0.0638
  469TMC3    C2 6977   1.143   0.546  11.348 -0.3246 -0.6183  0.3582
  469TMC3    C3 6978   1.253   0.620  11.365 -0.1008  0.3550 -0.0631
  469TMC3    C4 6979   1.002   0.739  11.367 -0.2594  0.1701 -0.1804
  469TMC3    C5 6980   1.117   0.814  11.366  0.1990  0.0327 -0.6339
  469TMC3    C6 6981   1.244   0.755  11.366  0.3888 -0.3064  1.1695
  469TMC3     C 6982   0.900   0.531  11.385  0.5256 -0.7204 -0.1665
  469TMC3     O 6983   0.809   0.602  11.425  0.1655  0.0292 -0.0271
  469TMC3     H 6984   1.152   0.438  11.349  0.9902 -0.4941  1.5995
  469TMC3    H1 6985   0.906   0.790  11.368  0.5492  1.7141 -1.3778
  469TMC3    H2 6986   1.336   0.813  11.373  0.9987 -1.5680  3.4403
  469TMC3    C7 6987   1.117   0.960  11.372  0.2245  0.1964  0.1796
  469TMC3    C8 6988   1.374   0.558  11.422 -0.3140 -0.3879 -0.4379
  469TMC3    O1 6989   1.218   1.012  11.325 -0.2720 -0.0939  0.2418
  469TMC3    O2 6990   1.384   0.439  11.407 -0.6571 -0.1232 -0.6305
  470TMC3    C1 6991   3.396   2.578   1.141  0.4933  0.0763  0.1554
  470TMC3    C2 6992   3.331   2.700   1.163 -0.0587  0.1267  0.3005
  470TMC3    C3 6993   3.378   2.779   1.268 -0.2716 -0.2066 -0.0038
  470TMC3    C4 6994   3.515   2.542   1.193 -0.6792 -0.1975  0.0861
  470TMC3    C5 6995   3.555   2.624   1.299  0.5743  0.3257  0.9784
  470TMC3    C6 6996   3.493   2.738   1.339  0.6953 -0.6686  0.5954
  470TMC3     C 6997   3.326   2.491   1.044 -0.5328  0.3969 -0.5853
  470TMC3     O 6998   3.262   2.554   0.957 -0.3533 -0.4806 -0.4071
  470TMC3     H 6999   3.237   2.725   1.116  0.2343 -1.2928 -1.0599
  470TMC3    H1 7000   3.564   2.448   1.169 -1.7158 -0.0978 -2.4313
  470TMC3    H2 7001   3.530   2.806   1.415 -0.5442 -1.4450  1.8892
  470TMC3    C7 7002   3.641   2.554   1.381 -0.9307  0.3721  0.1454
  470TMC3    C8 7003   3.322   2.905   1.306 -0.7205 -0.1570  0.3059
  470TMC3    O1 7004   3.742   2.504   1.326 -0.0417  0.2634  0.1038
  470TMC3    O2 7005   3.357   2.960   1.411  0.2009 -0.2742  0.1482
  471MPD2     C 7006   4.094   3.329  16.576 -0.0197 -0.3987 -0.5399
  471MPD2    C1 7007   4.092   3.193  16.569  0.6463  0.8553  0.1444
  471MPD2    C2 7008   4.198   3.115  16.610 -0.0839 -0.0975 -0.5864
  471MPD2    C3 7009   4.310   3.178  16.677  0.2781 -0.9416 -0.6040
  471MPD2    C4 7010   4.303   3.317  16.692  0.0691  0.3189  0.6267
  471MPD2    C5 7011   4.198   3.391  16.645 -0.3654  0.5442 -0.0446
  471MPD2     H 7012   4.183   3.008  16.603  1.3923 -0.3365  0.0887
  471MPD2    H1 7013   4.384   3.373  16.736  0.6190 -0.0132  0.0252
  471MPD2    H2 7014   4.006   3.389  16.558  0.3545  0.4749  0.4853
  471MPD2    H3 7015   4.188   3.495  16.673  0.7684  0.6370 -0.0198
  471MPD2     N 7016   4.421   3.105  16.728 -0.1267  0.1930  0.3904
  471MPD2    H5 7017   4.476   3.158  16.795 -1.1989  2.1401 -0.2563
  471MPD2    N1 7018   3.987   3.122  16.508  0.3761  0.9521 -0.1370
  471MPD2    H7 7019   4.003   3.022  16.496 -0.8933  0.6543  0.6535
  472TMC3    C1 7020   3.770   3.063  16.425  0.3668  0.0092  0.2389
  472TMC3    C2 7021   3.638   3.092  16.448  0.0883  0.1132  0.4213
  472TMC3    C3 7022   3.555   2.988  16.474 -0.0457 -0.0414  0.2342
  472TMC3    C4 7023   3.820   2.934  16.426  0.3584  0.3142  0.1337
  472TMC3    C5 7024   3.728   2.828  16.441 -0.6921  0.6768  0.1679
  472TMC3    C6 7025   3.599   2.858  16.477 -0.8208  0.4824  0.2264
  472TMC3     C 7026   3.860   3.167  16.475  0.8104 -0.4298  0.6700
  472TMC3     O 7027   3.808   3.278  16.491 -0.1338  0.5926 -0.0662
  472TMC3     H 7028   3.602   3.194  16.458  0.3721  0.1778  0.7867
  472TMC3    H1 7029   3.923   2.910  16.403  0.2591  0.9628 -0.9696
  472TMC3    H2 7030   3.539   2.772  16.503  0.2514 -0.2556  0.2086
  472TMC3    C7 7031   3.775   2.705  16.479  0.2531 -0.0876  0.1882
  472TMC3    C8 7032   3.413   3.015  16.514  0.4215  0.3479  0.0810
  472TMC3    O1 7033   3.719   2.646  16.572 -0.5569 -0.0497 -0.0349
  472TMC3    O2 7034   3.370   3.129  16.505 -0.3650 -0.9346  0.0397
  473MPD2     C 7035   3.116   0.432  14.241 -0.2045  0.7132  0.2610
  473MPD2    C1 7036   3.206   0.482  14.149  0.5012  0.6062  0.5603
  473MPD2    C2 7037   3.307   0.572  14.189  0.2664  0.2784 -0.2409
  473MPD2    C3 7038   3.315   0.623  14.314 -0.1907 -0.3750  0.7697
  473MPD2    C4 7039   3.223   0.574  14.407 -0.7715  0.7142  0.0870
  473MPD2    C5 7040   3.126   0.479  14.368 -0.2855 -0.2460  0.1725
  473MPD2     H 7041   3.385   0.602  14.119  1.7430  1.6957  2.0232
  473MPD2    H1 7042   3.242   0.586  14.512 -4.3512 -1.0024  0.9427
  473MPD2    H2 7043   3.043   0.354  14.226 -1.2029  1.7208 -0.1632
  473MPD2    H3 7044   3.059   0.438  14.442 -0.3005 -0.2179  0.1744
  473MPD2     N 7045   3.420   0.712  14.350 -0.1626 -0.4721 -0.4880
  473MPD2    H5 7046   3.437   0.724  14.449 -2.8179  0.0465 -0.1080
  473MPD2    N1 7047   3.206   0.438  14.014 -0.0510  0.5111 -0.0041
  473MPD2    H7 7048   3.280   0.472  13.954  0.4786 -0.7066 -0.0487
  474TMC3    C1 7049   3.615   0.831  14.317 -0.6315  0.9512 -0.2914
  474TMC3    C2 7050   3.685   0.921  14.246  0.1087 -0.0478 -0.2386
  474TMC3    C3 7051   3.817   0.949  14.280  0.6563  0.2338  0.3927
  474TMC3    C4 7052   3.687   0.755  14.406 -0.1549 -0.2993  0.7705
  474TMC3    C5 7053   3.814   0.780  14.443 -0.1275  1.3199  0.4693
  474TMC3    C6 7054   3.876   0.888  14.385  0.2901  0.2984 -0.2168
  474TMC3     C 7055   3.502   0.777  14.260 -0.4845 -0.0333 -0.0120
  474TMC3     O 7056   3.461   0.825  14.153 -0.1395 -0.0514 -0.2273
  474TMC3     H 7057   3.641   0.969  14.160 -0.4684  1.9228  1.1425
  474TMC3    H1 7058   3.636   0.672  14.454  0.2604 -0.8648  0.2450
  474TMC3    H2 7059   3.977   0.902  14.422 -0.5381  0.9991  1.7878
  474TMC3    C7 7060   3.860   0.704  14.558  0.1654  0.0093  0.8757
  474TMC3    C8 7061   3.906   0.976  14.175 -0.0047 -0.2844 -0.3412
  474TMC3    O1 7062   3.833   0.585  14.566 -0.6151  0.3974 -0.6143
  474TMC3    O2 7063   3.877   0.945  14.056 -0.1887 -0.7471 -0.2078
  475MPD2     C 7064   2.592   2.923   9.888  0.0906 -0.7864  0.5000
  475MPD2    C1 7065   2.647   2.940   9.767  0.7349  0.2546  0.2233
  475MPD2    C2 7066   2.571   2.900   9.656  0.0422  0.3323  0.9275
  475MPD2    C3 7067   2.466   2.818   9.672 -0.8931 -0.5571  1.3168
  475MPD2    C4 7068   2.418   2.789   9.798 -0.0005 -0.6282 -0.4114
  475MPD2    C5 7069   2.476   2.855   9.908 -0.4431  0.4932 -0.2170
  475MPD2     H 7070   2.605   2.912   9.554  0.1272 -1.6631  0.7255
  475MPD2    H1 7071   2.332   2.727   9.818 -0.0087 -0.8129 -1.0092
  475MPD2    H2 7072   2.650   2.953   9.975  1.9901 -0.6467 -0.8180
  475MPD2    H3 7073   2.440   2.821  10.004  1.9607  0.9825  0.8499
  475MPD2     N 7074   2.418   2.761   9.551 -0.5250 -0.0596 -0.4754
  475MPD2    H5 7075   2.476   2.793   9.474 -0.0158  2.4779  0.9407
  475MPD2    N1 7076   2.770   3.004   9.752 -0.6532 -0.6193 -0.2022
  475MPD2    H7 7077   2.811   3.041   9.837 -0.3978 -1.6497  0.1291
  476TMC3    C1 7078   2.987   3.041   9.681 -0.0376  0.3678 -0.1033
  476TMC3    C2 7079   3.084   2.975   9.617 -0.4479 -0.1105 -0.3037
  476TMC3    C3 7080   3.214   3.007   9.640  0.3975  0.1109  0.7133
  476TMC3    C4 7081   3.005   3.158   9.753  0.6482  0.2807 -1.0419
  476TMC3    C5 7082   3.137   3.194   9.757  0.6215 -0.4168  0.2665
  476TMC3    C6 7083   3.241   3.119   9.713 -0.6348  0.3394  0.2688
  476TMC3     C 7084   2.850   3.000   9.649 -0.0529 -0.1291 -0.1711
  476TMC3     O 7085   2.835   2.940   9.545  0.5647  0.3142  0.4655
  476TMC3     H 7086   3.058   2.911   9.534  0.8119  0.3007 -1.0120
  476TMC3    H1 7087   2.928   3.218   9.799  1.7597  1.0179 -0.1411
  476TMC3    H2 7088   3.347   3.142   9.721 -0.5453  0.5422 -1.4577
  476TMC3    C7 7089   3.155   3.324   9.822  0.0189 -1.0853 -1.0186
  476TMC3    C8 7090   3.319   2.942   9.560 -0.1582 -0.1491 -0.1016
  476TMC3    O1 7091   3.062   3.384   9.876  0.2159 -0.6527 -0.1871
  476TMC3    O2 7092   3.431   2.990   9.551  0.3728  0.0579  0.4386
  477MPD2     C 7093   3.781   4.449  11.554 -0.7357 -0.6798 -0.4596
  477MPD2    C1 7094   3.751   4.505  11.673 -0.5629  0.5575  0.5887
  477MPD2    C2 7095   3.816   4.473  11.789 -0.4156  0.6052 -0.0099
  477MPD2    C3 7096   3.912   4.372  11.781  0.1888  0.0764  0.5964
  477MPD2    C4 7097   3.942   4.312  11.655  0.0843  1.0168 -0.3898
  477MPD2    C5 7098   3.875   4.355  11.543 -0.3443 -0.9007  0.5418
  477MPD2     H 7099   3.807   4.524  11.884 -1.4860 -0.7125  0.5946
  477MPD2    H1 7100   3.997   4.221  11.637  0.0267  0.6807  1.1417
  477MPD2    H2 7101   3.748   4.493  11.460 -0.5859  1.8051  0.6353
  477MPD2    H3 7102   3.901   4.312  11.447  1.9258  0.2043  0.6655
  477MPD2     N 7103   3.982   4.351  11.899 -0.5982 -0.2756  0.0523
  477MPD2    H5 7104   3.961   4.411  11.978  1.0230  0.7554 -0.3023
  477MPD2    N1 7105   3.649   4.600  11.674 -0.5005 -0.3405 -0.1432
  477MPD2    H7 7106   3.605   4.621  11.584 -1.1833 -2.8973 -0.3891
  478TMC3    C1 7107   3.485   0.014  11.728  0.6591  0.3064  0.2673
  478TMC3    C2 7108   3.474   0.131  11.793 -0.6933 -0.1164  0.3827
  478TMC3    C3 7109   3.437   0.246  11.727  0.6751 -0.7321 -0.3844
  478TMC3    C4 7110   3.452   0.003  11.596 -0.3773  0.5735  0.5894
  478TMC3    C5 7111   3.418   0.116  11.528 -0.0770  0.7903  0.1678
  478TMC3    C6 7112   3.403   0.239  11.589 -0.5937  0.2636  0.5289
  478TMC3     C 7113   3.594   4.663  11.782 -0.0060 -0.2111 -0.1671
  478TMC3     O 7114   3.607   4.654  11.905 -0.3235  0.0749  0.2238
  478TMC3     H 7115   3.499   0.137  11.898  4.2783 -0.8687 -0.7423
  478TMC3    H1 7116   3.468   4.632  11.545  0.5474  0.6662  0.7142
  478TMC3    H2 7117   3.372   0.326  11.532 -1.8095 -0.8500 -0.5032
  478TMC3    C7 7118   3.415   0.117  11.377 -0.0234  0.3695 -0.2066
  478TMC3    C8 7119   3.434   0.368  11.809  0.6811 -0.4904 -0.2098
  478TMC3    O1 7120   3.452   0.223  11.326  0.4938  0.4816  0.6548
  478TMC3    O2 7121   3.473   0.359  11.924 -0.1913  0.2687  0.0663
  479MPD2     C 7122   3.778   2.512  15.318 -0.2171  1.0007 -0.6144
  479MPD2    C1 7123   3.712   2.488  15.437  0.0752  0.0531  0.0241
  479MPD2    C2 7124   3.766   2.532  15.558 -0.4702 -0.0749 -0.4415
  479MPD2    C3 7125   3.865   2.624  15.545  0.0824 -0.4031  0.0964
  479MPD2    C4 7126   3.939   2.635  15.428  0.3931  0.5903 -0.1659
  479MPD2    C5 7127   3.899   2.572  15.315  0.1826  0.4683 -0.5959
  479MPD2     H 7128   3.731   2.497  15.654  1.0816  1.6451  0.7484
  479MPD2    H1 7129   4.027   2.697  15.416  0.5760  0.1627 -1.0854
  479MPD2    H2 7130   3.743   2.478  15.222 -0.9761 -2.0552  0.7316
  479MPD2    H3 7131   3.945   2.602  15.222  1.1905  3.1994  0.7880
  479MPD2     N 7132   3.915   2.704  15.657  0.1270 -0.0575 -0.7428
  479MPD2    H5 7133   3.996   2.760  15.633  0.2461  0.3571  0.6196
  479MPD2    N1 7134   3.593   2.416  15.431  0.7996  0.0215  0.4576
  479MPD2    H7 7135   3.568   2.381  15.339  0.4209 -0.1537  0.6261
  480TMC3    C1 7136   3.610   2.640  16.007  0.1129 -0.4858 -0.3190
  480TMC3    C2 7137   3.499   2.687  15.951  0.6403  0.5981  0.5357
  480TMC3    C3 7138   3.512   2.723  15.821  0.5279 -0.1739  0.0812
  480TMC3    C4 7139   3.726   2.630  15.946  0.5565  0.2537  0.2922
  480TMC3    C5 7140   3.741   2.685  15.823  0.6512 -0.6674  0.4778
  480TMC3    C6 7141   3.634   2.744  15.756 -0.4981  0.4451 -0.4822
  480TMC3     C 7142   3.595   2.562  16.129 -0.5064  0.0749  0.0050
  480TMC3     O 7143   3.658   2.461  16.138  0.1009 -0.5884  0.4142
  480TMC3     H 7144   3.402   2.683  16.000 -0.3905  2.5728 -1.3479
  480TMC3    H1 7145   3.802   2.574  15.999  0.1064 -0.2989  0.3619
  480TMC3    H2 7146   3.641   2.802  15.664 -0.2289  2.2650  0.6785
  480TMC3    C7 7147   3.883   2.702  15.790  0.4733  0.0734  0.1330
  480TMC3    C8 7148   3.396   2.680  15.740 -0.4352 -0.5724  0.5055
  480TMC3    O1 7149   3.960   2.736  15.878 -0.6300 -0.4537  0.2642
  480TMC3    O2 7150   3.300   2.640  15.807 -0.4689  0.6762  0.0770
  481MPD2     C 7151   0.433   1.472  13.992  1.1072 -0.3211 -0.1006
  481MPD2    C1 7152   0.333   1.543  14.045 -0.0277  0.1622  0.1237
  481MPD2    C2 7153   0.320   1.539  14.183 -0.6132 -0.4302  0.0278
  481MPD2    C3 7154   0.402   1.465  14.266  0.3082 -0.0253 -0.0843
  481MPD2    C4 7155   0.514   1.398  14.209 -0.1867 -0.1780 -0.3710
  481MPD2    C5 7156   0.530   1.413  14.075 -0.1963  0.6750 -0.0892
  481MPD2     H 7157   0.235   1.594  14.222 -0.9335 -1.4732  0.7850
  481MPD2    H1 7158   0.589   1.348  14.269 -1.2718 -0.4087  0.7988
  481MPD2    H2 7159   0.443   1.473  13.884 -0.8829 -1.3542 -0.3045
  481MPD2    H3 7160   0.623   1.372  14.036 -1.2583 -2.7357  0.8795
  481MPD2     N 7161   0.385   1.460  14.403 -0.1828 -0.1089  0.3405
  481MPD2    H5 7162   0.454   1.402  14.450 -0.6138 -0.5678  0.4114
  481MPD2    N1 7163   0.234   1.601  13.959  0.1254 -1.1446  0.0483
  481MPD2    H7 7164   0.237   1.570  13.863  1.2009 -2.5526  0.5332
  482TMC3    C1 7165   0.062   1.738  13.897  0.1145  0.8005 -0.1646
  482TMC3    C2 7166   4.717   1.636  13.843  0.1351  0.4134  0.1413
  482TMC3    C3 7167   4.597   1.659  13.778 -0.9214 -0.4488  0.5383
  482TMC3    C4 7168   4.723   1.856  13.907 -0.5046 -0.1279  0.0624
  482TMC3    C5 7169   4.607   1.883  13.835 -0.6519  0.4650  0.4613
  482TMC3    C6 7170   4.557   1.789  13.757  0.3691  0.1676  0.3490
  482TMC3     C 7171   0.152   1.701  14.002 -0.1570  0.8863  0.0997
  482TMC3     O 7172   0.170   1.777  14.098  0.2165 -0.3017 -0.3165
  482TMC3     H 7173   0.026   1.533  13.850  1.3602  0.8428  0.6650
  482TMC3    H1 7174   0.039   1.939  13.965  0.9715 -1.0818  0.4256
  482TMC3    H2 7175   4.471   1.814  13.696  0.4141  0.5781  0.4541
  482TMC3    C7 7176   4.546   2.013  13.849 -0.4151 -0.2491  0.5888
  482TMC3    C8 7177   4.544   1.542  13.710  0.2245 -0.1608  0.2672
  482TMC3    O1 7178   4.570   2.076  13.952 -0.0221  0.7697  0.1178
  482TMC3    O2 7179   4.623   1.446  13.702 -0.4836  0.2653 -0.1466
  483TMC3    C1 7180   2.401   0.679   0.887  0.4730 -0.1494  1.1757
  483TMC3    C2 7181   2.463   0.797   0.857 -0.3241  0.0081  0.3457
  483TMC3    C3 7182   2.572   0.831   0.929  0.4465 -0.6756  0.1328
  483TMC3    C4 7183   2.449   0.588   0.980 -0.2861 -0.3164  0.0956
  483TMC3    C5 7184   2.554   0.626   1.049  0.6841  0.0289 -0.3881
  483TMC3    C6 7185   2.621   0.747   1.021  0.0320  0.4870  0.2013
  483TMC3     C 7186   2.256   0.668   0.851  0.1645 -0.5793 -0.3443
  483TMC3     O 7187   2.190   0.769   0.823  0.6528 -0.7098 -0.3605
  483TMC3     H 7188   2.406   0.855   0.785 -0.8415 -0.0195  0.7359
  483TMC3    H1 7189   2.397   0.501   1.018 -0.3180 -0.5797 -0.5461
  483TMC3    H2 7190   2.720   0.760   1.062  0.0160  1.3734 -0.0533
  483TMC3    C7 7191   2.635   0.538   1.133  0.0688  0.0810 -0.6710
  483TMC3    C8 7192   2.643   0.950   0.876 -0.3462  0.0487 -0.5528
  483TMC3    O1 7193   2.718   0.583   1.211 -0.3377  0.1465  0.9673
  483TMC3    O2 7194   2.613   1.000   0.765 -0.1156  0.2235 -0.2344
  484MPD2     C 7195   0.185   3.688  12.414 -0.4149  0.9539 -0.2109
  484MPD2    C1 7196   0.237   3.603  12.502 -0.4596 -0.3674 -0.2429
  484MPD2    C2 7197   0.374   3.569  12.483 -0.7497  0.3235  0.6375
  484MPD2    C3 7198   0.454   3.623  12.382  0.2931 -0.5479 -0.2550
  484MPD2    C4 7199   0.405   3.723  12.309 -0.1972 -0.2018  0.0117
  484MPD2    C5 7200   0.269   3.750  12.323  1.1930 -0.8041 -0.3149
  484MPD2     H 7201   0.421   3.490  12.541 -0.6523 -0.4611 -0.4993
  484MPD2    H1 7202   0.455   3.785  12.236  2.2515 -1.2529  0.8269
  484MPD2    H2 7203   0.079   3.709  12.423 -0.1461  2.0525  0.4110
  484MPD2    H3 7204   0.219   3.821  12.258 -1.1886 -0.7239  1.6155
  484MPD2     N 7205   0.594   3.595  12.369  0.1686 -0.3892 -0.1113
  484MPD2    H5 7206   0.659   3.649  12.312  0.3482  1.1208  1.5200
  484MPD2    N1 7207   0.155   3.551  12.604 -0.0419 -0.7965 -0.1606
  484MPD2    H7 7208   0.056   3.572  12.605 -0.5970 -3.3009 -3.3342
  485TMC3    C1 7209   0.796   3.462  12.385 -0.0785 -0.0735 -0.4744
  485TMC3    C2 7210   0.848   3.339  12.373 -0.5887 -0.1918 -0.3050
  485TMC3    C3 7211   0.980   3.332  12.378  0.6465  0.5215 -0.3466
  485TMC3    C4 7212   0.871   3.572  12.397 -0.2027  0.4675  0.6086
  485TMC3    C5 7213   1.009   3.560  12.401 -0.1829  0.4656 -0.3726
  485TMC3    C6 7214   1.069   3.437  12.402  0.1603 -0.0207  0.9740
  485TMC3     C 7215   0.651   3.468  12.390  0.4954  0.1696 -0.2544
  485TMC3     O 7216   0.596   3.359  12.425 -0.1619 -0.1607 -0.2844
  485TMC3     H 7217   0.783   3.255  12.347 -2.1194  1.2365 -1.1046
  485TMC3    H1 7218   0.823   3.669  12.395 -0.3197  0.3734 -0.8600
  485TMC3    H2 7219   1.175   3.438  12.423 -0.3365 -3.2099  3.7093
  485TMC3    C7 7220   1.086   3.656  12.314 -0.3523  0.2067 -0.1793
  485TMC3    C8 7221   1.053   3.242  12.296  0.1993  0.3516 -0.2682
  485TMC3    O1 7222   1.073   3.777  12.328 -0.3172 -0.0215  0.4525
  485TMC3    O2 7223   1.157   3.285  12.258 -0.2382 -0.2822  0.0266
  486MPD2     C 7224   2.700   2.090  13.177 -0.3670  0.4333  0.7365
  486MPD2    C1 7225   2.755   2.144  13.062 -0.0664 -0.0414  0.9502
  486MPD2    C2 7226   2.712   2.271  13.024 -0.5008 -0.1789  0.7228
  486MPD2    C3 7227   2.611   2.334  13.087 -0.2086  0.0740 -0.1417
  486MPD2    C4 7228   2.557   2.282  13.198 -0.3301 -0.5495 -0.7047
  486MPD2    C5 7229   2.601   2.157  13.240  0.4911  0.4992 -0.9385
  486MPD2     H 7230   2.758   2.329  12.945  1.8288 -2.0971  0.6567
  486MPD2    H1 7231   2.482   2.336  13.255  1.7590  0.9101  0.6829
  486MPD2    H2 7232   2.735   1.993  13.208  0.5002  0.1050 -1.2890
  486MPD2    H3 7233   2.550   2.114  13.326  0.8783 -2.0977 -2.0057
  486MPD2     N 7234   2.586   2.464  13.050 -0.3299  0.2472 -0.2164
  486MPD2    H5 7235   2.632   2.494  12.965 -0.3792  1.8846  0.3143
  486MPD2    N1 7236   2.841   2.067  12.984 -0.0011  0.3223 -0.2305
  486MPD2    H7 7237   2.848   1.969  13.010  0.7474  0.6192  0.6989
  487TMC3    C1 7238   2.911   2.011  12.763  0.7825 -0.1976  0.6889
  487TMC3    C2 7239   2.832   2.054  12.657 -0.4845 -0.4611 -0.3957
  487TMC3    C3 7240   2.733   1.975  12.607  0.5640  0.5759  0.5797
  487TMC3    C4 7241   2.895   1.887  12.810  0.3262 -0.7550  0.2823
  487TMC3    C5 7242   2.794   1.814  12.760 -0.5307  0.6824 -0.1013
  487TMC3    C6 7243   2.711   1.856  12.664  0.5639 -0.5389  0.8588
  487TMC3     C 7244   2.906   2.111  12.868  0.7291  0.7186 -0.7276
  487TMC3     O 7245   2.918   2.227  12.835  0.4302  0.4318  0.0594
  487TMC3     H 7246   2.860   2.151  12.616 -0.1277  0.3509  1.7321
  487TMC3    H1 7247   2.963   1.857  12.889 -0.5358 -1.2441  0.8488
  487TMC3    H2 7248   2.689   1.762  12.614  2.6052  0.8786 -2.6491
  487TMC3    C7 7249   2.725   1.762  12.868  0.3023  0.9385 -0.9804
  487TMC3    C8 7250   2.611   2.045  12.606  0.2283 -0.0057  0.1460
  487TMC3    O1 7251   2.797   1.725  12.956 -0.1694  0.2789  0.2603
  487TMC3    O2 7252   2.598   2.147  12.666 -0.1491  0.8110 -0.6696
  488MPD2     C 7253   3.130   3.934  16.541  0.3962 -0.1123 -0.0801
  488MPD2    C1 7254   3.219   4.020  16.613 -0.3363  0.0299  0.6116
  488MPD2    C2 7255   3.250   3.978  16.744 -0.0727 -0.5475 -0.2649
  488MPD2    C3 7256   3.188   3.868  16.799  0.2148 -0.6040  0.7104
  488MPD2    C4 7257   3.106   3.791  16.724 -0.3953  0.4313  0.2499
  488MPD2    C5 7258   3.078   3.823  16.595 -0.2446 -0.5377  1.1899
  488MPD2     H 7259   3.312   4.042  16.806  0.2297 -0.6533 -0.4633
  488MPD2    H1 7260   3.064   3.696  16.755  1.9807 -0.6216  0.2175
  488MPD2    H2 7261   3.084   3.966  16.448  0.5673 -1.1056 -0.5168
  488MPD2    H3 7262   3.015   3.761  16.534 -0.2214  0.9948 -0.4044
  488MPD2     N 7263   3.223   3.841  16.930 -0.1680 -0.3696  0.1653
  488MPD2    H5 7264   3.299   3.894  16.971 -1.3563  1.6793 -0.2828
  488MPD2    N1 7265   3.269   4.146  16.564  0.1997 -0.3570 -0.3257
  488MPD2    H7 7266   3.331   4.204  16.619  1.8784  0.3022 -2.9081
  489TMC3    C1 7267   3.211   3.746  17.150  0.0569 -0.4594 -0.0075
  489TMC3    C2 7268   3.300   3.844  17.183  0.2058 -0.2716 -0.2553
  489TMC3    C3 7269   3.347   3.843  17.304 -0.2665  0.7321 -0.0576
  489TMC3    C4 7270   3.171   3.643  17.235 -1.1925  0.6552  0.6743
  489TMC3    C5 7271   3.224   3.653  17.358  0.1379 -0.4612 -0.0731
  489TMC3    C6 7272   3.321   3.746  17.392  0.1364 -0.2289 -0.3931
  489TMC3     C 7273   3.150   3.757  17.013 -1.0135  0.3624 -0.3339
  489TMC3     O 7274   3.041   3.702  16.991  0.5208 -0.4311 -0.3173
  489TMC3     H 7275   3.321   3.921  17.109  1.1733 -0.1218  0.1803
  489TMC3    H1 7276   3.095   3.574  17.197 -1.1922  0.3705  1.1866
  489TMC3    H2 7277   3.377   3.740  17.484  3.3788  0.1378 -2.3620
  489TMC3    C7 7278   3.206   3.554  17.458 -0.0862 -0.5961  0.9537
  489TMC3    C8 7279   3.370   3.973  17.336 -0.4841  0.7215 -0.4449
  489TMC3    O1 7280   3.279   3.552  17.554 -0.0476  0.2536 -1.0021
  489TMC3    O2 7281   3.443   4.029  17.254 -0.0496  0.2304  0.0915
  490MPD2     C 7282   4.180   3.670  17.421 -0.3197  0.2130  0.2471
  490MPD2    C1 7283   4.060   3.667  17.488 -0.1793 -0.3734  0.2482
  490MPD2    C2 7284   4.027   3.776  17.572 -0.1006 -0.4144 -0.9486
  490MPD2    C3 7285   4.096   3.891  17.566 -0.3014  0.8992  0.0561
  490MPD2    C4 7286   4.213   3.900  17.492  0.9296  0.0371  0.6294
  490MPD2    C5 7287   4.253   3.788  17.427 -0.3197  0.4226  0.0919
  490MPD2     H 7288   3.937   3.764  17.631  1.2357 -0.2575  1.0980
  490MPD2    H1 7289   4.268   3.994  17.496  2.2066 -0.6955  0.1107
  490MPD2    H2 7290   4.231   3.589  17.371 -2.8462 -1.6008  0.5591
  490MPD2    H3 7291   4.347   3.783  17.373  0.0090 -0.0647  0.7105
  490MPD2     N 7292   4.072   4.009  17.646  0.1451 -0.1505 -0.3261
  490MPD2    H5 7293   4.136   4.086  17.634  0.4001 -0.2113  0.6372
  490MPD2    N1 7294   3.979   3.552  17.483 -0.6098 -0.1781 -0.3324
  490MPD2    H7 7295   3.903   3.550  17.550 -0.2106  0.0742  0.1264
  491TMC3    C1 7296   3.926   3.326  17.414 -0.2590  0.0267 -0.0181
  491TMC3    C2 7297   3.941   3.290  17.540  0.6178 -0.1294  0.4118
  491TMC3    C3 7298   3.889   3.167  17.573  0.1278  0.0068 -0.1281
  491TMC3    C4 7299   3.879   3.249  17.311 -0.1024 -0.1110  0.1326
  491TMC3    C5 7300   3.830   3.126  17.353  0.1761  0.3822 -0.2794
  491TMC3    C6 7301   3.826   3.088  17.487  0.5628 -0.1966  0.1062
  491TMC3     C 7302   3.989   3.457  17.381 -0.4970 -0.1397 -0.0032
  491TMC3     O 7303   4.038   3.466  17.270 -0.1682  0.1847 -0.4923
  491TMC3     H 7304   3.971   3.360  17.618  2.0555 -0.5545  0.2438
  491TMC3    H1 7305   3.884   3.277  17.207 -2.6532  0.6773  0.2120
  491TMC3    H2 7306   3.785   2.992  17.516 -2.4071  0.2239 -2.7609
  491TMC3    C7 7307   3.754   3.034  17.273 -0.2949 -0.0673  0.6205
  491TMC3    C8 7308   3.879   3.133   0.018  0.5705  0.8586 -0.7325
  491TMC3    O1 7309   3.739   2.915  17.309 -0.2110  0.8716  0.1913
  491TMC3    O2 7310   3.779   3.075   0.062  0.2452 -0.3117 -0.1159
  492MPD2     C 7311   3.887   3.640  12.098 -1.2654 -0.2167  0.7687
  492MPD2    C1 7312   3.883   3.538  12.008 -0.8572 -0.2835  0.2871
  492MPD2    C2 7313   3.828   3.420  12.050 -0.4135  0.2569  0.0412
  492MPD2    C3 7314   3.771   3.406  12.179  0.3415 -0.6800  0.3569
  492MPD2    C4 7315   3.766   3.517  12.268 -0.1887 -0.4467  0.5980
  492MPD2    C5 7316   3.839   3.623  12.228 -0.1400  0.4833  0.0276
  492MPD2     H 7317   3.822   3.340  11.977  0.2250  1.7675 -1.6700
  492MPD2    H1 7318   3.726   3.511  12.368 -1.4652  0.5433  0.1435
  492MPD2    H2 7319   3.923   3.739  12.072 -1.6472  0.0321  1.1853
  492MPD2    H3 7320   3.838   3.706  12.297 -1.0793  1.8750 -1.6450
  492MPD2     N 7321   3.701   3.288  12.229 -0.7295  0.0168 -0.9020
  492MPD2    H5 7322   3.660   3.279  12.322  0.2069 -2.1711 -0.6909
  492MPD2    N1 7323   3.930   3.565  11.878 -0.4589 -0.1727  0.2123
  492MPD2    H7 7324   3.943   3.660  11.843 -0.3824 -0.7976 -1.4045
  493TMC3    C1 7325   3.997   3.529  11.655  0.5198  0.3038 -0.9875
  493TMC3    C2 7326   4.008   3.667  11.636  0.2711 -1.0065  0.1388
  493TMC3    C3 7327   4.032   3.706  11.506  0.1169  0.1108  0.5249
  493TMC3    C4 7328   3.994   3.437  11.549 -0.0211 -0.1205 -0.2090
  493TMC3    C5 7329   4.018   3.481  11.423 -0.5418  0.4427  0.1447
  493TMC3    C6 7330   4.032   3.618  11.398 -0.0506  0.1077 -0.4439
  493TMC3     C 7331   3.969   3.469  11.788  0.3988  0.1651  0.2010
  493TMC3     O 7332   3.957   3.346  11.794  0.3132  0.2374 -0.2868
  493TMC3     H 7333   4.016   3.743  11.713  1.1383 -2.0086  1.0176
  493TMC3    H1 7334   3.983   3.331  11.568 -0.0135 -0.4757 -2.1431
  493TMC3    H2 7335   4.040   3.654  11.297  2.2918 -0.1594 -0.3533
  493TMC3    C7 7336   4.012   3.385  11.310 -0.9117 -0.2773 -0.0642
  493TMC3    C8 7337   4.092   3.837  11.499  0.8583  0.1140 -0.4520
  493TMC3    O1 7338   3.949   3.283  11.333 -0.7039 -0.0399 -0.6057
  493TMC3    O2 7339   4.153   3.885  11.591  0.1443 -0.2881  0.0781
  494TMC3    C1 7340   0.402   0.507   0.749  0.2304 -0.3647 -0.0420
  494TMC3    C2 7341   0.493   0.408   0.726 -1.0450 -0.6190  0.8578
  494TMC3    C3 7342   0.506   0.365   0.602  0.3179  0.6115  1.3433
  494TMC3    C4 7343   0.331   0.563   0.648  0.7031 -0.2749 -0.3965
  494TMC3    C5 7344   0.351   0.508   0.523  0.2088 -0.3903  0.3113
  494TMC3    C6 7345   0.437   0.410   0.496 -0.3238  0.1393  0.1809
  494TMC3     C 7346   0.440   0.599   0.854 -0.5140  0.5732  0.3297
  494TMC3     O 7347   0.394   0.717   0.840  0.1350 -0.2156 -0.0090
  494TMC3     H 7348   0.569   0.380   0.798  0.9776 -0.0592 -1.0727
  494TMC3    H1 7349   0.241   0.619   0.673  1.4097  0.0430  1.4104
  494TMC3    H2 7350   0.442   0.359   0.401  0.1191 -0.7948  0.7069
  494TMC3    C7 7351   0.296   0.567   0.403 -0.2480 -0.0385  0.1612
  494TMC3    C8 7352   0.599   0.256   0.573  0.7219 -0.5470 -0.3389
  494TMC3    O1 7353   0.322   0.508   0.299  0.4466 -0.2495  0.2932
  494TMC3    O2 7354   0.620   0.171   0.657  0.3733  0.0616 -0.1621
  495TMC3    C1 7355   3.464   2.455  14.803  0.2029 -1.4842 -1.1787
  495TMC3    C2 7356   3.447   2.527  14.689  0.3925 -0.2084 -0.2201
  495TMC3    C3 7357   3.364   2.632  14.698  0.6045 -0.5101  0.6571
  495TMC3    C4 7358   3.405   2.485  14.920  0.3103  0.6402 -0.0427
  495TMC3    C5 7359   3.315   2.593  14.923  0.1789  0.2726  0.9426
  495TMC3    C6 7360   3.296   2.662  14.809  0.0809 -1.2940 -0.8102
  495TMC3     C 7361   3.490   2.312  14.773  0.8594 -0.4074 -0.9819
  495TMC3     O 7362   3.559   2.292  14.672 -0.6005 -0.4150  0.2043
  495TMC3     H 7363   3.494   2.488  14.599  0.5152 -2.0383  0.6369
  495TMC3    H1 7364   3.417   2.431  15.013 -0.6934  0.2898 -0.1195
  495TMC3    H2 7365   3.223   2.743  14.802  1.1155 -0.5608 -3.1745
  495TMC3    C7 7366   3.227   2.614  15.041 -0.0149 -0.8830 -0.1783
  495TMC3    C8 7367   3.298   2.676  14.579  0.1193  0.9888 -0.0185
  495TMC3    O1 7368   3.109   2.640  15.027 -0.1622  0.0628 -0.4325
  495TMC3    O2 7369   3.219   2.766  14.583  0.3455 -0.0851  0.3153
  496MPD2     C 7370   0.423   2.443  15.540  0.3692  0.3910  0.4829
  496MPD2    C1 7371   0.508   2.413  15.649  0.3473  0.3229  0.6735
  496MPD2    C2 7372   0.482   2.309  15.730 -0.1719  0.0019  0.1080
  496MPD2    C3 7373   0.382   2.222  15.706  0.9710 -0.6091  0.3255
  496MPD2    C4 7374   0.304   2.247  15.599  0.2467  1.0492  0.0041
  496MPD2    C5 7375   0.319   2.357  15.517 -0.0870  0.2708  0.5561
  496MPD2     H 7376   0.543   2.298  15.819  0.9757  1.3809 -0.5049
  496MPD2    H1 7377   0.225   2.173  15.585 -0.5127  1.7541  0.5740
  496MPD2    H2 7378   0.437   2.530  15.477 -0.1954 -0.9847 -1.5313
  496MPD2    H3 7379   0.246   2.364  15.437 -1.5612  3.5882  2.1992
  496MPD2     N 7380   0.363   2.106  15.789 -0.0650  0.2897 -0.2300
  496MPD2    H5 7381   0.313   2.028  15.749  2.4818 -0.9203 -1.0608
  496MPD2    N1 7382   0.621   2.498  15.657  0.5425 -0.2319 -0.1897
  496MPD2    H7 7383   0.641   2.559  15.579  0.2606  0.4180  0.2414
  497TMC3    C1 7384   0.398   1.951  15.965  0.4469  0.1581 -0.0849
  497TMC3    C2 7385   0.454   1.852  15.889  0.0163  0.1615 -0.1138
  497TMC3    C3 7386   0.454   1.724  15.933  0.6403  0.6765 -0.3841
  497TMC3    C4 7387   0.341   1.928  16.083  0.2004 -0.3049 -0.0804
  497TMC3    C5 7388   0.340   1.798  16.126  0.7097 -0.2324  0.3021
  497TMC3    C6 7389   0.402   1.693  16.055  0.1325  0.2246 -0.4666
  497TMC3     C 7390   0.408   2.090  15.914 -0.4972  0.3082  0.4762
  497TMC3     O 7391   0.423   2.178  15.999  0.2335  0.0635  0.5465
  497TMC3     H 7392   0.476   1.883  15.787  0.8390 -1.1365 -0.3426
  497TMC3    H1 7393   0.287   2.007  16.135  0.8912  1.2139 -1.6538
  497TMC3    H2 7394   0.390   1.595  16.098 -0.1470  1.1481  1.5911
  497TMC3    C7 7395   0.335   1.770  16.272  0.8723  0.3040 -0.2292
  497TMC3    C8 7396   0.561   1.642  15.876  0.7820  0.1071 -0.1607
  497TMC3    O1 7397   0.309   1.654  16.300 -0.5664 -0.0007 -0.0280
  497TMC3    O2 7398   0.547   1.527  15.889  0.0192  0.4601  0.2862
  498MPD2     C 7399   1.749   1.560   9.640  0.0287  0.2287  0.0132
  498MPD2    C1 7400   1.748   1.676   9.564 -0.3333 -0.3790 -0.2503
  498MPD2    C2 7401   1.633   1.752   9.561  0.0594 -0.2026 -0.1451
  498MPD2    C3 7402   1.517   1.712   9.626  0.9531  0.7446  0.2899
  498MPD2    C4 7403   1.507   1.584   9.680  0.4696 -0.1607  0.3999
  498MPD2    C5 7404   1.620   1.514   9.686 -0.7959 -0.3842  0.3119
  498MPD2     H 7405   1.637   1.847   9.510  2.3080 -0.2163 -0.0129
  498MPD2    H1 7406   1.422   1.532   9.720 -1.4667  2.7937  0.1455
  498MPD2    H2 7407   1.836   1.500   9.663 -0.1749 -0.5036 -1.0921
  498MPD2    H3 7408   1.618   1.417   9.734  0.0822 -0.5815 -0.0523
  498MPD2     N 7409   1.397   1.787   9.634 -0.0275  0.2167  0.3121
  498MPD2    H5 7410   1.314   1.743   9.673 -0.5516  1.1977  0.3077
  498MPD2    N1 7411   1.858   1.727   9.495 -0.4595  0.3340  0.6604
  498MPD2    H7 7412   1.866   1.828   9.487 -0.6998  0.5477  3.2256
  499TMC3    C1 7413   2.075   1.721   9.405  0.4751 -0.1810  0.1482
  499TMC3    C2 7414   2.173   1.647   9.341 -0.5643  0.3833 -0.5115
  499TMC3    C3 7415   2.294   1.704   9.318 -0.4664 -0.2121  0.1379
  499TMC3    C4 7416   2.097   1.849   9.452  0.6363  0.3411 -0.1724
  499TMC3    C5 7417   2.220   1.901   9.424 -0.1617  0.1899 -0.2368
  499TMC3    C6 7418   2.321   1.829   9.367  0.1218  0.4363 -0.3238
  499TMC3     C 7419   1.961   1.647   9.450  0.4469  0.0123 -0.1143
  499TMC3     O 7420   1.969   1.524   9.453  0.0732  0.6263 -0.0148
  499TMC3     H 7421   2.151   1.550   9.296  0.2950 -0.9944  2.0454
  499TMC3    H1 7422   2.025   1.902   9.513 -0.9309  0.0416 -1.7548
  499TMC3    H2 7423   2.413   1.878   9.337  0.1672 -0.2159 -1.2600
  499TMC3    C7 7424   2.253   2.021   9.495  0.3997 -0.2234 -0.3145
  499TMC3    C8 7425   2.399   1.599   9.295 -0.3126  0.5398  0.5627
  499TMC3    O1 7426   2.178   2.065   9.578  0.2639  0.1461 -0.2539
  499TMC3    O2 7427   2.370   1.499   9.230 -0.5380 -0.0494  0.6251
  500MPD2     C 7428   3.469   4.075   9.891 -0.1011 -0.4603  0.0636
  500MPD2    C1 7429   3.354   4.056   9.960  0.0893  0.0580  0.3483
  500MPD2    C2 7430   3.254   3.978   9.902  0.2119  0.2038  0.5673
  500MPD2    C3 7431   3.279   3.921   9.773  0.2356  0.5404 -0.8660
  500MPD2    C4 7432   3.404   3.934   9.709 -0.8455  0.4830  0.2062
  500MPD2    C5 7433   3.496   4.016   9.767  0.0903  0.4766 -0.3239
  500MPD2     H 7434   3.153   3.970   9.941 -0.5829  2.3632 -1.0870
  500MPD2    H1 7435   3.434   3.885   9.617 -1.0640 -2.3521  1.6472
  500MPD2    H2 7436   3.549   4.137   9.929 -1.1969  0.2812  1.1586
  500MPD2    H3 7437   3.588   4.024   9.711 -0.7014 -1.9538 -1.9228
  500MPD2     N 7438   3.178   3.847   9.713 -0.3481 -0.1540  0.1383
  500MPD2    H5 7439   3.196   3.808   9.621 -0.2944 -0.9276  0.4788
  500MPD2    N1 7440   3.326   4.115  10.086  0.1439  0.3971 -0.8833
  500MPD2    H7 7441   3.232   4.104  10.124  0.4205 -0.8403 -0.5544
  501TMC3    C1 7442   3.357   4.214  10.286  0.0247  0.5228  0.2840
  501TMC3    C2 7443   3.280   4.319  10.262 -0.2617 -0.0099  0.5643
  501TMC3    C3 7444   3.240   4.397  10.366 -0.1338  0.5293  0.4997
  501TMC3    C4 7445   3.390   4.167  10.406 -0.1018  0.0851 -0.8151
  501TMC3    C5 7446   3.339   4.241  10.512  0.0206  1.0291 -0.0093
  501TMC3    C6 7447   3.253   4.345  10.492  0.9000  0.9588  0.2741
  501TMC3     C 7448   3.415   4.157  10.174 -0.1387  0.3145  0.9683
  501TMC3     O 7449   3.538   4.179  10.157 -0.4027 -0.3577 -0.2064
  501TMC3     H 7450   3.270   4.357  10.161  1.0486  0.9066  0.7796
  501TMC3    H1 7451   3.473   4.097  10.409  1.1821  1.6062 -0.1923
  501TMC3    H2 7452   3.226   4.408  10.576 -0.0254  0.0912  0.6241
  501TMC3    C7 7453   3.429   4.269  10.621 -0.4227 -0.3087 -0.6041
  501TMC3    C8 7454   3.274   4.531  10.358  0.2310 -0.7765 -0.6676
  501TMC3    O1 7455   3.479   4.176  10.680  0.4770 -0.6821 -0.7400
  501TMC3    O2 7456   3.345   4.580  10.444  0.2020 -0.2599 -0.0127
  502TMC3    C1 7457   2.847   3.228  15.771 -0.3153  0.3561 -0.3489
  502TMC3    C2 7458   2.816   3.362  15.747  0.0561 -0.1616  0.2321
  502TMC3    C3 7459   2.690   3.402  15.703 -0.7677 -0.1591 -0.0998
  502TMC3    C4 7460   2.743   3.137  15.748  0.5587  0.2152 -0.0752
  502TMC3    C5 7461   2.629   3.180  15.695 -0.6189 -0.1874  0.2759
  502TMC3    C6 7462   2.591   3.310  15.673 -0.1493  0.1027  0.8170
  502TMC3     C 7463   2.918   3.219  15.894 -0.1812  0.0492  0.4630
  502TMC3     O 7464   3.030   3.270  15.898  0.3742 -0.4130  0.4432
  502TMC3     H 7465   2.894   3.437  15.759 -1.2286  1.1729  0.3158
  502TMC3    H1 7466   2.758   3.031  15.765 -3.5005 -0.6255 -1.7193
  502TMC3    H2 7467   2.508   3.336  15.608  0.7834 -0.0691 -0.4479
  502TMC3    C7 7468   2.523   3.077  15.705  0.1515 -0.6934  0.6711
  502TMC3    C8 7469   2.661   3.545  15.686 -0.0461 -0.1423 -0.3464
  502TMC3    O1 7470   2.565   2.973  15.755  0.2048  0.4668 -0.8130
  502TMC3    O2 7471   2.762   3.614  15.675  0.2216  0.0801 -0.0215
  503MPD2     C 7472   0.172   4.183  17.475  0.0989 -0.0794 -0.0429
  503MPD2    C1 7473   0.293   4.216  17.529 -0.2930  0.4567 -0.9211
  503MPD2    C2 7474   0.400   4.134  17.499  0.2084  0.4098 -0.3547
  503MPD2    C3 7475   0.385   4.017  17.430 -0.6148  0.0138  0.5294
  503MPD2    C4 7476   0.264   3.981  17.375  0.6771  0.0223 -0.4836
  503MPD2    C5 7477   0.156   4.069  17.397  0.5125 -0.0554  0.1091
  503MPD2     H 7478   0.500   4.151  17.539  0.6393 -0.6130 -0.9906
  503MPD2    H1 7479   0.246   3.893  17.315  1.8593 -0.7754  0.3227
  503MPD2    H2 7480   0.088   4.248  17.494  0.5908  0.2827  0.9495
  503MPD2    H3 7481   0.059   4.041  17.357  0.6889  3.1534 -2.6160
  503MPD2     N 7482   0.500   3.939  17.436 -0.3496  0.4714 -0.3495
  503MPD2    H5 7483   0.578   3.970  17.494  1.4935  1.5918 -3.3964
  503MPD2    N1 7484   0.308   4.323  17.624  0.1716 -0.4305 -0.5385
  503MPD2    H7 7485   0.400   4.323  17.667  0.0510 -1.9836 -0.3143
  504TMC3    C1 7486   0.616   3.740  17.396  0.4197 -0.1793  0.6089
  504TMC3    C2 7487   0.667   3.742  17.524 -1.0443  0.2068  0.6560
  504TMC3    C3 7488   0.755   3.641  17.565  0.0116 -0.9822 -0.6083
  504TMC3    C4 7489   0.630   3.626  17.319 -0.0409  0.2322 -0.3648
  504TMC3    C5 7490   0.724   3.532  17.363  0.1978  0.3503 -0.2919
  504TMC3    C6 7491   0.792   3.544  17.483 -0.3482 -0.0909 -0.0755
  504TMC3     C 7492   0.503   3.816  17.370  0.1071  0.1390 -0.3765
  504TMC3     O 7493   0.429   3.773  17.279 -0.0650  0.0465 -0.2807
  504TMC3     H 7494   0.650   3.822  17.596  0.7290  1.0776  0.1181
  504TMC3    H1 7495   0.585   3.629  17.220  0.3936 -0.4291 -0.5816
  504TMC3    H2 7496   0.875   3.478  17.505  1.0108  1.5694 -0.2156
  504TMC3    C7 7497   0.740   3.429  17.262 -0.1499 -1.4374 -0.3564
  504TMC3    C8 7498   0.842   3.685  17.667  0.2192  0.6160  0.4664
  504TMC3    O1 7499   0.698   3.448  17.149 -0.3821  0.3599 -0.1789
  504TMC3    O2 7500   0.833   3.800   0.005  0.0982 -0.1618  0.3742
  505MPD2     C 7501   0.309   2.253  10.840  0.2156  0.0509  0.2938
  505MPD2    C1 7502   0.371   2.212  10.723 -0.4501  0.3971  0.4845
  505MPD2    C2 7503   0.453   2.307  10.662 -1.4185 -0.5492  0.4188
  505MPD2    C3 7504   0.473   2.438  10.708  0.3649  0.3973 -0.2610
  505MPD2    C4 7505   0.406   2.469  10.824  0.5419 -0.3440 -0.0830
  505MPD2    C5 7506   0.329   2.376  10.889 -0.4035 -0.2391 -0.1929
  505MPD2     H 7507   0.510   2.280  10.573 -4.4153 -1.1397 -1.3131
  505MPD2    H1 7508   0.426   2.563  10.874  0.7402 -0.4068 -0.0464
  505MPD2    H2 7509   0.238   2.182  10.884 -0.6496  0.7796  0.0662
  505MPD2    H3 7510   0.274   2.405  10.978  2.4900  0.1427  1.4741
  505MPD2     N 7511   0.551   2.538  10.647  0.0077  0.2282  0.2723
  505MPD2    H5 7512   0.568   2.622  10.701 -0.3426  0.4185  0.0860
  505MPD2    N1 7513   0.352   2.076  10.689 -0.6751 -0.3684  0.2902
  505MPD2    H7 7514   0.308   2.011  10.753 -0.4001 -1.8543 -1.0135
  506TMC3    C1 7515   0.408   1.871  10.590  0.0035 -0.6813  1.0064
  506TMC3    C2 7516   0.496   1.820  10.502  0.4038 -0.9135  0.2959
  506TMC3    C3 7517   0.616   1.767  10.546  0.2051 -0.8640 -0.1982
  506TMC3    C4 7518   0.414   1.820  10.722 -0.9067 -0.3243 -0.2566
  506TMC3    C5 7519   0.537   1.768  10.765  0.1188  0.5937 -0.5932
  506TMC3    C6 7520   0.641   1.744  10.679 -0.0812  0.5507 -0.1151
  506TMC3     C 7521   0.404   2.018  10.580  0.0112  0.6423 -0.2227
  506TMC3     O 7522   0.475   2.059  10.486 -0.2837  0.2651 -0.6208
  506TMC3     H 7523   0.476   1.828  10.396  0.1106 -1.9731  0.2692
  506TMC3    H1 7524   0.354   1.854  10.805 -1.3079 -2.4111  0.3173
  506TMC3    H2 7525   0.739   1.712  10.711 -1.0649 -2.2252  0.1628
  506TMC3    C7 7526   0.581   1.842  10.877  0.7507 -0.0088 -0.0375
  506TMC3    C8 7527   0.698   1.681  10.464 -0.0131 -0.0169 -0.1530
  506TMC3    O1 7528   0.499   1.830  10.970  0.8492 -0.0749  0.4759
  506TMC3    O2 7529   0.741   1.577  10.513 -0.6469  0.3206 -0.3947
  507TMC3    C1 7530   0.908   3.458  14.996 -0.8435 -0.4559 -0.4637
  507TMC3    C2 7531   0.992   3.424  14.896  0.3499  0.3291 -0.3607
  507TMC3    C3 7532   1.056   3.524  14.830 -0.4167 -0.1647  0.6097
  507TMC3    C4 7533   0.897   3.592  15.049 -0.1682 -0.3208  0.6942
  507TMC3    C5 7534   0.967   3.684  14.985  0.2904 -0.0599 -0.1379
  507TMC3    C6 7535   1.042   3.652  14.877  0.8111  0.0853 -0.0906
  507TMC3     C 7536   0.856   3.351  15.079  0.0530 -0.1627 -0.1326
  507TMC3     O 7537   0.917   3.247  15.083 -0.3303 -0.5782 -0.5198
  507TMC3     H 7538   1.006   3.320  14.870 -2.7152 -0.8636  2.6817
  507TMC3    H1 7539   0.832   3.622  15.130 -2.6439 -1.3946 -0.8884
  507TMC3    H2 7540   1.105   3.722  14.823 -0.1223 -0.9544 -2.5305
  507TMC3    C7 7541   0.887   3.800  14.946  0.2154  0.2663 -0.2023
  507TMC3    C8 7542   1.051   3.516  14.686 -0.4316  0.4227 -0.0080
  507TMC3    O1 7543   0.905   3.833  14.830  0.0557 -0.3690 -0.0437
  507TMC3    O2 7544   1.065   3.403  14.642  0.2176 -0.2136 -0.0311
  508MPD2     C 7545   1.952   1.284  16.552  0.0009 -0.0701 -0.0925
  508MPD2    C1 7546   2.076   1.307  16.510  0.1472 -0.0582 -0.5127
  508MPD2    C2 7547   2.100   1.307  16.372  0.2407 -0.5993  0.2720
  508MPD2    C3 7548   2.003   1.270  16.285 -0.1819 -1.0806  0.3524
  508MPD2    C4 7549   1.879   1.238  16.329 -0.1505 -0.0343  0.1518
  508MPD2    C5 7550   1.854   1.247  16.466  0.0635 -0.2151 -0.7173
  508MPD2     H 7551   2.195   1.329  16.325 -0.2643 -1.8323 -1.3087
  508MPD2    H1 7552   1.788   1.221  16.272 -0.3797  2.3417 -0.1655
  508MPD2    H2 7553   1.924   1.289  16.657 -4.1402 -0.5738 -1.1625
  508MPD2    H3 7554   1.755   1.230  16.506  0.2681 -0.1380 -0.1794
  508MPD2     N 7555   2.042   1.278  16.151  0.3613  0.5897 -0.3997
  508MPD2    H5 7556   2.138   1.297  16.128 -0.0377  1.1597 -1.5685
  508MPD2    N1 7557   2.170   1.347  16.606  0.3721  0.1139 -0.0758
  508MPD2    H7 7558   2.143   1.354  16.703  0.6833  1.6957 -0.0961
  509TMC3    C1 7559   1.999   1.510  15.781  0.0081 -0.9521  0.6973
  509TMC3    C2 7560   2.128   1.560  15.799  0.3974 -1.1492 -0.8852
  509TMC3    C3 7561   2.207   1.483  15.876  1.1789  0.1123  0.6415
  509TMC3    C4 7562   1.950   1.396  15.840 -0.2774  0.0816  0.4725
  509TMC3    C5 7563   2.033   1.333  15.928 -0.1884 -0.4635 -0.3436
  509TMC3    C6 7564   2.165   1.366  15.944  0.6606  0.3558 -0.0387
  509TMC3     C 7565   1.899   1.591  15.726 -0.1925 -0.8694 -0.0864
  509TMC3     O 7566   1.791   1.611  15.783  0.5222  0.0418 -0.1618
  509TMC3     H 7567   2.159   1.653  15.753  1.6752 -0.9091  0.4655
  509TMC3    H1 7568   1.842   1.393  15.840 -0.2962  0.7591  0.7157
  509TMC3    H2 7569   2.239   1.309  15.999  0.5912 -0.5371 -0.8805
  509TMC3    C7 7570   1.963   1.272  16.041 -0.3402 -0.5119 -0.7091
  509TMC3    C8 7571   2.337   1.525  15.916  0.2721  0.6537  0.7049
  509TMC3    O1 7572   1.839   1.263  16.030  0.0227  1.1833 -0.0482
  509TMC3    O2 7573   2.418   1.435  15.937  0.1857 -0.1972  0.5989
  510MPD2     C 7574   4.707   3.212  14.726 -0.2287 -0.0139  0.2182
  510MPD2    C1 7575   0.006   3.098  14.798 -0.7933 -0.2215 -0.6431
  510MPD2    C2 7576   0.129   3.034  14.788  0.1930  0.1884 -0.9281
  510MPD2    C3 7577   0.229   3.087  14.706 -0.0101  0.2471 -0.3356
  510MPD2    C4 7578   0.209   3.195  14.633 -0.1467 -0.4472  0.5682
  510MPD2    C5 7579   0.092   3.263  14.656 -0.0323  0.0411 -0.1964
  510MPD2     H 7580   0.150   2.946  14.847 -0.7276 -0.5341 -1.6829
  510MPD2    H1 7581   0.289   3.236  14.572  0.2873 -1.6768  0.3087
  510MPD2    H2 7582   4.621   3.275  14.744 -0.8285 -0.6599 -0.4079
  510MPD2    H3 7583   0.079   3.361  14.610 -1.9661 -0.1648 -0.0998
  510MPD2     N 7584   0.356   3.015  14.693 -0.3264  0.4324 -0.2509
  510MPD2    H5 7585   0.369   2.934  14.752 -1.1171 -1.5251 -2.7513
  510MPD2    N1 7586   4.624   3.046  14.884  0.0232  0.2829 -0.0138
  510MPD2    H7 7587   4.539   3.102  14.886 -0.6974 -0.8811  2.2308
  511TMC3    C1 7588   4.515   2.887  15.021 -0.9102 -0.4618  0.2054
  511TMC3    C2 7589   4.421   2.974  15.063 -0.2926 -0.1665 -0.1097
  511TMC3    C3 7590   4.319   2.914  15.132 -0.0906 -0.3370 -0.0871
  511TMC3    C4 7591   4.511   2.754  15.042  0.3177 -0.4281  0.8219
  511TMC3    C5 7592   4.409   2.702  15.120 -0.2553 -0.0754  0.2968
  511TMC3    C6 7593   4.310   2.781  15.168  0.1084  0.2122 -0.0283
  511TMC3     C 7594   4.630   2.923  14.940 -0.5065  0.4049  0.6126
  511TMC3     O 7595   4.715   2.839  14.926 -0.3124  0.1420  0.5989
  511TMC3     H 7596   4.415   3.081  15.048  0.1090 -0.1015  0.1885
  511TMC3    H1 7597   4.595   2.686  15.030  3.1618  2.8557  2.0243
  511TMC3    H2 7598   4.234   2.750  15.239  1.2582  1.3180  1.6743
  511TMC3    C7 7599   4.398   2.558  15.158 -0.1897 -0.3155  0.1923
  511TMC3    C8 7600   4.239   2.992  15.225 -0.0532 -0.6131  0.2267
  511TMC3    O1 7601   4.317   2.528  15.246  0.5920 -0.7862 -0.2740
  511TMC3    O2 7602   4.286   3.083  15.288  0.6847  0.8328  0.0906
  512TMC3    C1 7603   3.177   2.266  13.552  0.0858  0.2805  0.0874
  512TMC3    C2 7604   3.291   2.249  13.626  0.2333 -0.2870  0.0213
  512TMC3    C3 7605   3.364   2.132  13.606  0.2303  0.0382 -0.2519
  512TMC3    C4 7606   3.123   2.174  13.475  0.1506  0.8145 -0.1726
  512TMC3    C5 7607   3.200   2.063  13.459 -0.4599  0.4949 -0.4019
  512TMC3    C6 7608   3.320   2.038  13.520  0.1159 -0.6467  0.7070
  512TMC3     C 7609   3.081   2.370  13.588  1.6409 -0.4787  0.2920
  512TMC3     O 7610   2.972   2.372  13.537  0.0385  0.0634 -0.1155
  512TMC3     H 7611   3.312   2.311  13.712 -1.7693 -0.0926  0.3764
  512TMC3    H1 7612   3.031   2.181  13.418 -0.0926  0.3889  0.1658
  512TMC3    H2 7613   3.392   1.957  13.507 -0.9169 -1.0009 -2.6600
  512TMC3    C7 7614   3.148   1.970  13.359  0.3934 -0.8830 -0.3374
  512TMC3    C8 7615   3.483   2.098  13.678  0.0174  0.1036 -0.0008
  512TMC3    O1 7616   3.058   2.000  13.291 -0.0300 -0.0450  0.0839
  512TMC3    O2 7617   3.492   1.975  13.706 -0.6254 -0.2425  0.2504
  513MPD2     C 7618   0.666   2.097  13.529  0.3029  0.1251  0.6016
  513MPD2    C1 7619   0.762   2.122  13.432  0.3828 -0.3318 -0.6065
  513MPD2    C2 7620   0.840   2.237  13.442  0.1437 -0.6443 -0.1441
  513MPD2    C3 7621   0.824   2.319  13.551 -0.6105  0.3337  0.6771
  513MPD2    C4 7622   0.738   2.288  13.653 -0.7560  0.1776  0.0587
  513MPD2    C5 7623   0.655   2.188  13.631  0.2911  0.1584  0.0844
  513MPD2     H 7624   0.902   2.273  13.360  0.5467 -0.6905  0.1376
  513MPD2    H1 7625   0.722   2.363  13.729  1.0469  1.8131 -1.1579
  513MPD2    H2 7626   0.601   2.011  13.525 -0.6003  0.8094  0.6102
  513MPD2    H3 7627   0.579   2.172  13.706  0.9577  1.6333  1.0700
  513MPD2     N 7628   0.898   2.436  13.542 -0.1438  0.1296  0.1200
  513MPD2    H5 7629   0.944   2.460  13.454 -0.3212 -2.1266 -0.5854
  513MPD2    N1 7630   0.772   2.036  13.328  0.1856  0.5373  0.4020
  513MPD2    H7 7631   0.703   1.962  13.322 -0.7169  1.2091  2.7327
  514TMC3    C1 7632   0.888   1.927  13.145 -0.0839  0.0617 -0.4744
  514TMC3    C2 7633   0.792   1.953  13.054 -0.0961 -0.5275  0.0595
  514TMC3    C3 7634   0.815   1.921  12.924  0.3859 -0.1061 -0.2335
  514TMC3    C4 7635   1.011   1.908  13.103  0.0480 -0.2078 -0.3332
  514TMC3    C5 7636   1.040   1.897  12.973  0.1482  1.1730 -0.1676
  514TMC3    C6 7637   0.945   1.909  12.878 -0.2172 -0.0925 -0.0174
  514TMC3     C 7638   0.885   2.038  13.246 -0.8822  0.2297  0.3242
  514TMC3     O 7639   0.993   2.092  13.260 -0.6261 -0.0278 -0.3468
  514TMC3     H 7640   0.700   2.000  13.087 -0.3340  0.4464 -1.9924
  514TMC3    H1 7641   1.090   1.894  13.176  1.2454  2.8360 -1.0357
  514TMC3    H2 7642   0.978   1.934  12.778  2.0324  1.1165  1.0222
  514TMC3    C7 7643   1.157   1.983  12.937 -0.6609  0.2746  0.1612
  514TMC3    C8 7644   0.707   1.945  12.833  0.7221 -0.8642 -0.1775
  514TMC3    O1 7645   1.199   1.978  12.821 -0.1447  0.2447  0.3694
  514TMC3    O2 7646   0.614   2.013  12.870 -0.4983 -0.4520 -0.5063
  515MPD2     C 7647   3.562   4.130  15.844 -0.2659 -0.3540  0.5851
  515MPD2    C1 7648   3.526   4.158  15.713 -0.5792 -0.4259 -0.3180
  515MPD2    C2 7649   3.606   4.247  15.645  0.0083 -0.1927 -0.3246
  515MPD2    C3 7650   3.726   4.300  15.694 -0.0868 -0.0215  0.2908
  515MPD2    C4 7651   3.754   4.275  15.825  0.2021  0.6315  0.6921
  515MPD2    C5 7652   3.679   4.190  15.894 -0.3146  0.3179  0.2123
  515MPD2     H 7653   3.572   4.263  15.544 -0.2768 -1.6425 -0.4631
  515MPD2    H1 7654   3.842   4.317  15.872  0.5796  0.6221 -0.0163
  515MPD2    H2 7655   3.509   4.058  15.905  1.4935 -0.8884  1.4899
  515MPD2    H3 7656   3.704   4.164  15.997  0.5768  0.9140  0.1443
  515MPD2     N 7657   3.820   4.369  15.622 -0.5813  0.5431 -0.2293
  515MPD2    H5 7658   3.909   4.384  15.668 -0.7351  1.8419 -0.3614
  515MPD2    N1 7659   3.427   4.093  15.639 -0.4832 -0.4600  0.7677
  515MPD2    H7 7660   3.434   4.111  15.540  1.2556 -0.0827  0.9452
  516TMC3    C1 7661   3.274   3.923  15.579 -0.0776  0.0952 -0.1000
  516TMC3    C2 7662   3.237   3.996  15.469 -0.0766 -0.2806 -0.0823
  516TMC3    C3 7663   3.128   3.946  15.403 -0.1879 -0.2516 -0.9345
  516TMC3    C4 7664   3.204   3.809  15.626  0.4013  0.1564 -0.6571
  516TMC3    C5 7665   3.100   3.761  15.553  0.5257  0.1165 -0.1952
  516TMC3    C6 7666   3.053   3.837  15.445 -0.1135 -0.4107  0.1903
  516TMC3     C 7667   3.362   3.978  15.672 -0.2802 -0.0838 -0.4891
  516TMC3     O 7668   3.365   3.921  15.780 -0.1322  0.2683 -0.2529
  516TMC3     H 7669   3.291   4.088  15.449  1.6389 -1.9310 -3.1011
  516TMC3    H1 7670   3.226   3.763  15.722  0.0253 -0.7308 -1.0051
  516TMC3    H2 7671   2.975   3.792  15.384 -1.1373  0.0804  1.1494
  516TMC3    C7 7672   3.077   3.614  15.560 -0.7315 -0.0499 -0.5840
  516TMC3    C8 7673   3.079   4.011  15.283  0.6965  0.0740  0.4739
  516TMC3    O1 7674   3.143   3.542  15.635 -0.0650 -0.2959 -0.2479
  516TMC3    O2 7675   2.979   3.957  15.227  0.6325  0.5935  0.1301
  517MPD2     C 7676   2.904   0.693   0.157  0.1489 -0.3746 -0.4264
  517MPD2    C1 7677   3.041   0.721   0.141  0.1380  0.6455  0.6051
  517MPD2    C2 7678   3.106   0.841   0.172 -0.9777 -0.5812  0.4470
  517MPD2    C3 7679   3.022   0.936   0.228 -0.4272 -0.2852 -0.0732
  517MPD2    C4 7680   2.886   0.909   0.248 -0.0844  0.0324  0.9909
  517MPD2    C5 7681   2.833   0.793   0.207  0.2937  0.1217  0.5669
  517MPD2     H 7682   3.212   0.857   0.154 -1.1380 -0.6529 -0.5436
  517MPD2    H1 7683   2.834   0.993   0.290 -1.1483 -0.6315  1.0009
  517MPD2    H2 7684   2.859   0.599   0.127  2.1032 -0.8826 -1.7639
  517MPD2    H3 7685   2.731   0.777   0.239  0.3983 -2.8092 -0.5488
  517MPD2     N 7686   3.065   1.063   0.271  0.5477  0.3831 -0.4229
  517MPD2    H5 7687   2.997   1.111   0.330  1.1064  0.2351  0.3344
  517MPD2    N1 7688   3.128   0.627   0.082  0.5366  0.0769 -0.0046
  517MPD2    H7 7689   3.219   0.658   0.047  0.3060  1.1700  0.3557
  518TMC3    C1 7690   3.181   0.431  17.662  0.4655  0.4779  0.1797
  518TMC3    C2 7691   3.185   0.293  17.680  0.0449 -0.3048 -0.0622
  518TMC3    C3 7692   3.256   0.221  17.583  0.5378  0.6397 -0.4668
  518TMC3    C4 7693   3.248   0.499  17.563 -0.2235 -0.1979  0.2690
  518TMC3    C5 7694   3.327   0.418  17.479 -0.4668  0.3753  0.4076
  518TMC3    C6 7695   3.331   0.281  17.483  0.2813 -0.5685  0.4200
  518TMC3     C 7696   3.092   0.495   0.057 -0.1994 -0.5699  1.0118
  518TMC3     O 7697   3.010   0.431   0.121 -0.3394  0.8447 -0.5299
  518TMC3     H 7698   3.144   0.252   0.073 -0.2877  1.3109  0.5193
  518TMC3    H1 7699   3.244   0.607  17.557  1.6467 -0.1386  0.1391
  518TMC3    H2 7700   3.364   0.211  17.408  0.9287  0.7007 -0.4794
  518TMC3    C7 7701   3.426   0.470  17.385  0.4536 -0.0371  0.3204
  518TMC3    C8 7702   3.289   0.080  17.606  0.6104 -0.4154  0.0968
  518TMC3    O1 7703   3.419   0.586  17.340  0.7933 -0.2681 -0.2677
  518TMC3    O2 7704   3.310   0.015  17.503 -0.0875  0.3110  0.3963
  519MPD2     C 7705   0.387   3.803  14.722  0.0447  0.5686  0.4765
  519MPD2    C1 7706   0.303   3.756  14.619  0.1817 -0.3519  0.3046
  519MPD2    C2 7707   0.350   3.641  14.559 -0.3403 -0.9562 -0.1734
  519MPD2    C3 7708   0.471   3.592  14.574 -0.4562  0.2025  0.1406
  519MPD2    C4 7709   0.553   3.648  14.660 -1.0618  0.1976  0.5344
  519MPD2    C5 7710   0.509   3.745  14.746 -1.0821  0.6386 -0.2935
  519MPD2     H 7711   0.274   3.599  14.493 -1.0259  1.6827 -1.0739
  519MPD2    H1 7712   0.656   3.618  14.674 -1.2564 -1.0078 -0.5883
  519MPD2    H2 7713   0.352   3.875  14.795  0.2956 -0.2321  1.3889
  519MPD2    H3 7714   0.572   3.778  14.828 -0.6624 -2.2878  0.5436
  519MPD2     N 7715   0.521   3.480  14.496  0.1991  0.2125 -0.3371
  519MPD2    H5 7716   0.608   3.437  14.525  0.3544 -1.1890 -2.8762
  519MPD2    N1 7717   0.179   3.817  14.590 -0.6147 -0.3086 -0.3155
  519MPD2    H7 7718   0.150   3.879  14.666 -1.4469  0.5150 -1.3074
  520TMC3    C1 7719   0.520   3.314  14.323  0.5120 -0.1293 -0.1223
  520TMC3    C2 7720   0.456   3.260  14.217 -0.0175 -0.1097  0.1010
  520TMC3    C3 7721   0.521   3.185  14.122  0.0959 -0.8137  0.5583
  520TMC3    C4 7722   0.654   3.295  14.345  0.8733  0.1961 -0.6320
  520TMC3    C5 7723   0.717   3.229  14.243 -0.1294  0.0849  0.8180
  520TMC3    C6 7724   0.656   3.172  14.135  0.0838  0.4178  0.3452
  520TMC3     C 7725   0.445   3.425  14.393  0.5821  0.6761 -0.0577
  520TMC3     O 7726   0.342   3.459  14.342  0.0002 -0.1377 -1.1313
  520TMC3     H 7727   0.355   3.296  14.199  0.9486  2.5610  0.1283
  520TMC3    H1 7728   0.716   3.327  14.428  0.9876 -2.1175  0.1478
  520TMC3    H2 7729   0.703   3.110  14.060  0.7896  0.3452  0.8353
  520TMC3    C7 7730   0.855   3.194  14.266  0.5892 -0.3455 -0.9950
  520TMC3    C8 7731   0.453   3.102  14.025  0.1989 -0.5473 -0.2237
  520TMC3    O1 7732   0.893   3.195  14.381 -0.4332 -0.1925 -0.3302
  520TMC3    O2 7733   0.515   3.059  13.932  0.8604  0.2785  0.0809
  521MPD2     C 7734   1.013   1.969   0.203  0.2926 -0.1855  0.5194
  521MPD2    C1 7735   0.985   1.888   0.101  0.2713 -0.3169 -0.3628
  521MPD2    C2 7736   1.083   1.862   0.008 -0.2922 -0.2071 -0.0758
  521MPD2    C3 7737   1.204   1.929   0.016 -0.5170 -0.1315  0.3898
  521MPD2    C4 7738   1.229   2.019   0.118  0.4517 -0.3576  0.0686
  521MPD2    C5 7739   1.134   2.037   0.215  0.2061 -0.5105 -0.3532
  521MPD2     H 7740   1.077   1.789  17.627 -1.4997 -0.2817  0.0879
  521MPD2    H1 7741   1.321   2.074   0.136  0.8775 -0.6085 -1.3313
  521MPD2    H2 7742   0.936   1.990   0.276  1.1450 -2.8586  2.1991
  521MPD2    H3 7743   1.144   2.107   0.298 -0.8643 -0.0304 -0.6234
  521MPD2     N 7744   1.304   1.899  17.620 -0.0314  0.3484 -0.3395
  521MPD2    H5 7745   1.288   1.819  17.560 -1.7521 -1.2877  2.3000
  521MPD2    N1 7746   0.858   1.822   0.096 -0.0245  0.7936  0.1189
  521MPD2    H7 7747   0.801   1.830   0.180 -1.0598 -1.7179 -0.3624
  522TMC3    C1 7748   1.522   1.897  17.523 -0.4724 -1.2401 -0.4616
  522TMC3    C2 7749   1.651   1.920  17.524  0.6405  0.7727  0.5205
  522TMC3    C3 7750   1.734   1.843  17.456 -0.1110  0.4196  0.0906
  522TMC3    C4 7751   1.474   1.795  17.439  0.2466  0.1200 -0.3830
  522TMC3    C5 7752   1.557   1.722  17.361  0.1386 -0.2480 -0.0503
  522TMC3    C6 7753   1.696   1.739  17.379  0.0762  0.5358 -1.0472
  522TMC3     C 7754   1.434   1.955  17.616 -0.3674  0.1017  0.1896
  522TMC3     O 7755   1.483   2.053  17.670  0.4028  0.0931 -0.1787
  522TMC3     H 7756   1.680   1.996  17.596  1.6896  3.4007 -2.7045
  522TMC3    H1 7757   1.369   1.777  17.420  0.8812 -1.7113 -2.1490
  522TMC3    H2 7758   1.766   1.686  17.315 -0.1254 -0.3825 -0.5155
  522TMC3    C7 7759   1.521   1.616  17.262 -0.3842  0.0398  0.2415
  522TMC3    C8 7760   1.873   1.871  17.461  0.1437  0.0757  0.2335
  522TMC3    O1 7761   1.603   1.540  17.218  0.1575  0.2708 -0.3258
  522TMC3    O2 7762   1.915   1.913  17.568 -0.2135 -0.2175 -0.8412
  523MPD2     C 7763   3.908   0.905  10.069 -0.6243  0.0223 -0.5785
  523MPD2    C1 7764   3.787   0.895  10.000  0.0620  0.4961 -0.3621
  523MPD2    C2 7765   3.746   0.997   9.913 -0.8794  0.3812  0.1880
  523MPD2    C3 7766   3.836   1.101   9.883  0.0075  0.3858  0.3685
  523MPD2    C4 7767   3.956   1.107   9.947 -1.0164  0.4992  0.1523
  523MPD2    C5 7768   3.991   1.010  10.037 -0.0202  0.1760 -0.6996
  523MPD2     H 7769   3.650   0.989   9.864 -0.0741 -0.6135 -1.2490
  523MPD2    H1 7770   4.032   1.181   9.924  0.8263 -0.2694  3.7500
  523MPD2    H2 7771   3.955   0.829  10.129  1.6067 -0.0514 -2.4044
  523MPD2    H3 7772   4.087   1.024  10.085 -0.5895  1.2325  0.1146
  523MPD2     N 7773   3.815   1.197   9.774 -0.1550 -0.0735 -0.8520
  523MPD2    H5 7774   3.883   1.269   9.751  0.8157 -0.0005  2.2531
  523MPD2    N1 7775   3.707   0.774  10.025  0.1432 -0.1606 -0.1711
  523MPD2    H7 7776   3.751   0.711  10.090  0.3025  1.0285  0.8837
  524TMC3    C1 7777   3.716   1.336   9.618  0.0245  0.5668  0.3719
  524TMC3    C2 7778   3.623   1.364   9.530  0.0700  0.3480 -0.3462
  524TMC3    C3 7779   3.624   1.484   9.465  0.0596  0.1456 -0.5221
  524TMC3    C4 7780   3.812   1.421   9.658  0.4119  0.5144  0.9501
  524TMC3    C5 7781   3.801   1.545   9.597  0.2502 -0.5078 -0.4059
  524TMC3    C6 7782   3.718   1.578   9.496  0.7487 -0.0216 -0.4599
  524TMC3     C 7783   3.699   1.220   9.701  0.7372 -1.1530 -0.2024
  524TMC3     O 7784   3.603   1.147   9.680  0.4646 -0.9071 -0.0841
  524TMC3     H 7785   3.534   1.302   9.535  0.6139 -0.4389 -0.5447
  524TMC3    H1 7786   3.880   1.414   9.742 -1.7929 -4.6699  2.3129
  524TMC3    H2 7787   3.723   1.673   9.444  0.3641  1.3584  1.9987
  524TMC3    C7 7788   3.881   1.650   9.654 -0.2751  0.2833  0.2306
  524TMC3    C8 7789   3.517   1.524   9.376  0.2637  0.1507 -0.5411
  524TMC3    O1 7790   3.984   1.616   9.707  0.0276  0.1981 -0.4059
  524TMC3    O2 7791   3.535   1.627   9.313 -0.6919  0.2973  0.4716
  525MPD2     C 7792   1.648   3.010  14.653  0.8670  0.5240 -0.2524
  525MPD2    C1 7793   1.750   3.056  14.723 -0.6904  0.0195 -0.1754
  525MPD2    C2 7794   1.787   3.188  14.711  0.6180  0.6319 -0.6603
  525MPD2    C3 7795   1.723   3.266  14.616 -0.0311  0.3420 -0.5225
  525MPD2    C4 7796   1.631   3.208  14.541  0.5926 -0.0459  0.2840
  525MPD2    C5 7797   1.591   3.082  14.551 -0.4370 -0.0081 -0.6592
  525MPD2     H 7798   1.882   3.216  14.757  1.3636  0.1918 -1.9399
  525MPD2    H1 7799   1.575   3.279  14.481 -3.0464 -3.3885 -0.2040
  525MPD2    H2 7800   1.614   2.908  14.667 -0.2279  0.7960 -0.9650
  525MPD2    H3 7801   1.517   3.035  14.487 -0.2018  0.0689 -0.9896
  525MPD2     N 7802   1.752   3.404  14.594 -0.7724 -0.3208  0.0952
  525MPD2    H5 7803   1.697   3.448  14.521 -1.3760  0.3026  0.9281
  525MPD2    N1 7804   1.822   2.979  14.816 -0.2131  0.4236  0.1842
  525MPD2    H7 7805   1.901   3.016  14.867  1.8974 -0.4150 -2.4373
  526TMC3    C1 7806   1.851   2.793  14.964 -0.5994 -0.6413 -0.9273
  526TMC3    C2 7807   1.788   2.736  15.070  0.0677  0.0903 -0.7183
  526TMC3    C3 7808   1.862   2.677  15.169  0.4494 -0.1367  0.0140
  526TMC3    C4 7809   1.988   2.793  14.947 -0.5456  0.1095 -0.1056
  526TMC3    C5 7810   2.060   2.734  15.044 -0.3524 -0.0302 -0.0152
  526TMC3    C6 7811   2.001   2.675  15.157  0.4460 -0.1854  0.2505
  526TMC3     C 7812   1.767   2.863  14.868 -0.3166  0.4913  0.1284
  526TMC3     O 7813   1.659   2.814  14.856  0.1357  0.5959 -0.1754
  526TMC3     H 7814   1.685   2.765  15.087  0.1254  0.5401 -1.1426
  526TMC3    H1 7815   2.030   2.841  14.859  0.5184 -1.9172 -0.6996
  526TMC3    H2 7816   2.066   2.640  15.236  1.0763  0.3091 -0.0506
  526TMC3    C7 7817   2.204   2.718  15.032  0.0421  0.5175 -0.1854
  526TMC3    C8 7818   1.800   2.644  15.295  0.4400 -0.2451  0.4351
  526TMC3    O1 7819   2.250   2.654  15.125 -0.2376 -0.0388 -0.7122
  526TMC3    O2 7820   1.872   2.653  15.395 -0.4081 -0.4187 -0.1328
  527MPD2     C 7821   0.271   1.294   1.963 -0.0597 -0.0507 -0.5157
  527MPD2    C1 7822   0.352   1.386   1.896 -0.5242 -0.0118 -1.0434
  527MPD2    C2 7823   0.425   1.351   1.784 -0.0048 -0.0148 -0.2116
  527MPD2    C3 7824   0.426   1.223   1.745  0.0367 -0.3226 -0.4139
  527MPD2    C4 7825   0.344   1.130   1.806  0.1567 -0.4522 -0.1860
  527MPD2    C5 7826   0.266   1.169   1.911 -0.2574  0.0659 -0.4136
  527MPD2     H 7827   0.486   1.422   1.730  0.7909  0.4959  1.3517
  527MPD2    H1 7828   0.326   1.033   1.763  0.7889 -0.1444 -1.1332
  527MPD2    H2 7829   0.202   1.323   2.041  0.4281 -0.3039  0.0077
  527MPD2    H3 7830   0.182   1.107   1.939  0.0633 -0.2101 -0.0639
  527MPD2     N 7831   0.510   1.190   1.637  0.1504 -0.5155 -0.2195
  527MPD2    H5 7832   0.540   1.270   1.582  3.7392 -1.9356 -0.3214
  527MPD2    N1 7833   0.351   1.519   1.929  0.9100  0.4045  0.8393
  527MPD2    H7 7834   0.422   1.578   1.887 -1.5287  1.9913 -1.0254
  528TMC3    C1 7835   0.285   1.724   2.037 -0.0564  0.5122 -0.5695
  528TMC3    C2 7836   0.390   1.726   2.123 -0.4838 -0.7605  0.0548
  528TMC3    C3 7837   0.389   1.816   2.222  0.0637  0.2267  0.2874
  528TMC3    C4 7838   0.176   1.806   2.060 -0.1798 -0.2355 -0.1820
  528TMC3    C5 7839   0.181   1.893   2.168  0.3078 -1.2849  0.1562
  528TMC3    C6 7840   0.292   1.907   2.239 -0.7743  0.0669 -0.6786
  528TMC3     C 7841   0.252   1.583   2.002  0.6986 -0.6443 -0.0903
  528TMC3     O 7842   0.138   1.547   2.015 -0.1314 -0.1937 -0.2716
  528TMC3     H 7843   0.472   1.656   2.112  1.8428  1.9677  0.1418
  528TMC3    H1 7844   0.086   1.782   2.005 -0.2501  0.0182 -0.1777
  528TMC3    H2 7845   0.293   1.991   2.307  2.4735  2.1732 -3.3464
  528TMC3    C7 7846   0.066   1.971   2.204 -0.4092  0.3632 -0.4911
  528TMC3    C8 7847   0.493   1.823   2.325 -0.6542 -0.3426  0.7428
  528TMC3    O1 7848   0.070   2.041   2.305  0.1096  0.2984 -0.3240
  528TMC3    O2 7849   0.502   1.925   2.390 -0.5118  0.3117 -0.5125
  529MPD2     C 7850   1.505   4.612   0.621  0.6173  0.8996  0.2004
  529MPD2    C1 7851   1.540   4.487   0.566 -0.0397 -0.2056 -0.6076
  529MPD2    C2 7852   1.534   4.473   0.429  0.4821 -0.2841 -1.2397
  529MPD2    C3 7853   1.484   4.579   0.349 -0.3431 -0.8221 -0.2467
  529MPD2    C4 7854   1.467   4.703   0.405 -0.3972 -0.4006 -0.0698
  529MPD2    C5 7855   1.483   4.718   0.537  0.5809  0.1846  0.0446
  529MPD2     H 7856   1.565   4.374   0.397 -3.1246 -0.6029 -3.7981
  529MPD2    H1 7857   1.440   0.066   0.346 -0.4723 -0.5615 -0.2685
  529MPD2    H2 7858   1.507   4.637   0.727  1.0192  0.3305  0.3323
  529MPD2    H3 7859   1.471   0.089   0.588 -1.4149  0.7784 -1.5591
  529MPD2     N 7860   1.455   4.564   0.215 -0.1316  0.2692 -0.1286
  529MPD2    H5 7861   1.413   4.646   0.172 -1.2296 -0.1105  0.2144
  529MPD2    N1 7862   1.598   4.381   0.641 -0.0853 -0.1195 -0.0425
  529MPD2    H7 7863   1.632   4.309   0.579  2.7700  1.2702 -0.0959
  530TMC3    C1 7864   1.674   4.263   0.844 -1.0520  0.2054 -0.2958
  530TMC3    C2 7865   1.654   4.235   0.979 -0.7711 -0.2384 -0.0380
  530TMC3    C3 7866   1.722   4.135   1.032  0.6070  0.6928  0.1042
  530TMC3    C4 7867   1.755   4.187   0.760 -0.2792 -0.1892  0.1756
  530TMC3    C5 7868   1.825   4.090   0.825  0.2145  0.2906  0.3371
  530TMC3    C6 7869   1.813   4.061   0.954  0.3689  0.1211  0.1985
  530TMC3     C 7870   1.598   4.376   0.783  1.0746  0.5221  0.3101
  530TMC3     O 7871   1.548   4.454   0.865  1.1680  0.1116 -0.1266
  530TMC3     H 7872   1.592   4.296   1.043 -1.0663 -1.3932  0.7727
  530TMC3    H1 7873   1.773   4.191   0.653 -0.4120 -0.5177  0.1378
  530TMC3    H2 7874   1.853   3.973   1.003  1.8795  1.8313  2.0730
  530TMC3    C7 7875   1.935   4.024   0.756 -0.4360  0.0101  0.5356
  530TMC3    C8 7876   1.714   4.111   1.170  0.4447  0.1978 -0.7586
  530TMC3    O1 7877   1.942   4.019   0.635  0.1707 -0.6259 -0.0154
  530TMC3    O2 7878   1.602   4.121   1.223  0.0049  0.1901 -0.7431
  531MPD2     C 7879   1.369   2.445  13.021  0.1686 -0.4445 -0.0590
  531MPD2    C1 7880   1.282   2.411  13.127 -0.3234  0.5713  0.2148
  531MPD2    C2 7881   1.204   2.295  13.116  0.5408 -0.0184  0.2855
  531MPD2    C3 7882   1.230   2.204  13.014  0.0413  0.6444  0.1154
  531MPD2    C4 7883   1.323   2.228  12.925  0.4864 -0.3156  0.7974
  531MPD2    C5 7884   1.385   2.350  12.920  0.0911 -0.3074  0.1001
  531MPD2     H 7885   1.127   2.261  13.185 -0.1962 -1.1116 -1.0597
  531MPD2    H1 7886   1.346   2.161  12.843 -0.5034 -2.1893  2.0353
  531MPD2    H2 7887   1.433   2.532  13.014  0.0835 -0.4625 -1.1357
  531MPD2    H3 7888   1.453   2.366  12.837 -1.0670 -2.1320 -1.2027
  531MPD2     N 7889   1.153   2.086  13.026 -0.0377  0.3404 -0.1352
  531MPD2    H5 7890   1.093   2.068  13.106 -1.4444  3.5070 -0.4746
  531MPD2    N1 7891   1.257   2.513  13.222  0.1262 -0.1156 -0.4104
  531MPD2    H7 7892   1.327   2.587  13.215 -0.7254  0.7096 -0.2034
  532TMC3    C1 7893   1.156   2.621  13.405 -0.2580  0.5130  0.1278
  532TMC3    C2 7894   1.026   2.623  13.456  0.4046  0.5846  0.5379
  532TMC3    C3 7895   1.025   2.619  13.588 -0.5932  0.0945  0.2565
  532TMC3    C4 7896   1.269   2.606  13.482 -0.0348  0.5170  0.5031
  532TMC3    C5 7897   1.254   2.603  13.614 -0.8103  0.3155 -0.1289
  532TMC3    C6 7898   1.136   2.613  13.667  0.1827 -0.4121  1.1159
  532TMC3     C 7899   1.146   2.527  13.301 -0.7914  0.2050  0.0129
  532TMC3     O 7900   1.041   2.463  13.307  0.7738 -0.5601 -0.0636
  532TMC3     H 7901   0.941   2.643  13.391 -0.0995 -0.2173  0.9412
  532TMC3    H1 7902   1.363   2.597  13.429  0.5631 -1.6608  1.9097
  532TMC3    H2 7903   1.119   2.586  13.771 -0.3198 -0.8633  0.9203
  532TMC3    C7 7904   1.352   2.526  13.692 -0.6504  0.3730  0.0206
  532TMC3    C8 7905   0.920   2.531  13.637  0.0796  0.0233  0.0322
  532TMC3    O1 7906   1.347   2.526  13.814  0.1051 -0.0471  0.7646
  532TMC3    O2 7907   0.886   2.539  13.753 -0.4386 -0.3112  0.4366
  533TMC3    C1 7908   1.853   3.613  14.640  0.4308 -0.2736 -0.0809
  533TMC3    C2 7909   1.976   3.678  14.657 -1.2312 -0.6293  0.6895
  533TMC3    C3 7910   1.979   3.796  14.724  0.8652 -0.4829  0.4992
  533TMC3    C4 7911   1.739   3.662  14.699  0.4795  0.0627  0.1787
  533TMC3    C5 7912   1.752   3.771  14.778 -0.3972 -0.2693  0.3207
  533TMC3    C6 7913   1.867   3.845  14.789 -0.3009 -0.0271 -0.4391
  533TMC3     C 7914   1.853   3.470  14.659 -1.0504  0.2154  0.2347
  533TMC3     O 7915   1.944   3.438  14.732  0.2528  0.2772  0.2540
  533TMC3     H 7916   2.061   3.629  14.613 -2.0004 -0.1565 -1.3489
  533TMC3    H1 7917   1.642   3.613  14.693  0.7279 -0.3585 -0.4836
  533TMC3    H2 7918   1.877   3.932  14.853  1.3237 -1.7429  1.6434
  533TMC3    C7 7919   1.642   3.789  14.882  0.0037  0.2432  0.2624
  533TMC3    C8 7920   2.099   3.860  14.781  0.2387 -0.0840 -0.1985
  533TMC3    O1 7921   1.545   3.717  14.883 -0.0119 -0.2506  0.3071
  533TMC3    O2 7922   2.101   3.905  14.895 -0.1713 -0.0858  0.2152
  534MPD2     C 7923   3.952   0.306   2.294 -0.5498  0.1893 -0.0253
  534MPD2    C1 7924   4.010   0.287   2.165 -0.2743  0.8192 -0.3180
  534MPD2    C2 7925   3.960   0.191   2.080  0.8442 -0.6223 -0.6071
  534MPD2    C3 7926   3.852   0.111   2.119  0.4881 -0.2912  0.0244
  534MPD2    C4 7927   3.789   0.140   2.243 -0.6128 -0.4279 -0.0525
  534MPD2    C5 7928   3.842   0.235   2.321 -0.1795 -0.1768 -0.2911
  534MPD2     H 7929   4.017   0.163   1.993 -0.3980  0.0286 -1.6278
  534MPD2    H1 7930   3.706   0.083   2.284 -1.3092  0.9919  0.5100
  534MPD2    H2 7931   3.992   0.360   2.379 -0.2434  1.2916 -0.8758
  534MPD2    H3 7932   3.799   0.250   2.419  0.7604  0.6029 -0.0023
  534MPD2     N 7933   3.813   0.006   2.033 -0.5824  0.0390  0.1378
  534MPD2    H5 7934   3.870   0.000   1.949  0.4677  1.3486  0.7515
  534MPD2    N1 7935   4.133   0.355   2.131 -0.4644  0.0214 -0.0075
  534MPD2    H7 7936   4.186   0.328   2.049 -0.0648 -1.2511  0.6797
  535TMC3    C1 7937   3.697   4.582   1.905 -0.2724 -0.7553 -0.4038
  535TMC3    C2 7938   3.589   4.611   1.828 -0.2682 -0.1884 -0.2682
  535TMC3    C3 7939   3.582   4.542   1.712 -0.7054  0.4217  1.0630
  535TMC3    C4 7940   3.798   4.501   1.867 -0.5702  1.4008  0.0040
  535TMC3    C5 7941   3.788   4.440   1.746  0.0855  0.3079  0.2853
  535TMC3    C6 7942   3.677   4.449   1.671  0.5061 -0.0888  0.2523
  535TMC3     C 7943   3.708   4.646   2.035 -0.2530  0.3397  0.6391
  535TMC3     O 7944   3.599   4.646   2.094 -0.0534 -0.4600  0.5129
  535TMC3     H 7945   3.512   4.674   1.871 -0.2729  1.1109 -2.1901
  535TMC3    H1 7946   3.882   4.482   1.934  1.1954 -0.2257 -2.6887
  535TMC3    H2 7947   3.666   4.390   1.581 -1.4131 -0.3341  0.6360
  535TMC3    C7 7948   3.880   4.336   1.696 -0.0501  0.0200 -0.4096
  535TMC3    C8 7949   3.466   4.558   1.623 -0.5936 -0.4059 -0.7287
  535TMC3    O1 7950   3.869   4.303   1.578  0.4472 -0.5377 -0.2015
  535TMC3    O2 7951   3.448   4.481   1.532 -0.8023 -0.0519  0.4423
  536MPD2     C 7952   2.547   2.540  17.296 -0.0945  0.3639  0.3846
  536MPD2    C1 7953   2.645   2.591  17.221 -0.6154 -0.6809  0.0676
  536MPD2    C2 7954   2.609   2.676  17.114  0.0112 -0.4205  0.6134
  536MPD2    C3 7955   2.478   2.701  17.070 -0.2619 -0.4829 -0.3893
  536MPD2    C4 7956   2.381   2.639  17.143 -0.2601  0.6257  0.4881
  536MPD2    C5 7957   2.412   2.563  17.249  0.6762 -0.2249 -0.2979
  536MPD2     H 7958   2.687   2.726  17.058 -0.4988  0.4640  0.7088
  536MPD2    H1 7959   2.281   2.634  17.100 -0.8684  1.3212  1.8384
  536MPD2    H2 7960   2.564   2.473  17.380  1.5875 -0.2443 -0.4569
  536MPD2    H3 7961   2.337   2.502  17.299 -0.5469  0.6756 -1.0503
  536MPD2     N 7962   2.445   2.777  16.959 -0.0607  0.1965 -0.4288
  536MPD2    H5 7963   2.347   2.789  16.934  0.6291  0.6803 -2.8453
  536MPD2    N1 7964   2.777   2.548  17.251 -0.2414 -0.1613  0.7457
  536MPD2    H7 7965   2.784   2.482  17.327 -1.7692 -1.1599  0.0212
  537TMC3    C1 7966   3.012   2.565  17.272  0.9009  0.4032  0.0109
  537TMC3    C2 7967   3.130   2.597  17.216 -0.6462 -0.1841 -0.2808
  537TMC3    C3 7968   3.236   2.612  17.297 -0.2813  0.9955 -0.0372
  537TMC3    C4 7969   3.005   2.540  17.407 -0.3366  0.0526 -0.1218
  537TMC3    C5 7970   3.112   2.543  17.486  0.8955  0.3551  0.1678
  537TMC3    C6 7971   3.230   2.586  17.433  0.0829  0.1251 -0.4314
  537TMC3     C 7972   2.892   2.589  17.189  0.1402 -0.4842  0.0684
  537TMC3     O 7973   2.897   2.657  17.087 -0.4215 -0.2746  0.0438
  537TMC3     H 7974   3.134   2.608  17.108 -0.8106  1.1181 -0.1554
  537TMC3    H1 7975   2.910   2.507  17.448 -0.8018  1.6651  0.0771
  537TMC3    H2 7976   3.313   2.600  17.502  1.2915  0.7094 -2.0042
  537TMC3    C7 7977   3.101   2.504  17.628 -0.0303  0.2864 -0.2269
  537TMC3    C8 7978   3.342   2.701  17.256 -0.8873  0.0435  0.3423
  537TMC3    O1 7979   2.985   2.493  17.668  0.0623  0.3185  0.3692
  537TMC3    O2 7980   3.447   2.688  17.317  0.4068  0.8403 -0.1229
  538TMC3    C1 7981   3.982   0.986  11.213 -0.6193  0.6890  0.0320
  538TMC3    C2 7982   4.067   0.890  11.165  0.1953 -0.6895 -0.5036
  538TMC3    C3 7983   4.115   0.904  11.040  0.1062  0.2507 -0.6984
  538TMC3    C4 7984   3.942   1.095  11.142  0.2566 -0.4305 -0.3462
  538TMC3    C5 7985   3.987   1.088  11.013  0.0593  0.1468  0.1684
  538TMC3    C6 7986   4.072   1.003  10.958 -0.2330 -0.2950 -0.4512
  538TMC3     C 7987   3.884   0.948  11.313 -0.5821 -0.5521 -0.2186
  538TMC3     O 7988   3.775   0.997  11.307 -0.1514 -0.1248  0.5746
  538TMC3     H 7989   4.114   0.824  11.237  1.3639  2.4785  1.6316
  538TMC3    H1 7990   3.859   1.154  11.179 -0.0954 -2.0151  1.4128
  538TMC3    H2 7991   4.092   0.998  10.851 -2.5481 -0.2365 -0.8832
  538TMC3    C7 7992   3.904   1.157  10.914  0.3856  0.3645 -0.1067
  538TMC3    C8 7993   4.242   0.847  11.014 -0.7306  0.2607 -0.2123
  538TMC3    O1 7994   3.851   1.095  10.821 -0.0086  0.4435 -0.3160
  538TMC3    O2 7995   4.273   0.749  11.076 -0.2230 -0.6514 -0.1582
  539MPD2     C 7996   3.405   0.643  11.922 -0.9676  0.0619  0.3010
  539MPD2    C1 7997   3.347   0.602  11.805  0.3804  0.3323 -0.3813
  539MPD2    C2 7998   3.262   0.691  11.735 -0.3993  0.5511 -0.7600
  539MPD2    C3 7999   3.252   0.819  11.780 -0.3672 -0.1786 -1.0485
  539MPD2    C4 8000   3.325   0.862  11.889 -0.2451  0.5829 -0.3903
  539MPD2    C5 8001   3.394   0.773  11.962 -0.9384 -0.3951 -0.2723
  539MPD2     H 8002   3.214   0.666  11.640 -1.2812  3.0075 -0.9646
  539MPD2    H1 8003   3.311   0.961  11.930  0.7565  0.8831 -0.7755
  539MPD2    H2 8004   3.468   0.582  11.985 -0.4806  0.1513 -0.1049
  539MPD2    H3 8005   3.435   0.814  12.054 -0.3884  0.9207 -1.1079
  539MPD2     N 8006   3.188   0.923  11.706  0.3409 -0.2886 -0.3120
  539MPD2    H5 8007   3.176   1.012  11.753  0.4005 -0.1050 -0.6508
  539MPD2    N1 8008   3.371   0.474  11.742 -1.1424 -0.3900 -0.2208
  539MPD2    H7 8009   3.343   0.465  11.645  2.2104  2.0217 -1.4435
  540TMC3    C1 8010   3.080   1.035  11.539  0.3096 -0.6125 -0.0085
  540TMC3    C2 8011   3.102   1.053  11.407  0.5783  0.7686  0.1024
  540TMC3    C3 8012   3.151   1.176  11.363  0.2404  0.6344  0.5331
  540TMC3    C4 8013   3.083   1.144  11.626 -0.7571 -0.1292 -0.6207
  540TMC3    C5 8014   3.142   1.261  11.584 -0.0008 -0.0771  0.2866
  540TMC3    C6 8015   3.171   1.281  11.455 -0.1173 -0.1250  0.2418
  540TMC3     C 8016   3.117   0.906  11.595  0.0737 -0.0034  0.3058
  540TMC3     O 8017   3.101   0.808  11.525 -0.2484  0.5299 -0.0970
  540TMC3     H 8018   3.078   0.969  11.342 -1.3369 -0.5772  2.5542
  540TMC3    H1 8019   3.070   1.133  11.733  3.1490 -1.8756 -0.3057
  540TMC3    H2 8020   3.206   1.375  11.414  1.2395 -1.4733 -1.6841
  540TMC3    C7 8021   3.116   1.363  11.676 -1.0406 -0.9451  0.0751
  540TMC3    C8 8022   3.241   1.172  11.253 -0.1282  0.2880  0.0236
  540TMC3    O1 8023   3.036   1.337  11.763 -0.3389 -0.3579 -0.5829
  540TMC3    O2 8024   3.345   1.236  11.259  0.0298 -0.3121 -0.1142
  541MPD2     C 8025   2.066   2.812  12.927 -0.2274 -0.5949  0.7113
  541MPD2    C1 8026   2.106   2.700  12.853  0.3438 -0.1424 -1.1009
  541MPD2    C2 8027   2.155   2.724  12.723  0.5402 -0.0329 -0.2337
  541MPD2    C3 8028   2.185   2.845  12.670  0.1094  0.3450 -0.5603
  541MPD2    C4 8029   2.146   2.951  12.746 -0.1465 -0.5484 -0.2187
  541MPD2    C5 8030   2.096   2.940  12.874 -0.3475 -0.0792  0.0387
  541MPD2     H 8031   2.173   2.638  12.659  1.0663 -0.1280  0.0458
  541MPD2    H1 8032   2.165   3.052  12.711 -0.9709 -0.3698 -0.1652
  541MPD2    H2 8033   2.020   2.808  13.026 -1.9046 -0.9894 -0.0760
  541MPD2    H3 8034   2.060   3.025  12.930  1.2847  0.8205 -0.2669
  541MPD2     N 8035   2.241   2.864  12.541  0.5617 -0.2746 -0.1985
  541MPD2    H5 8036   2.236   2.962  12.513 -1.1649 -0.3196 -0.0672
  541MPD2    N1 8037   2.105   2.573  12.899 -0.5590 -0.3213  0.3195
  541MPD2    H7 8038   2.142   2.507  12.830 -0.6017  0.4069 -0.4061
  542TMC3    C1 8039   2.309   2.820  12.326 -0.0535  0.3253  0.1896
  542TMC3    C2 8040   2.327   2.726  12.230  0.4894  0.4725  0.1119
  542TMC3    C3 8041   2.359   2.783  12.107  0.0790 -0.1533 -0.9587
  542TMC3    C4 8042   2.330   2.958  12.307  0.2315  0.8280  0.4027
  542TMC3    C5 8043   2.367   2.998  12.182 -0.3678 -0.4466 -0.0406
  542TMC3    C6 8044   2.381   2.912  12.075 -0.0871 -0.0960 -0.0001
  542TMC3     C 8045   2.278   2.762  12.453 -0.4172 -0.1140 -0.3202
  542TMC3     O 8046   2.296   2.641  12.469 -0.6244  0.3705  0.1686
  542TMC3     H 8047   2.302   2.622  12.243 -0.7012  0.7561  0.0935
  542TMC3    H1 8048   2.333   3.026  12.391  0.5209 -0.7795  1.7090
  542TMC3    H2 8049   2.399   2.938  11.972 -0.3771 -1.3019 -0.3574
  542TMC3    C7 8050   2.381   3.141  12.161 -0.4882 -0.3173 -0.3221
  542TMC3    C8 8051   2.339   2.695  11.988  0.2052  0.2668 -0.0653
  542TMC3    O1 8052   2.320   3.210  12.242  0.2907 -0.2378 -0.2842
  542TMC3    O2 8053   2.397   2.724  11.880 -0.4506  0.2456  0.3633
  543TMC3    C1 8054   1.479   3.784  17.179 -0.0945  0.5791  0.2444
  543TMC3    C2 8055   1.419   3.744  17.298  0.0509 -0.1701 -0.0582
  543TMC3    C3 8056   1.294   3.685  17.302  0.5927 -0.3261 -0.1275
  543TMC3    C4 8057   1.408   3.774  17.068  0.6610 -0.3659  0.0816
  543TMC3    C5 8058   1.285   3.709  17.071  0.6080 -0.2359  0.1434
  543TMC3    C6 8059   1.227   3.670  17.190  0.0283 -0.0608 -0.4118
  543TMC3     C 8060   1.627   3.793  17.166 -0.1287  0.6882 -0.6309
  543TMC3     O 8061   1.669   3.769  17.051  0.2757 -0.3516  0.5189
  543TMC3     H 8062   1.468   3.759  17.393  2.2240  0.7772 -1.3206
  543TMC3    H1 8063   1.443   3.817  16.975 -1.2458  0.1613 -0.4011
  543TMC3    H2 8064   1.130   3.620  17.194  0.9595 -1.7105  1.5042
  543TMC3    C7 8065   1.221   3.702  16.945  0.2257 -0.6763  0.0331
  543TMC3    C8 8066   1.257   3.615  17.417 -0.2137  0.5863  0.1350
  543TMC3    O1 8067   1.275   3.754  16.852  0.2383  0.2794 -0.4053
  543TMC3    O2 8068   1.296   3.661  17.520 -0.6107  0.0248  0.0935
  544MPD2     C 8069   1.140   3.183  17.665  0.0632  0.3840 -0.2826
  544MPD2    C1 8070   1.143   3.151  17.534  0.3333  0.3462  0.0338
  544MPD2    C2 8071   1.152   3.257  17.439  0.7325  0.1906 -0.3585
  544MPD2    C3 8072   1.164   3.393  17.476  0.0559  0.1424  0.4755
  544MPD2    C4 8073   1.157   3.420  17.613 -0.0090  0.5980 -0.2280
  544MPD2    C5 8074   1.159   3.312   0.001  0.4816  0.2177  0.4478
  544MPD2     H 8075   1.155   3.235  17.333 -0.2212  2.1050 -0.7866
  544MPD2    H1 8076   1.169   3.518  17.657  2.0580 -0.6538  1.9612
  544MPD2    H2 8077   1.140   3.105   0.042 -1.3798  0.4301 -0.2423
  544MPD2    H3 8078   1.183   3.339   0.103  0.8599 -0.1400  0.4519
  544MPD2     N 8079   1.200   3.493  17.386 -0.7451  0.3760  0.1033
  544MPD2    H5 8080   1.201   3.469  17.287 -1.1434 -0.0702  0.2097
  544MPD2    N1 8081   1.145   3.014  17.486 -0.2859 -0.1262 -0.6831
  544MPD2    H7 8082   1.114   2.939  17.546 -2.5629  1.4914  0.1936
  545TMC3    C1 8083   1.190   2.829  17.351  0.4570 -0.8834 -0.7991
  545TMC3    C2 8084   1.307   2.788  17.286 -0.4777 -0.3420  0.3138
  545TMC3    C3 8085   1.327   2.656  17.299  0.1356  0.7896  0.5707
  545TMC3    C4 8086   1.115   2.761  17.442 -0.0500 -0.0938  0.1132
  545TMC3    C5 8087   1.143   2.631  17.460  0.5833  1.0817 -0.1202
  545TMC3    C6 8088   1.249   2.583  17.386 -0.2375  0.0416 -0.3726
  545TMC3     C 8089   1.178   2.974  17.361  0.2241 -0.0291  0.4231
  545TMC3     O 8090   1.250   3.035  17.288  0.2450  0.4204  0.9667
  545TMC3     H 8091   1.349   2.850  17.207 -0.9631  0.1884  0.4667
  545TMC3    H1 8092   1.029   2.810  17.485  1.3299  2.0057  0.4837
  545TMC3    H2 8093   1.274   2.479  17.408  1.6650  0.6807  0.4733
  545TMC3    C7 8094   1.122   2.589  17.595  0.3614  0.1496 -0.3647
  545TMC3    C8 8095   1.459   2.622  17.286  0.3661  0.5319 -0.3531
  545TMC3    O1 8096   1.035   2.646  17.657  0.4877  0.2371  0.6514
  545TMC3    O2 8097   1.492   2.515  17.331 -0.2722  0.7070  0.1516
  546MPD2     C 8098   3.612   3.383  17.660  0.7031  0.0464  0.3024
  546MPD2    C1 8099   3.584   3.432  17.532  0.4760 -0.4884  0.3958
  546MPD2    C2 8100   3.615   3.562  17.507 -0.1851  0.3859  0.0791
  546MPD2    C3 8101   3.653   3.648  17.608 -0.3323  0.0387  0.2441
  546MPD2    C4 8102   3.669   3.598   0.037 -0.3823  0.0227 -0.1672
  546MPD2    C5 8103   3.651   3.469   0.067 -0.5301  0.1218  0.6570
  546MPD2     H 8104   3.590   3.599  17.409 -0.7794  0.4864  0.2647
  546MPD2    H1 8105   3.711   3.665   0.111 -1.1595  2.5310 -1.9840
  546MPD2    H2 8106   3.600   3.276  17.675  1.0774  0.1894  1.6488
  546MPD2    H3 8107   3.648   3.433   0.169  0.3216 -0.7857  0.3647
  546MPD2     N 8108   3.668   3.789  17.594 -0.0589 -0.4759 -0.6799
  546MPD2    H5 8109   3.690   3.847  17.674 -0.0574  0.4519 -1.3404
  546MPD2    N1 8110   3.526   3.339  17.440 -0.8206 -0.2462  0.3748
  546MPD2    H7 8111   3.503   3.248  17.479 -0.0805 -0.6365 -0.1002
  547TMC3    C1 8112   3.383   3.277  17.263  0.2564 -0.5467 -0.2565
  547TMC3    C2 8113   3.307   3.319  17.157 -0.2255  0.3266 -0.5298
  547TMC3    C3 8114   3.183   3.267  17.135  0.6683  0.3304 -0.2123
  547TMC3    C4 8115   3.343   3.172  17.348 -0.3724  0.0257 -0.3157
  547TMC3    C5 8116   3.223   3.123  17.308  0.1116 -0.6113 -0.5400
  547TMC3    C6 8117   3.138   3.176  17.221  0.4167 -0.6841 -0.1383
  547TMC3     C 8118   3.464   3.377  17.320  0.1303 -0.0547  0.9371
  547TMC3     O 8119   3.480   3.479  17.255  0.1563 -0.6006 -0.0759
  547TMC3     H 8120   3.335   3.394  17.084 -1.5779  1.6044  0.2569
  547TMC3    H1 8121   3.400   3.126  17.427  1.6929  1.6073 -0.8815
  547TMC3    H2 8122   3.032   3.155  17.208  0.1715 -0.6491  1.9136
  547TMC3    C7 8123   3.178   3.013  17.398  0.0316  0.4571  0.1178
  547TMC3    C8 8124   3.086   3.341  17.054 -0.2612 -0.1447  0.2701
  547TMC3    O1 8125   3.247   2.997  17.494 -0.3163  0.2321  0.4756
  547TMC3    O2 8126   2.987   3.359  17.125 -0.2242  0.1534 -0.4422
  548MPD2     C 8127   2.873   3.731  12.688  0.3655  0.1032  0.3531
  548MPD2    C1 8128   2.827   3.648  12.792  0.0841  0.2434 -0.2514
  548MPD2    C2 8129   2.853   3.510  12.792  0.1802  0.3389 -0.1290
  548MPD2    C3 8130   2.933   3.460  12.689 -0.5717  0.6458 -0.5761
  548MPD2    C4 8131   2.992   3.542  12.603 -1.1836  0.3537  0.0876
  548MPD2    C5 8132   2.963   3.680  12.599 -0.1925 -0.1294 -0.1362
  548MPD2     H 8133   2.804   3.445  12.862  1.2603 -1.0692 -0.6684
  548MPD2    H1 8134   3.048   3.495  12.523 -1.1513  0.2487  0.1718
  548MPD2    H2 8135   2.843   3.834  12.677 -0.0898 -0.3021 -2.1235
  548MPD2    H3 8136   3.003   3.738  12.517  0.3520 -2.8925 -1.8175
  548MPD2     N 8137   2.940   3.317  12.670 -0.4543 -0.0137 -0.8208
  548MPD2    H5 8138   2.879   3.263  12.732  0.4580  1.0416  1.0005
  548MPD2    N1 8139   2.737   3.710  12.886  0.3393  0.2313  0.1086
  548MPD2    H7 8140   2.733   3.811  12.874 -0.2366 -0.0709 -2.2206
  549TMC3    C1 8141   2.565   3.732  13.058 -0.7213 -0.4849 -0.1948
  549TMC3    C2 8142   2.519   3.847  13.008  0.3478 -0.3999  0.4680
  549TMC3    C3 8143   2.431   3.906  13.098  0.3027 -0.2503 -0.5700
  549TMC3    C4 8144   2.534   3.672  13.177 -0.6420  0.1205  0.9484
  549TMC3    C5 8145   2.427   3.720  13.245 -0.7379  0.2897  0.1578
  549TMC3    C6 8146   2.374   3.840  13.205 -0.3411 -0.0021 -0.2448
  549TMC3     C 8147   2.658   3.650  12.982 -0.2170  0.5520  0.4150
  549TMC3     O 8148   2.651   3.532  13.000  0.3768 -0.8660 -0.3377
  549TMC3     H 8149   2.542   3.884  12.909 -1.4063 -1.3844 -0.3149
  549TMC3    H1 8150   2.586   3.586  13.217 -0.4278  1.5651  3.7533
  549TMC3    H2 8151   2.289   3.886  13.254 -0.3801 -1.5944  1.1514
  549TMC3    C7 8152   2.326   3.630  13.281 -0.2817  0.2180  0.2554
  549TMC3    C8 8153   2.357   4.021  13.051  0.2908  0.2776 -0.1749
  549TMC3    O1 8154   2.227   3.670  13.344  0.4546  0.4444 -0.1110
  549TMC3    O2 8155   2.242   4.038  13.087 -0.4265 -0.1845 -0.1802
  550TMC3    C1 8156   1.793   1.707  11.876  0.3603  0.2965 -0.3862
  550TMC3    C2 8157   1.805   1.727  12.005  0.1853 -0.3520 -0.7089
  550TMC3    C3 8158   1.744   1.838  12.063 -0.2254  0.5377 -0.1781
  550TMC3    C4 8159   1.715   1.786  11.797  0.6370 -0.1552 -0.4919
  550TMC3    C5 8160   1.643   1.889  11.855 -0.5339 -0.3063 -0.2587
  550TMC3    C6 8161   1.665   1.925  11.987  0.4200  0.1216  0.0897
  550TMC3     C 8162   1.851   1.582  11.826  0.4820 -0.2146  0.2151
  550TMC3     O 8163   1.893   1.496  11.905  0.1443 -0.7336  0.2769
  550TMC3     H 8164   1.849   1.650  12.067 -1.9409 -0.2393  0.9628
  550TMC3    H1 8165   1.702   1.772  11.690  0.4215 -0.1417 -0.4672
  550TMC3    H2 8166   1.620   2.019  12.020  1.4319  1.2454 -1.7233
  550TMC3    C7 8167   1.502   1.898  11.819  0.1551 -0.0031  0.4815
  550TMC3    C8 8168   1.705   1.818  12.200  1.0811  0.2737 -0.0750
  550TMC3    O1 8169   1.438   1.935  11.911  0.3892 -0.6313 -0.1498
  550TMC3    O2 8170   1.782   1.761  12.278  0.0736 -0.4433  0.5142
  551TMC3    C1 8171   3.881   4.540  13.735  0.5640  0.1160  0.3212
  551TMC3    C2 8172   4.005   4.489  13.684 -0.0648  0.3933  0.5310
  551TMC3    C3 8173   4.119   4.535  13.738 -0.4566 -0.3655  0.7996
  551TMC3    C4 8174   3.873   4.614  13.846  0.1485 -0.2513  0.2013
  551TMC3    C5 8175   3.990   4.645  13.908  0.6202  0.2555  0.6032
  551TMC3    C6 8176   4.116   4.606  13.858 -0.5096  0.2111 -0.3416
  551TMC3     C 8177   3.768   4.533  13.647 -0.0429  0.1133 -1.1739
  551TMC3     O 8178   3.747   4.427  13.598  0.7597 -0.0718 -0.1835
  551TMC3     H 8179   4.006   4.435  13.590 -3.8397  1.1311  0.0374
  551TMC3    H1 8180   3.776   4.646  13.882  1.0236 -1.3507  3.5314
  551TMC3    H2 8181   4.213   4.621  13.904  0.5427  1.3828 -2.9539
  551TMC3    C7 8182   3.992   0.013  14.026 -0.0800  0.0518 -0.0956
  551TMC3    C8 8183   4.242   4.479  13.682 -0.4695  0.2108  0.1468
  551TMC3    O1 8184   4.098   0.020  14.085 -0.2761 -0.7245 -0.4387
  551TMC3    O2 8185   4.224   4.373  13.622 -0.1772  0.3470  0.3229
  552MPD2     C 8186   1.252   1.877  14.044  0.9177  1.0525 -0.8223
  552MPD2    C1 8187   1.363   1.840  13.973  0.1971 -0.6399 -0.1877
  552MPD2    C2 8188   1.491   1.872  14.023 -0.0517 -0.6724  0.2877
  552MPD2    C3 8189   1.508   1.939  14.139  0.3510 -0.1216  0.4718
  552MPD2    C4 8190   1.398   1.985  14.208  0.0293  0.1046  0.0362
  552MPD2    C5 8191   1.274   1.949  14.155 -0.1248 -0.8275 -0.1684
  552MPD2     H 8192   1.571   1.835  13.961 -0.7112  0.3627 -1.1960
  552MPD2    H1 8193   1.407   2.046  14.297  1.4105 -0.9683  0.6539
  552MPD2    H2 8194   1.154   1.842  14.016  1.5312 -0.4037 -1.0972
  552MPD2    H3 8195   1.191   1.986  14.214 -0.4659 -0.3223 -0.9647
  552MPD2     N 8196   1.636   1.981  14.181  0.4658 -0.8380 -0.4600
  552MPD2    H5 8197   1.634   2.030  14.270  3.8519 -0.2250 -0.7208
  552MPD2    N1 8198   1.360   1.752  13.867 -0.2814  0.0646  0.0954
  552MPD2    H7 8199   1.452   1.711  13.855 -1.4426 -2.5004 -0.1663
  553TMC3    C1 8200   1.281   1.610  13.708 -0.5114 -0.1387  0.3613
  553TMC3    C2 8201   1.196   1.595  13.605  0.1937 -0.4258  0.5331
  553TMC3    C3 8202   1.210   1.494  13.518  0.6256 -0.5217 -0.8457
  553TMC3    C4 8203   1.377   1.514  13.730 -0.1814 -0.6027 -0.3370
  553TMC3    C5 8204   1.407   1.425  13.623 -0.5547  0.3357 -0.0112
  553TMC3    C6 8205   1.317   1.408  13.522  0.0426 -0.0308 -0.0170
  553TMC3     C 8206   1.250   1.710  13.800 -0.7573 -0.5717 -0.2692
  553TMC3     O 8207   1.132   1.742  13.807  0.2683  0.2914 -0.2044
  553TMC3     H 8208   1.118   1.671  13.596 -0.3706 -0.9971  0.6046
  553TMC3    H1 8209   1.434   1.520  13.822 -0.5343 -0.8010 -0.1027
  553TMC3    H2 8210   1.331   1.344  13.436 -2.5444  1.4247 -1.4995
  553TMC3    C7 8211   1.515   1.334  13.628  0.3036  0.0256 -0.4875
  553TMC3    C8 8212   1.177   1.515  13.382 -0.3209  0.1581 -0.1267
  553TMC3    O1 8213   1.507   1.216  13.599 -0.2798 -0.3977  0.1690
  553TMC3    O2 8214   1.081   1.454  13.334  0.3842 -0.2306  0.0552
  554TMC3    C1 8215   2.478   0.862  11.751  0.7725 -0.2143 -0.5627
  554TMC3    C2 8216   2.430   0.794  11.640  0.2149  0.2401  0.4395
  554TMC3    C3 8217   2.439   0.856  11.514  1.2159 -0.1503 -0.3299
  554TMC3    C4 8218   2.548   0.986  11.737  0.9589  0.4682 -0.1182
  554TMC3    C5 8219   2.562   1.033  11.612 -0.4112  0.7727 -0.5453
  554TMC3    C6 8220   2.500   0.980  11.504 -0.6036  0.3099  0.4905
  554TMC3     C 8221   2.500   0.790  11.879  0.4090 -0.1673  0.5394
  554TMC3     O 8222   2.531   0.864  11.974 -0.4167  0.2802  0.0968
  554TMC3     H 8223   2.373   0.703  11.655 -0.7014  0.4069 -2.0313
  554TMC3    H1 8224   2.605   1.026  11.820 -0.0940  1.2774  0.2145
  554TMC3    H2 8225   2.502   1.041  11.414  0.3000 -2.1852 -1.1943
  554TMC3    C7 8226   2.626   1.163  11.595  0.1678 -0.3817 -0.3603
  554TMC3    C8 8227   2.409   0.788  11.393 -0.1400 -0.5710 -0.0013
  554TMC3    O1 8228   2.659   1.220  11.698  0.2768 -0.0362 -0.2495
  554TMC3    O2 8229   2.440   0.848  11.292  0.5359  0.2381 -0.2100
  555TMC3    C1 8230   2.557   0.051  15.102 -1.2251 -0.4537  0.1898
  555TMC3    C2 8231   2.650   0.113  15.181 -0.2900 -0.4997 -0.0372
  555TMC3    C3 8232   2.647   0.093  15.315 -0.3460 -0.7867  0.3253
  555TMC3    C4 8233   2.466   4.701  15.163  0.3150 -0.4123  0.5997
  555TMC3    C5 8234   2.485   4.657  15.289 -0.4352  0.8033 -0.1956
  555TMC3    C6 8235   2.570   0.001  15.375 -0.1987 -0.1608  0.3461
  555TMC3     C 8236   2.533   0.100  14.966 -0.7226 -0.5068 -0.1030
  555TMC3     O 8237   2.586   0.036  14.873 -0.0313  0.2804 -0.7720
  555TMC3     H 8238   2.711   0.183  15.125  2.6810 -2.3594  0.8520
  555TMC3    H1 8239   2.390   4.659  15.097  0.0493  0.6201  0.2479
  555TMC3    H2 8240   2.576   4.698  15.480 -1.7949 -1.2745  0.1543
  555TMC3    C7 8241   2.401   4.549  15.329 -0.0014  0.5591  0.0316
  555TMC3    C8 8242   2.757   0.169  15.382  0.0572  0.1375  0.9632
  555TMC3    O1 8243   2.370   4.539  15.451  0.3007  0.1926 -0.1930
  555TMC3    O2 8244   2.845   0.212  15.307 -0.5343 -0.0364 -0.0108
  556MPD2     C 8245   0.058   1.910  10.687 -0.2140 -0.7343  0.6836
  556MPD2    C1 8246   0.057   1.818  10.786 -0.3634 -0.5264 -0.2558
  556MPD2    C2 8247   0.068   1.685  10.747  0.3260  0.1404 -0.0582
  556MPD2    C3 8248   0.087   1.648  10.612 -0.2156  0.6784 -0.3218
  556MPD2    C4 8249   0.083   1.743  10.518  0.6976 -0.5501  0.0126
  556MPD2    C5 8250   0.068   1.871  10.556 -0.5484 -0.5455 -0.1288
  556MPD2     H 8251   0.070   1.602  10.817 -0.5838 -0.9412 -1.3086
  556MPD2    H1 8252   0.102   1.728  10.413 -0.9810  2.2291 -0.6926
  556MPD2    H2 8253   0.041   2.015  10.707  1.5980 -0.0585 -1.2671
  556MPD2    H3 8254   0.046   1.942  10.477 -0.9484  1.2738  1.6133
  556MPD2     N 8255   0.095   1.506  10.583  0.2748  0.7213  0.8597
  556MPD2    H5 8256   0.079   1.442  10.661  0.7720  0.8688  1.0823
  556MPD2    N1 8257   0.051   1.854  10.929  0.3090  0.5744 -0.2787
  556MPD2    H7 8258   0.075   1.783  10.997 -0.4297 -0.7178 -1.3437
  557TMC3    C1 8259   0.128   1.317  10.443  0.1656  1.2626  0.2308
  557TMC3    C2 8260   0.131   1.261  10.319  0.6220 -0.0156 -0.2807
  557TMC3    C3 8261   0.120   1.130  10.303  0.0718 -0.3571 -0.4674
  557TMC3    C4 8262   0.103   1.247  10.551 -0.3855 -0.1592 -0.0331
  557TMC3    C5 8263   0.096   1.112  10.536 -0.4413  0.2794  0.0247
  557TMC3    C6 8264   0.102   1.053  10.416 -0.5816 -0.4064  0.4953
  557TMC3     C 8265   0.116   1.457  10.455  0.1706 -0.8214  0.5505
  557TMC3     O 8266   0.131   1.518  10.350  0.3316  0.7878  0.0635
  557TMC3     H 8267   0.129   1.326  10.232  3.3505  0.8934  0.3378
  557TMC3    H1 8268   0.114   1.289  10.651 -1.6325  1.0283 -0.3992
  557TMC3    H2 8269   0.080   0.947  10.413  1.9723 -0.9170 -0.9471
  557TMC3    C7 8270   4.723   1.058  10.631 -0.2334 -0.4859 -1.0286
  557TMC3    C8 8271   0.156   1.068  10.173 -0.0211  0.1366  0.9746
  557TMC3    O1 8272   4.653   1.142  10.679  0.1617  0.0026 -0.4857
  557TMC3    O2 8273   0.197   1.155  10.096 -0.0944 -0.5743 -0.2643
  558TMC3    C1 8274   2.996   3.701   9.693  0.6177  0.2230 -0.1706
  558TMC3    C2 8275   2.865   3.668   9.717  0.3636 -0.4651  0.8556
  558TMC3    C3 8276   2.821   3.550   9.666 -0.0268  0.2089  0.1129
  558TMC3    C4 8277   3.079   3.623   9.618 -0.5136 -0.1621 -0.9224
  558TMC3    C5 8278   3.025   3.506   9.576 -0.5537  0.3778  0.0632
  558TMC3    C6 8279   2.897   3.465   9.597 -0.2040 -0.0008  0.0328
  558TMC3     C 8280   3.060   3.801   9.776  0.6344  0.3855 -0.6114
  558TMC3     O 8281   2.996   3.832   9.876 -0.1539 -0.5202 -0.3216
  558TMC3     H 8282   2.793   3.723   9.776  0.0439  2.0627 -1.8416
  558TMC3    H1 8283   3.185   3.642   9.603 -0.3791 -0.2678 -0.1259
  558TMC3    H2 8284   2.860   3.364   9.585 -1.5980  0.2945  1.7854
  558TMC3    C7 8285   3.107   3.429   9.491 -0.7503 -0.3570  0.2012
  558TMC3    C8 8286   2.727   3.491   9.763 -0.1193 -0.2112 -0.6619
  558TMC3    O1 8287   3.225   3.459   9.501  0.0607  0.4765  0.5094
  558TMC3    O2 8288   2.613   3.519   9.734  0.0740  0.1253  0.4128
  559MPD2     C 8289   2.298   0.055  10.529 -0.2917 -0.7460  0.1859
  559MPD2    C1 8290   2.264   4.671  10.613  0.1937 -0.2312  0.1884
  559MPD2    C2 8291   2.364   4.606  10.670  1.3669 -0.0264 -1.0266
  559MPD2    C3 8292   2.494   4.646  10.659  0.2381 -0.1425 -0.1617
  559MPD2    C4 8293   2.526   0.023  10.570  1.0791 -0.6919  0.2972
  559MPD2    C5 8294   2.425   0.089  10.510 -0.3501  0.7313  0.1003
  559MPD2     H 8295   2.341   4.527  10.740  1.5520  0.9077  0.0927
  559MPD2    H1 8296   2.630   0.046  10.548  0.9663 -0.6747 -0.2133
  559MPD2    H2 8297   2.219   0.119  10.491 -1.4666 -2.8404 -0.8911
  559MPD2    H3 8298   2.438   0.178  10.449  0.3893  1.0429  0.7033
  559MPD2     N 8299   2.584   4.592  10.747  0.4810  0.2911  0.2418
  559MPD2    H5 8300   2.547   4.514  10.801 -0.6669 -0.7578 -2.0383
  559MPD2    N1 8301   2.133   4.634  10.627 -0.2095 -0.5900  0.0431
  559MPD2    H7 8302   2.067   4.693  10.576 -1.7784  0.7275  3.5574
  560TMC3    C1 8303   2.752   4.603  10.911  0.2949  0.4098  0.3762
  560TMC3    C2 8304   2.739   4.468  10.922  0.0465  0.6953 -0.4714
  560TMC3    C3 8305   2.774   4.419  11.049 -0.1847 -0.2302  0.5276
  560TMC3    C4 8306   2.804   4.686  11.010 -0.2330 -0.2425 -0.1606
  560TMC3    C5 8307   2.828   4.631  11.128  0.5872  0.2328  0.3368
  560TMC3    C6 8308   2.815   4.497  11.152 -0.2308  0.0661 -0.0885
  560TMC3     C 8309   2.691   4.662  10.795  0.0859 -0.1692 -0.0870
  560TMC3     O 8310   2.723   0.055  10.774  0.6338 -0.3990  0.2534
  560TMC3     H 8311   2.690   4.403  10.852 -0.8610  0.7294  0.1335
  560TMC3    H1 8312   2.809   0.068  10.989  1.8648 -0.3755 -0.2822
  560TMC3    H2 8313   2.842   4.458  11.250 -0.3967  0.6890  0.2126
  560TMC3    C7 8314   2.867   4.723  11.231  0.1358 -0.0600 -0.1858
  560TMC3    C8 8315   2.821   4.283  11.051  0.3190  0.3479 -0.2447
  560TMC3    O1 8316   2.819   4.706  11.341  0.1027 -0.1076 -0.1054
  560TMC3    O2 8317   2.768   4.217  10.963 -0.1302  0.0654  0.3982
  561TMC3    C1 8318   0.004   3.551  11.315 -0.2177  0.4324  0.5355
  561TMC3    C2 8319   0.029   3.561  11.449  0.3657 -0.5488 -0.0988
  561TMC3    C3 8320   0.049   3.683  11.508 -0.6267  0.2122  0.0754
  561TMC3    C4 8321   4.713   3.667  11.240 -0.1503 -0.4244  0.1345
  561TMC3    C5 8322   0.007   3.784  11.302  0.3610 -0.9532  0.0271
  561TMC3    C6 8323   0.044   3.800  11.434 -0.4266  0.4130 -0.0259
  561TMC3     C 8324   0.018   3.415  11.262 -0.1504  0.1769  0.1613
  561TMC3     O 8325   0.005   3.332  11.346 -0.1842 -0.1718  0.1352
  561TMC3     H 8326   0.028   3.474  11.513 -1.3769  1.4147  2.5390
  561TMC3    H1 8327   4.701   3.656  11.133 -3.6339  1.5181  0.3235
  561TMC3    H2 8328   0.060   3.897  11.480  0.8749  0.7978 -1.2787
  561TMC3    C7 8329   0.037   3.902  11.214  0.2272  0.0879  0.3652
  561TMC3    C8 8330   0.049   3.681  11.652 -0.2657  0.1612  0.3870
  561TMC3    O1 8331   4.687   3.916  11.117  0.8695 -0.0618  0.3405
  561TMC3    O2 8332   0.083   3.579  11.710  0.0943 -0.0695  0.1950
  562TMC3    C1 8333   2.445   0.840  15.413  0.2303  0.5830  0.2567
  562TMC3    C2 8334   2.344   0.902  15.476  0.2601  0.1954 -0.2446
  562TMC3    C3 8335   2.248   0.820  15.540  0.1604 -0.0526  0.5116
  562TMC3    C4 8336   2.470   0.707  15.429  0.1939 -0.2636  0.3566
  562TMC3    C5 8337   2.380   0.630  15.495  0.6477 -0.1225  0.3924
  562TMC3    C6 8338   2.266   0.693  15.545  0.1803 -0.0199 -0.1772
  562TMC3     C 8339   2.535   0.921  15.331  0.0210 -0.8075  0.1998
  562TMC3     O 8340   2.636   0.879  15.281 -0.8341  1.2185  0.2512
  562TMC3     H 8341   2.340   1.010  15.483 -2.9337  0.0596  0.1872
  562TMC3    H1 8342   2.553   0.652  15.385  1.3872  1.6872  0.1624
  562TMC3    H2 8343   2.192   0.632  15.596 -0.7032  1.7947  0.6993
  562TMC3    C7 8344   2.389   0.487  15.504 -0.6085  0.1833 -0.6917
  562TMC3    C8 8345   2.135   0.877  15.604 -0.0843  0.2745  0.0272
  562TMC3    O1 8346   2.470   0.427  15.429 -0.1893 -0.2608 -0.0148
  562TMC3    O2 8347   2.067   0.799  15.671 -0.5680  0.4266 -0.0894
  563MPD2     C 8348   4.384   1.533  15.692  0.0306  0.1583  0.4837
  563MPD2    C1 8349   4.388   1.630  15.787  0.2359  0.4291  0.4771
  563MPD2    C2 8350   4.479   1.620  15.898  0.0584  0.1947 -0.9516
  563MPD2    C3 8351   4.563   1.510  15.906  0.0189  0.1605  0.0529
  563MPD2    C4 8352   4.548   1.409  15.813 -0.5098  0.0742  0.1264
  563MPD2    C5 8353   4.461   1.419  15.708 -0.3306 -0.6694  0.1033
  563MPD2     H 8354   4.481   1.692  15.979 -0.5583 -0.7096 -0.1305
  563MPD2    H1 8355   4.593   1.311  15.823 -0.1152  0.3736  1.3052
  563MPD2    H2 8356   4.331   1.553  15.600 -1.4241  0.2368  1.3328
  563MPD2    H3 8357   4.453   1.340  15.635  1.5539 -0.6943 -0.0730
  563MPD2     N 8358   4.652   1.495  16.020  0.3817  0.5867 -0.4937
  563MPD2    H5 8359   4.656   1.567  16.091  0.1867  0.1341 -0.0249
  563MPD2    N1 8360   4.288   1.726  15.776 -0.1681  0.3302  0.1447
  563MPD2    H7 8361   4.206   1.708  15.718 -0.2242  0.1531  0.2773
  564TMC3    C1 8362   4.169   1.839  15.933 -0.2067  0.2646 -0.4224
  564TMC3    C2 8363   4.094   1.727  15.943 -0.1787 -0.6310  0.9848
  564TMC3    C3 8364   4.049   1.685  16.065  0.3999  0.3422  0.0353
  564TMC3    C4 8365   4.190   1.915  16.049  0.4912 -0.6227  0.2389
  564TMC3    C5 8366   4.156   1.863  16.170 -0.0176 -0.4909  0.5846
  564TMC3    C6 8367   4.067   1.753  16.183  0.1667  0.0624  0.6697
  564TMC3     C 8368   4.285   1.828  15.860 -0.1379 -0.0145 -0.6176
  564TMC3     O 8369   4.374   1.884  15.921 -0.3564 -0.0751  0.7009
  564TMC3     H 8370   4.067   1.673  15.853 -3.8648 -0.9411  2.2546
  564TMC3    H1 8371   4.254   2.002  16.054  1.1235 -1.1230  0.8190
  564TMC3    H2 8372   4.034   1.722  16.281  2.9864  2.2540  2.2915
  564TMC3    C7 8373   4.225   1.919  16.284 -0.2198 -0.3014  1.8514
  564TMC3    C8 8374   4.054   1.547  16.097  0.5723  0.2613  1.2430
  564TMC3    O1 8375   4.243   2.040  16.282  0.0579  0.0900 -0.1883
  564TMC3    O2 8376   4.034   1.514  16.211  0.1921  0.2851 -0.4619
  565TMC3    C1 8377   4.479   2.923  10.830  0.6574 -0.0101  0.2787
  565TMC3    C2 8378   4.471   2.924  10.965 -0.6085  0.8075 -0.0525
  565TMC3    C3 8379   4.450   2.806  11.030 -0.3926  0.6836 -0.3003
  565TMC3    C4 8380   4.434   2.812  10.765  0.7355  0.4244 -0.2476
  565TMC3    C5 8381   4.405   2.690  10.831  0.5797  0.4172  0.0928
  565TMC3    C6 8382   4.426   2.688  10.965  0.2397  0.2507  0.3866
  565TMC3     C 8383   4.516   3.042  10.750 -0.5672 -0.6555 -0.6661
  565TMC3     O 8384   4.570   3.021  10.646  0.3319  0.4132 -0.0044
  565TMC3     H 8385   4.523   3.008  11.009 -2.9703  2.0062  0.4707
  565TMC3    H1 8386   4.437   2.822  10.657  0.2048  1.3753 -0.1757
  565TMC3    H2 8387   4.382   2.606  11.020 -0.0485  0.2008  0.0823
  565TMC3    C7 8388   4.345   2.576  10.760 -0.8587  0.1071 -1.2745
  565TMC3    C8 8389   4.435   2.807  11.173  0.3221  0.0678 -0.1538
  565TMC3    O1 8390   4.320   2.470  10.818  0.1070  0.2571 -0.8177
  565TMC3    O2 8391   4.480   2.707  11.233  0.1625  0.0313  0.2283
  566MPD2     C 8392   1.090   0.865  14.105 -0.9001  0.0913 -0.0359
  566MPD2    C1 8393   1.142   0.740  14.123 -0.2112  0.4434 -0.1598
  566MPD2    C2 8394   1.068   0.619  14.087  0.4604  0.7508  0.1494
  566MPD2    C3 8395   0.948   0.637  14.020 -0.0622  0.3701 -0.8219
  566MPD2    C4 8396   0.893   0.762  14.011  0.6769 -0.0892 -0.0297
  566MPD2    C5 8397   0.963   0.869  14.061 -0.8102 -0.7347  0.1082
  566MPD2     H 8398   1.122   0.525  14.084 -0.3042  0.3773 -1.7125
  566MPD2    H1 8399   0.799   0.787  13.963 -0.0650  0.6043  1.7936
  566MPD2    H2 8400   1.141   0.959  14.127  1.3635 -1.0057 -0.5584
  566MPD2    H3 8401   0.913   0.965  14.056  0.5825 -0.0752 -1.3359
  566MPD2     N 8402   0.882   0.539  13.949  0.2998  0.5638  0.3318
  566MPD2    H5 8403   0.808   0.560  13.883  1.1921 -1.0217 -1.1648
  566MPD2    N1 8404   1.273   0.723  14.173 -0.3114  0.1048 -0.1244
  566MPD2    H7 8405   1.334   0.804  14.175  1.6502 -1.2946 -2.2215
  567TMC3    C1 8406   1.476   0.618  14.214 -0.1770 -0.8906  0.2254
  567TMC3    C2 8407   1.525   0.652  14.089 -0.8307 -0.1541  0.8728
  567TMC3    C3 8408   1.657   0.631  14.063  0.3073 -0.2245  0.2454
  567TMC3    C4 8409   1.555   0.551  14.302  0.6287 -0.0216  0.8009
  567TMC3    C5 8410   1.694   0.533  14.268  0.1804  0.1239 -0.0019
  567TMC3    C6 8411   1.739   0.571  14.150 -0.2221 -0.2640  0.4357
  567TMC3     C 8412   1.334   0.609  14.231 -0.0581 -0.6794 -0.3656
  567TMC3     O 8413   1.285   0.512  14.284 -0.7403  0.1422 -0.1958
  567TMC3     H 8414   1.457   0.702  14.021  1.9005  0.1278 -1.6474
  567TMC3    H1 8415   1.503   0.529  14.394 -1.0708  1.4893  0.2181
  567TMC3    H2 8416   1.836   0.532  14.120 -0.7556 -0.2953 -1.2518
  567TMC3    C7 8417   1.781   0.449  14.341  0.2158 -0.3016 -0.1958
  567TMC3    C8 8418   1.705   0.662  13.929  0.1457 -0.4893 -0.4531
  567TMC3    O1 8419   1.894   0.423  14.307 -0.5589 -0.0603 -0.6666
  567TMC3    O2 8420   1.615   0.661  13.849  0.1257 -0.8589  0.4936
  568MPD2     C 8421   4.609   0.541  17.129 -1.5647  0.4794 -0.4054
  568MPD2    C1 8422   4.498   0.624  17.144 -0.0824 -0.2921  0.0447
  568MPD2    C2 8423   4.433   0.670  17.030  0.3202  0.0177  0.4662
  568MPD2    C3 8424   4.483   0.658  16.905  0.6246 -0.2766 -0.3274
  568MPD2    C4 8425   4.602   0.581  16.889  0.0217 -0.2441  0.3672
  568MPD2    C5 8426   4.656   0.523  16.999  0.1334 -0.4412 -0.2027
  568MPD2     H 8427   4.345   0.731  17.049 -0.8534 -1.0016 -1.6463
  568MPD2    H1 8428   4.645   0.557  16.792  0.2253  3.6972 -0.5147
  568MPD2    H2 8429   4.660   0.489  17.210 -0.3611 -0.4566 -1.7420
  568MPD2    H3 8430   0.022   0.463  16.992  0.5386  0.2007 -0.5697
  568MPD2     N 8431   4.409   0.715  16.807 -0.9411 -0.7558  0.1896
  568MPD2    H5 8432   4.332   0.777  16.829 -0.5928 -0.2597  0.0053
  568MPD2    N1 8433   4.441   0.661  17.270  0.2807 -0.9191  0.2612
  568MPD2    H7 8434   4.367   0.730  17.272  1.1077  0.0115 -0.9328
  569TMC3    C1 8435   4.340   0.780  16.588 -0.6459  0.2398 -0.1831
  569TMC3    C2 8436   4.215   0.809  16.646  0.0746  0.2542  0.0282
  569TMC3    C3 8437   4.117   0.880  16.582  0.6597 -0.3908  0.1060
  569TMC3    C4 8438   4.374   0.822  16.465  0.3366  0.3522 -0.6326
  569TMC3    C5 8439   4.277   0.908  16.407 -0.3271  0.2243  0.1634
  569TMC3    C6 8440   4.152   0.938  16.465 -0.1296 -0.3780 -0.2710
  569TMC3     C 8441   4.439   0.708  16.666  0.6018 -0.1920 -0.2921
  569TMC3     O 8442   4.546   0.677  16.619  0.2843  0.1956  0.0878
  569TMC3     H 8443   4.179   0.759  16.735  2.1272  0.3152  0.8895
  569TMC3    H1 8444   4.470   0.807  16.416  1.4029 -1.0105  1.9022
  569TMC3    H2 8445   4.075   0.994  16.413  0.5842 -0.6670 -1.6287
  569TMC3    C7 8446   4.327   0.968  16.280 -0.2250 -0.4094  0.0552
  569TMC3    C8 8447   4.019   0.947  16.666 -0.1698  0.3672 -0.5160
  569TMC3    O1 8448   4.423   0.917  16.223  0.1088 -0.1881  0.0587
  569TMC3    O2 8449   3.941   0.877  16.725 -0.0134 -0.1218 -0.6002
  570TMC3    C1 8450   3.288   4.324  16.422 -1.0322  0.0795 -0.0384
  570TMC3    C2 8451   3.362   4.365  16.313  0.6753 -0.9167 -0.0796
  570TMC3    C3 8452   3.429   4.483  16.314 -0.1839  0.0801  0.3352
  570TMC3    C4 8453   3.269   4.407  16.526 -0.2810 -0.3789 -0.5662
  570TMC3    C5 8454   3.349   4.521  16.530 -0.1728 -0.2605  0.1420
  570TMC3    C6 8455   3.414   4.570  16.420  0.0151  0.4150 -0.7044
  570TMC3     C 8456   3.240   4.190  16.435 -0.2480 -0.4562  0.1371
  570TMC3     O 8457   3.185   4.146  16.336  0.4914  0.7281  0.0875
  570TMC3     H 8458   3.376   4.291  16.234  1.2941 -0.2120 -0.6301
  570TMC3    H1 8459   3.205   4.391  16.612 -1.8260 -0.2449 -1.6701
  570TMC3    H2 8460   3.485   4.650  16.434  2.5374 -1.7261 -1.0585
  570TMC3    C7 8461   3.329   4.624  16.634  0.3876 -0.2764 -0.4990
  570TMC3    C8 8462   3.500   4.543  16.197  0.1569  0.0123  0.5127
  570TMC3    O1 8463   3.273   4.583  16.735 -0.5782  0.2915  0.7352
  570TMC3    O2 8464   3.545   4.656  16.212  0.1816  0.1722 -0.3020
  571MPD2     C 8465   1.053   1.378   0.026 -0.5550  0.2830 -1.0903
  571MPD2    C1 8466   1.089   1.276   0.114  0.1981 -0.2201  0.5362
  571MPD2    C2 8467   1.053   1.282   0.247 -0.4180  1.4881 -0.8158
  571MPD2    C3 8468   0.981   1.387   0.298  0.1380 -0.2854  0.7083
  571MPD2    C4 8469   0.945   1.484   0.210  0.4652  0.2383  0.0964
  571MPD2    C5 8470   0.987   1.480   0.080 -0.0023 -0.8560 -0.1405
  571MPD2     H 8471   1.083   1.201   0.312 -0.4615  1.4450 -0.8493
  571MPD2    H1 8472   0.885   1.571   0.235 -0.2586 -0.0204 -0.7254
  571MPD2    H2 8473   1.078   1.380  17.618  2.5073  0.5475 -0.3813
  571MPD2    H3 8474   0.966   1.562   0.013  0.4820 -0.5466  0.0874
  571MPD2     N 8475   0.948   1.405   0.439 -0.0423  0.3547  0.3043
  571MPD2    H5 8476   0.917   1.499   0.462 -0.5456  0.3669 -0.4127
  571MPD2    N1 8477   1.169   1.182   0.047 -0.3402  0.0348 -0.2154
  571MPD2    H7 8478   1.204   1.205  17.653  0.6850 -0.6706  0.0011
  572TMC3    C1 8479   0.985   1.377   0.672 -0.0537  0.2384  0.4866
  572TMC3    C2 8480   1.023   1.290   0.770  0.1615  0.3730  0.4370
  572TMC3    C3 8481   1.001   1.340   0.895 -0.0734 -0.5763 -0.1662
  572TMC3    C4 8482   0.948   1.506   0.695 -0.8384  0.8100 -0.4392
  572TMC3    C5 8483   0.946   1.553   0.822  0.4320 -0.0032 -0.2308
  572TMC3    C6 8484   0.973   1.471   0.924 -0.1308 -0.0805  0.3235
  572TMC3     C 8485   0.989   1.313   0.540 -0.4593 -0.8576 -0.6008
  572TMC3     O 8486   1.017   1.194   0.530 -0.1104 -0.1054 -0.2960
  572TMC3     H 8487   1.036   1.185   0.745 -0.4839  0.9287 -2.2676
  572TMC3    H1 8488   0.936   1.578   0.615  0.4967  1.7439  0.2123
  572TMC3    H2 8489   0.992   1.514   1.022 -0.7148 -3.3163  1.8592
  572TMC3    C7 8490   0.882   1.680   0.838 -0.1783  0.0542  0.0389
  572TMC3    C8 8491   1.052   1.253   0.999 -0.0909 -0.5104  0.9200
  572TMC3    O1 8492   0.883   1.756   0.743  0.3686 -0.2316 -0.5375
  572TMC3    O2 8493   1.118   1.159   0.962  0.4689  0.2562 -0.1404
  573MPD2     C 8494   2.519   2.270   0.597  0.4742  0.7469 -0.1344
  573MPD2    C1 8495   2.410   2.325   0.661 -0.2238 -0.0288 -0.3372
  573MPD2    C2 8496   2.283   2.270   0.630 -0.3393  0.4545 -0.0317
  573MPD2    C3 8497   2.268   2.171   0.524  0.1390  0.1668 -0.2189
  573MPD2    C4 8498   2.382   2.121   0.469 -0.0160  0.7325 -0.2796
  573MPD2    C5 8499   2.507   2.167   0.509  0.3703  0.9479 -0.0168
  573MPD2     H 8500   2.202   2.326   0.676 -0.1154 -0.3420  1.3271
  573MPD2    H1 8501   2.378   2.039   0.398 -1.8853 -0.3976  1.1283
  573MPD2    H2 8502   2.618   2.300   0.630 -1.0849  4.4214  1.1796
  573MPD2    H3 8503   2.595   2.132   0.457 -0.7054 -0.2326 -1.0656
  573MPD2     N 8504   2.143   2.133   0.467  0.4597 -0.7267 -0.0541
  573MPD2    H5 8505   2.150   2.056   0.401  0.8715  0.0413 -0.9000
  573MPD2    N1 8506   2.443   2.429   0.749  0.3856  0.2492  0.2067
  573MPD2    H7 8507   2.542   2.443   0.766  0.4944 -0.5908  0.2817
  574TMC3    C1 8508   1.898   2.138   0.441 -0.1836 -0.0762 -0.0179
  574TMC3    C2 8509   1.790   2.220   0.444 -0.5426 -0.1499  0.7848
  574TMC3    C3 8510   1.689   2.189   0.351  0.1904 -0.3888 -0.2289
  574TMC3    C4 8511   1.905   2.027   0.364  0.3562 -0.0194  1.1972
  574TMC3    C5 8512   1.800   1.996   0.272  0.4806  0.7094 -0.0312
  574TMC3    C6 8513   1.685   2.066   0.278 -0.1594  0.4401  0.2247
  574TMC3     C 8514   2.020   2.187   0.507  0.3861 -0.2687 -0.3821
  574TMC3     O 8515   2.002   2.265   0.602 -0.1149 -0.6732  0.8848
  574TMC3     H 8516   1.787   2.308   0.508 -1.7603 -1.8443  3.1003
  574TMC3    H1 8517   1.994   1.965   0.366 -0.1214 -0.8006 -1.2547
  574TMC3    H2 8518   1.599   2.048   0.214  1.6179 -1.1484 -1.7182
  574TMC3    C7 8519   1.812   1.869   0.202 -0.3661  0.0190 -0.4944
  574TMC3    C8 8520   1.564   2.249   0.376 -0.1403  0.9325  0.2738
  574TMC3    O1 8521   1.926   1.821   0.190  0.5124  0.1307  0.4941
  574TMC3    O2 8522   1.531   2.273   0.492 -0.3758  0.5183  0.4488
  575TMC3    C1 8523   4.361   2.673  12.070  0.1172  0.4928  0.7285
  575TMC3    C2 8524   4.344   2.538  12.095 -0.3250  0.2001 -0.1066
  575TMC3    C3 8525   4.342   2.465  11.984  0.6264  0.2840  0.6304
  575TMC3    C4 8526   4.360   2.725  11.944  0.3256 -0.6505  0.4914
  575TMC3    C5 8527   4.350   2.641  11.837  0.1318  0.6760  0.4486
  575TMC3    C6 8528   4.345   2.514  11.856  0.7241  0.2603  0.6312
  575TMC3     C 8529   4.343   2.750  12.191 -0.7302  0.1672  0.5217
  575TMC3     O 8530   4.343   2.690  12.296 -0.0041  0.1532 -0.4925
  575TMC3     H 8531   4.357   2.498  12.195 -1.2230  1.1164  0.3783
  575TMC3    H1 8532   4.374   2.832  11.936  0.8197 -0.5825  2.1385
  575TMC3    H2 8533   4.337   2.443  11.774  1.4036 -0.6401  1.3347
  575TMC3    C7 8534   4.360   2.695  11.707  0.7188 -0.3038 -0.5599
  575TMC3    C8 8535   4.358   2.323  11.990 -0.0902 -0.7032  0.2411
  575TMC3    O1 8536   4.375   2.619  11.610  0.2064  0.5086 -0.1966
  575TMC3    O2 8537   4.404   2.264  11.895  0.0356  0.4094  0.1733
  576MPD2     C 8538   3.929   4.300  12.660  0.3751  0.2349  0.1181
  576MPD2    C1 8539   4.064   4.292  12.642 -0.3892 -0.2885 -0.2779
  576MPD2    C2 8540   4.151   4.301  12.750 -0.2137  0.8698  0.8832
  576MPD2    C3 8541   4.101   4.324  12.875 -0.1109  0.2739  1.0408
  576MPD2    C4 8542   3.966   4.328  12.896 -0.1404  0.0512 -0.2757
  576MPD2    C5 8543   3.881   4.320  12.787 -0.2053 -0.2255  0.3747
  576MPD2     H 8544   4.258   4.295  12.733 -0.3406 -0.3224  0.4856
  576MPD2    H1 8545   3.922   4.341  12.994  0.5142  0.5214 -0.0477
  576MPD2    H2 8546   3.861   4.295  12.575 -3.1728 -2.2922  3.1374
  576MPD2    H3 8547   3.777   4.336  12.815 -0.1999  1.0799 -0.3588
  576MPD2     N 8548   4.197   4.341  12.979  0.1899  0.2988 -0.4944
  576MPD2    H5 8549   4.293   4.355  12.948 -0.1495 -0.5348 -1.9297
  576MPD2    N1 8550   4.125   4.285  12.512  0.0147  0.2431  0.0533
  576MPD2    H7 8551   4.225   4.304  12.509 -0.0114  0.6199  1.4224
  577TMC3    C1 8552   4.153   4.264  12.275 -0.6359 -0.0716 -0.0004
  577TMC3    C2 8553   4.287   4.232  12.279  0.5837 -0.2438  0.4201
  577TMC3    C3 8554   4.353   4.207  12.159  0.0964 -0.2046 -0.2524
  577TMC3    C4 8555   4.098   4.296  12.154 -0.2797  0.0866 -0.4343
  577TMC3    C5 8556   4.166   4.282  12.040 -0.1813  0.6176 -0.0656
  577TMC3    C6 8557   4.294   4.230  12.036  0.2853 -0.2481  0.1672
  577TMC3     C 8558   4.062   4.276  12.390  0.1802  0.1834  0.2834
  577TMC3     O 8559   3.942   4.277  12.371 -1.0275  0.1229 -0.0641
  577TMC3     H 8560   4.331   4.208  12.375  2.3155  0.1164 -0.2820
  577TMC3    H1 8561   3.991   4.313  12.150 -0.3028 -0.2863 -1.4488
  577TMC3    H2 8562   4.328   4.193  11.940  0.2331 -0.1604  0.1148
  577TMC3    C7 8563   4.096   4.272  11.911 -0.3059 -0.1100  0.7837
  577TMC3    C8 8564   4.455   4.105  12.169  0.4254  0.8039 -0.1098
  577TMC3    O1 8565   4.145   4.203  11.822 -0.6857 -0.2650  0.2307
  577TMC3    O2 8566   4.508   4.088  12.278 -0.1376  0.6851  0.9828
  578MPD2     C 8567   1.899   4.429   1.283  0.2229  0.2586  0.6871
  578MPD2    C1 8568   1.977   4.439   1.171  0.2183  0.2308 -0.8516
  578MPD2    C2 8569   2.113   4.412   1.176  0.3412 -0.3225 -0.7351
  578MPD2    C3 8570   2.166   4.372   1.294  0.9395  0.4979 -0.7662
  578MPD2    C4 8571   2.086   4.367   1.405  0.1748  0.1704  0.3424
  578MPD2    C5 8572   1.954   4.399   1.399  0.4108 -0.2272 -0.2986
  578MPD2     H 8573   2.173   4.427   1.087 -0.0902 -0.4934 -1.0557
  578MPD2    H1 8574   2.113   4.336   1.506 -2.3856 -0.4504  0.8189
  578MPD2    H2 8575   1.794   4.453   1.291  0.4755  1.0670  1.4449
  578MPD2    H3 8576   1.888   4.396   1.485  1.2101 -0.9146  0.2890
  578MPD2     N 8577   2.313   4.355   1.304  0.7675  0.4206 -0.3090
  578MPD2    H5 8578   2.360   4.354   1.214  1.0240  0.4954 -0.1756
  578MPD2    N1 8579   1.920   4.483   1.051 -0.2245  0.7355 -0.3140
  578MPD2    H7 8580   1.835   4.538   1.061 -1.3467 -1.1776  0.5187
  579TMC3    C1 8581   2.531   4.352   1.389 -0.2654  0.4397  0.7204
  579TMC3    C2 8582   2.608   4.431   1.465  0.5805  0.3013 -0.2906
  579TMC3    C3 8583   2.726   4.472   1.410 -0.2987  0.2842 -0.7115
  579TMC3    C4 8584   2.577   4.287   1.272  0.0582  0.5374 -0.2718
  579TMC3    C5 8585   2.697   4.330   1.227  0.2862  0.2651  0.2709
  579TMC3    C6 8586   2.777   4.421   1.290  0.3053  0.4584 -0.0706
  579TMC3     C 8587   2.390   4.353   1.420  0.2695 -1.1854 -0.2190
  579TMC3     O 8588   2.355   4.367   1.536 -0.0651 -0.0191 -0.3994
  579TMC3     H 8589   2.574   4.467   1.561 -2.1520  0.5370 -1.3274
  579TMC3    H1 8590   2.517   4.214   1.220  1.2496 -0.8723  0.3391
  579TMC3    H2 8591   2.866   4.456   1.240  0.8893 -0.3981  0.3796
  579TMC3    C7 8592   2.713   4.316   1.084  0.2273  0.0257 -0.2877
  579TMC3    C8 8593   2.813   4.551   1.496  0.3635 -0.3585  0.2819
  579TMC3    O1 8594   2.747   4.414   1.022 -0.5130 -0.2886 -0.0117
  579TMC3    O2 8595   2.750   4.601   1.590  0.4047  0.0322 -0.4198
  580TMC3    C1 8596   2.744   3.684  12.335 -0.6122  0.4081 -0.1974
  580TMC3    C2 8597   2.855   3.705  12.257 -0.0124 -0.0835  0.4708
  580TMC3    C3 8598   2.914   3.597  12.193  0.3899  0.1323 -0.4590
  580TMC3    C4 8599   2.703   3.560  12.367 -0.5272  0.1622 -0.5516
  580TMC3    C5 8600   2.762   3.454  12.306  0.7141 -0.3265  0.4768
  580TMC3    C6 8601   2.863   3.468  12.211 -0.0735  0.5449 -0.4094
  580TMC3     C 8602   2.637   3.770  12.320 -0.0185 -0.3664 -1.1357
  580TMC3     O 8603   2.552   3.770  12.406  0.1299  0.0484 -0.4032
  580TMC3     H 8604   2.905   3.802  12.258 -1.3764  0.6261 -0.1880
  580TMC3    H1 8605   2.606   3.548  12.415 -0.0738  2.9805  1.0231
  580TMC3    H2 8606   2.891   3.382  12.151  0.6713  1.1196 -0.8920
  580TMC3    C7 8607   2.702   3.331  12.348  0.1013 -0.1892 -0.1862
  580TMC3    C8 8608   3.008   3.626  12.087  0.0935 -0.3471 -0.8492
  580TMC3    O1 8609   2.635   3.334  12.452  0.7993  0.1869  0.6539
  580TMC3    O2 8610   3.029   3.748  12.080  0.0415  0.1598  0.5319
  581MPD2     C 8611   0.321   3.260  14.986 -0.6074 -0.8605  0.2881
  581MPD2    C1 8612   0.221   3.195  15.060 -0.1138  0.2186 -0.3846
  581MPD2    C2 8613   0.099   3.249  15.057 -0.2068 -0.1940  0.4217
  581MPD2    C3 8614   0.073   3.368  14.993 -0.1068  0.1037 -0.8777
  581MPD2    C4 8615   0.173   3.441  14.936  0.3717  1.0410 -0.2887
  581MPD2    C5 8616   0.292   3.380  14.920  0.6822  0.0637  0.7153
  581MPD2     H 8617   0.018   3.199  15.108  0.6153 -4.0233 -2.0565
  581MPD2    H1 8618   0.156   3.530  14.876  0.0580  1.5989  0.6314
  581MPD2    H2 8619   0.420   3.217  14.979  0.8488  2.2570  1.4914
  581MPD2    H3 8620   0.369   3.426  14.859  0.0683  0.1096 -0.0336
  581MPD2     N 8621   4.659   3.419  14.997 -0.1761  0.6596 -0.0112
  581MPD2    H5 8622   4.593   3.354  15.038  2.7074 -2.5088 -0.4442
  581MPD2    N1 8623   0.257   3.074  15.117 -0.2301  0.2764  0.5033
  581MPD2    H7 8624   0.351   3.037  15.106 -1.1711 -2.0487  0.2238
  582TMC3    C1 8625   0.234   2.864  15.218  0.6614 -0.2745 -0.2289
  582TMC3    C2 8626   0.329   2.862  15.317  0.3178  0.1208  0.5924
  582TMC3    C3 8627   0.313   2.760  15.415 -0.1430 -0.3916  0.0608
  582TMC3    C4 8628   0.136   2.769  15.211  0.3811 -0.0971 -0.0291
  582TMC3    C5 8629   0.122   2.670  15.303 -0.5150 -0.5870 -0.0036
  582TMC3    C6 8630   0.215   2.670  15.408  0.6760 -0.0106  0.8284
  582TMC3     C 8631   0.181   2.993  15.192 -0.5755  0.5281 -0.4127
  582TMC3     O 8632   0.064   3.006  15.218  0.6729 -0.4834  0.2773
  582TMC3     H 8633   0.397   2.946  15.328  0.1886  0.3297 -0.2187
  582TMC3    H1 8634   0.049   2.788  15.150 -0.9892 -4.2838  0.6408
  582TMC3    H2 8635   0.192   2.605  15.491  2.1336 -0.4019  0.9304
  582TMC3    C7 8636   4.714   2.665  15.363  0.2660  0.1046 -0.7717
  582TMC3    C8 8637   0.364   2.783  15.548  0.0254  0.4473 -0.2327
  582TMC3    O1 8638   4.687   2.569  15.437 -0.4995  0.2866 -0.5007
  582TMC3    O2 8639   0.288   2.783  15.645 -0.0813  0.0572 -0.9349
  583MPD2     C 8640   0.448   0.051  16.834  0.2846  0.0708  0.1642
  583MPD2    C1 8641   0.504   0.176  16.814 -0.4048 -0.8382  0.1288
  583MPD2    C2 8642   0.463   0.280  16.897  0.3932 -0.5757 -0.7407
  583MPD2    C3 8643   0.372   0.249  17.004 -0.2016  0.0340 -0.7071
  583MPD2    C4 8644   0.319   0.125  17.014 -0.2402  0.9065  0.6640
  583MPD2    C5 8645   0.359   0.028  16.931 -0.2065  0.0008  0.6247
  583MPD2     H 8646   0.508   0.378  16.888 -1.4269  0.1236 -2.0817
  583MPD2    H1 8647   0.246   0.099  17.090 -0.4940  1.4938  0.6179
  583MPD2    H2 8648   0.467   4.690  16.769  1.0895  0.3486  0.0472
  583MPD2    H3 8649   0.332   4.648  16.946 -0.0851  0.2607  2.6314
  583MPD2     N 8650   0.338   0.353  17.091 -0.0864  0.3194 -0.3703
  583MPD2    H5 8651   0.375   0.445  17.069 -0.2033 -0.3368 -3.2918
  583MPD2    N1 8652   0.598   0.205  16.706  0.0984  0.6043  0.4209
  583MPD2    H7 8653   0.621   0.303  16.696  0.2333  0.4248 -0.9213
  584TMC3    C1 8654   0.211   0.475  17.247  0.4205  0.7133  0.1447
  584TMC3    C2 8655   0.246   0.593  17.191 -0.5105  0.0378 -0.0444
  584TMC3    C3 8656   0.239   0.713  17.262  0.3127  0.1376 -0.3314
  584TMC3    C4 8657   0.165   0.476  17.379 -0.1151 -0.1292 -0.2716
  584TMC3    C5 8658   0.147   0.590  17.444 -0.4234 -0.4497  0.6021
  584TMC3    C6 8659   0.188   0.714  17.393 -0.2043 -0.1822  0.4257
  584TMC3     C 8660   0.239   0.350  17.191 -0.5787  0.5253 -0.5037
  584TMC3     O 8661   0.148   0.266  17.205  0.0821  0.5775 -0.5876
  584TMC3     H 8662   0.292   0.597  17.093  2.2758  0.4987  1.2874
  584TMC3    H1 8663   0.144   0.378  17.419  0.3396 -0.1777 -0.1535
  584TMC3    H2 8664   0.174   0.811  17.439  1.7040  0.9008 -1.2621
  584TMC3    C7 8665   0.113   0.584  17.583 -0.6041 -0.4218  0.3698
  584TMC3    C8 8666   0.274   0.837  17.192 -0.8511 -0.2068 -0.6910
  584TMC3    O1 8667   0.123   0.475  17.641  0.2792  0.1349  0.5596
  584TMC3    O2 8668   0.234   0.848  17.078  0.1615  0.5966 -0.6675
  585MPD2     C 8669   3.910   4.047   0.954 -0.0080 -0.5217 -0.0333
  585MPD2    C1 8670   4.041   4.054   0.910  0.3499 -0.0990 -0.9579
  585MPD2    C2 8671   4.057   4.068   0.778 -0.0933  0.2080 -0.2577
  585MPD2    C3 8672   3.953   4.077   0.690  0.1704 -0.0369  0.3950
  585MPD2    C4 8673   3.823   4.085   0.742  0.8723  0.0344  0.1014
  585MPD2    C5 8674   3.799   4.065   0.873  0.3744 -0.0661 -0.3623
  585MPD2     H 8675   4.156   4.062   0.733  0.9727  1.5846  1.9113
  585MPD2    H1 8676   3.734   4.104   0.682  0.6140 -0.4687  0.3258
  585MPD2    H2 8677   3.885   3.998   1.048 -0.6542  1.6772  0.9304
  585MPD2    H3 8678   3.701   4.058   0.920  0.1642  0.3628 -0.7316
  585MPD2     N 8679   3.973   4.094   0.547  0.1178 -0.1435  0.1003
  585MPD2    H5 8680   3.893   4.104   0.486  0.0060  0.3629  0.3283
  585MPD2    N1 8681   4.150   4.050   1.010  0.1815  0.0714 -0.3456
  585MPD2    H7 8682   4.119   4.038   1.106  2.5353  1.3958  0.5802
  586TMC3    C1 8683   4.088   4.139   0.346  0.3041 -0.0468  0.1575
  586TMC3    C2 8684   4.194   4.209   0.302  0.4947  0.6194  0.2839
  586TMC3    C3 8685   4.203   4.240   0.171 -0.2171  0.0994 -0.0123
  586TMC3    C4 8686   3.986   4.102   0.266 -0.5502  0.4393  0.2456
  586TMC3    C5 8687   4.004   4.128   0.134  0.2282  0.6071 -0.6552
  586TMC3    C6 8688   4.109   4.204   0.084  0.4179 -0.1392 -0.4504
  586TMC3     C 8689   4.094   4.099   0.483 -0.2795 -0.3271 -0.9035
  586TMC3     O 8690   4.202   4.056   0.519 -0.0124 -0.1421  0.1724
  586TMC3     H 8691   4.273   4.232   0.373 -0.4259 -3.5355  2.6490
  586TMC3    H1 8692   3.904   4.040   0.301 -0.4357  0.3943  0.4351
  586TMC3    H2 8693   4.110   4.236  17.679 -0.6186 -2.6555 -1.2209
  586TMC3    C7 8694   3.976   4.015   0.050 -0.3934  0.2763 -0.6051
  586TMC3    C8 8695   4.341   4.250   0.122 -0.1706 -0.2042 -0.4074
  586TMC3    O1 8696   3.892   3.932   0.086  0.4403  0.8359  0.1259
  586TMC3    O2 8697   4.429   4.203   0.197 -0.2958 -0.2049 -0.1658
  587TMC3    C1 8698   1.561   2.247  17.155  0.6381  0.1149  0.0961
  587TMC3    C2 8699   1.560   2.341  17.057 -0.1789  0.0252  0.2453
  587TMC3    C3 8700   1.687   2.381  17.015  0.3763  0.3759  0.1880
  587TMC3    C4 8701   1.676   2.208  17.220  0.2541 -0.0187  0.0118
  587TMC3    C5 8702   1.796   2.247  17.167  0.0531  0.3119 -0.0860
  587TMC3    C6 8703   1.806   2.331  17.066  0.3036 -0.0414 -0.6110
  587TMC3     C 8704   1.438   2.214  17.228 -0.0422 -0.3876 -0.2793
  587TMC3     O 8705   1.454   2.166  17.338 -0.3971 -0.2261 -0.3785
  587TMC3     H 8706   1.468   2.393  17.035 -0.3695 -0.8246 -0.9306
  587TMC3    H1 8707   1.675   2.141  17.306  1.4112 -0.4345 -0.2955
  587TMC3    H2 8708   1.902   2.364  17.028  0.5761 -1.6705 -1.3656
  587TMC3    C7 8709   1.904   2.232  17.259  0.4103  0.5131  0.3010
  587TMC3    C8 8710   1.704   2.495  16.919 -0.1227 -0.2196 -0.4182
  587TMC3    O1 8711   1.873   2.223  17.377 -0.1360  0.1907  0.4785
  587TMC3    O2 8712   1.815   2.536  16.914 -0.1745  0.4381 -0.2682
  588TMC3    C1 8713   4.072   0.177   9.740 -0.6393 -0.0412  0.3269
  588TMC3    C2 8714   4.038   0.049   9.781  0.0857 -0.1584  0.0617
  588TMC3    C3 8715   4.101   0.002   9.896 -0.3495 -0.3388 -0.0315
  588TMC3    C4 8716   4.173   0.251   9.805 -0.3530  0.1632 -0.9475
  588TMC3    C5 8717   4.239   0.192   9.906  0.1402 -0.9598  0.0335
  588TMC3    C6 8718   4.198   0.079   9.955  0.3450 -0.1582  0.1671
  588TMC3     C 8719   4.019   0.234   9.617  0.4558  0.2499 -0.3881
  588TMC3     O 8720   3.903   0.212   9.596  0.4644 -0.7626 -0.3804
  588TMC3     H 8721   3.962   4.712   9.733 -1.1309  2.4994 -1.4082
  588TMC3    H1 8722   4.193   0.353   9.774 -1.1259 -0.1285 -2.3891
  588TMC3    H2 8723   4.257   0.032  10.033 -0.9861 -3.0685 -0.5793
  588TMC3    C7 8724   4.332   0.274   9.970  0.0489 -0.7582 -0.2142
  588TMC3    C8 8725   4.062   4.600   9.950  0.5418  0.1196 -0.1989
  588TMC3    O1 8726   4.343   0.266  10.091 -0.1332 -0.4348 -0.0154
  588TMC3    O2 8727   3.994   4.531   9.874  0.3753  0.3052 -0.8988
  589TMC3    C1 8728   2.936   3.535   1.794 -0.2606 -0.1441 -0.5571
  589TMC3    C2 8729   3.032   3.561   1.888  0.1638  0.5528  0.1604
  589TMC3    C3 8730   3.149   3.493   1.875  0.1084 -0.0811 -0.9322
  589TMC3    C4 8731   2.951   3.436   1.699 -0.5578 -0.3414  0.0184
  589TMC3    C5 8732   3.070   3.369   1.700 -0.3704 -1.0992 -0.0201
  589TMC3    C6 8733   3.178   3.398   1.777 -0.0229 -0.4492 -0.1144
  589TMC3     C 8734   2.804   3.584   1.818  0.0692 -0.4022 -0.4184
  589TMC3     O 8735   2.717   3.547   1.744 -0.4141 -0.0843  0.3433
  589TMC3     H 8736   3.028   3.643   1.959 -0.4823  1.3814 -0.8400
  589TMC3    H1 8737   2.869   3.407   1.633  0.0638  0.4989 -1.1110
  589TMC3    H2 8738   3.270   3.343   1.767  0.1227 -0.2696  0.2218
  589TMC3    C7 8739   3.103   3.276   1.595  0.1468  0.2918 -0.0982
  589TMC3    C8 8740   3.262   3.555   1.953  0.1546 -0.5227 -0.4484
  589TMC3    O1 8741   3.206   3.211   1.612 -0.3006  0.1895 -0.2053
  589TMC3    O2 8742   3.244   3.618   2.057 -0.6826 -0.2865  0.0791
  590MPD2     C 8743   2.918   1.563  17.079  0.7664  0.0624  0.0733
  590MPD2    C1 8744   2.887   1.569  16.946  0.0074  0.0019 -0.3643
  590MPD2    C2 8745   2.990   1.610  16.859 -0.2154  0.6363  0.0846
  590MPD2    C3 8746   3.119   1.643  16.907 -0.2352  0.1237  0.7686
  590MPD2    C4 8747   3.136   1.649  17.042  0.3179 -0.4157 -0.0834
  590MPD2    C5 8748   3.041   1.598  17.122  0.0761 -0.0548  0.5839
  590MPD2     H 8749   2.960   1.622  16.755 -0.2034 -2.6289 -0.2712
  590MPD2    H1 8750   3.227   1.692  17.083  0.1196  2.0832 -2.2185
  590MPD2    H2 8751   2.837   1.548  17.150  0.5338 -0.3048 -0.2688
  590MPD2    H3 8752   3.073   1.598  17.226 -0.0975  0.7116  0.6337
  590MPD2     N 8753   3.218   1.695  16.816 -0.2083  0.0523  0.3264
  590MPD2    H5 8754   3.195   1.694  16.717  0.6987 -0.4888  0.1245
  590MPD2    N1 8755   2.748   1.565  16.912 -0.4073 -0.2026  0.2566
  590MPD2    H7 8756   2.679   1.555  16.986  0.3228 -0.2435  0.9374
  591TMC3    C1 8757   3.394   1.818  16.721  0.0582 -0.6148 -0.1410
  591TMC3    C2 8758   3.424   1.748  16.608 -0.4496 -1.0004 -0.0739
  591TMC3    C3 8759   3.467   1.824  16.501 -0.0095  0.1451 -0.2603
  591TMC3    C4 8760   3.412   1.958  16.736  0.1897  0.7624  0.5869
  591TMC3    C5 8761   3.446   2.030  16.623 -0.0984  0.4693 -0.5426
  591TMC3    C6 8762   3.483   1.964  16.508 -0.2222  0.1288 -0.4211
  591TMC3     C 8763   3.341   1.747  16.843 -0.7494  0.3193  0.0681
  591TMC3     O 8764   3.387   1.777  16.954 -0.3454 -0.1989  0.3500
  591TMC3     H 8765   3.427   1.640  16.602  0.3034 -0.8373 -2.6691
  591TMC3    H1 8766   3.388   2.006  16.830  2.5069  0.7497  1.1878
  591TMC3    H2 8767   3.494   2.026  16.420 -0.5010 -0.2875 -0.7474
  591TMC3    C7 8768   3.407   2.168  16.618  0.5758  0.5517 -0.0716
  591TMC3    C8 8769   3.532   1.753  16.395  0.8235 -0.5819 -0.7740
  591TMC3    O1 8770   3.340   2.215  16.713 -0.2355 -0.0605  0.0756
  591TMC3    O2 8771   3.526   1.632  16.404  0.1331  0.6799  0.0218
  592MPD2     C 8772   3.436   2.888  11.542 -0.6927 -0.1302  0.1672
  592MPD2    C1 8773   3.369   2.931  11.655  0.4447  0.1120 -0.2033
  592MPD2    C2 8774   3.264   2.850  11.710 -0.2001  0.0073  0.4840
  592MPD2    C3 8775   3.220   2.739  11.638 -0.2055  0.3520 -0.3712
  592MPD2    C4 8776   3.285   2.709  11.514  0.4103 -0.3230  0.6805
  592MPD2    C5 8777   3.387   2.785  11.466  0.1379 -0.5318 -0.0610
  592MPD2     H 8778   3.226   2.863  11.810  0.5972 -0.1459  0.8124
  592MPD2    H1 8779   3.262   2.631  11.442  1.0889  0.4456 -0.3578
  592MPD2    H2 8780   3.514   2.954  11.505 -1.5740  1.9677  2.0933
  592MPD2    H3 8781   3.434   2.758  11.373  2.8921  0.8868  0.9071
  592MPD2     N 8782   3.097   2.673  11.676 -0.1932  0.3163  0.2685
  592MPD2    H5 8783   3.048   2.694  11.762 -0.1648  0.2475  0.3012
  592MPD2    N1 8784   3.416   3.052  11.716 -0.1979  0.7550  0.2923
  592MPD2    H7 8785   3.494   3.093  11.665 -0.0519 -0.4914 -0.4898
  593TMC3    C1 8786   3.424   3.237  11.878 -0.2797 -0.1068  0.1947
  593TMC3    C2 8787   3.385   3.286  11.999 -0.4913 -0.0398 -1.0395
  593TMC3    C3 8788   3.426   3.408  12.037 -0.3410  0.0803  0.7755
  593TMC3    C4 8789   3.490   3.318  11.789 -0.1932  0.7082  0.3590
  593TMC3    C5 8790   3.527   3.444  11.829  0.3716  0.0168  0.3920
  593TMC3    C6 8791   3.496   3.492  11.952  0.3308 -0.2557 -0.4890
  593TMC3     C 8792   3.361   3.111  11.830  0.4759  0.5101  0.1485
  593TMC3     O 8793   3.272   3.059  11.901  0.1380  0.3618 -0.1286
  593TMC3     H 8794   3.346   3.217  12.072  0.2249  3.0640  2.2779
  593TMC3    H1 8795   3.486   3.296  11.683  0.2953  0.4740  0.3890
  593TMC3    H2 8796   3.537   3.589  11.979 -1.9461  0.6552 -0.2821
  593TMC3    C7 8797   3.592   3.535  11.739  0.3267  0.4105  0.1766
  593TMC3    C8 8798   3.402   3.433  12.178  0.2040  0.1415 -0.1256
  593TMC3    O1 8799   3.601   3.652  11.772 -0.8036 -0.4711 -0.1439
  593TMC3    O2 8800   3.346   3.344  12.241 -0.3468 -0.7080  0.8551
  594MPD2     C 8801   2.192   2.386  13.843 -1.3877  0.8169  0.4310
  594MPD2    C1 8802   2.222   2.346  13.965 -0.2293 -0.2346 -0.3233
  594MPD2    C2 8803   2.312   2.426  14.040  0.2915 -0.1112  0.5166
  594MPD2    C3 8804   2.366   2.544  13.986 -0.2138 -0.0189  0.7243
  594MPD2    C4 8805   2.339   2.575  13.850 -0.2114  0.5119 -0.4565
  594MPD2    C5 8806   2.261   2.488  13.781 -0.6835  0.0972  0.8096
  594MPD2     H 8807   2.340   2.401  14.141  2.8963  0.6926 -0.0111
  594MPD2    H1 8808   2.394   2.650  13.794 -0.0924  1.0733  0.4159
  594MPD2    H2 8809   2.136   2.334  13.767  0.2182  1.3182 -1.1177
  594MPD2    H3 8810   2.240   2.505  13.675 -0.5143  2.0513  1.0908
  594MPD2     N 8811   2.456   2.615  14.064  0.3218 -0.8553  0.0410
  594MPD2    H5 8812   2.474   2.573  14.154  0.4651 -0.2678  0.2836
  594MPD2    N1 8813   2.150   2.238  14.017 -0.0356 -0.1471 -0.2997
  594MPD2    H7 8814   2.070   2.203  13.966  0.5468 -3.4529  1.0187
  595TMC3    C1 8815   2.803   2.866  14.218  0.0634 -1.0962  0.5508
  595TMC3    C2 8816   2.736   2.816  14.109  0.1392 -0.0190  0.1381
  595TMC3    C3 8817   2.608   2.778  14.135 -0.2242 -0.6395 -0.0739
  595TMC3    C4 8818   2.745   2.891  14.342  0.1294 -0.1603 -1.0195
  595TMC3    C5 8819   2.620   2.844  14.367  0.1793 -0.8642  0.0645
  595TMC3    C6 8820   2.550   2.791  14.261  0.2051 -0.1804  0.6501
  595TMC3     C 8821   2.949   2.844  14.216  0.1899  1.2074 -0.6419
  595TMC3     O 8822   3.014   2.922  14.278  0.8265  0.5231 -0.3042
  595TMC3     H 8823   2.777   2.809  14.008  2.1479  2.5360  0.7668
  595TMC3    H1 8824   2.811   2.938  14.414 -0.8534  0.8318 -0.7704
  595TMC3    H2 8825   2.446   2.761  14.263  0.0892  0.2428  1.1474
  595TMC3    C7 8826   2.564   2.871  14.497 -0.5936 -0.2315  0.0340
  595TMC3    C8 8827   2.540   2.719  14.022  0.0150 -0.4730  0.0712
  595TMC3    O1 8828   2.446   2.916  14.498 -0.4768  0.2593 -0.0966
  595TMC3    O2 8829   2.552   2.765  13.907 -0.0837 -0.5012  0.0545
  596MPD2     C 8830   1.285   0.233  16.934 -0.0243  0.4594  0.0998
  596MPD2    C1 8831   1.300   0.336  16.839 -0.4110 -0.2137  0.3924
  596MPD2    C2 8832   1.361   0.308  16.717 -0.0688 -0.1459 -0.1191
  596MPD2    C3 8833   1.405   0.176  16.687  0.5206 -0.8328 -0.3928
  596MPD2    C4 8834   1.401   0.084  16.784 -0.4640  0.3920 -0.6310
  596MPD2    C5 8835   1.342   0.110  16.906 -1.0002 -0.1258 -0.2460
  596MPD2     H 8836   1.360   0.391  16.648 -3.0269  0.2794  0.4166
  596MPD2    H1 8837   1.446   4.713  16.757 -2.3308 -0.4468 -0.7561
  596MPD2    H2 8838   1.252   0.245  17.037  3.5078  0.1561  1.2615
  596MPD2    H3 8839   1.350   0.031  16.980 -0.5335 -0.0098 -0.1748
  596MPD2     N 8840   1.437   0.137  16.557  0.2002 -0.6874  0.2441
  596MPD2    H5 8841   1.431   0.039  16.532  1.2599 -0.5655 -0.4665
  596MPD2    N1 8842   1.270   0.473  16.856 -0.5853  0.2803  0.6302
  596MPD2    H7 8843   1.301   0.539  16.785 -1.3815  0.7699  0.7352
  597TMC3    C1 8844   1.179   0.660  16.971 -1.0495 -0.6385 -0.0060
  597TMC3    C2 8845   1.225   0.747  16.871  0.2174  0.3887 -0.6150
  597TMC3    C3 8846   1.227   0.884  16.891 -0.7861  0.0369 -0.0842
  597TMC3    C4 8847   1.134   0.711  17.090 -0.9072  0.6888  0.3820
  597TMC3    C5 8848   1.125   0.844  17.100  0.0863 -0.5032  0.5380
  597TMC3    C6 8849   1.174   0.934  17.006 -0.3256  0.8824  0.1222
  597TMC3     C 8850   1.182   0.518  16.954 -0.5538 -0.3016  0.5993
  597TMC3     O 8851   1.122   0.445  17.033 -0.2110  0.3154  0.1699
  597TMC3     H 8852   1.234   0.713  16.768 -0.2558 -0.2004 -0.4579
  597TMC3    H1 8853   1.103   0.644  17.170 -0.2568 -0.3060 -0.2018
  597TMC3    H2 8854   1.180   1.042  17.015  1.6286  0.7569  0.2645
  597TMC3    C7 8855   1.073   0.887  17.230 -0.0835 -0.8445  0.0192
  597TMC3    C8 8856   1.287   0.971  16.786  0.1365  0.9905  0.1080
  597TMC3    O1 8857   1.082   0.807  17.322  0.3287  0.5943  0.2283
  597TMC3    O2 8858   1.261   1.091  16.795  0.0751 -0.0955  0.1978
  598TMC3    C1 8859   4.064   1.903  15.486 -0.8074  0.3306 -0.1708
  598TMC3    C2 8860   3.973   1.811  15.442  0.5159  0.1969  0.1242
  598TMC3    C3 8861   3.996   1.755  15.317  0.3561  0.4133  0.3277
  598TMC3    C4 8862   4.177   1.935  15.416  0.1007 -0.3529 -0.5432
  598TMC3    C5 8863   4.197   1.867  15.299 -0.1291  0.6968 -0.0910
  598TMC3    C6 8864   4.106   1.781  15.246 -0.6456  0.4561 -0.5996
  598TMC3     C 8865   4.028   1.974  15.606  0.2150  0.5528 -0.3881
  598TMC3     O 8866   3.919   1.950  15.655 -0.8339 -0.0288  0.5730
  598TMC3     H 8867   3.889   1.783  15.505 -2.3651 -0.9178 -4.2376
  598TMC3    H1 8868   4.259   1.988  15.464 -1.0690  0.9288  0.0513
  598TMC3    H2 8869   4.133   1.727  15.156 -1.6115 -0.6729 -0.2123
  598TMC3    C7 8870   4.297   1.923  15.212 -0.5702 -1.0655  0.2505
  598TMC3    C8 8871   3.930   1.626  15.295 -0.4107  0.2562  0.3295
  598TMC3    O1 8872   4.304   1.878  15.100 -0.3979  0.1178 -1.1798
  598TMC3    O2 8873   3.863   1.573  15.388 -0.4881  0.5053  0.1571
  599MPD2     C 8874   4.440   3.847  16.364  0.3836  0.0759 -0.4579
  599MPD2    C1 8875   4.341   3.767  16.320 -0.0508 -0.5004  0.4523
  599MPD2    C2 8876   4.213   3.815  16.295 -0.6316  0.1866 -0.4390
  599MPD2    C3 8877   4.189   3.956  16.302  0.1071  0.2490  0.8200
  599MPD2    C4 8878   4.285   4.029  16.366 -0.1553 -0.1136 -0.3761
  599MPD2    C5 8879   4.412   3.982  16.392  0.4126  0.3730 -0.5570
  599MPD2     H 8880   4.134   3.752  16.256 -0.9081  1.1139 -1.3552
  599MPD2    H1 8881   4.285   4.135  16.392 -0.1954 -0.3089  0.4256
  599MPD2    H2 8882   4.537   3.806  16.391  0.0464  0.1776  0.9060
  599MPD2    H3 8883   4.489   4.044  16.437  0.9050  0.9787 -2.2532
  599MPD2     N 8884   4.067   4.021  16.276 -0.3879  0.0664  0.5685
  599MPD2    H5 8885   4.043   4.112  16.314  1.3990  1.3746 -1.4765
  599MPD2    N1 8886   4.378   3.630  16.300 -0.2448  0.3032 -0.2370
  599MPD2    H7 8887   4.478   3.613  16.298 -0.4858 -1.0878 -0.4259
  600TMC3    C1 8888   3.851   4.039  16.214 -0.8778 -0.0853  0.5232
  600TMC3    C2 8889   3.746   3.962  16.170  0.9403  0.6787 -0.1932
  600TMC3    C3 8890   3.623   3.996  16.216 -0.0682  0.0624  0.2223
  600TMC3    C4 8891   3.827   4.130  16.311  0.3005 -0.0045  0.9131
  600TMC3    C5 8892   3.701   4.159  16.356  0.1128 -0.4126  0.1274
  600TMC3    C6 8893   3.597   4.086  16.316  0.6116 -0.1723 -0.4733
  600TMC3     C 8894   3.976   3.980  16.185  0.4584 -0.3478  0.2954
  600TMC3     O 8895   3.972   3.879  16.115  0.2603  0.4716 -0.4735
  600TMC3     H 8896   3.744   3.899  16.082 -1.1352  0.3325  0.0922
  600TMC3    H1 8897   3.910   4.181  16.359  0.1746  0.8867  0.1865
  600TMC3    H2 8898   3.498   4.107  16.353  0.6657 -1.2594  0.2880
  600TMC3    C7 8899   3.700   4.251  16.464  0.1973 -0.2290  0.0107
  600TMC3    C8 8900   3.498   3.947  16.157  0.3562  0.5301  0.3053
  600TMC3    O1 8901   3.619   4.245  16.557 -0.7333 -0.0935 -0.2195
  600TMC3    O2 8902   3.412   4.029  16.141 -0.2335 -0.3830  0.1411
  601MPD2     C 8903   0.525   1.996   1.020 -0.5088 -0.3918 -0.2225
  601MPD2    C1 8904   0.621   2.017   0.922 -0.7580 -0.0818 -0.1302
  601MPD2    C2 8905   0.719   1.922   0.905 -0.1331  0.2555 -0.0292
  601MPD2    C3 8906   0.724   1.806   0.984  0.1130  0.2875 -0.0289
  601MPD2    C4 8907   0.637   1.792   1.086 -0.4826  0.0169 -0.2795
  601MPD2    C5 8908   0.538   1.888   1.107  0.6121 -0.8462  0.4787
  601MPD2     H 8909   0.795   1.939   0.829 -0.3719  1.0332 -0.0993
  601MPD2    H1 8910   0.636   1.705   1.152  0.6758  1.7522  2.0052
  601MPD2    H2 8911   0.436   2.057   1.029  0.3151  1.0124 -1.5851
  601MPD2    H3 8912   0.469   1.868   1.188  0.5477 -1.1081  0.3607
  601MPD2     N 8913   0.813   1.696   0.956 -0.3399 -0.2970 -0.5035
  601MPD2    H5 8914   0.789   1.609   1.003 -1.5103 -0.2892 -1.0830
  601MPD2    N1 8915   0.623   2.128   0.838 -0.0817  0.1219 -0.2664
  601MPD2    H7 8916   0.698   2.123   0.769 -0.2349  2.1522 -0.5792
  602TMC3    C1 8917   0.556   2.329   0.737  0.6563  0.8767  0.7878
  602TMC3    C2 8918   0.561   2.461   0.758 -0.4600  0.0173  0.5759
  602TMC3    C3 8919   0.539   2.541   0.648  0.2864 -0.4693 -0.7732
  602TMC3    C4 8920   0.522   2.270   0.614  0.6548 -0.4481 -0.0114
  602TMC3    C5 8921   0.490   2.349   0.509  0.7301  0.3255  0.0589
  602TMC3    C6 8922   0.500   2.483   0.529 -0.4196 -0.5224 -0.1904
  602TMC3     C 8923   0.556   2.246   0.856 -0.1878  0.2596  0.2285
  602TMC3     O 8924   0.483   2.279   0.947 -0.0705  0.0076  0.4135
  602TMC3     H 8925   0.562   2.499   0.859 -0.8742 -1.2375  1.0472
  602TMC3    H1 8926   0.511   2.162   0.605 -0.3510 -0.4988  1.7610
  602TMC3    H2 8927   0.513   2.545   0.441 -0.1952 -1.2828 -0.6873
  602TMC3    C7 8928   0.430   2.287   0.391  0.2710  0.4379  0.5664
  602TMC3    C8 8929   0.556   2.689   0.646  0.0197  0.3784 -0.6616
  602TMC3    O1 8930   0.440   2.168   0.374  0.0854  0.6025 -0.0619
  602TMC3    O2 8931   0.615   2.739   0.736 -0.2381  0.3738  0.5068
  603TMC3    C1 8932   4.043   2.354  10.981 -0.1112 -1.8366  0.2614
  603TMC3    C2 8933   4.060   2.336  11.117  0.0008 -0.2843 -0.0229
  603TMC3    C3 8934   4.086   2.452  11.188 -0.0830 -0.0872  0.0729
  603TMC3    C4 8935   4.041   2.476  10.922  0.4586  0.0411  0.4128
  603TMC3    C5 8936   4.071   2.592  10.996  0.7634 -0.5249  0.1849
  603TMC3    C6 8937   4.096   2.580  11.127 -0.2407  0.3339 -0.6026
  603TMC3     C 8938   3.998   2.245  10.895  0.0824  0.2015 -0.0437
  603TMC3     O 8939   3.921   2.280  10.805  0.1231  0.0428  0.2119
  603TMC3     H 8940   4.065   2.237  11.160 -0.8001  0.5003  1.8480
  603TMC3    H1 8941   4.029   2.476  10.815 -0.8471 -2.2836  0.5782
  603TMC3    H2 8942   4.057   2.661  11.187  0.5959  1.5799 -1.7548
  603TMC3    C7 8943   4.076   2.729  10.938 -0.2554 -0.2403 -0.4126
  603TMC3    C8 8944   4.071   2.428  11.330 -0.2054  0.3860 -0.1479
  603TMC3    O1 8945   4.121   2.818  11.006  0.2326 -0.0186 -0.0024
  603TMC3    O2 8946   4.085   2.312  11.368  0.0157  0.3265 -0.5126
  604MPD2     C 8947   0.185   0.836  16.667  0.3780 -0.6551  0.4210
  604MPD2    C1 8948   0.081   0.902  16.605  0.8044 -0.1148  0.1261
  604MPD2    C2 8949   0.086   0.935  16.474 -0.2758  0.0777 -0.3336
  604MPD2    C3 8950   0.185   0.900  16.392 -0.3898  0.0073  0.0404
  604MPD2    C4 8951   0.289   0.828  16.453 -0.6959 -0.1380 -0.0413
  604MPD2    C5 8952   0.290   0.787  16.589 -0.1212  0.9457  0.3392
  604MPD2     H 8953   0.010   0.992  16.422 -0.5966  0.5517  0.6479
  604MPD2    H1 8954   0.374   0.800  16.392  0.5574  0.9752  1.1783
  604MPD2    H2 8955   0.184   0.817  16.774 -1.9673 -0.1743  0.4921
  604MPD2    H3 8956   0.362   0.720  16.634 -0.3349  2.5324  3.0513
  604MPD2     N 8957   0.189   0.940  16.257  0.3513 -0.0048  0.0188
  604MPD2    H5 8958   0.105   0.988  16.226  1.1502  0.8984 -0.7818
  604MPD2    N1 8959   4.696   0.945  16.684 -0.4590 -0.4397  0.0012
  604MPD2    H7 8960   4.709   0.930  16.784  0.3771 -2.1347 -0.3499
  605TMC3    C1 8961   4.522   1.095  16.762 -0.0932 -0.4254 -0.5774
  605TMC3    C2 8962   4.608   1.127  16.866 -0.3892  0.1016  0.3435
  605TMC3    C3 8963   4.588   1.252  16.930  0.1889  0.0151  0.0228
  605TMC3    C4 8964   4.427   1.182  16.722  0.4002 -0.0966  0.0117
  605TMC3    C5 8965   4.404   1.304  16.785 -0.8938 -0.6206 -0.1714
  605TMC3    C6 8966   4.482   1.337  16.896  0.0011 -0.0793 -0.2410
  605TMC3     C 8967   4.593   1.030  16.647 -0.2176 -0.5966 -0.2297
  605TMC3     O 8968   4.540   1.051  16.541 -0.2254  0.0210  0.5965
  605TMC3     H 8969   4.704   1.080  16.881  0.2699  0.5454 -2.5241
  605TMC3    H1 8970   4.376   1.159  16.629 -1.1094  0.6646  0.6631
  605TMC3    H2 8971   4.464   1.437  16.933 -1.4703 -1.1210  1.8177
  605TMC3    C7 8972   4.371   1.421  16.705  0.3248  0.9815 -0.0676
  605TMC3    C8 8973   4.703   1.310  16.994  0.1931 -0.8385 -0.1350
  605TMC3    O1 8974   4.322   1.521  16.755 -0.0487  0.0939 -0.1377
  605TMC3    O2 8975   0.092   1.268  16.983 -0.4239 -0.4639  0.4556
  606TMC3    C1 8976   1.124   4.057  16.590  0.6475 -0.3869  0.2491
  606TMC3    C2 8977   1.180   4.054  16.718 -1.2172  0.1668  0.0007
  606TMC3    C3 8978   1.093   4.049  16.821 -0.6618 -0.0351  0.5785
  606TMC3    C4 8979   0.989   4.062  16.568  0.1299  0.5166  0.8882
  606TMC3    C5 8980   0.909   4.073  16.675 -0.1472 -0.0197  0.3890
  606TMC3    C6 8981   0.958   4.056  16.798 -0.3990 -0.2489 -0.4722
  606TMC3     C 8982   1.213   4.072  16.481  0.4083 -0.0606  0.0742
  606TMC3     O 8983   1.315   4.136  16.496  0.4873 -0.2367  0.1478
  606TMC3     H 8984   1.288   4.045  16.732 -1.3172 -1.9321 -0.6886
  606TMC3    H1 8985   0.950   4.073  16.468 -2.1329  0.5012  1.7660
  606TMC3    H2 8986   0.893   4.061  16.885  0.6722  3.4008  0.1233
  606TMC3    C7 8987   0.771   4.031  16.644 -0.4850  0.1166 -0.0724
  606TMC3    C8 8988   1.148   4.073  16.951  0.0058  0.4320  0.1815
  606TMC3    O1 8989   0.766   3.955  16.541 -0.8156  0.6647  0.1539
  606TMC3    O2 8990   1.249   4.144  16.960  0.2283  0.2809 -0.0108
  607MPD2     C 8991   3.314   2.557  11.965  0.1381  0.2178 -0.5741
  607MPD2    C1 8992   3.265   2.621  12.083  0.0741 -0.2869  0.2534
  607MPD2    C2 8993   3.210   2.536  12.182  0.5417 -0.5259  0.2352
  607MPD2    C3 8994   3.193   2.405  12.159  0.4155  0.6153  0.1073
  607MPD2    C4 8995   3.235   2.349  12.040  0.4836 -0.1668 -0.0763
  607MPD2    C5 8996   3.296   2.426  11.949  0.6509  0.1447  0.3112
  607MPD2     H 8997   3.198   2.574  12.283 -0.5277 -3.7421  1.3117
  607MPD2    H1 8998   3.223   2.242  12.025 -4.4608  0.5483 -1.3640
  607MPD2    H2 8999   3.362   2.618  11.890 -0.8840  0.0545 -1.3665
  607MPD2    H3 9000   3.323   2.375  11.857  0.0598 -3.1338  1.9766
  607MPD2     N 9001   3.139   2.335  12.265 -0.0510  0.1223 -0.2281
  607MPD2    H5 9002   3.121   2.391  12.348  0.1098 -1.1528  0.6559
  607MPD2    N1 9003   3.279   2.757  12.106  0.1797 -0.1754  0.0611
  607MPD2    H7 9004   3.216   2.793  12.177 -1.8666 -1.8912 -0.8824
  608TMC3    C1 9005   3.413   2.946  12.148  0.5031  0.6952 -0.1811
  608TMC3    C2 9006   3.372   2.942  12.280  0.0033 -0.4928  0.5422
  608TMC3    C3 9007   3.435   3.028  12.366 -0.4211  0.5943 -0.1046
  608TMC3    C4 9008   3.523   3.019  12.106 -0.2648  0.6204 -0.1545
  608TMC3    C5 9009   3.578   3.095  12.203  0.3339 -0.0349 -0.4936
  608TMC3    C6 9010   3.537   3.109  12.327 -0.3770  0.1180  0.3366
  608TMC3     C 9011   3.391   2.828  12.067 -0.2049 -0.0064  0.4726
  608TMC3     O 9012   3.478   2.802  11.987 -0.7754 -0.1887  0.3599
  608TMC3     H 9013   3.279   2.893  12.308 -0.0764 -1.2955 -1.1315
  608TMC3    H1 9014   3.576   2.999  12.014  0.5210 -2.1285  0.8918
  608TMC3    H2 9015   3.588   3.171  12.400  0.4321  0.3657 -0.4489
  608TMC3    C7 9016   3.684   3.182  12.156  0.5080 -0.0683  0.1831
  608TMC3    C8 9017   3.425   3.002  12.506  0.5338  0.7983 -0.6926
  608TMC3    O1 9018   3.743   3.149  12.053 -0.1793 -0.0822  0.2324
  608TMC3    O2 9019   3.441   3.094  12.587 -0.3360  0.3759  0.2049
  609TMC3    C1 9020   2.225   1.734   9.757  0.1867 -0.1005 -0.2650
  609TMC3    C2 9021   2.330   1.822   9.779 -0.6290 -0.1147 -0.5317
  609TMC3    C3 9022   2.457   1.775   9.749 -0.2495 -0.7419 -0.2662
  609TMC3    C4 9023   2.235   1.608   9.705 -0.5568 -0.2289  0.6538
  609TMC3    C5 9024   2.361   1.567   9.668  0.1970  0.3440  0.3924
  609TMC3    C6 9025   2.467   1.655   9.686 -0.2890 -0.2029 -0.1250
  609TMC3     C 9026   2.085   1.766   9.787  0.6005  0.5998  0.4243
  609TMC3     O 9027   2.005   1.674   9.811  0.1593  0.2916  0.2631
  609TMC3     H 9028   2.312   1.909   9.841  2.0252  0.0559 -0.0132
  609TMC3    H1 9029   2.153   1.538   9.698  0.5811 -1.7239  2.2900
  609TMC3    H2 9030   2.563   1.622   9.649  0.1923  0.7861  0.2380
  609TMC3    C7 9031   2.394   1.432   9.632  0.7502 -0.5743  0.4234
  609TMC3    C8 9032   2.550   1.889   9.729  0.0903  0.2025 -0.5526
  609TMC3    O1 9033   2.506   1.390   9.656  0.4810  1.1634  0.3781
  609TMC3    O2 9034   2.505   2.001   9.731  0.1756  0.2745 -0.1405
  610TMC3    C1 9035   3.409   3.156  13.639  0.0891  0.0761 -0.8982
  610TMC3    C2 9036   3.377   3.236  13.529  0.6657 -0.4759 -0.4867
  610TMC3    C3 9037   3.356   3.182  13.407 -1.0343 -0.8135  0.2735
  610TMC3    C4 9038   3.416   3.017  13.621 -0.4700 -0.1466 -0.0004
  610TMC3    C5 9039   3.403   2.962  13.496 -0.7849  0.6660 -0.7319
  610TMC3    C6 9040   3.370   3.041  13.390 -0.2644  0.3692 -0.7159
  610TMC3     C 9041   3.369   3.199  13.777  0.0366  0.7400 -0.2296
  610TMC3     O 9042   3.396   3.130  13.876  0.0304  0.2816 -0.5568
  610TMC3     H 9043   3.371   3.343  13.544  1.5112 -0.6738  1.2535
  610TMC3    H1 9044   3.407   2.949  13.704 -1.3655 -2.4326 -1.9881
  610TMC3    H2 9045   3.391   2.990  13.296  1.7769 -0.5944  0.2675
  610TMC3    C7 9046   3.435   2.817  13.481 -0.0224 -0.6281  0.2509
  610TMC3    C8 9047   3.338   3.276  13.294 -0.8784 -0.4023  0.1828
  610TMC3    O1 9048   3.510   2.769  13.564  0.1175 -0.3571  0.0715
  610TMC3    O2 9049   3.333   3.395  13.326 -0.6544 -0.1090 -0.1556
  611MPD2     C 9050   3.517   2.252  10.127 -0.0670 -0.3893 -0.2182
  611MPD2    C1 9051   3.428   2.358  10.100 -0.0523 -0.0452  1.0153
  611MPD2    C2 9052   3.476   2.488  10.095 -0.0287  0.7665 -0.3226
  611MPD2    C3 9053   3.621   2.514  10.108 -0.4552  0.4129 -0.3326
  611MPD2    C4 9054   3.704   2.413  10.133 -0.5863  0.0573  0.7183
  611MPD2    C5 9055   3.652   2.280  10.141  0.7993  0.2905  0.2710
  611MPD2     H 9056   3.404   2.565  10.070 -0.2575  0.7846  0.3904
  611MPD2    H1 9057   3.810   2.434  10.137 -0.5175  0.0458 -1.1690
  611MPD2    H2 9058   3.472   2.156  10.149 -3.0603  1.1737  0.5696
  611MPD2    H3 9059   3.719   2.199  10.168  0.6927 -0.2974 -1.2387
  611MPD2     N 9060   3.685   2.638  10.079 -0.2988  0.2951  0.6322
  611MPD2    H5 9061   3.786   2.631  10.090 -0.2293 -0.2855 -0.4316
  611MPD2    N1 9062   3.296   2.320  10.063 -0.4410  0.5238 -0.7127
  611MPD2    H7 9063   3.270   2.223  10.076 -0.4467  0.8050  1.4104
  612TMC3    C1 9064   3.719   2.865  10.052 -0.9799 -0.1766  0.0826
  612TMC3    C2 9065   3.814   2.863  10.149 -0.0522  0.0384 -0.3648
  612TMC3    C3 9066   3.883   2.980  10.170 -0.5913  0.5166  0.9489
  612TMC3    C4 9067   3.689   2.977   9.984  0.2232 -0.4243  0.1215
  612TMC3    C5 9068   3.757   3.091  10.016 -0.2758  0.5256  0.2197
  612TMC3    C6 9069   3.854   3.098  10.112 -0.0348 -0.8399  0.1571
  612TMC3     C 9070   3.631   2.751  10.031  0.7343  0.1136 -0.1882
  612TMC3     O 9071   3.522   2.783   9.991  0.4769  0.0007  0.1865
  612TMC3     H 9072   3.847   2.775  10.201 -0.7870  0.9354  1.6187
  612TMC3    H1 9073   3.614   2.977   9.906  2.4412  0.7086 -1.9990
  612TMC3    H2 9074   3.907   3.188  10.141 -1.1228 -0.3075  0.4979
  612TMC3    C7 9075   3.745   3.209   9.929 -0.3843  0.0513 -0.5841
  612TMC3    C8 9076   3.996   2.989  10.256  0.2576  0.0618  0.6599
  612TMC3    O1 9077   3.699   3.188   9.817  0.0163 -0.1511  0.8438
  612TMC3    O2 9078   4.087   3.067  10.224 -0.1600  0.3125  0.0696
  613MPD2     C 9079   2.394   0.751  16.234  0.5844 -0.3823  0.3126
  613MPD2    C1 9080   2.427   0.654  16.330 -0.5950 -0.5083  0.7205
  613MPD2    C2 9081   2.333   0.558  16.358  0.5916 -0.4043  0.5908
  613MPD2    C3 9082   2.213   0.543  16.293  0.4646  0.3043  0.3228
  613MPD2    C4 9083   2.176   0.642  16.207  0.6114 -0.4012 -0.4195
  613MPD2    C5 9084   2.269   0.740  16.177  0.0783  0.7133 -0.0110
  613MPD2     H 9085   2.359   0.483  16.433 -0.0775 -2.1345 -0.9201
  613MPD2    H1 9086   2.088   0.643  16.144  0.4855  0.9538 -0.2254
  613MPD2    H2 9087   2.461   0.832  16.206  1.3713 -0.0224  3.2204
  613MPD2    H3 9088   2.245   0.820  16.108 -1.5950 -0.1081 -0.3848
  613MPD2     N 9089   2.133   0.430  16.315  0.5696 -0.0476 -0.0661
  613MPD2    H5 9090   2.064   0.413  16.242  0.1468 -1.8172  0.7635
  613MPD2    N1 9091   2.559   0.631  16.384  0.6744  0.6585 -0.7723
  613MPD2    H7 9092   2.565   0.552  16.447 -0.5878 -0.7777 -2.4612
  614TMC3    C1 9093   2.785   0.581  16.359 -0.8389 -0.5913 -0.1363
  614TMC3    C2 9094   2.738   0.466  16.418  0.5915 -0.5785  0.1559
  614TMC3    C3 9095   2.750   0.355  16.343  0.0554 -0.2125 -0.3493
  614TMC3    C4 9096   2.855   0.582  16.241 -0.4247  0.1185 -0.0087
  614TMC3    C5 9097   2.858   0.465  16.175 -0.5972  0.1027  0.6863
  614TMC3    C6 9098   2.807   0.342  16.222 -0.6414  0.0917  0.0484
  614TMC3     C 9099   2.677   0.676  16.330 -0.5737  0.4467  0.0147
  614TMC3     O 9100   2.703   0.761  16.247 -0.2493  0.1431  0.5442
  614TMC3     H 9101   2.688   0.468  16.514  0.0677 -1.8333 -0.0903
  614TMC3    H1 9102   2.893   0.669  16.188  0.2251 -0.0097  0.2509
  614TMC3    H2 9103   2.825   0.251  16.165 -0.1919 -0.2246  0.7025
  614TMC3    C7 9104   2.910   0.470  16.039 -0.1437 -0.0432  0.1069
  614TMC3    C8 9105   2.662   0.244  16.388  0.6583  0.2995 -0.2361
  614TMC3    O1 9106   2.998   0.550  16.005 -0.0233 -0.2934 -0.3343
  614TMC3    O2 9107   2.570   0.273  16.465  0.2029  0.4407  0.1078
  615MPD2     C 9108   2.026   1.651  16.340 -0.6232 -0.7277  0.1318
  615MPD2    C1 9109   1.911   1.653  16.422 -0.2238  0.2174 -0.5816
  615MPD2    C2 9110   1.798   1.613  16.359 -0.4719  0.2852 -0.2285
  615MPD2    C3 9111   1.792   1.589  16.215  0.6826  0.6762  0.0760
  615MPD2    C4 9112   1.904   1.596  16.144 -0.3346 -0.5555 -0.5894
  615MPD2    C5 9113   2.023   1.631  16.201 -0.2333 -0.3415  0.9305
  615MPD2     H 9114   1.705   1.626  16.412 -0.5001  0.3509 -0.2945
  615MPD2    H1 9115   1.903   1.584  16.036 -0.5424  0.2333 -0.6731
  615MPD2    H2 9116   2.124   1.652  16.386 -0.4134  1.3999 -0.3376
  615MPD2    H3 9117   2.114   1.619  16.143  1.6459 -2.3362  4.3039
  615MPD2     N 9118   1.682   1.548  16.144  0.1307  0.0504  0.1563
  615MPD2    H5 9119   1.704   1.526  16.048 -0.0919 -2.2651  0.6211
  615MPD2    N1 9120   1.911   1.692  16.561  0.4343 -0.0208  0.4956
  615MPD2    H7 9121   1.818   1.685  16.601 -0.3843 -1.9845 -1.7508
  616TMC3    C1 9122   1.991   1.795  16.760  1.0568 -0.3683 -0.4390
  616TMC3    C2 9123   2.085   1.888  16.792 -0.4339  0.8633 -0.1775
  616TMC3    C3 9124   2.055   1.971  16.897  1.8290  0.5226 -0.3316
  616TMC3    C4 9125   1.878   1.778  16.830  0.2828 -0.2194  0.0503
  616TMC3    C5 9126   1.855   1.865  16.932 -0.0745  0.2313  0.5033
  616TMC3    C6 9127   1.941   1.963  16.969 -0.0202 -0.1373 -0.1583
  616TMC3     C 9128   2.023   1.722  16.634 -0.6245  0.2994  0.2114
  616TMC3     O 9129   2.136   1.709  16.597  0.3646  0.1723  0.0697
  616TMC3     H 9130   2.174   1.889  16.730  0.3847 -0.7208  0.9632
  616TMC3    H1 9131   1.813   1.692  16.819 -1.1871  1.2805 -3.0932
  616TMC3    H2 9132   1.908   2.032  17.046 -3.2438  0.1256 -1.7300
  616TMC3    C7 9133   1.724   1.861  17.003  0.2841 -0.0958  0.0488
  616TMC3    C8 9134   2.105   2.106  16.895  0.6802  0.3440  0.1130
  616TMC3    O1 9135   1.727   1.897  17.115 -0.5416 -0.0241 -1.0125
  616TMC3    O2 9136   2.025   2.193  16.928 -0.2469  0.6215 -0.1984
  617MPD2     C 9137   4.556   4.566  14.016  0.0909  0.3659  0.0865
  617MPD2    C1 9138   4.566   4.438  13.965 -0.3712  0.0614 -0.0868
  617MPD2    C2 9139   4.465   4.347  13.994  0.3222  0.0547 -0.5175
  617MPD2    C3 9140   4.357   4.376  14.071  0.0636  0.9775  0.0937
  617MPD2    C4 9141   4.348   4.508  14.125  0.7235  0.3362 -0.3965
  617MPD2    C5 9142   4.448   4.602  14.098 -0.6094 -0.0125  0.2232
  617MPD2     H 9143   4.470   4.245  13.956  0.4225 -0.9621  2.2378
  617MPD2    H1 9144   4.259   4.531  14.181  0.8983  0.5953 -0.2273
  617MPD2    H2 9145   4.636   4.639  14.004  0.7078 -0.4595 -0.7702
  617MPD2    H3 9146   4.439   4.703  14.137 -1.7412  0.1141 -0.3456
  617MPD2     N 9147   4.252   4.280  14.102 -0.4025 -0.5931  0.2222
  617MPD2    H5 9148   4.186   4.306  14.175 -0.2258 -1.1237  0.5689
  617MPD2    N1 9149   4.678   4.418  13.881  0.0504 -0.5286 -0.4911
  617MPD2    H7 9150   0.022   4.491  13.865 -0.0072 -0.7277 -1.6773
  618TMC3    C1 9151   0.113   4.298  13.756  0.8030 -0.4948 -0.5753
  618TMC3    C2 9152   0.183   4.181  13.726  0.8997  0.7046 -0.2196
  618TMC3    C3 9153   0.294   4.191  13.652  0.2197  0.1146 -0.0719
  618TMC3    C4 9154   0.151   4.413  13.686  0.4612  1.2743 -0.0264
  618TMC3    C5 9155   0.261   4.408  13.610 -0.3223  0.1730  0.3528
  618TMC3    C6 9156   0.339   4.307  13.593 -0.1853 -0.0278  0.0224
  618TMC3     C 9157   4.717   4.292  13.841 -0.6947  0.6025  0.6237
  618TMC3     O 9158   4.667   4.180  13.853  0.4615 -0.1418  0.2229
  618TMC3     H 9159   0.136   4.092  13.767  0.3085  0.5313 -1.2887
  618TMC3    H1 9160   0.089   4.501  13.669 -0.1253  0.1676 -3.5320
  618TMC3    H2 9161   0.430   4.310  13.533  0.6019  1.5284  1.2914
  618TMC3    C7 9162   0.282   4.540  13.550 -0.3509 -0.8497 -0.4150
  618TMC3    C8 9163   0.331   4.065  13.589  0.0930  0.4143 -0.2726
  618TMC3    O1 9164   0.250   4.640  13.609  0.4412 -0.2000  0.4856
  618TMC3    O2 9165   0.256   3.968  13.587  0.0431 -0.3375 -0.4654
  619MPD2     C 9166   1.578   1.236  13.304  0.6134 -0.0614  0.4994
  619MPD2    C1 9167   1.525   1.335  13.221 -0.1824  0.2566  0.3589
  619MPD2    C2 9168   1.407   1.308  13.154 -0.0723  1.4204  0.4262
  619MPD2    C3 9169   1.328   1.196  13.175 -0.3268  0.0457 -0.4663
  619MPD2    C4 9170   1.381   1.103  13.266  0.4242 -0.2461  0.0967
  619MPD2    C5 9171   1.510   1.119  13.319 -0.5471  0.4509 -0.4528
  619MPD2     H 9172   1.366   1.384  13.089  1.1776  1.7767  0.0571
  619MPD2    H1 9173   1.312   1.022  13.288 -0.1629  0.5287  1.0933
  619MPD2    H2 9174   1.673   1.246  13.353  1.1237  0.9856 -0.6953
  619MPD2    H3 9175   1.548   1.044  13.387  0.2964  0.4313 -0.9355
  619MPD2     N 9176   1.203   1.164  13.112  0.0520 -0.0750 -0.3863
  619MPD2    H5 9177   1.158   1.086  13.159 -0.1746  0.2115 -0.1313
  619MPD2    N1 9178   1.588   1.459  13.187  0.2725 -0.3200 -0.2977
  619MPD2    H7 9179   1.551   1.513  13.109 -1.1297 -0.7209  0.0929
  620TMC3    C1 9180   1.723   1.653  13.240 -0.0014 -0.3483  0.0051
  620TMC3    C2 9181   1.669   1.717  13.136  0.3240  0.3532 -0.8659
  620TMC3    C3 9182   1.634   1.848  13.139  0.2406  0.5815  0.1658
  620TMC3    C4 9183   1.738   1.728  13.352  0.3928  0.2941 -0.0360
  620TMC3    C5 9184   1.720   1.868  13.359  0.6872  0.5956  0.1794
  620TMC3    C6 9185   1.663   1.925  13.250 -0.1508  0.4154  0.2569
  620TMC3     C 9186   1.691   1.511  13.260 -0.5975 -0.1701  0.0635
  620TMC3     O 9187   1.739   1.467  13.362  0.6022  0.8518 -0.0289
  620TMC3     H 9188   1.661   1.669  13.039  1.4988 -1.6211  0.0191
  620TMC3    H1 9189   1.756   1.672  13.444  0.6999 -1.8966 -1.4380
  620TMC3    H2 9190   1.641   2.031  13.248 -1.2745  0.2014  0.9038
  620TMC3    C7 9191   1.711   1.928  13.486  1.8769  0.3809  0.5787
  620TMC3    C8 9192   1.581   1.918  13.025 -0.6347  0.2431 -0.0669
  620TMC3    O1 9193   1.766   1.872  13.581 -0.2115 -0.1473  0.0143
  620TMC3    O2 9194   1.643   2.015  12.982 -0.3709  0.4973 -0.4024
  621MPD2     C 9195   1.550   0.819  10.306  0.2043  0.4731 -0.3965
  621MPD2    C1 9196   1.652   0.759  10.380 -0.8945 -0.0274 -0.0678
  621MPD2    C2 9197   1.775   0.721  10.319 -0.1377  0.4257 -0.1026
  621MPD2    C3 9198   1.795   0.752  10.189 -0.7683 -0.2511 -0.1025
  621MPD2    C4 9199   1.691   0.813  10.115  0.1155  0.2454  0.5689
  621MPD2    C5 9200   1.578   0.854  10.180  0.2072  0.5512 -0.7757
  621MPD2     H 9201   1.853   0.662  10.367  0.5078  1.8378  0.5664
  621MPD2    H1 9202   1.704   0.845  10.012  0.9765 -1.2100  0.2247
  621MPD2    H2 9203   1.451   0.845  10.340  0.3360  0.4894 -0.0195
  621MPD2    H3 9204   1.508   0.912  10.121 -1.2142  1.2658  1.6284
  621MPD2     N 9205   1.929   0.754  10.142  0.7846  0.5537  0.4037
  621MPD2    H5 9206   2.008   0.723  10.197  0.2608 -0.3990  0.6051
  621MPD2    N1 9207   1.641   0.720  10.517  0.1190  0.6991  0.4452
  621MPD2    H7 9208   1.715   0.665  10.558  1.0857  2.9856  1.7670
  622TMC3    C1 9209   1.514   0.646  10.702 -0.2716 -0.2893 -0.0639
  622TMC3    C2 9210   1.406   0.644  10.785  0.5442  0.3974 -0.3181
  622TMC3    C3 9211   1.334   0.529  10.803 -0.2384  0.6240 -0.1588
  622TMC3    C4 9212   1.560   0.521  10.658  0.0694 -0.5332  0.1830
  622TMC3    C5 9213   1.488   0.409  10.687  0.8691  0.2273 -0.5185
  622TMC3    C6 9214   1.370   0.406  10.754  0.2309  0.4434 -0.2469
  622TMC3     C 9215   1.526   0.744  10.596  0.8942 -0.1158 -0.5591
  622TMC3     O 9216   1.419   0.798  10.569 -0.4115  0.2271 -0.0639
  622TMC3     H 9217   1.374   0.740  10.824 -1.0350  0.1545 -0.9925
  622TMC3    H1 9218   1.655   0.512  10.607 -0.7305 -1.3384 -1.1616
  622TMC3    H2 9219   1.309   0.317  10.764 -1.6805  1.8725  0.6537
  622TMC3    C7 9220   1.488   0.312  10.576  0.5585 -0.3155 -0.4891
  622TMC3    C8 9221   1.222   0.535  10.898  0.8420 -1.1877 -0.4418
  622TMC3    O1 9222   1.503   0.192  10.592 -0.4092  0.0793  0.5550
  622TMC3    O2 9223   1.167   0.428  10.923  0.1556  0.6838  0.3566
  623MPD2     C 9224   0.633   1.443  16.197 -0.4795 -0.7142  0.4740
  623MPD2    C1 9225   0.554   1.388  16.296 -0.3055 -0.0562  0.3430
  623MPD2    C2 9226   0.576   1.427  16.422  0.7037 -1.5304  0.3197
  623MPD2    C3 9227   0.679   1.510  16.454  0.0143 -0.1318 -0.4475
  623MPD2    C4 9228   0.762   1.568  16.357  0.4541  0.3962 -0.1082
  623MPD2    C5 9229   0.734   1.530  16.225  0.3154 -0.2004  0.3690
  623MPD2     H 9230   0.502   1.412  16.501  1.6066  0.9713  1.6312
  623MPD2    H1 9231   0.825   1.652  16.382  0.2756  0.7498 -0.8392
  623MPD2    H2 9232   0.617   1.421  16.092  0.3935  0.8729 -0.0012
  623MPD2    H3 9233   0.785   1.581  16.145 -0.1610 -2.1392 -1.1624
  623MPD2     N 9234   0.691   1.545  16.590  0.1656  0.4649  0.5464
  623MPD2    H5 9235   0.623   1.499  16.651 -1.5462  2.1279 -0.1133
  623MPD2    N1 9236   0.434   1.326  16.250 -0.2311 -0.3904  0.0108
  623MPD2    H7 9237   0.397   1.352  16.159 -0.3046 -0.7119 -0.0502
  624TMC3    C1 9238   0.789   1.626  17.005 -0.4377  0.3449  0.3494
  624TMC3    C2 9239   0.665   1.643  17.053  0.2107 -0.0005 -0.1081
  624TMC3    C3 9240   0.568   1.667  16.955  0.1242  1.2833  0.2621
  624TMC3    C4 9241   0.835   1.643  16.877  0.0157  0.7150 -0.1736
  624TMC3    C5 9242   0.738   1.659  16.787  0.0011 -0.1703  0.5003
  624TMC3    C6 9243   0.603   1.655  16.821  0.2239 -0.4347  0.2615
  624TMC3     C 9244   0.895   1.614  17.098  0.0213  0.2173 -0.0543
  624TMC3     O 9245   0.911   1.688  17.197 -0.2154  0.5579 -0.0228
  624TMC3     H 9246   0.646   1.630  17.159  1.0761  1.9725  0.2747
  624TMC3    H1 9247   0.938   1.628  16.846 -0.7794 -3.6075 -0.6897
  624TMC3    H2 9248   0.530   1.675  16.743 -0.1057 -0.7389  0.4914
  624TMC3    C7 9249   0.768   1.640  16.644 -0.4719  0.3057  0.5735
  624TMC3    C8 9250   0.442   1.610  16.978  1.1716  0.1090  0.3399
  624TMC3    O1 9251   0.860   1.705  16.597  0.3073  0.1471 -0.3048
  624TMC3    O2 9252   0.399   1.533  16.889  0.4552 -0.0496 -0.0057
  625MPD2     C 9253   1.426   3.358   1.097 -0.6215  0.0395  0.5837
  625MPD2    C1 9254   1.415   3.352   0.960  0.6752 -0.1885 -0.0857
  625MPD2    C2 9255   1.537   3.356   0.891 -0.4340  0.6380 -0.2220
  625MPD2    C3 9256   1.664   3.376   0.960  0.5078  0.0706 -0.5330
  625MPD2    C4 9257   1.670   3.397   1.098  0.0943 -0.1101  0.0952
  625MPD2    C5 9258   1.547   3.385   1.164  0.3155  0.0688  0.7776
  625MPD2     H 9259   1.543   3.345   0.784  0.7723 -0.4785 -0.0430
  625MPD2    H1 9260   1.761   3.419   1.153 -0.0662 -0.8995  0.6774
  625MPD2    H2 9261   1.337   3.338   1.155 -1.3013  1.7204  0.1167
  625MPD2    H3 9262   1.545   3.396   1.272  2.2711 -0.6405  0.8749
  625MPD2     N 9263   1.780   3.383   0.879 -0.1364 -0.4409 -0.5913
  625MPD2    H5 9264   1.771   3.380   0.778  0.2859  2.4788 -0.7237
  625MPD2    N1 9265   1.294   3.335   0.892  0.1935 -0.3867  0.4762
  625MPD2    H7 9266   1.303   3.340   0.791 -0.5430  1.2895  0.4960
  626TMC3    C1 9267   1.057   3.291   0.851 -0.1647 -0.1693 -0.1807
  626TMC3    C2 9268   1.068   3.331   0.723  0.0071  0.4397  1.1030
  626TMC3    C3 9269   0.954   3.299   0.648 -0.0794 -0.1005  0.2091
  626TMC3    C4 9270   0.956   3.211   0.907  0.0475 -0.2431  0.1677
  626TMC3    C5 9271   0.852   3.182   0.819 -0.0670  0.1062  0.5019
  626TMC3    C6 9272   0.841   3.232   0.692  0.7345  0.5380 -0.1507
  626TMC3     C 9273   1.169   3.319   0.944  0.5371 -0.1964 -0.2218
  626TMC3     O 9274   1.135   3.311   1.059 -0.5660 -0.2617 -0.0467
  626TMC3     H 9275   1.159   3.382   0.692 -0.6361  2.2227  2.1557
  626TMC3    H1 9276   0.965   3.175   1.009 -4.4857 -2.6807 -0.3223
  626TMC3    H2 9277   0.755   3.219   0.629 -0.5774  0.5594  1.6331
  626TMC3    C7 9278   0.734   3.109   0.871  1.4008  0.3573  0.0124
  626TMC3    C8 9279   0.950   3.355   0.513 -0.0636 -0.5998 -0.0690
  626TMC3    O1 9280   0.759   3.046   0.975 -0.1767  0.0590  0.0862
  626TMC3    O2 9281   0.875   3.296   0.437 -0.1709 -0.1662 -0.1753
  627MPD2     C 9282   3.932   3.188  15.025 -0.2749  0.7672  0.8215
  627MPD2    C1 9283   4.038   3.198  14.935  0.5045 -0.5069 -0.0289
  627MPD2    C2 9284   4.033   3.124  14.823  0.1595 -0.2519  0.6789
  627MPD2    C3 9285   3.930   3.033  14.808  0.2443 -1.1464  0.2218
  627MPD2    C4 9286   3.822   3.029  14.892 -0.2274  0.3244  0.3231
  627MPD2    C5 9287   3.823   3.109  14.999  0.6121 -0.6579 -0.0865
  627MPD2     H 9288   4.114   3.135  14.751  0.2289 -2.4915  0.4115
  627MPD2    H1 9289   3.734   2.968  14.880 -1.1672  1.4405  1.5211
  627MPD2    H2 9290   3.918   3.266  15.100 -1.3858  2.2521 -0.9190
  627MPD2    H3 9291   3.738   3.098  15.065 -0.2704 -0.7111 -1.2239
  627MPD2     N 9292   3.927   2.931  14.705 -0.3860 -0.0221 -0.0852
  627MPD2    H5 9293   3.840   2.880  14.694 -0.7619  0.3375  1.3380
  627MPD2    N1 9294   4.150   3.288  14.954  0.1776 -0.2129 -0.8302
  627MPD2    H7 9295   4.233   3.280  14.896  0.5323 -0.3045 -0.3094
  628TMC3    C1 9296   4.260   3.474  15.061 -0.2477 -0.1980  0.1611
  628TMC3    C2 9297   4.382   3.442  15.013 -0.4406 -0.9967 -0.2656
  628TMC3    C3 9298   4.461   3.547  14.976 -0.2490 -0.0755  0.1907
  628TMC3    C4 9299   4.214   3.602  15.062 -0.3905 -0.4763  0.3994
  628TMC3    C5 9300   4.295   3.707  15.022  0.2794  1.0147 -0.1987
  628TMC3    C6 9301   4.421   3.683  14.974  0.4242 -0.2488 -0.1788
  628TMC3     C 9302   4.159   3.378  15.061  0.3825 -0.8794 -0.3331
  628TMC3     O 9303   4.073   3.412  15.142  0.1842  0.2798  0.0473
  628TMC3     H 9304   4.412   3.338  15.011 -3.0867 -1.7713  0.7145
  628TMC3    H1 9305   4.123   3.621  15.118 -0.2685  2.5749 -0.4671
  628TMC3    H2 9306   4.480   3.761  14.926  0.5636  0.4866  1.1848
  628TMC3    C7 9307   4.224   3.815  14.939  0.1417  0.9549 -0.3804
  628TMC3    C8 9308   4.605   3.533  14.951  0.2019 -0.4788 -0.1488
  628TMC3    O1 9309   4.283   3.834  14.834  0.3581 -0.3215  0.1096
  628TMC3    O2 9310   4.671   3.626  14.905 -0.6607  0.1038 -0.1910
  629MPD2     C 9311   2.457   2.460  16.831  0.0850  0.4271 -0.4525
  629MPD2    C1 9312   2.526   2.344  16.872  0.1702  0.5617 -0.4953
  629MPD2    C2 9313   2.452   2.228  16.880  0.0331 -0.1561  0.5511
  629MPD2    C3 9314   2.314   2.232  16.845 -0.4130  0.2075  0.1989
  629MPD2    C4 9315   2.247   2.347  16.819 -0.7223 -0.6161 -0.0318
  629MPD2    C5 9316   2.326   2.459  16.809 -0.2011 -0.7629 -0.3870
  629MPD2     H 9317   2.510   2.138  16.891  0.7382  0.6828  3.6151
  629MPD2    H1 9318   2.140   2.344  16.802 -0.5391  2.0285 -1.7093
  629MPD2    H2 9319   2.514   2.551  16.828  0.5424  0.2244  2.2490
  629MPD2    H3 9320   2.281   2.557  16.796 -0.4038 -0.6435  1.1501
  629MPD2     N 9321   2.239   2.116  16.864  0.4289 -0.3430  0.0425
  629MPD2    H5 9322   2.287   2.026  16.866 -0.3413 -0.7845 -0.9818
  629MPD2    N1 9323   2.668   2.354  16.894 -1.0618 -0.3181 -0.1427
  629MPD2    H7 9324   2.706   2.446  16.874  1.4865 -1.4152 -0.3011
  630TMC3    C1 9325   2.891   2.284  16.945  0.1949 -0.0524  0.3441
  630TMC3    C2 9326   2.939   2.394  16.879  0.2798 -0.2671 -0.2890
  630TMC3    C3 9327   3.075   2.419  16.891  0.7718 -0.7916  0.0257
  630TMC3    C4 9328   2.966   2.204  17.023 -0.0486  0.1480  0.3081
  630TMC3    C5 9329   3.093   2.248  17.050 -0.2282  0.8706 -0.3396
  630TMC3    C6 9330   3.148   2.355  16.984 -0.0326 -0.3895  0.8358
  630TMC3     C 9331   2.749   2.251  16.935 -0.0234 -0.7151 -0.4418
  630TMC3     O 9332   2.714   2.150  16.991  0.9415  0.4307  0.3830
  630TMC3     H 9333   2.894   2.435  16.789  2.4928  0.9476 -0.8561
  630TMC3    H1 9334   2.916   2.131  17.086  1.7103 -1.5165 -0.2275
  630TMC3    H2 9335   3.254   2.380  16.992 -0.0617 -0.9523  2.9267
  630TMC3    C7 9336   3.137   2.218  17.188 -0.7114 -0.4612 -0.2087
  630TMC3    C8 9337   3.133   2.545  16.859  0.3048  0.0311 -0.2177
  630TMC3    O1 9338   3.084   2.133  17.258 -0.3936  0.2856 -0.4222
  630TMC3    O2 9339   3.250   2.561  16.878  0.2027  0.0056  0.3782
  631MPD2     C 9340   0.937   2.146  16.097  0.1116  0.3521  0.1442
  631MPD2    C1 9341   1.024   2.149  15.989  0.1720  0.0281  0.0661
  631MPD2    C2 9342   1.091   2.034  15.962 -0.8182 -0.6922  0.4975
  631MPD2    C3 9343   1.057   1.914  16.021  0.3467  0.5231 -0.5526
  631MPD2    C4 9344   0.961   1.913  16.124  0.2574  0.6245 -0.0007
  631MPD2    C5 9345   0.907   2.030  16.167 -0.3261  0.0246 -0.2492
  631MPD2     H 9346   1.164   2.026  15.882 -1.0569 -3.4750  0.5725
  631MPD2    H1 9347   0.924   1.823  16.172 -1.4616  0.3474 -1.8478
  631MPD2    H2 9348   0.892   2.234  16.142 -1.6075 -1.9725  3.0046
  631MPD2    H3 9349   0.835   2.029  16.249  0.9920 -0.4103  0.9019
  631MPD2     N 9350   1.139   1.801  15.981 -0.4157  0.1768  0.2966
  631MPD2    H5 9351   1.203   1.820  15.905  0.0209 -1.6722  0.1997
  631MPD2    N1 9352   1.044   2.271  15.920 -0.3372  0.1363  0.7806
  631MPD2    H7 9353   0.996   2.350  15.960 -1.3081 -0.0494 -0.0152
  632TMC3    C1 9354   1.054   2.401  15.724 -0.4174 -0.4618  0.6071
  632TMC3    C2 9355   0.953   2.468  15.781  0.1840 -0.2489  0.0671
  632TMC3    C3 9356   0.852   2.504  15.692  0.2893 -0.8349 -0.9116
  632TMC3    C4 9357   1.071   2.385  15.590 -0.0200  0.1581  0.7629
  632TMC3    C5 9358   0.968   2.427  15.509 -0.2675 -0.0329 -0.3525
  632TMC3    C6 9359   0.863   2.504  15.556  0.4045  0.0600  0.4381
  632TMC3     C 9360   1.103   2.281  15.794  0.2578 -0.1053 -0.3104
  632TMC3     O 9361   1.149   2.192  15.726 -0.3968  0.5533  0.3226
  632TMC3     H 9362   0.937   2.481  15.887  0.9995 -2.7957  0.5150
  632TMC3    H1 9363   1.160   2.335  15.553  0.4906  0.7732  1.1546
  632TMC3    H2 9364   0.783   2.524  15.486  0.7774  0.6972  0.2011
  632TMC3    C7 9365   0.973   2.432  15.365  0.5813 -0.6059 -0.0553
  632TMC3    C8 9366   0.717   2.490  15.750  0.0541  0.1030  0.0019
  632TMC3    O1 9367   0.937   2.526  15.303 -0.3311 -0.0566 -0.1334
  632TMC3    O2 9368   0.716   2.457  15.869  0.5610 -0.1564  0.6945
  633MPD2     C 9369   0.364   0.173  17.458  0.1933 -0.4075  0.2733
  633MPD2    C1 9370   0.425   0.089  17.365  0.0087  0.6883  0.5456
  633MPD2    C2 9371   0.363   4.697  17.315 -0.3400  0.1865  0.3883
  633MPD2    C3 9372   0.240   4.660  17.359 -0.7843  0.1369 -0.1572
  633MPD2    C4 9373   0.181   0.013  17.453 -0.3384 -0.6532 -0.2587
  633MPD2    C5 9374   0.235   0.135  17.495  0.4936  0.3990  0.1612
  633MPD2     H 9375   0.417   4.634  17.246  0.8304 -1.0181  2.4084
  633MPD2    H1 9376   0.080   4.709  17.480 -0.2015 -0.5041  0.4193
  633MPD2    H2 9377   0.412   0.259  17.503 -0.4622  0.1455 -0.0790
  633MPD2    H3 9378   0.180   0.186  17.574 -1.6844  0.8807 -1.6787
  633MPD2     N 9379   0.168   4.551  17.303 -0.2987  0.2469 -0.0831
  633MPD2    H5 9380   0.076   4.532  17.342 -0.0675  0.9796  0.8252
  633MPD2    N1 9381   0.540   0.130  17.296  0.7208 -0.1969 -0.1228
  633MPD2    H7 9382   0.584   0.063  17.233  1.1714  0.5183 -0.5698
  634TMC3    C1 9383   0.711   0.265  17.219  0.4212  0.3942 -0.3548
  634TMC3    C2 9384   0.754   0.160  17.147 -0.1105  0.1762  1.0814
  634TMC3    C3 9385   0.834   0.182  17.039  0.4100 -0.0294  0.2610
  634TMC3    C4 9386   0.748   0.399  17.196 -0.2217 -0.6141 -1.0973
  634TMC3    C5 9387   0.823   0.413  17.079 -0.4250 -0.3494  0.2122
  634TMC3    C6 9388   0.872   0.304  17.005 -0.3126 -0.0308 -0.3682
  634TMC3     C 9389   0.595   0.251  17.302  0.1485 -0.0349 -0.1506
  634TMC3     O 9390   0.547   0.354  17.350 -0.5343 -0.4504 -0.0883
  634TMC3     H 9391   0.721   0.058  17.167 -1.7212  0.7211  1.2115
  634TMC3    H1 9392   0.728   0.483  17.262 -0.3834 -0.3627 -1.4716
  634TMC3    H2 9393   0.946   0.313  16.927 -0.4167 -0.2967 -0.4946
  634TMC3    C7 9394   0.816   0.541  17.007  1.0843  0.5050 -0.9407
  634TMC3    C8 9395   0.887   0.065  16.965 -0.2257  0.2249  0.1063
  634TMC3    O1 9396   0.843   0.534  16.893  0.1999 -0.0119  0.3917
  634TMC3    O2 9397   0.851   4.674  16.993 -0.4898 -0.3300  0.4199
  635TMC3    C1 9398   1.288   0.974   0.007 -0.2790  0.2909  0.6370
  635TMC3    C2 9399   1.325   1.021  17.589  0.4094 -0.9770  0.4219
  635TMC3    C3 9400   1.376   0.936  17.497 -0.6918 -0.0213  0.2732
  635TMC3    C4 9401   1.296   0.846   0.042  0.2900  0.5691 -0.2362
  635TMC3    C5 9402   1.349   0.763  17.643 -0.3954  0.3732  0.6141
  635TMC3    C6 9403   1.383   0.804  17.516 -0.3800 -0.1478  0.5485
  635TMC3     C 9404   1.208   1.054   0.097  0.2875 -0.2051 -0.0230
  635TMC3     O 9405   1.174   1.001   0.202 -0.4761 -0.0851  0.0493
  635TMC3     H 9406   1.340   1.125  17.562 -1.7195 -0.0894  2.6534
  635TMC3    H1 9407   1.277   0.812   0.143  0.0631 -0.9951 -0.8083
  635TMC3    H2 9408   1.439   0.735  17.455 -1.3454 -1.1298  0.7816
  635TMC3    C7 9409   1.405   0.630  17.677  0.2017  0.2224 -0.0064
  635TMC3    C8 9410   1.410   0.982  17.366 -0.2724 -0.0664  0.1834
  635TMC3    O1 9411   1.428   0.550  17.586 -0.2628 -0.1729  0.1986
  635TMC3    O2 9412   1.372   1.092  17.336  0.3120 -0.5171 -0.1539
  636MPD2     C 9413   2.392   0.208  15.612  0.1873  0.0969 -0.2747
  636MPD2    C1 9414   2.336   0.314  15.680 -0.2344 -0.2421 -0.3594
  636MPD2    C2 9415   2.294   0.296  15.812 -0.6001  0.4811  0.5750
  636MPD2    C3 9416   2.303   0.176  15.874  0.1734  0.6079  0.7575
  636MPD2    C4 9417   2.353   0.066  15.810 -0.7396 -0.2748  0.5180
  636MPD2    C5 9418   2.397   0.089  15.677 -0.2003  0.2321 -0.4541
  636MPD2     H 9419   2.263   0.391  15.855 -1.1030 -0.5490  2.4912
  636MPD2    H1 9420   2.371   4.693  15.853  1.2436  0.9786  2.5514
  636MPD2    H2 9421   2.422   0.208  15.508 -0.9313  2.2155 -0.5880
  636MPD2    H3 9422   2.448   0.011  15.621 -0.4215 -0.4047  0.2307
  636MPD2     N 9423   2.245   0.164  16.011 -0.0435 -0.0625 -0.0648
  636MPD2    H5 9424   2.193   0.242  16.050  0.1146 -0.9777  2.0021
  636MPD2    N1 9425   2.336   0.447  15.624 -0.1732  0.0266  0.0644
  636MPD2    H7 9426   2.302   0.529  15.672 -1.9542  0.3729 -1.7920
  637TMC3    C1 9427   2.203   0.073  16.224 -0.5048  0.5814  0.1076
  637TMC3    C2 9428   2.124   0.180  16.259 -0.0978 -0.7862 -0.1685
  637TMC3    C3 9429   2.114   0.208  16.390 -0.0374  0.1079  0.6499
  637TMC3    C4 9430   2.230   4.697  16.316  0.5558  0.4944  0.4300
  637TMC3    C5 9431   2.225   0.017  16.447  0.5055 -0.1356 -0.6600
  637TMC3    C6 9432   2.158   0.124  16.487  0.4163  0.4832 -0.2101
  637TMC3     C 9433   2.245   0.051  16.086  0.3871 -1.0086  0.8394
  637TMC3     O 9434   2.283   4.664  16.062  0.3000  0.6972  0.1756
  637TMC3     H 9435   2.055   0.231  16.192 -0.4563  0.2295  0.9683
  637TMC3    H1 9436   2.281   4.609  16.278  0.5186  2.0332 -3.2040
  637TMC3    H2 9437   2.150   0.141  16.594  0.9345 -1.5039  0.1471
  637TMC3    C7 9438   2.266   4.641  16.553 -0.0527  0.6598 -0.5663
  637TMC3    C8 9439   2.156   0.345  16.419 -0.3544 -0.3939 -0.1857
  637TMC3    O1 9440   2.223   4.662  16.662 -0.3214 -0.3658 -0.3200
  637TMC3    O2 9441   2.199   0.361  16.532 -0.1980 -0.2566  0.6655
  638MPD2     C 9442   1.695   3.903  15.229  0.3946  0.6255  0.6976
  638MPD2    C1 9443   1.676   3.816  15.126  0.1886 -0.6590 -0.1019
  638MPD2    C2 9444   1.655   3.682  15.163  0.2363 -0.7858 -0.8388
  638MPD2    C3 9445   1.640   3.646  15.301  0.3042  0.3761 -0.8389
  638MPD2    C4 9446   1.645   3.744  15.393  0.2553  0.1053 -0.6244
  638MPD2    C5 9447   1.680   3.867  15.356  1.4194  0.2722  0.2940
  638MPD2     H 9448   1.656   3.601  15.091  1.0850 -0.3961 -1.2647
  638MPD2    H1 9449   1.638   3.732  15.501 -2.0509 -0.4872 -0.8537
  638MPD2    H2 9450   1.713   4.009  15.215  2.2070  0.0303 -1.4359
  638MPD2    H3 9451   1.689   3.945  15.430  1.3987 -1.4239  2.0720
  638MPD2     N 9452   1.637   3.506  15.328 -0.6384  0.3427 -0.0045
  638MPD2    H5 9453   1.642   3.439  15.252 -3.1906 -2.1098  1.9759
  638MPD2    N1 9454   1.694   3.855  14.990 -0.6102  0.1608 -0.2155
  638MPD2    H7 9455   1.754   3.932  14.960  3.0131 -3.2245 -1.6116
  639TMC3    C1 9456   1.656   3.310  15.445 -0.0641 -0.2873  0.3026
  639TMC3    C2 9457   1.562   3.249  15.364 -0.3600 -0.7412  0.3722
  639TMC3    C3 9458   1.546   3.117  15.363 -0.3868  0.5012  0.3626
  639TMC3    C4 9459   1.725   3.240  15.538  0.1431  0.4402 -0.0548
  639TMC3    C5 9460   1.703   3.105  15.534  0.3442  0.3905  0.1211
  639TMC3    C6 9461   1.610   3.038  15.453  0.7624  0.4617  0.1449
  639TMC3     C 9462   1.653   3.454  15.453 -0.1640 -0.2510  0.3267
  639TMC3     O 9463   1.671   3.509  15.562  0.4357 -1.0586  0.1364
  639TMC3     H 9464   1.499   3.304  15.295 -1.3997 -3.5283 -0.9384
  639TMC3    H1 9465   1.798   3.292  15.598  0.1689 -1.5104  1.5829
  639TMC3    H2 9466   1.623   2.931  15.441 -1.9098  0.3191 -1.4646
  639TMC3    C7 9467   1.801   3.019  15.609  0.0896  0.9166  0.2960
  639TMC3    C8 9468   1.506   3.045  15.245 -0.1970 -0.2824  0.6178
  639TMC3    O1 9469   1.764   2.917  15.661  0.4273  0.0777  0.1248
  639TMC3    O2 9470   1.513   3.101  15.136  0.5884  0.3462  0.0571
  640MPD2     C 9471   3.531   1.904   9.866  0.1918  0.1698 -0.2258
  640MPD2    C1 9472   3.510   1.802   9.777 -0.0525 -0.2690  0.0074
  640MPD2    C2 9473   3.463   1.820   9.647  0.3197 -0.4819 -0.3497
  640MPD2    C3 9474   3.443   1.949   9.599  0.2036  0.2311  0.1064
  640MPD2    C4 9475   3.476   2.056   9.688  0.2613 -0.0536  0.1503
  640MPD2    C5 9476   3.512   2.033   9.819 -0.2753  0.0444 -0.2869
  640MPD2     H 9477   3.440   1.740   9.577 -1.3024 -1.1543  0.9304
  640MPD2    H1 9478   3.451   2.158   9.661  0.9507  0.2268  0.5738
  640MPD2    H2 9479   3.565   1.896   9.969 -1.2708  1.6408  0.3620
  640MPD2    H3 9480   3.538   2.121   9.876  0.7527  0.6416 -1.6825
  640MPD2     N 9481   3.374   1.985   9.470  0.3548  0.8357 -0.0910
  640MPD2    H5 9482   3.371   2.086   9.461 -1.2795  1.3226  5.6153
  640MPD2    N1 9483   3.523   1.673   9.841 -0.1996 -0.0667  0.1324
  640MPD2    H7 9484   3.568   1.672   9.932 -1.9380 -0.1806  0.9938
  641TMC3    C1 9485   3.474   1.448   9.882  0.7059 -0.3488 -0.9028
  641TMC3    C2 9486   3.380   1.349   9.873  0.2494  0.0417  0.2855
  641TMC3    C3 9487   3.394   1.243   9.960  0.0362 -0.0325 -0.3763
  641TMC3    C4 9488   3.585   1.445   9.968  0.5033 -0.5638  0.2231
  641TMC3    C5 9489   3.592   1.344  10.054 -0.3530 -0.1753 -0.3109
  641TMC3    C6 9490   3.493   1.244  10.057  0.1042  0.4409 -0.3125
  641TMC3     C 9491   3.458   1.557   9.792  0.4283 -0.1531  0.1432
  641TMC3     O 9492   3.402   1.532   9.687 -0.6973 -0.0077 -0.4212
  641TMC3     H 9493   3.299   1.359   9.801 -0.0321 -1.4574  0.3896
  641TMC3    H1 9494   3.661   1.523   9.972  3.1507 -3.1965  1.6033
  641TMC3    H2 9495   3.476   1.181  10.144 -4.3328 -0.1035 -1.5826
  641TMC3    C7 9496   3.686   1.345  10.169  0.1267 -0.7765  0.4623
  641TMC3    C8 9497   3.316   1.128   9.929 -0.7526  0.1057 -0.6520
  641TMC3    O1 9498   3.716   1.243  10.222  0.3890 -0.4363  0.0699
  641TMC3    O2 9499   3.232   1.151   9.839  0.2369 -0.1757  0.2326
  642TMC3    C1 9500   3.017   3.100  12.620 -0.4064 -0.9767  0.2639
  642TMC3    C2 9501   3.016   3.065  12.751  0.1102  0.6030 -0.0913
  642TMC3    C3 9502   2.989   2.932  12.775 -0.0226  0.4961  0.0654
  642TMC3    C4 9503   3.019   3.020  12.513 -0.2954  0.0733 -0.1501
  642TMC3    C5 9504   3.014   2.891  12.544 -0.4156  0.5358 -0.6346
  642TMC3    C6 9505   2.999   2.836  12.672 -0.2901  0.1031 -0.5663
  642TMC3     C 9506   3.015   3.244  12.585 -0.2555  0.7375  0.1319
  642TMC3     O 9507   3.059   3.281  12.480  0.4378 -0.6403 -0.6276
  642TMC3     H 9508   3.007   3.140  12.830  0.6880 -0.5881  1.1112
  642TMC3    H1 9509   3.045   3.045  12.411 -4.0717 -0.9397 -1.3806
  642TMC3    H2 9510   2.985   2.729  12.684  0.2047 -0.0522 -1.3749
  642TMC3    C7 9511   3.003   2.797  12.429 -0.0716 -0.0075  0.4072
  642TMC3    C8 9512   2.977   2.889  12.912 -0.6885 -0.2817  0.8508
  642TMC3    O1 9513   3.047   2.833  12.322 -0.1292  0.1334 -0.1930
  642TMC3    O2 9514   3.002   2.976  12.993  0.2347 -0.2040  0.5775
  643TMC3    C1 9515   2.832   3.076   0.461 -0.5353  0.1545  0.1743
  643TMC3    C2 9516   2.696   3.042   0.455 -0.1852 -0.7144 -0.1886
  643TMC3    C3 9517   2.658   2.931   0.388 -0.4227 -0.6039 -0.0194
  643TMC3    C4 9518   2.919   2.998   0.381  0.5575 -0.0456  0.8729
  643TMC3    C5 9519   2.879   2.877   0.324 -0.1399 -0.0061  0.7005
  643TMC3    C6 9520   2.748   2.843   0.334  0.0717  0.3283  0.1016
  643TMC3     C 9521   2.863   3.220   0.488 -0.1183 -0.3235  0.1518
  643TMC3     O 9522   2.821   3.302   0.404 -0.0947 -0.4242 -0.7213
  643TMC3     H 9523   2.621   3.087   0.520  0.7010 -2.5766  2.1256
  643TMC3    H1 9524   3.017   3.039   0.358  0.6093  0.1228  1.3999
  643TMC3    H2 9525   2.715   2.745   0.302 -0.5261  0.0338  1.5920
  643TMC3    C7 9526   2.945   2.851   0.197 -0.2931 -0.0126  0.3633
  643TMC3    C8 9527   2.557   2.961   0.283 -0.5595  0.4775 -0.1195
  643TMC3    O1 9528   3.062   2.891   0.185 -0.0098  0.4345 -0.2832
  643TMC3    O2 9529   2.541   2.870   0.200  0.4382 -0.1335  0.0382
  644MPD2     C 9530   3.700   3.086   9.396  0.7200 -0.4259 -0.2155
  644MPD2    C1 9531   3.759   3.040   9.512 -0.5663 -0.2565  0.2919
  644MPD2    C2 9532   3.854   3.115   9.575  0.4754 -0.1130 -0.3984
  644MPD2    C3 9533   3.882   3.242   9.518 -0.3673 -0.2125  0.4221
  644MPD2    C4 9534   3.808   3.300   9.415  0.0479  0.2985  0.0270
  644MPD2    C5 9535   3.725   3.212   9.353 -1.0364  0.0465  0.3961
  644MPD2     H 9536   3.915   3.089   9.661 -0.1130 -1.7944 -0.5017
  644MPD2    H1 9537   3.827   3.390   9.358  0.4999  0.3566  0.2631
  644MPD2    H2 9538   3.630   3.023   9.342  0.6183 -0.4115 -0.0994
  644MPD2    H3 9539   3.678   3.236   9.258 -0.1947 -1.3737 -0.3959
  644MPD2     N 9540   3.995   3.316   9.575  0.5694  0.4416 -0.4423
  644MPD2    H5 9541   4.028   3.271   9.660  0.8510 -0.4347 -1.0139
  644MPD2    N1 9542   3.730   2.911   9.561 -0.2023 -0.6012  0.4203
  644MPD2    H7 9543   3.658   2.859   9.513  0.4916 -2.1529  1.0480
  645TMC3    C1 9544   4.170   3.455   9.631  0.6470 -0.1702 -0.1944
  645TMC3    C2 9545   4.166   3.402   9.758  0.2125  0.2926 -0.8491
  645TMC3    C3 9546   4.247   3.473   9.849 -0.5732  0.0735 -0.2941
  645TMC3    C4 9547   4.251   3.561   9.599  0.3075  0.0415  0.3837
  645TMC3    C5 9548   4.338   3.614   9.694  0.9133 -0.4600 -0.0210
  645TMC3    C6 9549   4.334   3.568   9.823  0.0159 -0.0555  0.1174
  645TMC3     C 9550   4.064   3.429   9.539 -0.0477 -0.7132  0.1764
  645TMC3     O 9551   4.045   3.496   9.440  0.3986  0.0871  0.1453
  645TMC3     H 9552   4.085   3.335   9.787  0.4054  0.5595  0.3211
  645TMC3    H1 9553   4.261   3.592   9.495 -1.4003  2.4601  0.9367
  645TMC3    H2 9554   4.386   3.614   9.906 -1.1497 -0.0734  0.8592
  645TMC3    C7 9555   4.434   3.708   9.636 -1.0793  0.3375 -0.4183
  645TMC3    C8 9556   4.220   3.439   9.982  0.0616 -0.2721 -0.0579
  645TMC3    O1 9557   4.445   3.724   9.515 -0.1337 -0.2231 -0.2032
  645TMC3    O2 9558   4.229   3.317   9.996 -0.7215 -0.2232 -0.1769
  646MPD2     C 9559   2.223   2.546  14.665 -0.3594  1.0810  0.1305
  646MPD2    C1 9560   2.129   2.493  14.743 -0.2162  0.1461  0.1501
  646MPD2    C2 9561   1.996   2.522  14.730  0.6052 -0.3775 -0.3843
  646MPD2    C3 9562   1.954   2.600  14.631 -0.2897  0.1984  0.1016
  646MPD2    C4 9563   2.052   2.652  14.546 -0.1107  0.1961  0.4253
  646MPD2    C5 9564   2.183   2.636  14.572  0.0977 -0.0052 -0.8920
  646MPD2     H 9565   1.922   2.482  14.800 -0.2431 -0.6326 -1.4226
  646MPD2    H1 9566   2.031   2.715  14.460  0.1073  0.3240  0.4652
  646MPD2    H2 9567   2.330   2.539  14.679 -0.5332 -1.2883  0.2932
  646MPD2    H3 9568   2.253   2.682  14.504  0.4035 -0.3011 -0.7769
  646MPD2     N 9569   1.816   2.605  14.618  0.2199  0.1946  0.1393
  646MPD2    H5 9570   1.754   2.562  14.686 -0.1009  1.1582  0.4565
  646MPD2    N1 9571   2.179   2.416  14.845 -0.2285 -0.5873 -0.0515
  646MPD2    H7 9572   2.280   2.404  14.851 -0.1325 -0.4455 -1.5691
  647TMC3    C1 9573   2.188   2.273  15.032  0.1415 -0.2461 -0.3360
  647TMC3    C2 9574   2.129   2.174  15.106 -0.1052 -0.4496 -0.9997
  647TMC3    C3 9575   2.207   2.107  15.186 -0.2528 -0.1859 -0.2600
  647TMC3    C4 9576   2.329   2.285  15.019  0.4813 -0.5321  0.8164
  647TMC3    C5 9577   2.402   2.206  15.104  0.0785  0.0400 -0.5436
  647TMC3    C6 9578   2.344   2.117  15.189  0.1918 -0.0262  0.6005
  647TMC3     C 9579   2.109   2.338  14.932 -0.8579 -0.0840  0.1588
  647TMC3     O 9580   1.990   2.310  14.937  0.3533 -0.1832 -0.1956
  647TMC3     H 9581   2.021   2.165  15.106  0.0970 -2.9274  0.6211
  647TMC3    H1 9582   2.382   2.370  14.980 -2.4781  2.0754  2.4773
  647TMC3    H2 9583   2.392   2.065  15.272 -0.2430  0.6316  1.2601
  647TMC3    C7 9584   2.547   2.218  15.114  0.2447  0.6983  0.4118
  647TMC3    C8 9585   2.146   2.026  15.297  0.1222 -0.2686 -0.1860
  647TMC3    O1 9586   2.596   2.167  15.214  0.5248 -0.0190 -0.5051
  647TMC3    O2 9587   2.221   1.962  15.371 -0.0248  0.0713  1.0248
  648TMC3    C1 9588   1.413   0.176  16.319 -0.2390  0.4247  0.8820
  648TMC3    C2 9589   1.436   0.041  16.296 -0.0406 -0.2467 -0.0753
  648TMC3    C3 9590   1.389   4.703  16.182  0.5316 -0.0543  0.3725
  648TMC3    C4 9591   1.342   0.252  16.229 -0.0305  0.3375 -0.7651
  648TMC3    C5 9592   1.300   0.192  16.115 -0.4539  0.1137 -0.8502
  648TMC3    C6 9593   1.318   0.059  16.087  0.0708 -0.2678 -0.0808
  648TMC3     C 9594   1.447   0.228  16.449 -0.0610  0.3751  0.9503
  648TMC3     O 9595   1.462   0.348  16.457 -0.2485 -0.1722  0.0012
  648TMC3     H 9596   1.503   0.004  16.372  2.1217  0.5480 -1.5756
  648TMC3    H1 9597   1.342   0.359  16.241  0.8169  0.3451 -0.8283
  648TMC3    H2 9598   1.277   0.014  15.997  0.4023 -1.5786  0.4165
  648TMC3    C7 9599   1.216   0.268  16.026  0.4416  0.3359 -0.2533
  648TMC3    C8 9600   1.441   4.583  16.129  0.0889 -0.0537  0.3156
  648TMC3    O1 9601   1.187   0.226  15.917 -0.3329 -0.0014 -0.5088
  648TMC3    O2 9602   1.431   4.572  16.006  0.5516 -0.7093  0.5734
  649TMC3    C1 9603   4.329   1.365  12.885 -0.2708  0.2743  0.7925
  649TMC3    C2 9604   4.426   1.459  12.898  0.3149 -0.6006 -0.7376
  649TMC3    C3 9605   4.549   1.420  12.866 -0.0618 -0.5625  0.5696
  649TMC3    C4 9606   4.355   1.236  12.866 -0.6293  0.2138 -0.2383
  649TMC3    C5 9607   4.487   1.197  12.831  0.1906  0.4668 -0.0469
  649TMC3    C6 9608   4.589   1.290  12.835  0.2937  0.6088  0.0575
  649TMC3     C 9609   4.189   1.412  12.916 -0.1184  0.5236 -0.1142
  649TMC3     O 9610   4.175   1.525  12.963 -0.6720 -0.1794 -0.0670
  649TMC3     H 9611   4.412   1.566  12.900  1.8679 -0.4246  0.5287
  649TMC3    H1 9612   4.274   1.164  12.864 -0.2086 -0.3018  1.6537
  649TMC3    H2 9613   4.689   1.255  12.811 -0.9378 -1.9565 -1.4055
  649TMC3    C7 9614   4.516   1.063  12.874  0.4804  0.0356 -0.2515
  649TMC3    C8 9615   4.646   1.523  12.858  0.3492  0.4741  0.1137
  649TMC3    O1 9616   4.425   0.985  12.901 -0.1173  0.5507 -0.6012
  649TMC3    O2 9617   4.635   1.628  12.919 -0.1787  0.0462  0.2612
  650TMC3    C1 9618   2.524   2.687  13.036  0.4839  0.6746 -0.5733
  650TMC3    C2 9619   2.462   2.803  13.071  0.1952  0.5564 -0.2999
  650TMC3    C3 9620   2.458   2.915  12.996 -0.2777 -0.9793  0.0313
  650TMC3    C4 9621   2.580   2.686  12.908 -0.0650  0.1657  0.6147
  650TMC3    C5 9622   2.578   2.798  12.829  0.9564  0.1578 -0.9030
  650TMC3    C6 9623   2.518   2.922  12.872 -0.4581  0.9273 -0.1610
  650TMC3     C 9624   2.506   2.562  13.115 -0.4029 -0.3474  0.3695
  650TMC3     O 9625   2.432   2.547  13.214  0.1624  0.0329  0.2323
  650TMC3     H 9626   2.409   2.810  13.165  0.6045  1.2317 -0.1264
  650TMC3    H1 9627   2.644   2.604  12.876  0.6161  0.3028  1.6289
  650TMC3    H2 9628   2.520   3.009  12.807 -0.0254  0.6555 -0.5091
  650TMC3    C7 9629   2.619   2.785  12.686 -1.0807 -0.3234 -0.2165
  650TMC3    C8 9630   2.377   3.035  13.026  0.3391  0.5935 -0.1639
  650TMC3    O1 9631   2.666   2.675  12.659  0.1872  0.2030 -0.5997
  650TMC3    O2 9632   2.379   3.123  12.948 -0.2422  0.8571 -0.3174
  651MPD2     C 9633   1.299   4.069  11.062  0.2686 -1.1426 -1.0527
  651MPD2    C1 9634   1.262   4.200  11.047 -0.4396  0.2013 -0.5453
  651MPD2    C2 9635   1.344   4.281  10.971  0.2359  0.4334  0.1769
  651MPD2    C3 9636   1.465   4.233  10.930 -0.0542  0.0054 -0.1178
  651MPD2    C4 9637   1.511   4.109  10.960  0.6225  0.4035 -0.1925
  651MPD2    C5 9638   1.422   4.030  11.030  0.4939  0.0370 -0.2222
  651MPD2     H 9639   1.331   4.388  10.962  2.0325  0.7538  1.5681
  651MPD2    H1 9640   1.608   4.064  10.940  1.0254  0.3604  1.8674
  651MPD2    H2 9641   1.239   3.998  11.117 -3.8750  2.8301 -0.4914
  651MPD2    H3 9642   1.449   3.929  11.057 -3.6402 -1.4908 -1.8392
  651MPD2     N 9643   1.550   4.325  10.870 -0.4974 -0.1021  0.4217
  651MPD2    H5 9644   1.507   4.416  10.866 -0.0504  0.1667  1.7832
  651MPD2    N1 9645   1.144   4.253  11.104 -0.4331 -0.3222 -0.3568
  651MPD2    H7 9646   1.123   4.350  11.080 -0.2326 -0.0950  0.3733
  652TMC3    C1 9647   1.933   4.541  10.713 -0.4492  0.8446  0.4842
  652TMC3    C2 9648   1.876   4.423  10.743  0.1663 -0.2742 -0.6342
  652TMC3    C3 9649   1.736   4.419  10.750 -0.1329 -0.9063 -0.1882
  652TMC3    C4 9650   1.863   4.662  10.703  0.0731  0.2279  0.1387
  652TMC3    C5 9651   1.728   4.652  10.720  0.3768 -0.1617  0.5164
  652TMC3    C6 9652   1.665   4.536  10.735 -0.8213 -0.3947  0.0468
  652TMC3     C 9653   2.080   4.539  10.707 -0.0223  0.3623  0.2966
  652TMC3     O 9654   2.134   4.445  10.765  0.1081 -0.2755 -0.1014
  652TMC3     H 9655   1.931   4.331  10.763  2.1845  1.4975  1.8623
  652TMC3    H1 9656   1.914   0.032  10.692  0.6753 -0.0509  0.5158
  652TMC3    H2 9657   1.559   4.529  10.713 -1.0486  0.3225  0.8932
  652TMC3    C7 9658   1.656   0.030  10.796  0.3605  0.5258  0.6131
  652TMC3    C8 9659   1.675   4.296  10.816 -0.0650 -0.3930  0.6322
  652TMC3    O1 9660   1.546   0.003  10.841  0.3313  0.1067  0.0828
  652TMC3    O2 9661   1.744   4.196  10.821 -0.2692 -0.4832  0.2269
  653MPD2     C 9662   0.847   0.439  17.674  0.3267 -0.0939 -0.1019
  653MPD2    C1 9663   0.759   0.468   0.074  0.0192  0.3101 -1.1208
  653MPD2    C2 9664   0.665   0.376   0.112 -0.4144  0.4120  0.4206
  653MPD2    C3 9665   0.652   0.254   0.043  0.5293 -0.0908  0.4018
  653MPD2    C4 9666   0.735   0.234  17.631 -0.3354  0.7352 -0.4365
  653MPD2    C5 9667   0.837   0.322  17.601 -0.5635  0.3043 -0.0761
  653MPD2     H 9668   0.591   0.404   0.186  1.8327  0.3387  2.6883
  653MPD2    H1 9669   0.744   0.136  17.586 -0.8203  1.0739 -1.2807
  653MPD2    H2 9670   0.922   0.508  17.637 -1.3024  1.1694 -1.0848
  653MPD2    H3 9671   0.891   0.303  17.508  0.8881 -1.6132  1.1459
  653MPD2     N 9672   0.534   0.167   0.075 -0.7871  0.1157  0.6153
  653MPD2    H5 9673   0.456   0.207   0.126 -1.2116  0.9314 -0.6711
  653MPD2    N1 9674   0.779   0.595   0.134  0.1541 -0.7584 -0.1784
  653MPD2    H7 9675   0.841   0.661   0.089 -0.3077 -1.4126 -1.7856
  654TMC3    C1 9676   0.408   4.697   0.080 -0.2571  0.1649 -0.5001
  654TMC3    C2 9677   0.335   0.024   0.184  0.2141 -0.0770  0.0385
  654TMC3    C3 9678   0.208   4.700   0.205 -0.2085 -0.5737 -0.9949
  654TMC3    C4 9679   0.372   4.584   0.013 -0.2366 -0.6649 -0.2330
  654TMC3    C5 9680   0.253   4.527   0.053 -0.3722  0.0004  0.4886
  654TMC3    C6 9681   0.167   4.588   0.145 -0.0570 -0.4644 -0.0210
  654TMC3     C 9682   0.531   0.039   0.039  0.2537  0.1505  0.6783
  654TMC3     O 9683   0.612   4.694  17.683  0.0989  0.1211  0.1084
  654TMC3     H 9684   0.367   0.106   0.248  0.1392 -0.5499  0.6802
  654TMC3    H1 9685   0.427   4.551  17.624  1.3957  0.7893  0.2395
  654TMC3    H2 9686   0.070   4.545   0.165 -0.3543 -0.2088 -0.9344
  654TMC3    C7 9687   0.209   4.417  17.663  0.3707  0.5655 -0.6935
  654TMC3    C8 9688   0.103   0.073   0.199 -0.3029  0.0464 -0.1797
  654TMC3    O1 9689   0.090   4.414  17.642 -0.4505 -0.9476  0.6206
  654TMC3    O2 9690   0.030   0.063   0.100  0.5634  0.9338  0.3891
  655MPD2     C 9691   1.775   0.586  15.690  1.1316 -0.4647 -0.0600
  655MPD2    C1 9692   1.646   0.593  15.652  0.0062 -0.3096 -0.6189
  655MPD2    C2 9693   1.611   0.515  15.545  0.4314 -0.3456 -0.2781
  655MPD2    C3 9694   1.695   0.427  15.483 -0.8611 -0.3489  0.4228
  655MPD2    C4 9695   1.827   0.432  15.515  0.7304 -0.4811  0.0159
  655MPD2    C5 9696   1.862   0.516  15.616  0.0274  0.6135  1.1678
  655MPD2     H 9697   1.512   0.529  15.503  1.2583  0.6313 -1.9233
  655MPD2    H1 9698   1.894   0.366  15.463  1.8822 -0.1133  1.0349
  655MPD2    H2 9699   1.809   0.643  15.777  1.0587 -1.1952  0.4451
  655MPD2    H3 9700   1.968   0.528  15.632  0.5205 -1.3073 -0.7474
  655MPD2     N 9701   1.650   0.334  15.388  0.2566  0.0735  0.7338
  655MPD2    H5 9702   1.718   0.284  15.331 -0.7225 -2.8265  2.1075
  655MPD2    N1 9703   1.548   0.678  15.712  0.0304  0.5524 -0.0811
  655MPD2    H7 9704   1.456   0.682  15.669 -0.2681  2.1527  0.7187
  656TMC3    C1 9705   1.450   0.770  15.902 -0.5921 -0.2638 -0.0105
  656TMC3    C2 9706   1.449   0.775  16.043  0.3249 -0.7142 -0.2594
  656TMC3    C3 9707   1.341   0.839  16.095 -0.6219 -0.2231 -0.3160
  656TMC3    C4 9708   1.350   0.817  15.822  0.3043  0.1657 -1.0521
  656TMC3    C5 9709   1.242   0.869  15.888  0.4778  0.8495  0.0447
  656TMC3    C6 9710   1.237   0.887  16.025 -0.0723 -0.5761  0.8973
  656TMC3     C 9711   1.577   0.732  15.840  0.2851  0.9303 -0.0785
  656TMC3     O 9712   1.667   0.722  15.924  0.4968 -0.2524 -0.1027
  656TMC3     H 9713   1.527   0.741  16.109  0.2967  0.9611  0.6473
  656TMC3    H1 9714   1.356   0.817  15.714  1.2727 -1.1261 -1.0045
  656TMC3    H2 9715   1.158   0.946  16.071  1.7620  2.2900  0.4066
  656TMC3    C7 9716   1.170   0.957  15.792  0.4450 -0.0099  0.1773
  656TMC3    C8 9717   1.309   0.778  16.225  0.1661 -0.2663  0.0861
  656TMC3    O1 9718   1.225   0.996  15.686  0.0749  0.0502  0.5077
  656TMC3    O2 9719   1.355   0.666  16.253  0.1101  0.2036 -0.5945
  657TMC3    C1 9720   0.621   4.612  14.763 -0.6792 -0.0585  0.0610
  657TMC3    C2 9721   0.556   0.010  14.750 -0.1113 -0.1771  0.6413
  657TMC3    C3 9722   0.512   0.049  14.628  0.4244 -0.0413  0.5705
  657TMC3    C4 9723   0.643   4.535  14.651 -0.1791 -0.2731  0.3188
  657TMC3    C5 9724   0.601   4.577  14.535 -0.1156 -0.1420 -0.6328
  657TMC3    C6 9725   0.530   4.691  14.517 -0.8753 -0.1543 -0.6162
  657TMC3     C 9726   0.611   4.535  14.889  0.3298  0.2648 -0.2053
  657TMC3     O 9727   0.522   4.568  14.963 -0.2705 -0.0226  0.6713
  657TMC3     H 9728   0.519   0.051  14.843  1.8090  0.0998  1.2859
  657TMC3    H1 9729   0.685   4.436  14.658  1.1763  0.2017 -1.0611
  657TMC3    H2 9730   0.502   0.006  14.420  0.3051  0.6441 -0.6383
  657TMC3    C7 9731   0.605   4.479  14.432  0.2848  0.6620  0.1216
  657TMC3    C8 9732   0.460   0.183  14.616 -0.2588 -0.2741 -0.0458
  657TMC3    O1 9733   0.712   4.417  14.415  0.0700  0.7608 -0.2858
  657TMC3    O2 9734   0.394   0.206  14.517  0.3854  0.7547  0.7033
  658MPD2     C 9735   1.897   0.191  14.765 -0.0419 -0.5521  0.6297
  658MPD2    C1 9736   1.764   0.227  14.771  0.3768 -0.0379 -0.1902
  658MPD2    C2 9737   1.709   0.301  14.667 -0.0836  0.3529  0.1278
  658MPD2    C3 9738   1.786   0.332  14.553  0.3534  0.1538 -0.1491
  658MPD2    C4 9739   1.916   0.295  14.554  0.7799  0.0865 -0.2941
  658MPD2    C5 9740   1.970   0.224  14.657  0.0342  0.0783  0.5099
  658MPD2     H 9741   1.602   0.320  14.668  0.2433  2.3037 -2.0304
  658MPD2    H1 9742   1.987   0.322  14.476 -3.4992 -1.0655 -4.5878
  658MPD2    H2 9743   1.945   0.140  14.848 -1.5310  1.3950  2.6753
  658MPD2    H3 9744   2.076   0.207  14.665  0.0295 -0.2218 -0.0309
  658MPD2     N 9745   1.722   0.411  14.455  0.0357 -0.6685 -0.2144
  658MPD2    H5 9746   1.621   0.417  14.464  0.2418  0.4733  1.4066
  658MPD2    N1 9747   1.694   0.183  14.882 -0.0739  0.5747  0.1010
  658MPD2    H7 9748   1.746   0.144  14.961 -0.5365 -1.3774 -0.5612
  659TMC3    C1 9749   1.526   0.146  15.041 -0.1174  0.0455  0.0618
  659TMC3    C2 9750   1.575   0.211  15.147 -0.1188 -0.4322 -1.1299
  659TMC3    C3 9751   1.511   0.196  15.267 -1.1632 -0.3296  0.2907
  659TMC3    C4 9752   1.410   0.075  15.042  0.0397 -0.0859  0.4237
  659TMC3    C5 9753   1.351   0.057  15.165 -0.1463  0.0802  0.0551
  659TMC3    C6 9754   1.404   0.115  15.282 -0.6419  0.3401  0.6777
  659TMC3     C 9755   1.559   0.199  14.909 -0.0218 -0.4956  0.0815
  659TMC3     O 9756   1.465   0.225  14.840 -0.0710 -0.5659 -0.5317
  659TMC3     H 9757   1.664   0.273  15.143 -0.3311 -0.0959 -0.6625
  659TMC3    H1 9758   1.383   0.023  14.951  0.0508 -0.5436  0.6845
  659TMC3    H2 9759   1.345   0.109  15.373 -2.9237 -0.3525 -0.8305
  659TMC3    C7 9760   1.219   0.011  15.179 -0.7010  0.0413 -1.3780
  659TMC3    C8 9761   1.518   0.303  15.361  0.3574  0.6551 -0.9847
  659TMC3    O1 9762   1.194   4.663  15.274 -0.5743  0.2759 -0.0378
  659TMC3    O2 9763   1.424   0.336  15.430 -0.5975 -0.2014  1.0338
  660MPD2     C 9764   4.164   3.633  13.017 -0.3804 -0.4012  0.4730
  660MPD2    C1 9765   4.076   3.736  13.036  0.4591  0.0600  0.2833
  660MPD2    C2 9766   4.017   3.750  13.160 -0.0108  0.6379  0.1433
  660MPD2    C3 9767   4.027   3.645  13.255 -0.8045 -0.0652  0.1858
  660MPD2    C4 9768   4.094   3.537  13.218  0.9449 -0.9246  0.3617
  660MPD2    C5 9769   4.176   3.541  13.110  0.7062 -0.7002 -0.0886
  660MPD2     H 9770   3.963   3.841  13.179 -0.8244 -0.3756  2.6605
  660MPD2    H1 9771   4.103   3.456  13.290  0.2690 -0.2428  1.2154
  660MPD2    H2 9772   4.207   3.610  12.920 -3.0417 -1.2532 -0.5099
  660MPD2    H3 9773   4.253   3.468  13.088  2.1744  0.2332  1.9331
  660MPD2     N 9774   3.964   3.639  13.379  0.3090  0.4240  0.4858
  660MPD2    H5 9775   3.950   3.548  13.422  2.2835  0.6903  1.7180
  660MPD2    N1 9776   4.066   3.820  12.924 -0.9518  0.2481 -0.0688
  660MPD2    H7 9777   4.131   3.808  12.848 -0.3606 -0.6687  0.5894
  661TMC3    C1 9778   3.979   3.983  12.780 -0.2361  0.3387 -0.0086
  661TMC3    C2 9779   4.061   3.933  12.680 -0.4852  0.0252  0.8729
  661TMC3    C3 9780   4.010   3.905  12.557 -0.0483  0.4782 -0.4259
  661TMC3    C4 9781   3.847   3.996  12.757  0.3846  0.2319  0.4441
  661TMC3    C5 9782   3.803   3.966  12.631  0.5374 -0.3996  0.8086
  661TMC3    C6 9783   3.884   3.921  12.529  0.4979  0.2931  0.1228
  661TMC3     C 9784   4.001   3.942  12.922 -0.4967 -0.8397 -0.0172
  661TMC3     O 9785   3.923   3.995  13.003 -0.0601  0.3109  0.0802
  661TMC3     H 9786   4.168   3.922  12.688 -0.3246 -0.5060 -2.1663
  661TMC3    H1 9787   3.769   4.023  12.828 -0.6089  0.2223 -0.6373
  661TMC3    H2 9788   3.846   3.865  12.445  2.3079  0.8852 -1.0682
  661TMC3    C7 9789   3.666   3.909  12.637  0.2988 -0.5241  0.4754
  661TMC3    C8 9790   4.107   3.884  12.450 -0.7066 -0.2391  0.3266
  661TMC3    O1 9791   3.608   3.909  12.742  0.4088 -0.3273  0.1079
  661TMC3    O2 9792   4.219   3.847  12.469  0.3933 -0.5238 -0.0551
  662MPD2     C 9793   4.543   4.041  17.402  0.1929 -0.3440  0.0505
  662MPD2    C1 9794   4.542   3.996  17.534  0.7282  0.0462 -0.1846
  662MPD2    C2 9795   4.475   4.075  17.624 -0.6953 -0.7262  0.2651
  662MPD2    C3 9796   4.429   4.202  17.596 -0.2934 -0.4061  0.3229
  662MPD2    C4 9797   4.443   4.248  17.469  0.3356 -0.3322 -0.2614
  662MPD2    C5 9798   4.493   4.167  17.371 -0.6331  0.3316 -0.3804
  662MPD2     H 9799   4.469   4.040   0.028  0.0113 -0.6245  0.3422
  662MPD2    H1 9800   4.386   4.335  17.438  1.7884  0.0685 -1.8144
  662MPD2    H2 9801   4.588   3.984  17.321 -1.6255 -1.0577 -0.4493
  662MPD2    H3 9802   4.489   4.201  17.268 -0.9732 -1.7682 -1.0444
  662MPD2     N 9803   4.346   4.278  17.680 -0.0821 -0.0588  0.6557
  662MPD2    H5 9804   4.285   4.346  17.636 -2.3875 -1.6670  1.3798
  662MPD2    N1 9805   4.588   3.868  17.572  0.6086  0.6541 -0.5159
  662MPD2    H7 9806   4.578   3.837  17.668 -1.3950 -2.4962 -1.7331
  663TMC3    C1 9807   4.648   3.643  17.530 -0.3144 -0.2622  0.4005
  663TMC3    C2 9808   4.584   3.607  17.651 -0.3357  0.4627 -0.1799
  663TMC3    C3 9809   4.574   3.476   0.001 -0.0683  0.2866  0.7412
  663TMC3    C4 9810   4.682   3.542  17.446  0.2139  0.3895 -0.4233
  663TMC3    C5 9811   4.671   3.413  17.493 -0.1988 -0.3530 -1.3699
  663TMC3    C6 9812   4.626   3.383  17.618 -0.3202 -0.6315  0.4196
  663TMC3     C 9813   4.624   3.774  17.478 -0.0236 -0.0720 -0.4394
  663TMC3     O 9814   4.662   3.789  17.361 -0.4123 -0.0009 -0.3357
  663TMC3     H 9815   4.536   3.677   0.021  0.6993  0.6232  0.3832
  663TMC3    H1 9816   0.004   3.571  17.352  0.7666  0.1138 -0.2356
  663TMC3    H2 9817   4.589   3.283  17.632 -1.5704  0.0607  2.0941
  663TMC3    C7 9818   4.718   3.310  17.406  0.1416 -0.1810 -0.4199
  663TMC3    C8 9819   4.435   3.444   0.016  0.0169 -0.8373 -0.2149
  663TMC3    O1 9820   0.034   3.346  17.295  0.2051  0.0628  1.1347
  663TMC3    O2 9821   4.368   3.418  17.612  0.5517  0.2056  0.7281
  664MPD2     C 9822   2.926   1.649   0.475 -0.4874  0.0921 -0.3835
  664MPD2    C1 9823   3.013   1.753   0.491 -0.0485  0.2580  0.0620
  664MPD2    C2 9824   3.017   1.818   0.613 -0.0570  0.1730 -0.4409
  664MPD2    C3 9825   2.928   1.789   0.712  0.4396 -0.1159  0.8177
  664MPD2    C4 9826   2.840   1.686   0.687 -0.8086  0.3160  0.1196
  664MPD2    C5 9827   2.848   1.610   0.580 -0.6276 -0.3726 -0.7626
  664MPD2     H 9828   3.097   1.888   0.632 -1.2965  1.6048 -0.4645
  664MPD2    H1 9829   2.761   1.658   0.755 -1.0321  2.1026  0.6046
  664MPD2    H2 9830   2.927   1.586   0.387  1.3320 -2.4067  1.4341
  664MPD2    H3 9831   2.778   1.528   0.570 -1.6623  0.6818 -2.1380
  664MPD2     N 9832   2.935   1.865   0.831  0.4659  0.3683  0.4652
  664MPD2    H5 9833   3.001   1.942   0.831  1.7243 -0.6965 -0.6542
  664MPD2    N1 9834   3.095   1.792   0.378 -0.2823  0.6415 -0.0244
  664MPD2    H7 9835   3.087   1.734   0.296  2.2610  1.9921 -1.2149
  665TMC3    C1 9836   2.875   1.941   1.042 -0.5246  0.0860  0.4978
  665TMC3    C2 9837   2.859   1.908   1.180  0.3449  0.1533  0.6209
  665TMC3    C3 9838   2.909   1.985   1.277 -0.3346 -0.5465  0.2560
  665TMC3    C4 9839   2.939   2.059   1.010 -0.7222 -0.3737 -0.1204
  665TMC3    C5 9840   2.981   2.141   1.113 -0.1829  0.4469  0.2567
  665TMC3    C6 9841   2.971   2.100   1.248 -0.3137 -0.0129  0.3099
  665TMC3     C 9842   2.866   1.831   0.948 -0.2230 -0.3239 -0.0530
  665TMC3     O 9843   2.814   1.727   0.988  0.6655 -0.6638 -0.2525
  665TMC3     H 9844   2.821   1.811   1.211 -0.3504  0.1838 -0.1427
  665TMC3    H1 9845   2.937   2.104   0.911  1.7397 -0.2596 -0.1018
  665TMC3    H2 9846   3.029   2.149   1.324  0.2927 -2.1090  1.1832
  665TMC3    C7 9847   2.977   2.286   1.092  0.2802 -0.2548  0.2096
  665TMC3    C8 9848   2.845   1.988   1.405  0.9419 -0.3387  0.0887
  665TMC3    O1 9849   2.929   2.317   0.986  0.4316 -0.1195 -0.0315
  665TMC3    O2 9850   2.904   2.055   1.492  0.0969 -0.3241 -0.2611
  666TMC3    C1 9851   2.097   0.841  10.008  0.1840  0.1329  0.3896
  666TMC3    C2 9852   2.189   0.793  10.091  0.9146  0.2994  0.2567
  666TMC3    C3 9853   2.299   0.866  10.126  0.0794  0.0899  0.4724
  666TMC3    C4 9854   2.114   0.964   9.968  0.2571  0.2541  0.6789
  666TMC3    C5 9855   2.225   1.041  10.004  0.4045 -0.3696 -0.2512
  666TMC3    C6 9856   2.324   0.990  10.078  0.5758 -0.1653  0.0136
  666TMC3     C 9857   1.968   0.790  10.011 -0.1398 -0.8642  0.1563
  666TMC3     O 9858   1.905   0.802   9.912  0.3000  0.0340  0.0745
  666TMC3     H 9859   2.174   0.692  10.127 -1.4573  0.4597 -0.2626
  666TMC3    H1 9860   2.044   1.008   9.898  0.2797 -2.4876 -1.0379
  666TMC3    H2 9861   2.401   1.055  10.118 -0.9600  2.4452 -1.3012
  666TMC3    C7 9862   2.210   1.181   9.974  0.1153 -0.2360 -1.3688
  666TMC3    C8 9863   2.356   0.831  10.249 -0.7777 -0.5357  0.1860
  666TMC3    O1 9864   2.098   1.224   9.947  0.4252 -0.1501  0.3108
  666TMC3    O2 9865   2.285   0.749  10.311 -0.6523 -0.5355 -0.1436
  667MPD2     C 9866   4.047   1.601  14.454  0.3714 -0.1614  0.1901
  667MPD2    C1 9867   4.002   1.664  14.571  0.1816 -0.7135 -0.1942
  667MPD2    C2 9868   3.877   1.632  14.622  0.3822 -0.1799 -0.9391
  667MPD2    C3 9869   3.807   1.526  14.568  0.6945  0.0925 -0.3523
  667MPD2    C4 9870   3.852   1.467  14.451  0.2111 -0.0644  0.0387
  667MPD2    C5 9871   3.974   1.503  14.394  0.0216 -0.1754  0.2343
  667MPD2     H 9872   3.843   1.685  14.710  3.5956  1.0082 -0.3824
  667MPD2    H1 9873   3.791   1.399  14.393  0.7563  0.1796 -0.8077
  667MPD2    H2 9874   4.146   1.624  14.416 -1.1894  0.1118 -3.6854
  667MPD2    H3 9875   4.007   1.463  14.299  1.0869  1.1465  0.0563
  667MPD2     N 9876   3.682   1.485  14.621  0.0970 -0.0406  0.2964
  667MPD2    H5 9877   3.641   1.405  14.573  0.0966  0.0709  0.1134
  667MPD2    N1 9878   4.079   1.760  14.636  0.1108 -1.1394  0.2709
  667MPD2    H7 9879   4.028   1.808  14.710 -0.8369 -0.9825 -0.4716
  668TMC3    C1 9880   4.245   1.928  14.674  0.1269 -0.8363 -0.6288
  668TMC3    C2 9881   4.353   1.991  14.612 -0.2536 -0.5418 -0.2669
  668TMC3    C3 9882   4.395   2.105  14.668  0.4183 -0.8308 -0.2569
  668TMC3    C4 9883   4.178   1.976  14.788 -0.3011 -0.1506 -0.2192
  668TMC3    C5 9884   4.230   2.097  14.831 -0.1340  0.9225 -0.5061
  668TMC3    C6 9885   4.332   2.161  14.778 -0.2967 -0.3992  0.0351
  668TMC3     C 9886   4.203   1.807  14.604 -0.5975  0.3391 -0.3323
  668TMC3     O 9887   4.288   1.751  14.537  0.2035  0.2928  0.3850
  668TMC3     H 9888   4.385   1.954  14.516 -3.0020 -1.5360 -0.7919
  668TMC3    H1 9889   4.116   1.915  14.852  0.7142 -0.0462  0.8610
  668TMC3    H2 9890   4.373   2.250  14.826  0.5925 -1.5891  1.4556
  668TMC3    C7 9891   4.157   2.170  14.940  0.5709 -0.1466 -0.3738
  668TMC3    C8 9892   4.504   2.187  14.615  0.2037 -0.0048 -0.1659
  668TMC3    O1 9893   4.180   2.287  14.963 -0.0437 -0.2910 -0.1672
  668TMC3    O2 9894   4.561   2.254  14.696 -0.1035  0.1966  0.3656
  669TMC3    C1 9895   1.980   1.993  14.390 -0.3049 -0.8072 -0.2282
  669TMC3    C2 9896   1.868   1.973  14.319  0.1420  0.7447 -0.8849
  669TMC3    C3 9897   1.867   2.007  14.191 -0.2675  0.7705 -0.6996
  669TMC3    C4 9898   2.091   2.059  14.336  0.1442 -0.6535  0.2136
  669TMC3    C5 9899   2.079   2.098  14.199  0.5592 -0.4165 -0.2007
  669TMC3    C6 9900   1.969   2.061  14.125 -0.1765  0.7517 -0.4328
  669TMC3     C 9901   1.982   1.941  14.519  0.1599 -0.2843  0.5008
  669TMC3     O 9902   1.870   1.914  14.564  0.6071 -0.3646 -0.4644
  669TMC3     H 9903   1.791   1.911  14.362 -0.6729  3.4759  1.6301
  669TMC3    H1 9904   2.179   2.082  14.394  0.6586  3.5629 -2.2582
  669TMC3    H2 9905   1.947   2.101  14.027 -1.5019 -0.1177 -0.4859
  669TMC3    C7 9906   2.187   2.179  14.132 -0.1323 -0.2941  0.3670
  669TMC3    C8 9907   1.751   1.975  14.106  0.2482 -0.7691 -0.1832
  669TMC3    O1 9908   2.291   2.186  14.195  0.3542 -0.0468  0.6457
  669TMC3    O2 9909   1.775   1.973  13.985  0.6501 -0.2078  0.4003
  670MPD2     C 9910   4.456   3.604  13.783 -0.1507 -0.1512 -0.5859
  670MPD2    C1 9911   4.532   3.720  13.781 -0.5287  0.5676  0.1271
  670MPD2    C2 9912   4.537   3.793  13.899  0.4925  0.2438 -0.6952
  670MPD2    C3 9913   4.472   3.751  14.012 -0.0702 -0.6353  0.4389
  670MPD2    C4 9914   4.406   3.630  14.013 -0.0503 -0.1966  0.5110
  670MPD2    C5 9915   4.398   3.561  13.896 -0.2791 -0.3709  0.3790
  670MPD2     H 9916   4.590   3.888  13.898  1.0302 -0.0434  0.4945
  670MPD2    H1 9917   4.361   3.596  14.106 -0.2400  0.4720  0.6658
  670MPD2    H2 9918   4.438   3.541  13.697 -1.1624  2.7361 -2.5240
  670MPD2    H3 9919   4.337   3.471  13.898 -0.1441 -0.5045 -1.5567
  670MPD2     N 9920   4.480   3.832  14.129 -0.0778  0.1264 -0.0793
  670MPD2    H5 9921   4.538   3.915  14.120 -2.8497  2.0876  0.1706
  670MPD2    N1 9922   4.612   3.763  13.668 -0.1387  0.1211  0.7829
  670MPD2    H7 9923   4.651   3.855  13.682  2.2174 -0.9872  1.6634
  671TMC3    C1 9924   4.494   3.873  14.363 -0.7967 -0.2819  0.2917
  671TMC3    C2 9925   4.629   3.886  14.378 -0.1270 -0.3690 -0.3762
  671TMC3    C3 9926   4.690   3.848  14.491 -0.1574  0.0624 -0.1128
  671TMC3    C4 9927   4.422   3.859  14.476  0.2492  0.2854 -0.1283
  671TMC3    C5 9928   4.483   3.791  14.582 -1.2226  0.0001  0.3661
  671TMC3    C6 9929   4.620   3.794  14.593  0.8865  0.6008  0.4468
  671TMC3     C 9930   4.434   3.799  14.254 -0.0540  0.1814 -0.5123
  671TMC3     O 9931   4.348   3.716  14.286  0.3604  1.3304  0.8961
  671TMC3     H 9932   4.685   3.892  14.286  0.2281  0.9326 -0.0708
  671TMC3    H1 9933   4.315   3.846  14.462 -0.0731 -0.0848  2.7393
  671TMC3    H2 9934   4.671   3.758  14.682 -1.3761  1.0202  1.9050
  671TMC3    C7 9935   4.434   3.657  14.592 -0.1548 -0.1275  0.2743
  671TMC3    C8 9936   0.106   3.808  14.476 -0.4489 -0.2587  0.4138
  671TMC3    O1 9937   4.514   3.573  14.554  0.5640  0.1442 -0.6295
  671TMC3    O2 9938   0.134   3.754  14.372 -0.0443  0.2960 -0.1809
  672MPD2     C 9939   0.498   4.113   0.868  0.5577  0.4361 -0.2469
  672MPD2    C1 9940   0.579   4.219   0.821  0.3669 -0.7778  0.5991
  672MPD2    C2 9941   0.620   4.316   0.917 -0.3447  0.1584 -0.0815
  672MPD2    C3 9942   0.579   4.302   1.051 -0.3019 -0.1004  0.7840
  672MPD2    C4 9943   0.503   4.195   1.091  0.3146 -0.5105 -1.2272
  672MPD2    C5 9944   0.467   4.105   1.001 -0.4453 -0.3197  0.1550
  672MPD2     H 9945   0.698   4.387   0.894 -1.4445  0.5982 -2.3782
  672MPD2    H1 9946   0.475   4.178   1.194 -1.2424 -1.0032 -1.7212
  672MPD2    H2 9947   0.464   4.034   0.802  1.2566  1.0205 -1.3076
  672MPD2    H3 9948   0.406   4.020   1.029  0.1843 -0.4180  1.2108
  672MPD2     N 9949   0.617   4.390   1.161 -0.5069 -0.7494  0.1539
  672MPD2    H5 9950   0.611   4.352   1.255 -0.1142  1.0901  0.9167
  672MPD2    N1 9951   0.641   4.226   0.691  0.3456  0.5145 -0.2751
  672MPD2    H7 9952   0.706   4.303   0.675 -1.3447  1.4122 -2.9491
  673TMC3    C1 9953   0.718   4.157   0.488 -0.1945  1.3918 -0.2435
  673TMC3    C2 9954   0.814   4.064   0.463  0.6525 -0.2249 -0.3413
  673TMC3    C3 9955   0.907   4.097   0.371  0.4460  0.5168  0.2011
  673TMC3    C4 9956   0.711   4.282   0.432  0.1193  0.1692 -0.4713
  673TMC3    C5 9957   0.799   4.302   0.328  0.0675  0.1352 -0.2940
  673TMC3    C6 9958   0.889   4.205   0.290  0.1856 -0.1919 -0.2854
  673TMC3     C 9959   0.633   4.131   0.599 -0.1391 -0.3256 -0.0537
  673TMC3     O 9960   0.598   4.017   0.606 -0.6076 -0.2986 -0.0352
  673TMC3     H 9961   0.800   3.965   0.505 -0.5023 -0.1873 -0.6591
  673TMC3    H1 9962   0.629   4.348   0.456 -1.1749 -1.1619 -1.2881
  673TMC3    H2 9963   0.969   4.230   0.221 -0.0296 -1.4847 -1.0023
  673TMC3    C7 9964   0.832   4.438   0.281  0.3542 -0.7613 -0.3155
  673TMC3    C8 9965   1.044   4.048   0.377  0.3259  0.1736  0.1075
  673TMC3    O1 9966   0.935   4.437   0.216  0.1381 -0.4350  0.1397
  673TMC3    O2 9967   1.119   4.075   0.283  0.4607  0.0658 -0.0627
  674MPD2     C 9968   0.294   3.741   0.785 -0.7416 -0.0265 -0.1470
  674MPD2    C1 9969   0.251   3.865   0.739  0.7910  0.0590  0.5653
  674MPD2    C2 9970   0.173   3.943   0.828  0.0786 -0.1085  0.1363
  674MPD2    C3 9971   0.150   3.897   0.952  0.5762  0.3011  0.0665
  674MPD2    C4 9972   0.199   3.777   0.999  0.0760 -0.0379 -0.3972
  674MPD2    C5 9973   0.265   3.700   0.911 -0.0678  0.2925 -0.0888
  674MPD2     H 9974   0.126   4.038   0.802  1.2099  0.0985 -1.1720
  674MPD2    H1 9975   0.180   3.727   1.093 -1.2916  1.4914  0.1436
  674MPD2    H2 9976   0.351   3.676   0.720  0.9462  1.1396  0.1624
  674MPD2    H3 9977   0.300   3.606   0.952  1.4527  0.8384 -0.1003
  674MPD2     N 9978   0.042   3.953   1.016 -0.4860  0.4200 -0.4942
  674MPD2    H5 9979   4.716   4.015   0.952  1.4369  0.6370 -1.7746
  674MPD2    N1 9980   0.282   3.892   0.606  0.1257 -0.0759  0.4505
  674MPD2    H7 9981   0.334   3.819   0.559  0.3400  2.6311 -3.4832
  675TMC3    C1 9982   0.275   3.978   0.392  0.1793 -0.0947  0.3477
  675TMC3    C2 9983   0.196   4.040   0.295 -0.0573  0.5553 -0.5092
  675TMC3    C3 9984   0.225   4.028   0.165  0.6233  0.2205 -0.1702
  675TMC3    C4 9985   0.395   3.926   0.354  0.7661  0.4854  0.2206
  675TMC3    C5 9986   0.427   3.933   0.218  0.0317  0.0963  0.0223
  675TMC3    C6 9987   0.344   3.984   0.124 -0.3418 -0.0671  0.8535
  675TMC3     C 9988   0.231   3.990   0.528  0.4100  0.4845  0.9038
  675TMC3     O 9989   0.128   4.052   0.551 -0.0837 -0.4705  0.3694
  675TMC3     H 9990   0.108   4.095   0.327 -0.3120 -0.9820  1.4580
  675TMC3    H1 9991   0.474   3.909   0.426  0.2927 -2.0736  0.1232
  675TMC3    H2 9992   0.375   3.991   0.020 -0.4218 -2.6395  0.6500
  675TMC3    C7 9993   0.497   3.816   0.182 -0.2158  0.7578 -0.4610
  675TMC3    C8 9994   0.131   3.937   0.103  0.3593  0.5555 -0.3151
  675TMC3    O1 9995   0.584   3.772   0.260 -0.5638  0.0399  0.4391
  675TMC3    O2 9996   0.173   3.890  17.696 -0.2280  0.2913 -0.1971
  676MPD2     C 9997   2.542   2.555  10.465 -0.2783  0.2079  0.7828
  676MPD2    C1 9998   2.483   2.539  10.588 -0.7363  0.2983  0.2945
  676MPD2    C2 9999   2.457   2.410  10.628  0.3741  0.6355  0.5493
  676MPD2    C310000   2.482   2.300  10.548 -0.2078  0.1335  0.2020
  676MPD2    C410001   2.539   2.314  10.423 -0.6782 -0.1837 -0.2677
  676MPD2    C510002   2.565   2.439  10.382  0.4550 -0.4105  0.3628
  676MPD2     H10003   2.415   2.403  10.728 -2.1842 -2.2081 -0.7151
  676MPD2    H110004   2.562   2.227  10.363  1.2489  0.0448  0.1432
  676MPD2    H210005   2.561   2.654  10.426  0.2940  0.7664  2.4971
  676MPD2    H310006   2.601   2.457  10.282 -2.2869 -0.0467 -0.5713
  676MPD2     N10007   2.465   2.168  10.592 -0.3038 -0.2936  0.6512
  676MPD2    H510008   2.484   2.093  10.526  0.0567 -0.7383  1.2651
  676MPD2    N110009   2.432   2.638  10.671 -0.4514 -0.2404 -0.3338
  676MPD2    H710010   2.389   2.617  10.760 -2.8770 -0.8032 -1.6432
  677TMC3    C110011   2.412   2.858  10.756 -0.1176 -0.2955 -0.1857
  677TMC3    C210012   2.332   2.816  10.859  0.4062 -0.1990 -0.7763
  677TMC3    C310013   2.293   2.906  10.955  0.3915 -0.5127  0.2363
  677TMC3    C410014   2.442   2.993  10.739  0.4878  0.7423  0.3142
  677TMC3    C510015   2.389   3.081  10.824  0.3260 -0.2553  0.4375
  677TMC3    C610016   2.324   3.042  10.942 -0.6255 -0.1037 -0.7998
  677TMC3     C10017   2.451   2.773  10.644  0.1675 -0.0827  0.6504
  677TMC3     O10018   2.501   2.826  10.547 -0.2557 -0.1601 -0.2890
  677TMC3     H10019   2.314   2.711  10.874 -1.1439  0.5025  2.2454
  677TMC3    H110020   2.496   3.034  10.655  1.7450 -0.8944  0.3276
  677TMC3    H210021   2.300   3.120  11.014  1.7526  0.5951 -0.7589
  677TMC3    C710022   2.470   3.202  10.840 -0.4753  0.7796  0.2073
  677TMC3    C810023   2.325   2.860  11.086 -0.6319 -0.9347 -0.5123
  677TMC3    O110024   2.398   3.300  10.838  0.3385 -0.0134 -0.0225
  677TMC3    O210025   2.405   2.766  11.086  0.6508 -0.8132 -0.1580
  678MPD2     C10026   3.750   3.615   2.067 -0.4795 -0.7384  0.1007
  678MPD2    C110027   3.742   3.516   1.969  0.3821  0.4213  0.0361
  678MPD2    C210028   3.618   3.500   1.906 -0.1998  0.1436  0.3762
  678MPD2    C310029   3.508   3.575   1.942 -0.2422 -0.0003 -0.0021
  678MPD2    C410030   3.516   3.670   2.042  0.4301 -0.0173  0.6998
  678MPD2    C510031   3.634   3.692   2.101 -0.6342 -0.3558 -1.0912
  678MPD2     H10032   3.610   3.418   1.837 -2.4908  1.5723 -1.0683
  678MPD2    H110033   3.432   3.737   2.055  1.3304  1.4935 -1.4696
  678MPD2    H210034   3.845   3.635   2.116 -1.3588  1.8993  0.7008
  678MPD2    H310035   3.645   3.777   2.167  2.0412 -1.5834  0.0749
  678MPD2     N10036   3.385   3.531   1.893  0.2176 -0.2286 -0.6737
  678MPD2    H510037   3.384   3.478   1.807  2.9306  0.9460 -1.3998
  678MPD2    N110038   3.858   3.442   1.925  0.2396 -0.4446  0.3596
  678MPD2    H710039   3.842   3.386   1.842  0.2020 -0.6806  0.5253
  679TMC3    C110040   4.257   3.198   1.938  0.2533  1.0272  0.3858
  679TMC3    C210041   4.157   3.264   2.004  0.2277 -0.5634 -0.0148
  679TMC3    C310042   4.062   3.334   1.930  0.4655  0.1146 -0.0792
  679TMC3    C410043   4.269   3.203   1.801 -0.5726  0.4419 -0.0936
  679TMC3    C510044   4.184   3.284   1.735 -0.0931  0.0925 -0.6148
  679TMC3    C610045   4.072   3.345   1.793  0.0897  0.1664  0.8033
  679TMC3     C10046   4.363   3.131   2.018  0.5883  0.2084  0.3067
  679TMC3     O10047   4.446   3.064   1.958  0.2006  0.3643  0.3757
  679TMC3     H10048   4.134   3.258   2.109  0.1495 -2.8344 -0.1729
  679TMC3    H110049   4.329   3.124   1.756 -1.0998  1.0819 -1.9169
  679TMC3    H210050   4.018   3.417   1.733  1.3515  0.5079  0.0839
  679TMC3    C710051   4.185   3.293   1.590  0.6108 -0.1915  0.3864
  679TMC3    C810052   3.976   3.422   1.992  0.7769  0.1739  0.5270
  679TMC3    O110053   4.093   3.333   1.522 -0.5801 -0.8742  0.4041
  679TMC3    O210054   4.002   3.441   2.105  0.6453  0.3661  0.1793
  680MPD2     C10055   4.107   1.303  13.576  0.1922 -0.5044 -0.5931
  680MPD2    C110056   4.236   1.253  13.584  0.4198 -0.0798  0.2852
  680MPD2    C210057   4.339   1.342  13.596  0.6010 -0.2520 -0.0789
  680MPD2    C310058   4.318   1.476  13.621  0.5450  0.2873 -0.2711
  680MPD2    C410059   4.189   1.523  13.598 -0.3363  0.2202  0.2819
  680MPD2    C510060   4.080   1.437  13.566 -0.0902 -0.1369 -0.0334
  680MPD2     H10061   4.438   1.298  13.605  0.3158 -1.2427 -1.7233
  680MPD2    H110062   4.163   1.628  13.606 -0.5523  0.3692 -2.4934
  680MPD2    H210063   4.025   1.232  13.564 -0.8193  0.8385 -1.6419
  680MPD2    H310064   3.981   1.481  13.558  1.2597  3.2019  1.6101
  680MPD2     N10065   4.419   1.573  13.666 -0.4091  0.2755 -0.0647
  680MPD2    H510066   4.384   1.666  13.683  2.1836  0.7511  2.8367
  680MPD2    N110067   4.266   1.123  13.577 -0.9337 -0.2300 -0.4288
  680MPD2    H710068   4.363   1.103  13.553 -1.2204 -0.3587 -1.4536
  681TMC3    C110069   4.257   0.899  13.576 -0.1986  0.5737 -0.0297
  681TMC3    C210070   4.237   0.828  13.688 -0.4222  0.4564  0.2853
  681TMC3    C310071   4.332   0.741  13.731  0.2547  0.2732 -0.0269
  681TMC3    C410072   4.359   0.877  13.490 -0.5215 -0.6748 -0.0157
  681TMC3    C510073   4.445   0.779  13.525  1.0250 -0.1843 -0.0536
  681TMC3    C610074   4.441   0.721  13.647 -0.5851  0.0231 -0.4468
  681TMC3     C10075   4.183   1.022  13.572 -0.3062 -0.0967  0.5002
  681TMC3     O10076   4.067   1.014  13.607  0.0712  0.0349 -0.2396
  681TMC3     H10077   4.154   0.844  13.756  0.1677 -2.2073  1.6050
  681TMC3    H110078   4.375   0.944  13.406  2.3677  0.4947  1.4572
  681TMC3    H210079   4.522   0.660  13.685 -0.3873  0.0899 -0.7592
  681TMC3    C710080   4.575   0.771  13.452 -0.0889 -0.6522  0.3469
  681TMC3    C810081   4.357   0.734  13.872 -0.6930 -0.2841  0.1899
  681TMC3    O110082   4.675   0.772  13.520  0.1835  0.3801 -0.2817
  681TMC3    O210083   4.473   0.759  13.907  0.7474  0.0629 -0.3877
  682MPD2     C10084   1.785   2.455  10.297 -0.3557  0.6879 -0.1768
  682MPD2    C110085   1.725   2.339  10.336  0.1759 -0.5108  0.4257
  682MPD2    C210086   1.618   2.343  10.433 -0.2671 -0.5688  0.3049
  682MPD2    C310087   1.599   2.466  10.495 -0.1009 -0.7734 -0.1931
  682MPD2    C410088   1.652   2.579  10.443  0.5964  0.3199 -0.1388
  682MPD2    C510089   1.747   2.574  10.347  0.0208  0.3677  0.2769
  682MPD2     H10090   1.569   2.251  10.462 -2.8987  1.3896  2.0744
  682MPD2    H110091   1.625   2.674  10.488 -1.5615 -0.5338  0.3611
  682MPD2    H210092   1.848   2.456  10.209  0.5743 -1.1920  0.4716
  682MPD2    H310093   1.780   2.657  10.286  3.9257 -2.2776 -1.2237
  682MPD2     N10094   1.503   2.486  10.596  0.0091 -0.4286 -1.0417
  682MPD2    H510095   1.479   2.581  10.624  1.5769 -0.0970 -0.8654
  682MPD2    N110096   1.774   2.215  10.300  0.5396 -0.6203 -0.5166
  682MPD2    H710097   1.718   2.141  10.341 -1.3743  0.3086 -1.4679
  683TMC3    C110098   1.311   2.571  10.957  0.3940 -0.3768  0.7288
  683TMC3    C210099   1.233   2.476  11.015  0.7494 -0.5818 -0.5237
  683TMC3    C310100   1.220   2.358  10.952  0.1095  0.2488  0.7887
  683TMC3    C410101   1.381   2.545  10.844  0.5939 -0.7815  0.3243
  683TMC3    C510102   1.351   2.432  10.769 -0.4765 -0.6880  0.0992
  683TMC3    C610103   1.266   2.337  10.824 -0.5983 -0.3164 -0.1103
  683TMC3     C10104   1.343   2.686  11.042 -0.1886 -0.0793 -0.0354
  683TMC3     O10105   1.292   2.683  11.153 -0.2030  0.0698 -0.6129
  683TMC3     H10106   1.170   2.497  11.101 -0.6365 -0.6582 -1.5217
  683TMC3    H110107   1.452   2.619  10.808  0.4219  0.1121  1.8192
  683TMC3    H210108   1.249   2.248  10.766 -1.8889 -0.5735  0.6764
  683TMC3    C710109   1.414   2.391  10.646 -0.2463 -0.2090  0.2614
  683TMC3    C810110   1.182   2.247  11.034  0.5003  0.3174  0.3658
  683TMC3    O110111   1.398   2.275  10.611 -0.7550 -0.0154  0.1358
  683TMC3    O210112   1.123   2.259  11.141 -0.0861  0.1623  0.2029
  684MPD2     C10113   4.670   1.616  16.757 -0.0792  0.0359  0.6412
  684MPD2    C110114   4.691   1.663  16.632 -0.8891  0.4539  0.1277
  684MPD2    C210115   4.683   1.801  16.603  1.2127  0.6649 -0.2862
  684MPD2    C310116   4.665   1.889  16.708  0.6115  0.0741  0.0460
  684MPD2    C410117   4.654   1.837  16.835  0.6226  0.0247 -0.3369
  684MPD2    C510118   4.644   1.703  16.859  0.1216  0.2615  0.2345
  684MPD2     H10119   4.716   1.831  16.504 -1.5436  2.7881 -0.5597
  684MPD2    H110120   4.659   1.905  16.919 -2.5140 -0.1107 -0.0337
  684MPD2    H210121   4.666   1.508  16.772  1.4355 -0.0260  0.6120
  684MPD2    H310122   4.646   1.668  16.962  0.6891 -1.6878 -0.4294
  684MPD2     N10123   4.678   2.032  16.701  0.1679  0.4151  0.0289
  684MPD2    H510124   4.679   2.089  16.785 -0.9978  1.6399 -0.7973
  684MPD2    N110125   4.714   1.571  16.523  0.2356  0.8224  0.2019
  684MPD2    H710126   0.024   1.616  16.439 -2.6200 -1.9699 -2.4241
  685TMC3    C110127   0.028   1.379  16.389 -0.6169  0.0030 -0.1033
  685TMC3    C210128   0.001   1.450  16.278  0.0220  0.2531 -0.3186
  685TMC3    C310129   0.076   1.414  16.162  0.6338 -1.2696 -0.6695
  685TMC3    C410130   0.128   1.291  16.401 -0.3138  0.1428 -0.0166
  685TMC3    C510131   0.210   1.269  16.299 -0.1879  0.2192 -0.2149
  685TMC3    C610132   0.176   1.327  16.178 -0.4930 -0.0894 -0.1906
  685TMC3     C10133   4.719   1.435  16.522  0.0460  0.4010  0.4963
  685TMC3     O10134   0.003   1.358  16.618 -0.2763  0.1936  0.6040
  685TMC3     H10135   4.641   1.518  16.269  0.3752  0.8267  0.7480
  685TMC3    H110136   0.150   1.244  16.497 -1.5780 -1.8547 -0.7138
  685TMC3    H210137   0.211   1.291  16.081  1.3034 -1.1450  0.8615
  685TMC3    C710138   0.352   1.259  16.335  0.5958 -0.3149  0.5584
  685TMC3    C810139   0.008   1.391  16.039 -0.2592 -0.5154 -0.2217
  685TMC3    O110140   0.383   1.211  16.442  0.2683  0.1031  0.2681
  685TMC3    O210141   0.047   1.306  15.961  0.2208 -0.2084  0.4244
  686MPD2     C10142   1.413   2.062  15.699 -0.1056  0.1406  0.0909
  686MPD2    C110143   1.460   1.981  15.797  0.0813 -0.1661  0.4267
  686MPD2    C210144   1.489   1.849  15.762  0.0238 -0.0604  0.4607
  686MPD2    C310145   1.442   1.796  15.641 -0.8824  0.4070 -0.3682
  686MPD2    C410146   1.390   1.879  15.549  0.5278 -0.2526  0.8229
  686MPD2    C510147   1.389   2.011  15.576  0.5064  0.4526 -0.3869
  686MPD2     H10148   1.529   1.778  15.833  0.1274 -0.1030  0.3595
  686MPD2    H110149   1.350   1.846  15.454  2.1684  1.8546 -0.6011
  686MPD2    H210150   1.387   2.165  15.717  1.1834 -0.0164  2.8325
  686MPD2    H310151   1.354   2.090  15.511  0.2618 -0.3611 -1.2398
  686MPD2     N10152   1.449   1.655  15.620  0.6206 -0.0608 -0.0259
  686MPD2    H510153   1.440   1.634  15.520  1.2340  0.7626 -0.2445
  686MPD2    N110154   1.447   2.019  15.934  0.4798 -0.2008  0.1294
  686MPD2    H710155   1.394   2.104  15.951  0.9514  0.5364 -2.0995
  687TMC3    C110156   1.443   1.578  15.858  0.1176 -0.4297 -0.3429
  687TMC3    C210157   1.319   1.626  15.889  0.1003 -0.1173 -0.4926
  687TMC3    C310158   1.269   1.610  16.019 -0.1537 -0.7256 -0.6963
  687TMC3    C410159   1.518   1.509  15.950  0.0486 -0.0341 -0.1092
  687TMC3    C510160   1.466   1.489  16.074 -0.3432  0.4624  0.2555
  687TMC3    C610161   1.334   1.525  16.108  0.1641 -0.0550  0.2016
  687TMC3     C10162   1.476   1.556  15.715  0.0888 -0.1812  0.1425
  687TMC3     O10163   1.508   1.442  15.688  0.0947  0.1571 -0.2074
  687TMC3     H10164   1.249   1.659  15.812 -0.8297  0.6409  0.6797
  687TMC3    H110165   1.612   1.466  15.917  1.1297  1.3285  1.2560
  687TMC3    H210166   1.292   1.493  16.202  0.2632  1.2773  0.7079
  687TMC3    C710167   1.549   1.529  16.187  0.2355  0.2844 -0.1617
  687TMC3    C810168   1.151   1.682  16.055 -0.3664  0.4916 -0.3464
  687TMC3    O110169   1.506   1.534  16.305 -0.6205  0.2445  0.2839
  687TMC3    O210170   1.108   1.656  16.165  0.9182  0.4249  0.0026
  688MPD2     C10171   0.808   1.226  17.510 -1.1985 -0.3307  0.1961
  688MPD2    C110172   0.869   1.108  17.543 -0.0605 -0.1219  0.1119
  688MPD2    C210173   0.936   1.036  17.445 -0.3892 -0.0287  0.2465
  688MPD2    C310174   0.929   1.071  17.315 -0.3920  0.3078 -0.4686
  688MPD2    C410175   0.855   1.183  17.280 -0.3934 -0.3653 -0.1353
  688MPD2    C510176   0.805   1.269  17.376  0.0395  0.9194  0.0018
  688MPD2     H10177   0.970   0.938  17.477 -0.5009 -0.2162 -0.2072
  688MPD2    H110178   0.847   1.217  17.178  3.1408 -0.2486 -0.3927
  688MPD2    H210179   0.772   1.299  17.581  0.4665  0.5042  0.1791
  688MPD2    H310180   0.750   1.355  17.340 -0.1989  0.7306 -0.0903
  688MPD2     N10181   1.000   1.005  17.208 -0.2563 -0.5794 -0.0470
  688MPD2    H510182   0.984   1.032  17.112  2.8484 -0.1238 -0.4229
  688MPD2    N110183   0.865   1.047  17.663  0.2244 -0.1948  0.4558
  688MPD2    H710184   0.921   0.963  17.675 -1.3803 -1.7531 -2.7406
  689TMC3    C110185   0.789   0.997   0.178 -0.0045  0.1313 -0.3753
  689TMC3    C210186   0.731   1.057   0.292 -1.0949  0.1284  0.2158
  689TMC3    C310187   0.686   0.977   0.392 -0.2637  0.2875 -0.6855
  689TMC3    C410188   0.773   0.863   0.155  1.0988 -0.9510 -0.1210
  689TMC3    C510189   0.713   0.782   0.251  0.5234 -0.4113  0.5476
  689TMC3    C610190   0.670   0.841   0.368  0.4178  0.6827 -0.7235
  689TMC3     C10191   0.801   1.093   0.074 -0.5702 -0.1255  0.7715
  689TMC3     O10192   0.747   1.199   0.094 -0.8587 -0.3173  0.3158
  689TMC3     H10193   0.736   1.163   0.315 -0.1390  0.1739 -0.1977
  689TMC3    H110194   0.768   0.835   0.050  2.1061 -1.5226 -0.0165
  689TMC3    H210195   0.614   0.778   0.437  4.9762  1.3265  3.5223
  689TMC3    C710196   0.718   0.643   0.242  0.1156 -0.2785 -0.9062
  689TMC3    C810197   0.645   1.024   0.518 -0.7754  0.1881 -0.6332
  689TMC3    O110198   0.665   0.576   0.331 -0.6789  0.3319 -0.3142
  689TMC3    O210199   0.608   0.938   0.596  0.3831  0.0984 -0.0746
  690MPD2     C10200   2.914   2.716  16.377 -0.4010 -0.4062  0.0093
  690MPD2    C110201   2.851   2.662  16.269  0.3488 -0.3724  0.0296
  690MPD2    C210202   2.885   2.714  16.144  0.1179  0.1423  0.2645
  690MPD2    C310203   2.987   2.805  16.124  0.1303  0.1380  0.2728
  690MPD2    C410204   3.052   2.850  16.237  0.6884 -0.1685 -0.2063
  690MPD2    C510205   3.018   2.810  16.361  0.2010  0.5425  0.1574
  690MPD2     H10206   2.823   2.691  16.058 -1.2209  0.5737  1.1089
  690MPD2    H110207   3.125   2.929  16.223  1.7272 -0.9228  1.0177
  690MPD2    H210208   2.905   2.684  16.480 -2.9904  0.4125  0.0127
  690MPD2    H310209   3.069   2.838  16.452  0.8584 -3.4725  1.0242
  690MPD2     N10210   3.023   2.847  15.996  0.5789  0.8166  0.6881
  690MPD2    H510211   2.975   2.810  15.915  0.8559  2.4786 -0.2398
  690MPD2    N110212   2.738   2.584  16.282  0.2682 -0.3440 -0.2199
  690MPD2    H710213   2.701   2.551  16.194 -2.8948  0.7058  0.7239
  691TMC3    C110214   2.567   2.471  16.380 -0.7097  0.3214  0.8243
  691TMC3    C210215   2.439   2.473  16.431 -0.0801 -0.1480  0.7318
  691TMC3    C310216   2.354   2.365  16.408 -0.5969 -0.8463  0.6376
  691TMC3    C410217   2.606   2.363  16.304 -0.2393 -0.1142 -0.3020
  691TMC3    C510218   2.520   2.257  16.278  0.4181  0.4282  0.2450
  691TMC3    C610219   2.392   2.256  16.328  0.3530  0.6270  0.1456
  691TMC3     C10220   2.665   2.572  16.397 -0.1878 -0.0897  0.1610
  691TMC3     O10221   2.674   2.626  16.504  0.1570 -0.2994 -0.5294
  691TMC3     H10222   2.413   2.557  16.494  1.5884 -0.0139  1.2258
  691TMC3    H110223   2.708   2.341  16.277 -0.4566  0.6888 -1.7761
  691TMC3    H210224   2.332   2.166  16.316  1.3754 -0.3567  2.3978
  691TMC3    C710225   2.584   2.139  16.224 -0.0982  0.4313 -1.4403
  691TMC3    C810226   2.221   2.363  16.455 -0.2456  0.3112 -0.1790
  691TMC3    O110227   2.706   2.133  16.212  0.0347  0.2981 -0.0105
  691TMC3    O210228   2.191   2.250  16.488  0.4276 -0.0449 -0.0877
  692TMC3    C110229   4.366   3.401  16.253  1.3083  0.8344 -0.4758
  692TMC3    C210230   4.496   3.405  16.289  0.0308 -0.2050  0.3804
  692TMC3    C310231   4.552   3.284  16.330  0.0462  0.2563  0.7727
  692TMC3    C410232   4.281   3.295  16.274  0.1588 -0.1610 -0.1995
  692TMC3    C510233   4.336   3.182  16.327 -0.6412 -0.1301  0.5397
  692TMC3    C610234   4.468   3.176  16.357  0.4948 -0.0396  0.8718
  692TMC3     C10235   4.295   3.529  16.260  0.0242 -0.4417  0.2710
  692TMC3     O10236   4.176   3.520  16.278  0.2081  0.1275 -0.2315
  692TMC3     H10237   4.572   3.470  16.248 -0.4937 -0.1624 -0.5052
  692TMC3    H110238   4.178   3.304  16.242  0.4874  1.9131 -0.6889
  692TMC3    H210239   4.519   3.081  16.361 -1.4647 -1.0149  2.6707
  692TMC3    C710240   4.262   3.064  16.284 -0.3127 -0.4418 -1.0680
  692TMC3    C810241   4.641   3.322  16.439  0.2717  0.4359  0.9265
  692TMC3    O110242   4.173   3.061  16.199 -0.3242  0.2353  0.0704
  692TMC3    O210243   0.012   3.259  16.481 -0.0569 -0.5752  0.5244
  693MPD2     C10244   3.636   1.588  10.862  0.2004  0.5464 -0.1314
  693MPD2    C110245   3.598   1.459  10.840  0.6689  0.1266 -0.0174
  693MPD2    C210246   3.690   1.354  10.867 -0.0806 -0.0205  0.1518
  693MPD2    C310247   3.812   1.379  10.923 -0.4733  0.4359  0.1028
  693MPD2    C410248   3.841   1.509  10.958 -0.2357 -0.3276 -0.1853
  693MPD2    C510249   3.755   1.612  10.928  0.4233  0.8608 -0.1008
  693MPD2     H10250   3.658   1.250  10.863 -1.3365  0.3788 -0.1826
  693MPD2    H110251   3.928   1.521  11.022 -3.0274  2.3814  3.0422
  693MPD2    H210252   3.559   1.664  10.856 -1.6167 -1.4112 -1.3302
  693MPD2    H310253   3.786   1.713  10.949 -2.4302  1.8510 -0.6786
  693MPD2     N10254   3.898   1.278  10.965 -0.1089 -0.5760  0.1936
  693MPD2    H510255   3.966   1.314  11.030  1.3534 -3.3910  0.2260
  693MPD2    N110256   3.464   1.445  10.798 -0.2491 -0.5370 -0.5712
  693MPD2    H710257   3.410   1.531  10.791  0.1522 -0.4393 -2.6427
  694TMC3    C110258   3.262   1.327  10.783  0.0285  0.0004 -0.8004
  694TMC3    C210259   3.202   1.230  10.713 -0.0334  0.0769 -0.3306
  694TMC3    C310260   3.075   1.203  10.753 -0.6018 -0.6643 -0.2994
  694TMC3    C410261   3.206   1.404  10.880  0.2892 -0.0044  0.2465
  694TMC3    C510262   3.083   1.374  10.921 -0.2788 -0.2357  0.4466
  694TMC3    C610263   3.018   1.266  10.864  0.6062  0.6095 -0.5118
  694TMC3     C10264   3.404   1.325  10.769 -0.3947  0.1102  0.4950
  694TMC3     O10265   3.466   1.225  10.743 -0.1601  0.1779  0.6222
  694TMC3     H10266   3.256   1.167  10.644  2.0057 -1.9992  3.1857
  694TMC3    H110267   3.270   1.466  10.942  0.2666  0.0652  0.2006
  694TMC3    H210268   2.914   1.241  10.880  1.3121 -0.5945  2.2114
  694TMC3    C710269   3.032   1.427  11.046 -0.9381 -0.3697  0.1593
  694TMC3    C810270   3.025   1.077  10.707  0.7549 -0.6923 -0.0137
  694TMC3    O110271   3.071   1.535  11.084 -0.3739 -0.3081  0.3451
  694TMC3    O210272   2.933   1.034  10.772 -0.4241 -0.4173  0.0830
  695MPD2     C10273   0.232   3.001  13.848  0.4217 -0.2593  0.4842
  695MPD2    C110274   0.212   3.043  13.980  0.2651  0.0743 -0.7472
  695MPD2    C210275   0.090   3.041  14.040 -0.2247  0.8201  0.3052
  695MPD2    C310276   4.706   3.009  13.965  0.2348  0.7143  0.6379
  695MPD2    C410277   4.722   2.963  13.830  0.2824 -0.4484  0.2620
  695MPD2    C510278   0.121   2.950  13.773 -0.1339 -0.1657  0.1512
  695MPD2     H10279   0.073   3.063  14.144  1.9885 -4.8440  1.8224
  695MPD2    H110280   4.642   2.935  13.763 -0.6746 -0.2135  1.2990
  695MPD2    H210281   0.330   2.983  13.804  0.2913  1.5042 -0.5107
  695MPD2    H310282   0.134   2.933  13.666  0.0374  1.1085 -0.0302
  695MPD2     N10283   4.577   3.010  14.027 -0.1476 -0.2073  0.5699
  695MPD2    H510284   4.563   3.065  14.111  1.3466 -1.1068  1.4001
  695MPD2    N110285   0.319   3.092  14.056  0.0897 -0.0429  0.4856
  695MPD2    H710286   0.308   3.117  14.154 -0.8703  0.5553  0.2336
  696TMC3    C110287   4.343   2.983  14.049 -0.5304 -0.0468 -0.3844
  696TMC3    C210288   4.352   3.043  14.170 -0.0505 -0.0537 -0.0217
  696TMC3    C310289   4.247   3.114  14.216  0.6291 -0.8167 -0.0153
  696TMC3    C410290   4.229   2.971  13.979 -0.9070 -0.1907  1.1095
  696TMC3    C510291   4.121   3.039  14.030  0.5991 -0.0897  0.6692
  696TMC3    C610292   4.126   3.100  14.155  0.2850  0.2941  0.2856
  696TMC3     C10293   4.464   2.951  13.976  0.9844 -0.2677  0.3748
  696TMC3     O10294   4.453   2.876  13.878  0.1318 -0.0638  0.2151
  696TMC3     H10295   4.432   3.038  14.242 -1.6213  0.9624  1.8134
  696TMC3    H110296   4.235   2.929  13.879 -1.5822  2.3191  0.0067
  696TMC3    H210297   4.045   3.165  14.184  1.7954  0.7595  3.4565
  696TMC3    C710298   4.065   3.118  13.917  0.3742 -0.1114  0.5712
  696TMC3    C810299   4.267   3.206  14.326  0.3245 -0.2646  0.0252
  696TMC3    O110300   4.071   3.065  13.810 -0.2762  0.7558 -0.0228
  696TMC3    O210301   4.387   3.227  14.357  0.1182  0.2730  0.8505
  697MPD2     C10302   3.986   0.823  15.886 -0.3975  0.5937 -0.5314
  697MPD2    C110303   3.932   0.763  15.776 -0.8754 -0.6331 -0.1494
  697MPD2    C210304   3.912   0.845  15.662  0.2922 -0.6483 -0.4064
  697MPD2    C310305   3.962   0.974  15.658 -0.1405 -0.3460 -0.0166
  697MPD2    C410306   4.006   1.029  15.774  0.1915  0.1508 -0.0737
  697MPD2    C510307   4.015   0.950  15.886  0.1056 -0.8243  0.4384
  697MPD2     H10308   3.881   0.795  15.570 -1.2254  1.3927 -0.9865
  697MPD2    H110309   4.040   1.132  15.776 -0.8891  0.5686 -4.2495
  697MPD2    H210310   3.993   0.764  15.976  0.1464  0.0213 -0.9491
  697MPD2    H310311   4.044   1.003  15.976  0.2628  2.4812 -1.5627
  697MPD2     N10312   3.966   1.045  15.533 -0.0836 -0.3806  0.0067
  697MPD2    H510313   3.929   0.995  15.452 -2.7993  2.2433 -0.3468
  697MPD2    N110314   3.925   0.623  15.757  0.1405 -0.7258  0.2970
  697MPD2    H710315   3.887   0.598  15.666  0.6791 -0.1841 -0.0752
  698TMC3    C110316   4.031   1.221  15.381 -0.7309  1.1580 -0.6077
  698TMC3    C210317   4.093   1.343  15.374  0.5651  0.2205 -0.1818
  698TMC3    C310318   4.167   1.369  15.262  0.2579 -0.9179 -0.6687
  698TMC3    C410319   4.034   1.127  15.287 -0.1833  0.0145 -0.3443
  698TMC3    C510320   4.101   1.161  15.170  0.4045  0.3663  0.5649
  698TMC3    C610321   4.175   1.279  15.159  0.3387  0.3295 -0.2617
  698TMC3     C10322   4.019   1.176  15.521 -0.7785 -0.2589  0.1030
  698TMC3     O10323   4.046   1.262  15.601 -0.3311 -0.2744  1.0615
  698TMC3     H10324   4.096   1.414  15.455  0.4896 -0.1912  0.1799
  698TMC3    H110325   3.977   1.035  15.280  0.1160 -0.1727 -0.3038
  698TMC3    H210326   4.231   1.313  15.072  0.4831  1.1681  0.1596
  698TMC3    C710327   4.092   1.087  15.050  0.1277 -0.3200 -0.4236
  698TMC3    C810328   4.271   1.468  15.291 -0.2486 -0.8049  0.0378
  698TMC3    O110329   4.072   1.145  14.944 -0.2068  0.2348  0.1156
  698TMC3    O210330   4.255   1.544  15.385  0.3491  0.2267  0.1197
  699TMC3    C110331   3.858   3.724  13.572 -0.3579  0.2345 -0.4122
  699TMC3    C210332   3.836   3.589  13.609  0.2782  0.4893  0.0073
  699TMC3    C310333   3.747   3.564  13.712  0.2506 -0.9738 -0.5904
  699TMC3    C410334   3.804   3.830  13.639  0.4718 -1.1800  0.1600
  699TMC3    C510335   3.723   3.799  13.750 -0.6749 -0.2248  0.0967
  699TMC3    C610336   3.690   3.671  13.785 -0.7789  0.3888 -0.2492
  699TMC3     C10337   3.920   3.759  13.437 -0.7348 -1.0895  0.5564
  699TMC3     O10338   3.923   3.875  13.406  0.5394  0.2553  0.3844
  699TMC3     H10339   3.899   3.509  13.571 -0.5541  0.2323 -0.8352
  699TMC3    H110340   3.808   3.935  13.614 -1.7649 -1.3878 -1.0272
  699TMC3    H210341   3.639   3.650  13.879 -0.5400 -1.8464 -0.6086
  699TMC3    C710342   3.696   3.896  13.852  0.2768 -0.0184  0.3976
  699TMC3    C810343   3.729   3.428  13.764 -0.2008  0.4089 -0.2963
  699TMC3    O110344   3.604   3.866  13.929 -0.3951  0.2667  0.0823
  699TMC3    O210345   3.682   3.418  13.875 -0.0152  0.4834  0.1079
  700TMC3    C110346   3.516   1.417  17.142  0.1089 -0.0896  0.1329
  700TMC3    C210347   3.603   1.313  17.173 -0.2053 -0.4849 -0.3046
  700TMC3    C310348   3.701   1.331  17.264 -0.1568 -0.8675 -0.1682
  700TMC3    C410349   3.526   1.538  17.215 -0.1285 -0.0010 -0.2476
  700TMC3    C510350   3.642   1.555  17.295 -0.9490  0.5673 -0.5060
  700TMC3    C610351   3.730   1.453  17.321  0.5194 -0.3418  0.0107
  700TMC3     C10352   3.391   1.389  17.074  0.2783 -0.5397  0.0054
  700TMC3     O10353   3.299   1.355  17.148  0.2139 -0.5816 -0.5048
  700TMC3     H10354   3.581   1.210  17.146  0.7317 -1.5792  3.0666
  700TMC3    H110355   3.450   1.612  17.194  0.0804 -0.2674 -1.9737
  700TMC3    H210356   3.811   1.462  17.392  0.5945  0.0163 -0.1193
  700TMC3    C710357   3.685   1.680  17.343  0.1426 -1.2876 -0.6757
  700TMC3    C810358   3.773   1.220  17.323  0.1587  0.5941  0.0660
  700TMC3    O110359   3.756   1.687  17.445  0.0802  0.2136  0.0572
  700TMC3    O210360   3.882   1.241  17.380 -0.3832 -0.1239  0.0551
  701TMC3    C110361   3.284   0.142  15.872  0.1902  0.7263  0.7159
  701TMC3    C210362   3.249   0.100  15.749  0.2810 -0.3000  0.1144
  701TMC3    C310363   3.337   0.130  15.645 -0.4927 -0.2464 -0.3666
  701TMC3    C410364   3.380   0.235  15.894  0.5154  0.3589 -0.4210
  701TMC3    C510365   3.459   0.278  15.790  0.7234 -0.9045 -0.4758
  701TMC3    C610366   3.433   0.225  15.669 -0.1446  0.1328 -0.4047
  701TMC3     C10367   3.213   0.107  15.996  0.0101 -0.2642  0.1035
  701TMC3     O10368   3.219   0.184  16.092  0.2699 -0.0225  0.7665
  701TMC3     H10369   3.151   0.053  15.745  0.0144 -0.0052  2.7451
  701TMC3    H110370   3.404   0.257  15.998 -1.0683  2.8148 -0.5777
  701TMC3    H210371   3.491   0.242  15.579  1.6295  0.7759  0.8712
  701TMC3    C710372   3.531   0.405  15.807  0.3484 -0.4590  0.3895
  701TMC3    C810373   3.283   0.138  15.510 -0.3016 -0.3866 -0.5043
  701TMC3    O110374   3.570   0.465  15.707  0.4548 -0.3232  0.6191
  701TMC3    O210375   3.318   0.229  15.440 -0.4589 -0.0671  0.4407
  702MPD2     C10376   2.750   1.643  10.310 -0.2768  0.0568  0.1470
  702MPD2    C110377   2.666   1.754  10.308 -0.8912 -0.0156 -0.3980
  702MPD2    C210378   2.693   1.855  10.213  0.0236  0.0858 -0.4643
  702MPD2    C310379   2.802   1.852  10.126 -0.4626 -0.2412  0.6808
  702MPD2    C410380   2.878   1.737  10.118  0.4011 -0.6488  0.6497
  702MPD2    C510381   2.849   1.636  10.207 -0.0490 -1.4146 -1.0498
  702MPD2     H10382   2.631   1.943  10.207 -0.1333  0.0772  1.0471
  702MPD2    H110383   2.961   1.736  10.048  0.1316  2.5548  0.3050
  702MPD2    H210384   2.741   1.561  10.380  1.9488 -0.8548 -0.6386
  702MPD2    H310385   2.917   1.552  10.213 -0.4580 -1.8093 -1.8997
  702MPD2     N10386   2.831   1.970  10.047 -0.4658 -0.3752 -0.5798
  702MPD2    H510387   2.769   2.050  10.055  2.4525  1.7744  0.4688
  702MPD2    N110388   2.575   1.778  10.408 -0.1716  0.2292  0.6467
  702MPD2    H710389   2.532   1.868  10.392 -0.0396 -0.1413 -1.7622
  703TMC3    C110390   2.944   2.141   9.951  0.1693 -0.2267  0.1198
  703TMC3    C210391   2.825   2.211   9.951  0.5931 -0.3925 -0.3069
  703TMC3    C310392   2.832   2.344   9.999 -0.3157 -0.4856  0.1876
  703TMC3    C410393   3.065   2.202   9.987 -0.6176 -0.3887  0.3797
  703TMC3    C510394   3.066   2.334  10.016 -0.1274  0.4174 -0.6808
  703TMC3    C610395   2.952   2.406  10.029 -0.4441 -0.0750  0.5249
  703TMC3     C10396   2.941   1.995   9.974 -0.4349 -0.5576  0.3064
  703TMC3     O10397   3.045   1.929   9.962  0.3324  0.1807 -0.2592
  703TMC3     H10398   2.731   2.162   9.929 -1.5409  2.6507  2.0667
  703TMC3    H110399   3.152   2.142   9.963 -0.5029  0.4706 -1.3446
  703TMC3    H210400   2.949   2.513  10.041  0.3447  0.0888 -0.6674
  703TMC3    C710401   3.191   2.402  10.039 -0.2482  0.1444 -0.3391
  703TMC3    C810402   2.710   2.416  10.041  0.2316  0.2861 -0.2218
  703TMC3    O110403   3.180   2.519  10.067 -0.0482  0.2557 -0.1046
  703TMC3    O210404   2.723   2.527  10.094 -0.0069 -0.4639  0.4204
  704TMC3    C110405   0.061   4.677  12.598  0.3884 -0.7893 -0.2211
  704TMC3    C210406   0.172   0.007  12.541  0.4661  0.5966  0.1551
  704TMC3    C310407   0.281   0.034  12.622 -0.4895 -0.2142  0.1056
  704TMC3    C410408   0.053   4.643  12.733 -0.6349 -0.0519 -0.0817
  704TMC3    C510409   0.161   4.674  12.812 -0.8631  0.1338  0.1125
  704TMC3    C610410   0.270   0.018  12.762 -0.0728  0.1623  0.6492
  704TMC3     C10411   4.661   4.647  12.520 -0.1697  0.2790  0.2318
  704TMC3     O10412   4.557   4.616  12.574  0.2016 -0.0090  0.6111
  704TMC3     H10413   0.170   0.038  12.438 -0.9276 -2.3905 -0.7238
  704TMC3    H110414   4.681   4.607  12.768  0.5543 -0.4408  2.7567
  704TMC3    H210415   0.346   0.047  12.834 -1.0361  0.3185  1.6118
  704TMC3    C710416   0.155   4.675  12.964 -0.0448  0.0755 -0.5185
  704TMC3    C810417   0.411   0.074  12.566 -1.1182  0.1657  0.6393
  704TMC3    O110418   0.208   0.048  13.019 -0.2707  0.2260 -0.0778
  704TMC3    O210419   0.446   0.026  12.457  0.2543  0.2331  0.1838
  705MPD2     C10420   0.404   3.163  16.836  0.0308  0.2943  0.4421
  705MPD2    C110421   0.285   3.175  16.765 -0.2555 -0.0742  0.4891
  705MPD2    C210422   0.179   3.232  16.825 -0.5487 -0.7719 -0.3889
  705MPD2    C310423   0.177   3.272  16.957  0.2731 -0.4077  0.4341
  705MPD2    C410424   0.297   3.263  17.026  0.7264  0.5882 -0.6829
  705MPD2    C510425   0.414   3.210  16.963  0.4479  0.0636 -0.2560
  705MPD2     H10426   0.088   3.235  16.767 -1.2918  1.6409  0.8915
  705MPD2    H110427   0.317   3.298  17.127 -1.3022 -1.3792  0.4025
  705MPD2    H210428   0.498   3.125  16.799 -0.7475 -0.3861 -0.8399
  705MPD2    H310429   0.507   3.190  17.015  3.0448 -0.0288 -4.8952
  705MPD2     N10430   0.058   3.329  17.011  0.0982  0.5528 -0.5516
  705MPD2    H510431   0.067   3.385  17.095 -0.1837  1.3480 -1.0618
  705MPD2    N110432   0.277   3.158  16.622 -0.0742 -0.2367 -0.0286
  705MPD2    H710433   0.195   3.203  16.583 -0.5251 -0.5521  0.5640
  706TMC3    C110434   0.431   3.120  16.191 -0.9154 -0.3337  0.2851
  706TMC3    C210435   0.381   3.244  16.157 -0.4567  0.1633 -0.1314
  706TMC3    C310436   0.325   3.320  16.253 -0.6903 -0.2415 -0.4466
  706TMC3    C410437   0.419   3.068  16.316 -0.4348 -0.4821 -0.2730
  706TMC3    C510438   0.351   3.145  16.402  0.2993  1.1201 -0.6371
  706TMC3    C610439   0.311   3.275  16.382  0.3136  0.2613  0.2905
  706TMC3     C10440   0.531   3.058  16.103 -0.5531  0.0861  0.1117
  706TMC3     O10441   0.622   2.995  16.163  0.4244 -0.2557  0.2373
  706TMC3     H10442   0.398   3.272  16.054  1.7483 -0.5485  0.0489
  706TMC3    H110443   0.453   2.967  16.335 -2.3866 -0.8570  1.2599
  706TMC3    H210444   0.279   3.347  16.456 -0.3341 -1.5887  1.7913
  706TMC3    C710445   0.376   3.111  16.542  0.2156  0.6070 -0.2218
  706TMC3    C810446   0.314   3.464  16.222 -0.3841 -0.0639  0.5032
  706TMC3    O110447   0.482   3.063  16.574 -0.0178 -0.2940 -0.3384
  706TMC3    O210448   0.318   3.492  16.102  0.0138 -0.8633  0.3064
  707TMC3    C110449   1.840   2.981   1.668 -0.1547 -0.5617  0.4302
  707TMC3    C210450   1.905   2.966   1.791 -0.3718  0.3354  0.1691
  707TMC3    C310451   1.832   2.978   1.906  0.2122  0.2322  0.1294
  707TMC3    C410452   1.703   3.006   1.657  0.0258  0.7646  0.0500
  707TMC3    C510453   1.629   3.015   1.774 -0.2702 -0.3915 -0.1867
  707TMC3    C610454   1.696   3.013   1.899 -0.9710 -0.1789  0.1347
  707TMC3     C10455   1.919   2.962   1.552 -0.4818 -0.4779  0.1885
  707TMC3     O10456   2.027   2.914   1.573 -0.0388 -0.1268  0.4236
  707TMC3     H10457   2.013   2.958   1.791 -0.4752 -1.0707  1.4457
  707TMC3    H110458   1.647   3.028   1.567  1.2794  0.9103 -0.6975
  707TMC3    H210459   1.651   3.026   1.996  1.8414  3.3154  0.9496
  707TMC3    C710460   1.488   3.039   1.761  0.4567  0.1838  0.6766
  707TMC3    C810461   1.892   2.954   2.038  0.3372  0.4048 -0.1107
  707TMC3    O110462   1.451   3.081   1.651  0.2896  0.2054  0.0174
  707TMC3    O210463   1.831   2.993   2.138  0.2096 -0.3404 -0.2447
  708MPD2     C10464   3.001   2.207  13.852  0.3848 -0.4373 -0.1511
  708MPD2    C110465   3.017   2.080  13.818  0.1234  0.1390  0.0766
  708MPD2    C210466   3.125   2.008  13.861 -0.2687 -0.9190 -0.0638
  708MPD2    C310467   3.219   2.064  13.949 -1.1178 -0.9482 -0.2061
  708MPD2    C410468   3.208   2.199  13.968  0.4065 -0.2716  0.1972
  708MPD2    C510469   3.105   2.267  13.912 -0.6738 -0.3871  0.0744
  708MPD2     H10470   3.131   1.908  13.819 -1.3656 -0.8053 -0.4853
  708MPD2    H110471   3.287   2.259  14.011  0.7823 -2.6419  2.8088
  708MPD2    H210472   2.930   2.273  13.804  0.4959 -0.0758  0.1756
  708MPD2    H310473   3.087   2.372  13.931  1.7062 -0.1913  1.2219
  708MPD2     N10474   3.328   1.997  14.007  0.2510  0.3254  0.4883
  708MPD2    H510475   3.378   2.045  14.081  2.5356  0.7081 -1.2811
  708MPD2    N110476   2.915   2.006  13.750 -0.0715 -0.0483  0.1818
  708MPD2    H710477   2.939   1.910  13.728 -0.5939  0.6586 -3.5088
  709TMC3    C110478   2.703   1.929  13.695 -0.2661  0.1427 -0.4916
  709TMC3    C210479   2.621   1.925  13.588  0.0151  0.4240  0.1247
  709TMC3    C310480   2.552   1.808  13.569 -0.2060  0.2770  0.2838
  709TMC3    C410481   2.721   1.824  13.778  0.6105  0.5803  0.1426
  709TMC3    C510482   2.652   1.700  13.753  0.0124  0.2564  0.2719
  709TMC3    C610483   2.556   1.698  13.653  0.4437 -0.3553 -0.0617
  709TMC3     C10484   2.787   2.043  13.709  0.0592  0.2691  0.5816
  709TMC3     O10485   2.744   2.156  13.694  0.3643 -0.0368  0.4880
  709TMC3     H10486   2.624   2.003  13.513 -0.2264  0.5111  0.2052
  709TMC3    H110487   2.777   1.839  13.869  1.5308  1.6207 -0.6024
  709TMC3    H210488   2.522   1.599  13.623  0.9953 -0.2560 -1.0245
  709TMC3    C710489   2.697   1.581  13.828 -0.6119 -0.4357 -0.2117
  709TMC3    C810490   2.457   1.803  13.464  0.3703  0.2717 -0.5930
  709TMC3    O110491   2.623   1.481  13.833  0.1139  0.5116  0.0380
  709TMC3    O210492   2.365   1.723  13.478  1.0855  0.3919 -0.2647
  710TMC3    C110493   3.938   3.652   0.857 -0.3106  0.4163  0.5587
  710TMC3    C210494   4.018   3.672   0.742  0.0646  0.1131  0.1404
  710TMC3    C310495   4.142   3.615   0.736  0.0862  0.0052 -0.1064
  710TMC3    C410496   3.969   3.561   0.950 -0.0103 -0.1598  0.0358
  710TMC3    C510497   4.097   3.511   0.945 -0.7127  0.2381 -0.5657
  710TMC3    C610498   4.184   3.540   0.841 -0.2006  0.1636  0.0699
  710TMC3     C10499   3.798   3.681   0.828  0.8692  0.9021 -0.1124
  710TMC3     O10500   3.769   3.700   0.709 -0.3499  0.1235  0.2192
  710TMC3     H10501   3.996   3.755   0.676 -2.1593  1.3400  2.4119
  710TMC3    H110502   3.898   3.529   1.027  2.3393 -0.7075  1.9817
  710TMC3    H210503   4.283   3.497   0.843 -0.0091  0.4174 -3.3424
  710TMC3    C710504   4.139   3.444   1.070 -0.4595 -0.4340  0.1712
  710TMC3    C810505   4.209   3.580   0.613  0.1963  0.1432 -0.4360
  710TMC3    O110506   4.071   3.464   1.169  0.2065  0.6418  0.5628
  710TMC3    O210507   4.324   3.543   0.611 -0.5019 -0.0237 -0.4531
  711TMC3    C110508   3.927   4.440  15.438 -0.1000  0.0783 -0.1520
  711TMC3    C210509   4.007   4.513  15.524 -0.3791 -1.2059  0.2091
  711TMC3    C310510   4.139   4.501  15.503 -0.2112 -1.0099 -0.8482
  711TMC3    C410511   3.974   4.360  15.343 -0.6760  0.5654 -0.2064
  711TMC3    C510512   4.105   4.337  15.340  0.2303  0.2324 -0.4623
  711TMC3    C610513   4.191   4.416  15.413 -0.0453  0.1628 -0.3394
  711TMC3     C10514   3.799   4.403  15.491  0.0921 -0.0144 -0.6035
  711TMC3     O10515   3.711   4.383  15.410 -0.3256  0.1762  0.0965
  711TMC3     H10516   3.965   4.568  15.608  2.6885 -0.3518  1.1677
  711TMC3    H110517   3.898   4.309  15.286 -0.3502 -0.0512 -0.0835
  711TMC3    H210518   4.296   4.402  15.389  0.0495 -1.0601  0.8295
  711TMC3    C710519   4.148   4.191  15.349 -0.3284 -0.9036 -0.6602
  711TMC3    C810520   4.234   4.576  15.580 -0.0445 -0.1356 -0.4203
  711TMC3    O110521   4.238   4.169  15.431  0.0419  0.4519 -0.0775
  711TMC3    O210522   4.194   4.686  15.606  0.1957  0.2669  0.1051
  712MPD2     C10523   0.808   0.764  13.675  0.2105 -0.2641  0.1066
  712MPD2    C110524   0.729   0.726  13.564 -0.1905 -0.8909 -0.0594
  712MPD2    C210525   0.748   0.798  13.451 -0.5453  0.7186  0.3754
  712MPD2    C310526   0.837   0.903  13.443  0.2813 -0.0402  0.2150
  712MPD2    C410527   0.913   0.932  13.552 -0.4021  0.3364 -1.1334
  712MPD2    C510528   0.908   0.860  13.664 -0.3146  0.4963  0.4290
  712MPD2     H10529   0.684   0.773  13.368 -1.2562  0.8028  0.8996
  712MPD2    H110530   0.977   1.019  13.542 -0.1051  0.1374 -1.0020
  712MPD2    H210531   0.803   0.727  13.776  0.4795  0.2022  0.2874
  712MPD2    H310532   0.961   0.887  13.755  0.2405 -1.1796  0.6000
  712MPD2     N10533   0.859   0.992  13.327  0.0395  0.1942  0.3847
  712MPD2    H510534   0.924   1.068  13.343 -0.7099  1.2280 -1.3783
  712MPD2    N110535   0.643   0.616  13.562  0.5385 -0.3569 -0.1063
  712MPD2    H710536   0.592   0.611  13.475  1.8538 -0.3158 -0.8753
  713TMC3    C110537   0.820   1.104  13.137  0.2870 -0.1046 -0.1708
  713TMC3    C210538   0.956   1.106  13.108 -0.5831 -0.4280  0.1850
  713TMC3    C310539   0.998   1.208  13.027 -0.2262 -0.6728 -0.0244
  713TMC3    C410540   0.738   1.209  13.094  0.0021 -0.9111  0.9573
  713TMC3    C510541   0.786   1.311  13.021 -0.5759  0.3280 -0.9549
  713TMC3    C610542   0.919   1.313  12.987  0.1466 -0.2650 -0.0600
  713TMC3     C10543   0.778   0.999  13.218 -0.6584  0.2055 -0.0086
  713TMC3     O10544   0.675   0.937  13.189  0.7252 -0.2645  0.3208
  713TMC3     H10545   1.018   1.019  13.126  0.3346  0.0256 -0.7550
  713TMC3    H110546   0.640   1.219  13.140 -0.6249  1.3880 -0.8892
  713TMC3    H210547   0.959   1.403  12.943  0.0105 -0.7414 -1.1775
  713TMC3    C710548   0.698   1.431  12.992 -0.2376  0.5978  0.2911
  713TMC3    C810549   1.131   1.234  13.020 -0.2231  0.3938 -0.2549
  713TMC3    O110550   0.748   1.513  12.921  0.4030 -0.5623 -0.2981
  713TMC3    O210551   1.168   1.314  12.937 -0.0967  0.1162  0.3574
  714MPD2     C10552   1.943   4.031   1.627 -0.4058 -0.0012  0.3746
  714MPD2    C110553   2.045   4.024   1.534 -0.2001 -0.4974 -0.1458
  714MPD2    C210554   2.007   4.031   1.402 -0.4555 -0.3634  0.3025
  714MPD2    C310555   1.872   4.046   1.358  0.7423 -0.6872 -0.0721
  714MPD2    C410556   1.774   4.068   1.460 -0.3002  0.3553 -0.1904
  714MPD2    C510557   1.814   4.054   1.590  0.3992 -0.0543 -0.6840
  714MPD2     H10558   2.080   4.035   1.322  0.7348 -2.9810  1.2394
  714MPD2    H110559   1.669   4.080   1.435  0.3520  2.1488 -2.0287
  714MPD2    H210560   1.971   4.015   1.730 -1.3939 -0.3722  0.5890
  714MPD2    H310561   1.735   4.040   1.664  0.8476 -0.1747 -0.2260
  714MPD2     N10562   1.839   4.084   1.225 -0.0838  0.1406  0.4234
  714MPD2    H510563   1.916   4.082   1.160  0.7659  0.4313  1.4291
  714MPD2    N110564   2.178   4.007   1.580  0.3508  0.3346  0.1625
  714MPD2    H710565   2.202   4.029   1.676 -1.8196 -1.6790  1.1752
  715TMC3    C110566   2.404   3.979   1.592 -0.6828  0.1401 -0.4583
  715TMC3    C210567   2.514   3.901   1.557  0.2510 -0.5923 -0.4623
  715TMC3    C310568   2.639   3.939   1.598  0.2240  0.2490  0.2884
  715TMC3    C410569   2.419   4.088   1.674  0.0890  0.3774 -0.3991
  715TMC3    C510570   2.542   4.117   1.714  0.1548  0.5095  0.3218
  715TMC3    C610571   2.646   4.035   1.696  0.0480 -0.7499 -0.2119
  715TMC3     C10572   2.289   3.984   1.504 -0.0307  1.0062  0.6549
  715TMC3     O10573   2.290   3.936   1.390 -0.0927 -0.0453 -0.5576
  715TMC3     H10574   2.508   3.830   1.476  0.3827 -1.0627 -0.0607
  715TMC3    H110575   2.334   4.156   1.677 -0.6804 -0.7339  3.7802
  715TMC3    H210576   2.736   4.076   1.743 -0.4715 -0.5787  0.6392
  715TMC3    C710577   2.571   4.232   1.794  0.5287 -0.3230 -0.3295
  715TMC3    C810578   2.763   3.868   1.550  0.0183 -0.0903  0.2004
  715TMC3    O110579   2.681   4.285   1.774 -0.2908 -0.1540  0.1885
  715TMC3    O210580   2.750   3.789   1.456  0.0155  0.4192  0.7351
  716MPD2     C10581   3.296   0.797  10.093  0.1297 -0.9208 -0.3661
  716MPD2    C110582   3.265   0.903  10.010  0.1751  0.5261 -1.1435
  716MPD2    C210583   3.154   0.881   9.925  0.1713  0.0491  0.4461
  716MPD2    C310584   3.081   0.769   9.923 -0.1566 -0.6308 -0.7440
  716MPD2    C410585   3.122   0.662  10.002  0.3998 -0.3526 -0.1310
  716MPD2    C510586   3.225   0.678  10.087 -0.3988 -0.2613 -0.8185
  716MPD2     H10587   3.121   0.960   9.859 -0.4099  0.3268  1.0635
  716MPD2    H110588   3.078   0.563  10.000  1.0670 -0.6529 -0.0665
  716MPD2    H210589   3.383   0.809  10.156 -0.3001  2.1923 -0.3686
  716MPD2    H310590   3.265   0.597  10.147  0.9604  1.2965  0.3965
  716MPD2     N10591   2.975   0.763   9.827 -0.3876  0.0694  0.0209
  716MPD2    H510592   2.958   0.847   9.773 -0.7555 -0.9182 -1.3761
  716MPD2    N110593   3.346   1.020  10.010 -0.5120 -0.7578 -0.3377
  716MPD2    H710594   3.415   1.028  10.083 -0.6404  0.9659 -0.4159
  717TMC3    C110595   2.811   0.676   9.686 -0.2572 -0.6369  0.6181
  717TMC3    C210596   2.776   0.801   9.645  0.0028 -0.7727 -0.2880
  717TMC3    C310597   2.674   0.806   9.555  0.4630 -0.7438 -0.2517
  717TMC3    C410598   2.763   0.565   9.624 -0.2282 -0.7392 -0.1929
  717TMC3    C510599   2.676   0.580   9.519  0.3732  1.0397  0.4889
  717TMC3    C610600   2.627   0.702   9.489 -0.2473  0.0401  0.0495
  717TMC3     C10601   2.906   0.656   9.799 -0.4338 -0.1763 -0.0345
  717TMC3     O10602   2.923   0.539   9.830 -0.2477  0.4467 -0.0767
  717TMC3     H10603   2.813   0.889   9.698 -0.9898 -2.7502  3.6451
  717TMC3    H110604   2.806   0.474   9.664 -0.4554 -1.2888 -1.1950
  717TMC3    H210605   2.560   0.714   9.405  0.9520  2.6688 -0.5372
  717TMC3    C710606   2.595   0.471   9.466  0.0546  0.3575  0.0643
  717TMC3    C810607   2.609   0.939   9.540 -0.5248  0.2642  0.2977
  717TMC3    O110608   2.516   0.502   9.384 -0.3726 -0.2334  0.1148
  717TMC3    O210609   2.655   1.029   9.608  0.1958 -0.4505 -0.1248
  718MPD2     C10610   2.671   1.032  13.171 -0.1739  0.2339  0.7263
  718MPD2    C110611   2.719   0.924  13.096 -0.2404 -0.1060  0.2988
  718MPD2    C210612   2.661   0.803  13.134 -0.0586 -0.0544 -0.1695
  718MPD2    C310613   2.576   0.786  13.242 -0.2737  0.7151  0.1154
  718MPD2    C410614   2.533   0.895  13.309 -1.0292  1.1509  0.0103
  718MPD2    C510615   2.575   1.017  13.272  0.0053 -0.3075  0.2191
  718MPD2     H10616   2.691   0.712  13.083  0.2191 -1.0570  1.7991
  718MPD2    H110617   2.486   0.890  13.407  2.6410  1.3630  1.7576
  718MPD2    H210618   2.693   1.138  13.161  0.2413  0.0943  0.0898
  718MPD2    H310619   2.541   1.103  13.327  0.8157  0.8754 -1.1223
  718MPD2     N10620   2.520   0.664  13.260  0.4132 -0.4904 -0.2270
  718MPD2    H510621   2.544   0.594  13.190  0.5464 -1.7540  1.0847
  718MPD2    N110622   2.801   0.938  12.977  0.7612  0.1098  0.1081
  718MPD2    H710623   2.835   1.033  12.972 -0.4369  0.6089  1.3316
  719TMC3    C110624   2.872   0.905  12.755 -0.1378  0.1540  0.2460
  719TMC3    C210625   2.923   0.804  12.684 -0.5152  0.0790  0.4512
  719TMC3    C310626   2.886   0.791  12.556  0.0424  0.3078  0.4191
  719TMC3    C410627   2.795   0.998  12.695  0.0247 -0.0189  0.2524
  719TMC3    C510628   2.768   0.990  12.558 -0.4049  0.8907  0.2682
  719TMC3    C610629   2.816   0.886  12.486 -0.1907 -0.1010  0.0778
  719TMC3     C10630   2.824   0.853  12.877  1.0042 -0.0770  0.2527
  719TMC3     O10631   2.767   0.746  12.865 -0.1085  0.5570 -0.3738
  719TMC3     H10632   2.965   0.721  12.740 -0.7489  0.1531  0.7407
  719TMC3    H110633   2.762   1.080  12.758  2.5713  0.8306  0.4545
  719TMC3    H210634   2.755   0.860  12.400  0.0964  0.8846 -0.4232
  719TMC3    C710635   2.682   1.085  12.496 -0.1165 -0.2365  0.0573
  719TMC3    C810636   2.828   0.665  12.530 -0.6783 -0.1688 -0.0872
  719TMC3    O110637   2.669   1.092  12.376  0.1679 -0.0235 -0.1577
  719TMC3    O210638   2.812   0.633  12.411 -0.0154  0.3057  0.3732
  720MPD2     C10639   0.380   2.350  14.051 -0.2746 -0.1766 -0.4158
  720MPD2    C110640   0.466   2.442  14.000 -0.5571 -0.4719  0.1128
  720MPD2    C210641   0.562   2.492  14.077 -0.3707  0.6985  0.2173
  720MPD2    C310642   0.583   2.438  14.205 -0.2241 -0.3110 -0.5613
  720MPD2    C410643   0.494   2.344  14.260 -0.8237  0.9685 -0.2664
  720MPD2    C510644   0.388   2.301  14.177 -1.2869  0.2567 -0.0579
  720MPD2     H10645   0.627   2.565  14.031  0.2535 -1.8080 -2.8762
  720MPD2    H110646   0.501   2.308  14.362 -2.4264  3.4862  0.7399
  720MPD2    H210647   0.295   2.308  13.997  0.3020 -1.1402 -0.5660
  720MPD2    H310648   0.324   2.228  14.226 -0.6197  0.2445  0.7953
  720MPD2     N10649   0.690   2.499  14.282  0.3889  1.2161 -0.1845
  720MPD2    H510650   0.745   2.561  14.225  1.6021  1.8212  1.6524
  720MPD2    N110651   0.463   2.466  13.860  0.4301 -0.2298  0.4864
  720MPD2    H710652   0.515   2.543  13.820  1.4927 -0.1968  1.9472
  721TMC3    C110653   0.857   2.473  14.438  0.5664 -0.3524 -0.2141
  721TMC3    C210654   0.894   2.476  14.572  0.0198  0.3342  0.2868
  721TMC3    C310655   1.024   2.469  14.600  0.7771 -0.1642 -0.3731
  721TMC3    C410656   0.945   2.468  14.328 -0.0379  0.1479 -1.0008
  721TMC3    C510657   1.078   2.475  14.370 -0.1782  0.2614  0.4208
  721TMC3    C610658   1.117   2.477  14.508  1.0162  0.0651  0.1312
  721TMC3     C10659   0.714   2.460  14.415 -0.5197 -0.2859  0.0510
  721TMC3     O10660   0.630   2.426  14.500 -0.1962 -0.3266 -0.5723
  721TMC3     H10661   0.815   2.462  14.646  0.6801  0.1609  0.9602
  721TMC3    H110662   0.922   2.449  14.224 -1.0240  1.5729 -1.0437
  721TMC3    H210663   1.222   2.482  14.537  1.0293 -0.8394  0.2161
  721TMC3    C710664   1.187   2.414  14.292  0.8114  0.2876 -0.2601
  721TMC3    C810665   1.066   2.380  14.702 -0.1426  0.2010 -0.2555
  721TMC3    O110666   1.207   2.462  14.182 -0.3144  0.1684  0.3606
  721TMC3    O210667   1.165   2.311  14.679 -0.1040 -0.2384  0.1760
  722MPD2     C10668   4.262   1.104  13.194  0.1368 -0.6114 -0.2211
  722MPD2    C110669   4.208   1.222  13.224 -0.6387  0.5398  0.3160
  722MPD2    C210670   4.061   1.225  13.241 -0.1892  0.4089 -0.4148
  722MPD2    C310671   3.987   1.114  13.208  0.6612 -0.0405 -0.1592
  722MPD2    C410672   4.053   1.007  13.163 -0.8282  0.4099  0.1606
  722MPD2    C510673   4.185   1.000  13.169 -0.1111 -0.2690  0.0952
  722MPD2     H10674   4.011   1.306  13.292 -3.2875  0.4503 -3.5358
  722MPD2    H110675   3.994   0.923  13.128 -0.1401 -0.4924  1.1613
  722MPD2    H210676   4.369   1.091  13.182  0.3732 -0.1311  1.2599
  722MPD2    H310677   4.238   0.907  13.149 -1.4508 -0.7042 -1.4470
  722MPD2     N10678   3.848   1.119  13.217 -0.0459 -0.8582 -0.5760
  722MPD2    H510679   3.818   1.204  13.262 -2.0567 -0.8205 -1.9724
  722MPD2    N110680   4.283   1.339  13.237 -0.0491 -0.9120 -0.0970
  722MPD2    H710681   4.231   1.423  13.257  2.0167  0.4704 -0.5568
  723TMC3    C110682   3.630   1.056  13.256  0.3136 -0.2431 -0.8630
  723TMC3    C210683   3.557   0.951  13.308  0.2512  0.6406 -0.1528
  723TMC3    C310684   3.433   0.982  13.362 -0.1941  0.0078  0.4457
  723TMC3    C410685   3.573   1.183  13.240  0.3824  0.0131  0.0967
  723TMC3    C510686   3.444   1.203  13.290 -0.1334  0.2792  0.4087
  723TMC3    C610687   3.377   1.106  13.364 -0.4214  0.4059 -0.7797
  723TMC3     C10688   3.755   1.027  13.195  0.3348  0.3138 -0.3251
  723TMC3     O10689   3.778   0.912  13.158 -0.5668  0.0686  0.0695
  723TMC3     H10690   3.600   0.853  13.320  0.8235  0.9236  0.0959
  723TMC3    H110691   3.611   1.260  13.174  0.9468 -0.2048  0.1638
  723TMC3    H210692   3.270   1.114  13.375 -0.3618  1.3401 -0.8562
  723TMC3    C710693   3.363   1.304  13.223 -0.3846  0.0750  0.7316
  723TMC3    C810694   3.344   0.876  13.395 -0.3645 -0.4878 -0.0071
  723TMC3    O110695   3.358   1.300  13.099  0.1663 -0.1562  0.5833
  723TMC3    O210696   3.257   0.910  13.473  0.4264 -1.2209  0.2792
  724TMC3    C110697   4.380   4.199   9.461  0.6368 -0.3712 -0.7418
  724TMC3    C210698   4.394   4.188   9.597 -0.4227  1.0009  0.4015
  724TMC3    C310699   4.306   4.110   9.663 -0.4267 -0.4497 -1.0829
  724TMC3    C410700   4.294   4.116   9.391  0.1155  0.2685  0.2153
  724TMC3    C510701   4.214   4.032   9.465 -0.1400 -1.1546 -0.6506
  724TMC3    C610702   4.216   4.027   9.601  0.4880  0.7732  0.1692
  724TMC3     C10703   4.441   4.314   9.395 -0.9048 -0.0606  0.2083
  724TMC3     O10704   4.546   4.361   9.437 -0.1259  0.1534 -0.1342
  724TMC3     H10705   4.443   4.269   9.649  0.6617 -1.3436  3.0451
  724TMC3    H110706   4.320   4.102   9.287 -0.2362 -0.8492  0.2778
  724TMC3    H210707   4.163   3.958   9.666  5.9400 -0.7299  3.0222
  724TMC3    C710708   4.137   3.926   9.396  0.0886  0.5877  0.0681
  724TMC3    C810709   4.293   4.093   9.815 -0.2386  0.5193  0.4953
  724TMC3    O110710   4.115   3.825   9.463 -0.9220  0.9641  0.3222
  724TMC3    O210711   4.186   4.059   9.868 -0.1707 -0.0497 -0.2885
  725TMC3    C110712   0.824   2.242  12.439  0.1908 -0.0381 -0.5802
  725TMC3    C210713   0.761   2.271  12.326 -0.6139 -0.5343  0.2897
  725TMC3    C310714   0.806   2.204  12.216  0.4947  0.0139  0.2588
  725TMC3    C410715   0.925   2.151  12.448 -0.5790  0.5460 -0.7672
  725TMC3    C510716   0.969   2.098  12.335  0.1369 -0.3156 -0.1266
  725TMC3    C610717   0.905   2.109  12.214  0.7337 -0.1313 -0.1451
  725TMC3     C10718   0.784   2.330  12.554 -0.1156 -0.5816 -0.2976
  725TMC3     O10719   0.712   2.428  12.527 -0.7172  0.8289 -0.0171
  725TMC3     H10720   0.668   2.325  12.321  0.9462  2.1164 -0.2557
  725TMC3    H110721   0.972   2.126  12.543 -0.9895  0.3640 -0.6100
  725TMC3    H210722   0.918   2.050  12.125 -1.4982 -0.6295 -0.1520
  725TMC3    C710723   1.102   2.046  12.321  0.4443  0.0934 -0.6185
  725TMC3    C810724   0.761   2.246  12.085 -0.2245 -0.1812  0.3739
  725TMC3    O110725   1.136   2.051  12.201 -0.2668  0.2043  0.8144
  725TMC3    O210726   0.758   2.169  11.988  0.4092  0.9182 -0.4062
  726MPD2     C10727   3.800   4.306  10.590  0.8568 -0.5036 -0.3549
  726MPD2    C110728   3.751   4.263  10.463  0.1160 -0.8290 -0.5097
  726MPD2    C210729   3.750   4.123  10.439 -0.1655 -0.6039 -0.0092
  726MPD2    C310730   3.778   4.033  10.539 -0.2326  0.0710 -0.6142
  726MPD2    C410731   3.805   4.080  10.664  0.3570 -0.6042 -0.0865
  726MPD2    C510732   3.810   4.213  10.690  0.0480  0.3478 -0.8597
  726MPD2     H10733   3.691   4.099  10.352 -0.6405  0.2039  0.0876
  726MPD2    H110734   3.818   4.005  10.741 -0.7831 -0.9915 -0.2673
  726MPD2    H210735   3.796   4.412  10.613  0.9261 -0.4234 -0.7008
  726MPD2    H310736   3.815   4.244  10.794  0.3015 -1.9009 -0.2110
  726MPD2     N10737   3.739   3.900  10.525  0.4522  0.2353  0.0981
  726MPD2    H510738   3.723   3.842  10.608 -1.2495 -0.2500 -0.5536
  726MPD2    N110739   3.725   4.349  10.352  0.1022  0.4043 -0.0693
  726MPD2    H710740   3.703   4.296  10.268  0.2378  0.8319 -0.3726
  727TMC3    C110741   3.742   4.544  10.209  0.4148  0.9783  0.5360
  727TMC3    C210742   3.793   4.667  10.204 -0.4331  0.0453 -0.1728
  727TMC3    C310743   3.778   0.003  10.082  0.2114 -0.4103 -0.0534
  727TMC3    C410744   3.691   4.475  10.104  0.4350  0.2303  0.7317
  727TMC3    C510745   3.682   4.540   9.985 -0.6749  0.0321 -0.0226
  727TMC3    C610746   3.725   4.665   9.971  0.4370 -0.2370  0.4033
  727TMC3     C10747   3.759   4.487  10.343  0.2788 -0.3771 -0.2634
  727TMC3     O10748   3.802   4.554  10.431  0.2227  0.4787  0.2249
  727TMC3     H10749   3.822   4.715  10.297 -0.5952 -0.1519 -0.0209
  727TMC3    H110750   3.626   4.390  10.121  1.5805 -1.0563 -1.3041
  727TMC3    H210751   3.722   4.710   9.873  0.8197  0.6784  0.8183
  727TMC3    C710752   3.666   4.467   9.861 -0.5517 -0.0086 -1.2124
  727TMC3    C810753   3.843   0.134  10.069 -0.5658 -0.1313  0.0439
  727TMC3    O110754   3.619   4.520   9.765  0.0075  0.3026 -0.2605
  727TMC3    O210755   3.923   0.149  10.160  0.6451 -0.2424 -0.2201
  728TMC3    C110756   3.151   2.957  15.826  0.2008 -0.1743 -0.7150
  728TMC3    C210757   3.275   3.009  15.786 -0.6340 -0.2229  0.1219
  728TMC3    C310758   3.306   3.019  15.651 -0.0162  0.0210 -0.7170
  728TMC3    C410759   3.064   2.904  15.732  0.1143 -0.5963 -0.0247
  728TMC3    C510760   3.096   2.919  15.598  0.1213 -0.3572 -0.8783
  728TMC3    C610761   3.213   2.973  15.558  0.3012 -0.1294  0.0436
  728TMC3     C10762   3.131   2.928  15.965 -0.4433  0.7106 -0.1598
  728TMC3     O10763   3.221   2.963  16.037  0.2043 -0.1908 -0.2692
  728TMC3     H10764   3.345   3.042  15.861 -1.6138  0.5178  0.7040
  728TMC3    H110765   2.968   2.858  15.754 -0.7721  1.4455  0.4768
  728TMC3    H210766   3.249   2.975  15.455 -1.5892 -1.7716 -0.6686
  728TMC3    C710767   2.989   2.980  15.524  0.5646  0.0412 -0.6700
  728TMC3    C810768   3.440   3.053  15.611  0.5089  0.5702 -0.2533
  728TMC3    O110769   2.881   2.927  15.525 -0.3657  0.4498  0.0797
  728TMC3    O210770   3.489   2.993  15.517  0.1529  0.0940  0.5056
  729MPD2     C10771   0.013   4.311  16.376  0.4415 -0.0384 -0.1839
  729MPD2    C110772   0.107   4.328  16.469  0.7881  0.9312 -0.0568
  729MPD2    C210773   0.070   4.371  16.593  0.9715 -0.6069  0.3183
  729MPD2    C310774   4.661   4.377  16.628  0.1744 -0.0254  0.7530
  729MPD2    C410775   4.566   4.357  16.536  0.2972 -0.1660 -0.1546
  729MPD2    C510776   4.605   4.327  16.409  0.3762  0.0674 -1.3529
  729MPD2     H10777   0.148   4.382  16.668 -1.6711  0.5681  2.9216
  729MPD2    H110778   4.459   4.362  16.555  0.5379  1.3360  0.7659
  729MPD2    H210779   0.049   4.281  16.278 -1.8417 -1.0910 -0.7039
  729MPD2    H310780   4.530   4.313  16.332 -0.0246  0.7843 -1.0926
  729MPD2     N10781   4.623   4.398  16.763 -0.9144  1.0653  0.0472
  729MPD2    H510782   4.526   4.380  16.786 -0.8691 -2.4187 -2.5023
  729MPD2    N110783   0.238   4.292  16.430  0.0592  0.3248  0.7040
  729MPD2    H710784   0.235   4.249  16.338  1.8574 -0.5441  1.0440
  730TMC3    C110785   4.663   4.393  16.997 -0.5020  0.5379  0.6921
  730TMC3    C210786   4.670   4.255  16.994 -0.4551  0.3603  0.5935
  730TMC3    C310787   0.053   4.194  17.055  0.5403 -0.0137 -0.0696
  730TMC3    C410788   0.016   4.459  17.087 -0.0784  0.4343  0.2593
  730TMC3    C510789   0.120   4.396  17.143  0.4080 -0.0337  0.1811
  730TMC3    C610790   0.137   4.264  17.136 -0.3517 -1.4944  0.4520
  730TMC3     C10791   4.701   4.446  16.869  0.2371  0.3737  0.0006
  730TMC3     O10792   0.084   4.496  16.858  0.0623  0.6760 -0.7658
  730TMC3     H10793   4.611   4.208  16.916 -3.0610  2.5146  1.2413
  730TMC3    H110794   0.005   4.566  17.104  0.4510  0.1674  2.3079
  730TMC3    H210795   0.223   4.215  17.179  0.6572  1.4834  1.8259
  730TMC3    C710796   0.216   4.459  17.216 -0.0436  0.7324 -0.3438
  730TMC3    C810797   0.119   4.096  16.971  0.5145  0.5566 -0.6626
  730TMC3    O110798   0.333   4.436  17.185 -0.1693  0.4474 -0.0190
  730TMC3    O210799   0.043   4.029  16.904  0.4442  0.5455  0.0762
  731MPD2     C10800   0.503   1.993  12.361  0.5004 -0.1418 -0.7470
  731MPD2    C110801   0.617   1.927  12.350  0.1479 -0.3636 -0.5168
  731MPD2    C210802   0.695   1.895  12.463  1.0092 -0.3779 -0.1734
  731MPD2    C310803   0.652   1.939  12.585  0.4284 -0.0568 -0.3617
  731MPD2    C410804   0.531   2.006  12.591  0.2046  0.0467 -0.5225
  731MPD2    C510805   0.454   2.031  12.478  0.1155 -0.6981  0.0870
  731MPD2     H10806   0.783   1.833  12.448  0.2437 -1.3101 -0.8234
  731MPD2    H110807   0.484   2.023  12.687  0.6254  0.4116 -0.3813
  731MPD2    H210808   0.443   2.019  12.274 -0.9994  0.9696  0.6201
  731MPD2    H310809   0.356   2.078  12.477  0.1628 -0.6517 -4.0038
  731MPD2     N10810   0.733   1.907  12.702  0.6591  0.5291  0.1962
  731MPD2    H510811   0.818   1.857  12.680 -0.7904 -1.6206 -0.5825
  731MPD2    N110812   0.644   1.882  12.221  0.3533  0.0752  0.8791
  731MPD2    H710813   0.582   1.914  12.147 -1.0097 -0.4060  1.8079
  732TMC3    C110814   0.722   1.757  12.043 -0.1596 -0.0929  0.0861
  732TMC3    C210815   0.608   1.684  12.028 -0.0757  0.9930 -0.4888
  732TMC3    C310816   0.584   1.636  11.906 -0.1120  0.1023  0.1028
  732TMC3    C410817   0.815   1.768  11.941  0.3151  0.3331  0.6392
  732TMC3    C510818   0.789   1.702  11.820 -0.9210  0.0608 -0.1547
  732TMC3    C610819   0.671   1.636  11.805  0.3761 -0.3550 -0.3360
  732TMC3     C10820   0.751   1.806  12.180 -0.1555 -0.2121 -1.0400
  732TMC3     O10821   0.861   1.792  12.231 -0.0778 -0.4545  0.6135
  732TMC3     H10822   0.539   1.663  12.109  0.9734 -0.5124  0.0159
  732TMC3    H110823   0.894   1.843  11.946  0.5559  0.1246 -0.0091
  732TMC3    H210824   0.645   1.598  11.706  1.1111 -0.5833 -0.4443
  732TMC3    C710825   0.869   1.729  11.708 -0.1017  0.7802  0.1690
  732TMC3    C810826   0.457   1.561  11.881  0.0749  0.1449 -0.3656
  732TMC3    O110827   0.820   1.714  11.597 -0.4735  0.0274  0.0733
  732TMC3    O210828   0.459   1.472  11.799 -0.2967 -0.4819  0.1887
  733TMC3    C110829   2.200   0.468  13.156 -0.2288  0.0012  0.3402
  733TMC3    C210830   2.242   0.525  13.276 -0.2788 -0.5227  0.3536
  733TMC3    C310831   2.366   0.505  13.318  0.2598 -0.3559 -0.1250
  733TMC3    C410832   2.278   0.403  13.066 -0.5446  0.3228  0.3266
  733TMC3    C510833   2.401   0.366  13.119 -0.3510  0.5633  0.1242
  733TMC3    C610834   2.442   0.416  13.238  0.8216  0.0213  0.5846
  733TMC3     C10835   2.056   0.457  13.142 -0.1627  0.1018 -0.3196
  733TMC3     O10836   2.006   0.456  13.032  0.2236  0.1341  0.7703
  733TMC3     H10837   2.168   0.586  13.327  0.5227 -0.1521  1.0695
  733TMC3    H110838   2.222   0.341  12.997  0.0823 -0.2272  0.3156
  733TMC3    H210839   2.546   0.399  13.263  1.5788  1.9682 -1.3108
  733TMC3    C710840   2.504   0.380  13.020  0.3308  0.1355  0.3435
  733TMC3    C810841   2.422   0.629  13.347 -0.4172  0.7881 -0.1905
  733TMC3    O110842   2.604   0.436  13.058  0.1049  0.3522 -0.2382
  733TMC3    O210843   2.352   0.709  13.411 -0.5340 -0.2739 -0.4807
  734MPD2     C10844   3.308   2.653  12.865  0.3293  0.2047  0.5010
  734MPD2    C110845   3.284   2.604  12.738  0.4714  0.0163 -0.0544
  734MPD2    C210846   3.320   2.673  12.621 -0.5718  0.8292  0.7559
  734MPD2    C310847   3.368   2.798  12.635 -0.0156  0.9158 -0.3200
  734MPD2    C410848   3.387   2.857  12.762 -0.5667  0.3036 -0.2302
  734MPD2    C510849   3.360   2.784  12.876 -0.2086  0.3869  0.7318
  734MPD2     H10850   3.319   2.625  12.524  0.3721 -0.2117  1.2597
  734MPD2    H110851   3.428   2.956  12.776 -2.5971  1.1168 -0.0631
  734MPD2    H210852   3.297   2.588  12.951 -1.0683  1.1770  1.0556
  734MPD2    H310853   3.375   2.825  12.975 -0.4238 -3.3852  2.3233
  734MPD2     N10854   3.394   2.870  12.520  0.0409 -0.4022  0.1726
  734MPD2    H510855   3.394   2.805  12.442 -0.1781 -1.6564  1.2229
  734MPD2    N110856   3.227   2.474  12.731 -0.1249  0.1482  0.0060
  734MPD2    H710857   3.205   2.414  12.809 -0.6215  0.6155  0.2245
  735TMC3    C110858   3.143   2.280  12.611  0.2021 -0.6747  0.2666
  735TMC3    C210859   3.067   2.259  12.504 -1.0023  0.1125  0.0845
  735TMC3    C310860   3.095   2.155  12.415  0.6545  0.8098  0.0973
  735TMC3    C410861   3.235   2.187  12.655  0.8540 -0.6873  1.4025
  735TMC3    C510862   3.248   2.074  12.576 -0.0892 -0.0639  0.1335
  735TMC3    C610863   3.180   2.055  12.458 -0.1181 -0.5744 -0.4524
  735TMC3     C10864   3.186   2.415  12.616  0.0277 -0.8084  0.5352
  735TMC3     O10865   3.165   2.475  12.509  0.3301  0.0808  0.2823
  735TMC3     H10866   3.003   2.335  12.461  0.3602  0.5492 -1.1625
  735TMC3    H110867   3.304   2.223  12.731  0.6152  1.6585  0.5218
  735TMC3    H210868   3.219   1.998  12.375 -0.7718 -1.3312 -0.2356
  735TMC3    C710869   3.377   2.010  12.587  0.5827 -0.3332 -0.1219
  735TMC3    C810870   3.130   2.198  12.280  0.3961 -0.2340  0.1384
  735TMC3    O110871   3.473   2.084  12.604  0.5885  0.2966  0.3500
  735TMC3    O210872   3.170   2.113  12.197 -0.0475 -0.0526  0.0927
  736MPD2     C10873   3.479   1.674  12.503  0.0929  0.2968 -0.3707
  736MPD2    C110874   3.484   1.808  12.495  0.4320 -0.3038  0.2077
  736MPD2    C210875   3.591   1.874  12.444 -0.4192  0.0630 -0.5028
  736MPD2    C310876   3.703   1.806  12.388  0.6531 -0.0330 -0.1135
  736MPD2    C410877   3.697   1.668  12.407  0.1917 -0.2595  0.5973
  736MPD2    C510878   3.586   1.606  12.457  0.1137  0.2738  0.5950
  736MPD2     H10879   3.594   1.981  12.430  1.4449  0.0518 -0.1632
  736MPD2    H110880   3.792   1.624  12.379  0.0602  0.4416 -0.8957
  736MPD2    H210881   3.399   1.619  12.550  0.9628 -1.1872 -0.6045
  736MPD2    H310882   3.581   1.499  12.468 -0.4247  0.1553 -0.8409
  736MPD2     N10883   3.812   1.867  12.317 -0.2652 -0.0239 -0.0393
  736MPD2    H510884   3.883   1.805  12.279  0.6458  1.2676 -0.4251
  736MPD2    N110885   3.375   1.883  12.551 -0.0188  0.0060 -0.6348
  736MPD2    H710886   3.286   1.835  12.540  0.3524  0.0310 -3.8199
  737TMC3    C110887   3.928   2.025  12.182 -0.3138  0.5099 -0.6474
  737TMC3    C210888   3.922   2.157  12.135  0.0199 -0.5796  0.8407
  737TMC3    C310889   3.981   2.181  12.011 -0.8055 -0.1346 -0.0363
  737TMC3    C410890   3.979   1.921  12.105  0.2568  0.7243  0.5039
  737TMC3    C510891   4.043   1.957  11.987  0.3514 -0.6536 -0.2692
  737TMC3    C610892   4.038   2.084  11.940 -0.4103 -0.3020 -0.9684
  737TMC3     C10893   3.822   1.995  12.275 -0.2195  0.4910 -0.2409
  737TMC3     O10894   3.748   2.086  12.303  0.3548  0.0379 -0.2448
  737TMC3     H10895   3.879   2.237  12.194  0.2326  1.7231 -2.0892
  737TMC3    H110896   3.975   1.818  12.138 -2.4803  0.8038  0.4517
  737TMC3    H210897   4.102   2.117  11.859  0.4169 -0.5244 -0.4040
  737TMC3    C710898   4.116   1.856  11.922  0.0013 -0.5560  0.2270
  737TMC3    C810899   3.990   2.320  11.971  0.1763 -0.2398  0.1951
  737TMC3    O110900   4.108   1.743  11.966 -0.0813 -0.0127  0.2987
  737TMC3    O210901   3.946   2.402  12.051  0.2660 -0.1188 -0.0261
  738MPD2     C10902   4.523   1.635  15.310  0.5413  0.5396  0.0480
  738MPD2    C110903   4.506   1.523  15.226 -0.5063  0.2287  0.2935
  738MPD2    C210904   4.604   1.499  15.125 -0.4013  0.1294  0.8634
  738MPD2    C310905   0.002   1.561  15.135 -0.1416 -0.1383 -0.1407
  738MPD2    C410906   0.020   1.655  15.225 -0.1569  0.4556 -0.0193
  738MPD2    C510907   4.647   1.693  15.317 -0.3063 -0.2980  0.9142
  738MPD2     H10908   4.588   1.426  15.047 -2.1912  0.1805  1.1915
  738MPD2    H110909   0.111   1.714  15.225  0.1904 -0.0626  2.1149
  738MPD2    H210910   4.455   1.671  15.386  1.8149 -0.4118  1.6181
  738MPD2    H310911   4.662   1.770  15.392 -1.2649 -0.3504  1.1586
  738MPD2     N10912   0.090   1.543  15.030  0.2176 -0.2392 -0.2633
  738MPD2    H510913   0.174   1.598  15.044  0.5158 -0.2649 -1.9615
  738MPD2    N110914   4.381   1.448  15.216 -0.2083  0.3749 -0.2616
  738MPD2    H710915   4.383   1.375  15.146 -2.6612  0.4329 -0.4136
  739TMC3    C110916   0.194   1.494  14.825 -0.9024  0.5209 -0.1949
  739TMC3    C210917   0.176   1.500  14.692 -0.0060 -0.3548  0.1573
  739TMC3    C310918   0.288   1.498  14.618 -0.6322  0.3848 -0.0437
  739TMC3    C410919   0.317   1.511  14.884 -0.0512  0.1549  0.4056
  739TMC3    C510920   0.418   1.542  14.805 -1.0931 -0.9566  0.4737
  739TMC3    C610921   0.412   1.528  14.671  0.5018 -0.3319  0.2825
  739TMC3     C10922   0.074   1.483  14.904  0.1303  0.0891  0.3229
  739TMC3     O10923   4.706   1.420  14.848  0.2579 -0.4769  0.0545
  739TMC3     H10924   0.078   1.489  14.645  0.2309  1.4682 -0.7706
  739TMC3    H110925   0.327   1.489  14.990  1.4526  1.2602  0.4960
  739TMC3    H210926   0.495   1.536  14.601 -1.1078 -0.8245 -1.6778
  739TMC3    C710927   0.537   1.596  14.863 -0.6448 -0.3592  0.9595
  739TMC3    C810928   0.283   1.508  14.480 -0.0848  1.0416 -0.1146
  739TMC3    O110929   0.537   1.587  14.985  0.2980 -1.0252  0.2471
  739TMC3    O210930   0.192   1.579  14.442 -0.0346 -0.1561 -0.3133
  740TMC3    C110931   0.567   2.944  14.630 -0.4043  0.1404  0.0731
  740TMC3    C210932   0.588   2.889  14.753  0.2481 -0.4882  0.2518
  740TMC3    C310933   0.704   2.810  14.759 -0.7189  0.0899 -0.3187
  740TMC3    C410934   0.656   2.939  14.530 -0.0356  0.1518 -0.1606
  740TMC3    C510935   0.764   2.870  14.553 -0.5614 -0.2194  0.4160
  740TMC3    C610936   0.797   2.800  14.668  0.3365  0.5594  0.3497
  740TMC3     C10937   0.461   3.043  14.611  0.3569  0.0982 -0.0176
  740TMC3     O10938   0.455   3.113  14.513 -0.1643  0.0244 -0.2318
  740TMC3     H10939   0.526   2.900  14.841  0.2300 -1.5713  0.3818
  740TMC3    H110940   0.641   2.996  14.439  0.1302 -0.7164 -0.7313
  740TMC3    H210941   0.883   2.735  14.678 -1.8316 -2.1291  1.5257
  740TMC3    C710942   0.847   2.835  14.442 -0.5844  0.2037 -0.0687
  740TMC3    C810943   0.709   2.698  14.859  0.0586 -0.0858 -0.0992
  740TMC3    O110944   0.955   2.791  14.465  0.3142  0.0709  0.2645
  740TMC3    O210945   0.811   2.637  14.866 -0.1498  0.4831  0.0832
  741TMC3    C110946   0.617   2.024  14.791  0.1145  0.3134  0.1773
  741TMC3    C210947   0.495   1.987  14.739 -0.6670 -0.5380  0.1927
  741TMC3    C310948   0.409   1.937  14.828  0.2787  0.5285 -0.0507
  741TMC3    C410949   0.642   2.013  14.927  0.5573  0.1484  0.3109
  741TMC3    C510950   0.553   1.958  15.010 -0.1059  0.4191  0.0290
  741TMC3    C610951   0.427   1.927  14.963 -0.1325 -0.6774 -0.7707
  741TMC3     C10952   0.726   2.059  14.703 -0.4300  0.0558  0.0853
  741TMC3     O10953   0.832   2.095  14.751  0.1237 -0.2787  0.2790
  741TMC3     H10954   0.460   1.998  14.637  0.2606  0.2269 -0.0366
  741TMC3    H110955   0.743   2.029  14.962  0.2530 -0.0852  1.3146
  741TMC3    H210956   0.355   1.892  15.036 -0.2723 -1.6147 -1.3677
  741TMC3    C710957   0.580   1.984  15.149  0.2631 -0.0555 -0.3256
  741TMC3    C810958   0.293   1.870  14.776  0.4200  0.8322 -0.4176
  741TMC3    O110959   0.474   1.979  15.213  0.4053 -0.5268 -0.4972
  741TMC3    O210960   0.304   1.835  14.662  0.0650 -0.3562 -0.7621
  742TMC3    C110961   4.708   0.597  15.613 -0.2236  1.1029 -0.6577
  742TMC3    C210962   4.610   0.637  15.521 -0.5404  0.2045  0.5024
  742TMC3    C310963   4.645   0.743  15.439 -0.2924 -0.1076 -0.0129
  742TMC3    C410964   0.112   0.645  15.615  0.7237 -0.4567 -0.5816
  742TMC3    C510965   0.140   0.747  15.529  0.6790  0.2828  0.9466
  742TMC3    C610966   0.043   0.805  15.450  0.8098  0.5111 -0.2624
  742TMC3     C10967   4.668   0.505  15.721 -0.4261  0.5832 -0.3940
  742TMC3     O10968   0.026   0.478  15.807 -0.3062 -0.2603  0.6892
  742TMC3     H10969   4.506   0.605  15.519 -0.2140 -0.8785  1.2253
  742TMC3    H110970   0.183   0.599  15.683 -0.9923  0.2215  1.6501
  742TMC3    H210971   0.071   0.891  15.389 -1.2462  0.3709 -1.4193
  742TMC3    C710972   0.271   0.807  15.524 -0.1333 -0.3476 -0.2156
  742TMC3    C810973   4.564   0.781  15.327  0.0141 -0.1762  0.3282
  742TMC3    O110974   0.290   0.924  15.489 -0.0184 -0.0543  0.8769
  742TMC3    O210975   4.449   0.749  15.327  0.2734 -1.1209 -0.8832
  743MPD2     C10976   2.861   2.640   2.540  0.2634  0.6725  0.1155
  743MPD2    C110977   2.898   2.604   2.411  0.2088  0.9830 -0.3894
  743MPD2    C210978   3.029   2.631   2.367 -0.4127  0.0523  0.0816
  743MPD2    C310979   3.114   2.698   2.450 -0.0110  0.1671  0.7187
  743MPD2    C410980   3.076   2.733   2.577 -0.9505 -0.1792 -0.0627
  743MPD2    C510981   2.953   2.694   2.628  0.2924  0.2522 -0.2747
  743MPD2     H10982   3.069   2.589   2.276  0.1729 -1.2079  0.9192
  743MPD2    H110983   3.138   2.783   2.651 -2.5678 -1.3339  2.0972
  743MPD2    H210984   2.761   2.615   2.575  0.5494 -2.5603 -1.3475
  743MPD2    H310985   2.925   2.718   2.730 -1.2721 -0.7519 -0.4643
  743MPD2     N10986   3.239   2.719   2.397  0.1939 -0.2167  0.0528
  743MPD2    H510987   3.255   2.676   2.307 -2.0325 -0.3492 -0.2888
  743MPD2    N110988   2.797   2.539   2.330 -0.4891 -0.0630 -0.9783
  743MPD2    H710989   2.703   2.523   2.365 -1.7929  4.2218 -2.5259
  744TMC3    C110990   2.713   2.403   2.150  0.3394  1.1541  0.4757
  744TMC3    C210991   2.591   2.459   2.163  0.4154 -0.3062  0.2089
  744TMC3    C310992   2.486   2.417   2.093  0.3154 -0.8565 -0.0920
  744TMC3    C410993   2.734   2.304   2.059  0.2045 -0.1276 -0.1602
  744TMC3    C510994   2.626   2.258   1.986  0.7611  1.3128 -1.0420
  744TMC3    C610995   2.501   2.316   2.002  0.1820 -0.1638 -0.1838
  744TMC3     C10996   2.824   2.469   2.214  0.1504  0.1505  0.8433
  744TMC3     O10997   2.932   2.445   2.163 -0.1357  0.3017 -0.0086
  744TMC3     H10998   2.588   2.553   2.218 -2.7720  1.3989 -2.8806
  744TMC3    H110999   2.835   2.269   2.045  0.2774  0.0350 -0.0459
  744TMC3    H211000   2.416   2.294   1.939 -0.5867 -0.0939  0.8326
  744TMC3    C711001   2.656   2.165   1.882  0.2040 -0.2252 -0.0784
  744TMC3    C811002   2.360   2.491   2.096 -0.2734 -0.4082  0.0233
  744TMC3    O111003   2.774   2.143   1.859  0.3860 -0.0941 -0.0794
  744TMC3    O211004   2.290   2.491   1.996  0.0242 -0.5976  0.0111
  745TMC3    C111005   0.528   0.426  13.647 -0.1226 -0.4029  0.7448
  745TMC3    C211006   0.498   0.354  13.756  0.5379  0.2879 -0.0097
  745TMC3    C311007   0.458   0.226  13.737 -0.2654  0.2554 -0.3188
  745TMC3    C411008   0.531   0.371  13.523  0.1801 -0.3244 -0.2972
  745TMC3    C511009   0.497   0.238  13.504 -0.9068 -0.2223  0.3025
  745TMC3    C611010   0.447   0.171  13.613 -0.6982  0.5544  0.2995
  745TMC3     C11011   0.607   0.545  13.675  0.8350  0.1826  0.0189
  745TMC3     O11012   0.635   0.579  13.792  0.3952  0.0305  0.4381
  745TMC3     H11013   0.491   0.407  13.850  1.2021  0.1160  0.1347
  745TMC3    H111014   0.558   0.416  13.428  2.7194  1.8844  1.4768
  745TMC3    H211015   0.422   0.066  13.599 -1.0003  0.7389 -0.5606
  745TMC3    C711016   0.495   0.185  13.372  0.3066  0.0675 -0.3075
  745TMC3    C811017   0.498   0.136  13.837  0.2268 -0.4836 -0.4909
  745TMC3    O111018   0.418   0.086  13.345  0.3448 -0.2066  0.1050
  745TMC3    O211019   0.526   0.022  13.798 -0.2715  0.8773  0.3444
  746TMC3    C111020   2.445   1.976  10.724  0.3059 -0.1349  0.6020
  746TMC3    C211021   2.513   1.909  10.623  0.5515 -0.3411 -0.2828
  746TMC3    C311022   2.486   1.773  10.619 -0.0262 -0.8127  0.1052
  746TMC3    C411023   2.355   1.917  10.808  0.1580  0.0260  0.1802
  746TMC3    C511024   2.323   1.784  10.783 -0.1233 -0.9877  0.0704
  746TMC3    C611025   2.390   1.714  10.688 -0.0012 -0.1474  0.5458
  746TMC3     C11026   2.433   2.122  10.715 -0.4325 -0.2464 -0.1920
  746TMC3     O11027   2.396   2.184  10.817  0.2684  0.3677  0.0249
  746TMC3     H11028   2.583   1.962  10.560 -1.4882 -0.2860 -2.5274
  746TMC3    H111029   2.315   1.978  10.887 -0.6541 -0.8019  0.4142
  746TMC3    H211030   2.366   1.611  10.663  0.6070 -0.5458  1.6411
  746TMC3    C711031   2.235   1.707  10.872 -0.4362  0.5967 -0.2910
  746TMC3    C811032   2.555   1.700  10.517  0.0276  0.0607 -0.5677
  746TMC3    O111033   2.229   1.746  10.989 -0.4163  0.2439 -0.2570
  746TMC3    O211034   2.567   1.580  10.535  0.2625 -0.0042 -0.0275
  747TMC3    C111035   0.036   1.989  11.119  0.5325  0.5970 -1.0395
  747TMC3    C211036   4.720   1.884  11.198 -0.2195  0.7180  0.1052
  747TMC3    C311037   4.716   1.905  11.334  0.0799 -0.3829 -0.0930
  747TMC3    C411038   0.072   2.115  11.174  0.3058 -0.4058 -0.7072
  747TMC3    C511039   0.090   2.117  11.309 -0.4247  0.0416 -0.1539
  747TMC3    C611040   0.045   2.015  11.392 -0.1178 -0.6889  0.4853
  747TMC3     C11041   0.016   1.976  10.977 -0.3613 -0.1003  0.0024
  747TMC3     O11042   0.001   2.080  10.916 -0.6325  0.2691  0.0363
  747TMC3     H11043   4.676   1.795  11.156  1.6583 -0.5635  0.8304
  747TMC3    H111044   0.104   2.196  11.108  0.1301  0.6937  0.5538
  747TMC3    H211045   0.078   2.008  11.495  0.9952 -1.8686  0.0463
  747TMC3    C711046   0.176   2.210  11.371 -0.0895  0.0890 -0.1678
  747TMC3    C811047   4.637   1.813  11.416  0.8604  0.1162  0.1552
  747TMC3    O111048   0.172   2.220  11.495  0.1587  0.9865 -0.0615
  747TMC3    O211049   4.620   1.703  11.361  0.0690  0.3893  0.1715
  748MPD2     C11050   1.288   3.434   1.730  0.0585  0.2898 -0.1901
  748MPD2    C111051   1.369   3.425   1.844 -0.2826 -0.0095 -0.5016
  748MPD2    C211052   1.507   3.416   1.824 -0.4605 -0.9998  0.4220
  748MPD2    C311053   1.557   3.423   1.699 -0.6389  0.6927  0.6133
  748MPD2    C411054   1.480   3.455   1.590  0.0940  0.2040  0.0904
  748MPD2    C511055   1.344   3.454   1.607  0.1299 -0.0313  0.3176
  748MPD2     H11056   1.576   3.407   1.907 -0.0406  0.3225  0.2108
  748MPD2    H111057   1.505   3.470   1.486 -0.7354  0.4583 -0.0778
  748MPD2    H211058   1.180   3.423   1.731  0.0502  0.2538 -2.8216
  748MPD2    H311059   1.277   3.443   1.522  0.4593  2.4623 -0.2641
  748MPD2     N11060   1.698   3.391   1.687  0.2036  0.0662  0.5570
  748MPD2    H511061   1.746   3.405   1.775  0.7763  1.0809  0.0794
  748MPD2    N111062   1.303   3.410   1.967 -0.4964 -0.1089  0.6349
  748MPD2    H711063   1.201   3.408   1.968 -0.4811 -1.0754 -0.9774
  749TMC3    C111064   1.899   3.319   1.598  0.4063 -0.3323 -0.5576
  749TMC3    C211065   1.952   3.304   1.723  0.0707 -0.4519  0.3651
  749TMC3    C311066   2.080   3.261   1.737 -0.0676 -0.1639  0.5751
  749TMC3    C411067   1.976   3.302   1.488  0.0879  0.4046 -0.4130
  749TMC3    C511068   2.105   3.250   1.500 -0.2871 -0.3323  0.1708
  749TMC3    C611069   2.151   3.227   1.628  0.6619  0.0813  0.3619
  749TMC3     C11070   1.759   3.354   1.571  0.3442  0.2490 -0.3832
  749TMC3     O11071   1.716   3.313   1.463 -0.5447  0.1240 -0.1140
  749TMC3     H11072   1.901   3.309   1.818  0.1483 -0.6273  0.4173
  749TMC3    H111073   1.935   3.315   1.388  1.0540  1.9773 -0.6065
  749TMC3    H211074   2.251   3.186   1.635  1.0444  0.8299 -0.7703
  749TMC3    C711075   2.197   3.240   1.382  0.0829  0.0775  0.0330
  749TMC3    C811076   2.111   3.215   1.874  1.0625 -0.4825 -0.9367
  749TMC3    O111077   2.183   3.332   1.302  0.6333  0.4795 -0.7379
  749TMC3    O211078   2.048   3.253   1.969 -0.2638  0.4645  0.5706
  750MPD2     C11079   2.948   3.920  11.483 -0.4614  0.9902  0.0319
  750MPD2    C111080   2.848   3.960  11.399 -0.1062 -0.6167  0.3956
  750MPD2    C211081   2.844   3.904  11.270  0.1934 -0.1033 -0.5540
  750MPD2    C311082   2.930   3.803  11.230  0.4794  0.1223  0.3038
  750MPD2    C411083   3.032   3.770  11.314 -0.6321 -0.3337 -0.4494
  750MPD2    C511084   3.035   3.825  11.439 -0.2003 -0.7272 -0.1399
  750MPD2     H11085   2.761   3.936  11.207 -0.0838 -0.3590 -0.3163
  750MPD2    H111086   3.112   3.703  11.286 -0.1289  0.2426 -0.3949
  750MPD2    H211087   2.967   3.957  11.583  0.4500  1.2857 -0.2556
  750MPD2    H311088   3.111   3.787  11.506  0.6460  0.1568 -0.5962
  750MPD2     N11089   2.941   3.740  11.104 -0.3972 -0.1416  0.1568
  750MPD2    H511090   3.021   3.679  11.091  0.9846  1.4157  1.1843
  750MPD2    N111091   2.764   4.066  11.450  0.2791  0.6834  0.2033
  750MPD2    H711092   2.783   4.095  11.545  2.2719 -0.3208  0.1059
  751TMC3    C111093   2.851   3.679  10.893 -0.5342  0.1608 -0.3125
  751TMC3    C211094   2.750   3.665  10.801 -0.2434  0.0884 -0.4236
  751TMC3    C311095   2.756   3.561  10.707 -0.1295  0.6250 -0.0919
  751TMC3    C411096   2.965   3.593  10.880 -0.2334  0.5250  0.0495
  751TMC3    C511097   2.962   3.490  10.792 -0.2647 -0.2027  0.3623
  751TMC3    C611098   2.861   3.475  10.706  0.4406  0.0621  0.2906
  751TMC3     C11099   2.841   3.769  11.008  0.0362 -1.9620 -0.1869
  751TMC3     O11100   2.740   3.834  11.013  0.0603  0.1070  0.0245
  751TMC3     H11101   2.666   3.733  10.811  0.7757  1.1948  0.5864
  751TMC3    H111102   3.062   3.602  10.928 -0.4859  3.1385  0.0747
  751TMC3    H211103   2.870   3.399  10.630  1.3019  0.1193  0.3376
  751TMC3    C711104   3.038   3.369  10.832  0.6055  0.3563 -0.6132
  751TMC3    C811105   2.644   3.505  10.645 -0.6412  0.1026 -1.0334
  751TMC3    O111106   3.144   3.383  10.893 -0.7170  0.6984  0.1122
  751TMC3    O211107   2.650   3.397  10.591  0.3540 -0.0367 -0.3680
  752TMC3    C111108   1.139   3.403  16.226  0.5027  0.1814  0.0497
  752TMC3    C211109   1.091   3.395  16.356 -0.1538  0.8856 -0.2912
  752TMC3    C311110   1.174   3.324  16.443 -0.2501 -0.4454  0.4103
  752TMC3    C411111   1.267   3.358  16.192 -0.3878 -0.1938 -0.3320
  752TMC3    C511112   1.356   3.314  16.283 -0.4244 -0.1529  0.6490
  752TMC3    C611113   1.306   3.302  16.414  0.4551  0.0348  0.8588
  752TMC3     C11114   1.058   3.478  16.135 -0.3751  0.0115  1.1048
  752TMC3     O11115   1.084   3.465  16.016 -0.1220 -0.3791  0.5830
  752TMC3     H11116   0.989   3.424  16.379 -1.1655  0.0179 -3.6619
  752TMC3    H111117   1.295   3.370  16.088 -2.4935  1.3570 -0.7178
  752TMC3    H211118   1.379   3.270  16.486 -0.9800 -2.8662  1.0034
  752TMC3    C711119   1.505   3.330  16.276 -0.1557  0.3996 -0.1494
  752TMC3    C811120   1.126   3.295  16.580  0.4596  0.7749 -0.0757
  752TMC3    O111121   1.567   3.251  16.342 -0.3712  0.7487 -0.1600
  752TMC3    O211122   1.023   3.347  16.614 -0.6432 -0.2642 -0.4042
  753TMC3    C111123   3.383   0.360  13.735  0.1182  0.4727  0.0807
  753TMC3    C211124   3.261   0.390  13.778  0.1739 -0.2483 -0.0812
  753TMC3    C311125   3.184   0.295  13.834  0.0380  0.2845  0.0686
  753TMC3    C411126   3.430   0.233  13.723  0.8076 -0.8604 -0.3730
  753TMC3    C511127   3.344   0.139  13.773 -0.0500 -0.6561 -0.1377
  753TMC3    C611128   3.218   0.166  13.828  0.1696  0.5879  0.6286
  753TMC3     C11129   3.470   0.472  13.714 -0.0993 -0.5893  0.6648
  753TMC3     O11130   3.456   0.566  13.789  0.1746 -0.3213 -0.1440
  753TMC3     H11131   3.235   0.495  13.779  1.1984  0.0448 -2.7590
  753TMC3    H111132   3.530   0.202  13.694  1.4976  1.2902 -0.2858
  753TMC3    H211133   3.162   0.094  13.889  0.1391 -0.2998 -0.4447
  753TMC3    C711134   3.407   0.018  13.825 -0.8262 -0.1096 -0.1171
  753TMC3    C811135   3.128   0.333  13.967  0.0763  0.9364 -0.4943
  753TMC3    O111136   3.527   0.023  13.851  0.1341 -0.2223 -0.1444
  753TMC3    O211137   3.045   0.258  14.025 -0.3792 -0.1947 -0.6217
  754MPD2     C11138   1.344   2.949  12.655  0.7263  0.4827 -0.3819
  754MPD2    C111139   1.290   3.036  12.746  0.4922 -0.7283  0.0858
  754MPD2    C211140   1.163   3.078  12.732 -0.4430 -0.0689 -0.2856
  754MPD2    C311141   1.082   3.030  12.632  0.0258 -0.3790  0.6303
  754MPD2    C411142   1.139   2.943  12.539  0.3044 -0.3309  0.2117
  754MPD2    C511143   1.266   2.901  12.556  0.2362 -0.4142 -0.0426
  754MPD2     H11144   1.123   3.141  12.811 -0.0600  0.4875 -0.5385
  754MPD2    H111145   1.087   2.922  12.446 -0.3671  2.8875 -0.1199
  754MPD2    H211146   1.441   2.903  12.669  0.8443  0.9848  0.4627
  754MPD2    H311147   1.303   2.827  12.486 -0.8320 -0.1424 -0.8884
  754MPD2     N11148   0.947   3.063  12.635  0.0433  0.4194  0.8042
  754MPD2    H511149   0.884   3.000  12.585  0.5337  0.7203 -0.1911
  754MPD2    N111150   1.366   3.058  12.862 -0.1291  0.0176 -0.2957
  754MPD2    H711151   1.449   3.001  12.875  1.3002  1.5837 -2.4938
  755MPD2     C11152   1.154   3.097  13.557  0.0118 -0.1249 -0.3246
  755MPD2    C111153   1.071   3.199  13.510 -0.0173  0.6110  0.7062
  755MPD2    C211154   0.993   3.178  13.394 -0.5740 -0.2134 -0.3170
  755MPD2    C311155   0.998   3.060  13.319 -0.7151  0.0992  0.4112
  755MPD2    C411156   1.067   2.958  13.379 -0.6291  0.7448 -0.1153
  755MPD2    C511157   1.140   2.976  13.496  0.0664 -0.1558 -0.0423
  755MPD2     H11158   0.931   3.261  13.364  1.2995  0.5586 -2.0623
  755MPD2    H111159   1.060   2.862  13.330  1.9526 -0.7264  2.3775
  755MPD2    H211160   1.217   3.106  13.645 -0.3233 -0.7872 -0.0151
  755MPD2    H311161   1.186   2.886  13.535  1.2260 -1.2094 -3.7999
  755MPD2     N11162   0.934   3.044  13.197 -0.3284  0.3672  0.2349
  755MPD2    H511163   0.947   2.952  13.156 -0.6516  0.3195  0.2375
  755MPD2    N111164   1.065   3.327  13.567  0.0148 -0.5881 -0.1824
  755MPD2    H711165   1.005   3.393  13.517  0.1543 -0.3952 -0.0965
  756MPD2     C11166   3.259   3.216   9.339 -0.2203 -0.0688 -0.1030
  756MPD2    C111167   3.125   3.219   9.359  0.4208  0.6896  0.4711
  756MPD2    C211168   3.054   3.114   9.307 -1.0549  0.2827 -0.0635
  756MPD2    C311169   3.120   3.019   9.227 -0.3341 -0.6686  0.4850
  756MPD2    C411170   3.259   3.030   9.204 -0.1729 -0.2438  0.7882
  756MPD2    C511171   3.328   3.133   9.259  0.4769 -1.0611 -0.3567
  756MPD2     H11172   2.946   3.109   9.315 -0.6336 -2.0658  3.9578
  756MPD2    H111173   3.320   2.962   9.145 -0.9442  0.9968 -1.4393
  756MPD2    H211174   3.325   3.291   9.380  0.9076 -0.3928 -1.3535
  756MPD2    H311175   3.435   3.148   9.249 -0.0829  0.9300 -3.1468
  756MPD2     N11176   3.052   2.899   9.191  0.2890  0.4877 -0.3487
  756MPD2    H511177   2.958   2.890   9.226  0.8542  0.3003  1.1107
  756MPD2    N111178   3.050   3.319   9.428  0.2981 -0.9108  0.1639
  756MPD2    H711179   2.949   3.310   9.426  0.3289 -1.6275  2.3110
  757MPD2     C11180   2.402   2.266   9.595  0.0841  0.4286  0.0131
  757MPD2    C111181   2.427   2.202   9.476  0.2012  0.0522 -0.6881
  757MPD2    C211182   2.532   2.248   9.400 -0.0089  0.1226 -0.4402
  757MPD2    C311183   2.594   2.366   9.420  0.8829 -0.1916 -0.3106
  757MPD2    C411184   2.558   2.439   9.540  0.3655  0.1871  0.3070
  757MPD2    C511185   2.465   2.382   9.622 -0.4995 -0.2630  0.2006
  757MPD2     H11186   2.546   2.203   9.303 -2.5333  1.3925 -1.3655
  757MPD2    H111187   2.614   2.527   9.570 -0.7149  0.8234  0.4633
  757MPD2    H211188   2.329   2.232   9.668 -0.1682 -0.0005 -0.4430
  757MPD2    H311189   2.447   2.421   9.722 -1.0411 -1.1104  0.4350
  757MPD2     N11190   2.689   2.411   9.330  0.2711 -0.2635  0.3727
  757MPD2    H511191   2.711   2.344   9.256  1.7846  1.2918 -0.5990
  757MPD2    N111192   2.366   2.085   9.437 -0.4914  0.8097 -0.9125
  757MPD2    H711193   2.409   2.035   9.360 -0.8397 -0.1607 -0.4707
  758MPD2     C11194   1.907   3.012  16.809  0.0838 -0.1453  0.3028
  758MPD2    C111195   2.021   3.022  16.729  0.0489  0.2266  0.0835
  758MPD2    C211196   2.083   3.143  16.721  0.3308  0.3640  0.3207
  758MPD2    C311197   2.038   3.260  16.778  0.2861  0.0787  0.0683
  758MPD2    C411198   1.927   3.250  16.860 -0.3420 -0.7615  0.0080
  758MPD2    C511199   1.857   3.127  16.865 -0.0531  0.5937 -0.3509
  758MPD2     H11200   2.164   3.151  16.649 -0.0924 -0.6332 -0.2606
  758MPD2    H111201   1.893   3.338  16.912  1.5632  0.4946 -0.8956
  758MPD2    H211202   1.850   2.921  16.824 -2.4264  1.6025  1.4687
  758MPD2    H311203   1.771   3.118  16.932 -0.4795  0.6839 -0.8871
  758MPD2     N11204   2.105   3.378  16.770 -0.7132  0.1594 -0.5526
  758MPD2    H511205   2.063   3.456  16.819 -1.8417 -0.5741 -0.3776
  758MPD2    N111206   2.083   2.908  16.668  0.3079 -0.6359 -0.2109
  758MPD2    H711207   2.062   2.817  16.709  1.2016  0.7702  3.3846
  759MPD2     C11208   0.988   1.798  10.773 -0.4557  0.3746 -0.0353
  759MPD2    C111209   0.983   1.668  10.723 -0.0978 -0.8336  1.5464
  759MPD2    C211210   1.052   1.648  10.602  0.5676 -0.5039 -0.1945
  759MPD2    C311211   1.082   1.757  10.520  0.1427  0.3158  0.0903
  759MPD2    C411212   1.080   1.883  10.573 -0.9517 -0.3562 -0.1656
  759MPD2    C511213   1.038   1.897  10.702  0.2069  0.1363 -0.1536
  759MPD2     H11214   1.062   1.549  10.560 -1.3282 -1.3419  1.3098
  759MPD2    H111215   1.112   1.974  10.523  1.1083 -0.3494  1.1348
  759MPD2    H211216   0.954   1.832  10.870  2.6235 -0.2709  1.2762
  759MPD2    H311217   1.043   1.996  10.745  0.6899 -0.3011  0.7929
  759MPD2     N11218   1.123   1.727  10.391 -0.8649  0.6363 -0.2211
  759MPD2    H511219   1.124   1.629  10.368 -0.9288  0.6420 -0.2470
  759MPD2    N111220   0.940   1.557  10.802  0.5275  1.0686 -0.8474
  759MPD2    H711221   0.961   1.463  10.768  0.2791  0.8871 -0.4894
  760MPD2     C11222   0.682   3.586  12.044  0.3530 -0.0796  1.1928
  760MPD2    C111223   0.813   3.596  12.021 -0.1503 -0.1354 -0.0259
  760MPD2    C211224   0.865   3.489  11.952 -0.0059  0.0890  0.6558
  760MPD2    C311225   0.797   3.369  11.936  0.2224 -0.6816  0.5458
  760MPD2    C411226   0.666   3.362  11.971 -0.3317 -0.3171 -0.2768
  760MPD2    C511227   0.604   3.474  12.018  0.3940  0.2214 -0.7076
  760MPD2     H11228   0.968   3.502  11.921 -0.7677 -0.2225 -1.9796
  760MPD2    H111229   0.600   3.278  11.951 -0.3750 -0.3422 -0.0255
  760MPD2    H211230   0.621   3.666  12.084  0.8721 -0.0305  1.8765
  760MPD2    H311231   0.496   3.466  12.030  0.7302 -0.7810  1.6773
  760MPD2     N11232   0.852   3.256  11.869 -0.0008  0.7517  0.0103
  760MPD2    H511233   0.787   3.182  11.846  0.2731  0.6059 -0.2869
  760MPD2    N111234   0.875   3.717  12.034  0.6483  0.0689 -0.8223
  760MPD2    H711235   0.957   3.734  11.977  0.5988  0.4281 -0.7852
  761MPD2     C11236   2.154   3.523  10.473 -1.0143 -0.0469  0.5539
  761MPD2    C111237   2.243   3.418  10.494  1.1281  0.0785  0.7760
  761MPD2    C211238   2.372   3.433  10.555  0.4596 -0.3568 -0.2997
  761MPD2    C311239   2.411   3.560  10.578  0.1504 -0.3792 -0.8165
  761MPD2    C411240   2.330   3.665  10.551  0.4223  0.1747  0.8334
  761MPD2    C511241   2.204   3.647  10.499 -0.1874  0.0862  0.7355
  761MPD2     H11242   2.435   3.345  10.555  1.5442  0.4106 -0.5038
  761MPD2    H111243   2.350   3.769  10.577 -0.7163  0.4627  0.5657
  761MPD2    H211244   2.054   3.516  10.432 -1.2777 -0.3722  1.2368
  761MPD2    H311245   2.141   3.734  10.484  0.1308  0.3342  0.8418
  761MPD2     N11246   2.534   3.592  10.633  0.2092  0.5912  0.5679
  761MPD2    H511247   2.560   3.688  10.654  2.4054 -0.1435  1.2312
  761MPD2    N111248   2.204   3.294  10.447  0.2151  0.1722 -0.1900
  761MPD2    H711249   2.110   3.277  10.414 -0.6580 -0.0316  2.4264
  762MPD2     C11250   2.199   2.463  10.083  0.1644 -0.3126  0.5181
  762MPD2    C111251   2.296   2.545  10.130  1.0308 -0.5651  0.0262
  762MPD2    C211252   2.432   2.524  10.094  0.4607 -0.3064 -0.5174
  762MPD2    C311253   2.461   2.407  10.026  0.2089  0.5629 -0.3141
  762MPD2    C411254   2.361   2.322   9.986  0.1291  0.0621  0.2217
  762MPD2    C511255   2.229   2.353  10.007  0.1708  0.4839  0.4207
  762MPD2     H11256   2.506   2.595  10.130 -0.3964  1.0208 -1.3792
  762MPD2    H111257   2.376   2.232   9.928  1.4305 -0.1513  0.8854
  762MPD2    H211258   2.098   2.488  10.115  0.1508  0.3983 -0.0739
  762MPD2    H311259   2.154   2.283   9.972  0.9498  0.7520 -1.8101
  762MPD2     N11260   2.589   2.360  10.008 -0.7670  0.2841 -0.7797
  762MPD2    H511261   2.600   2.274   9.956 -0.1058  0.9457 -1.7486
  762MPD2    N111262   2.248   2.654  10.205  0.0930 -0.0659  0.1165
  762MPD2    H711263   2.147   2.653  10.210  0.2333  0.1846  3.0023
  763MPD2     C11264   3.705   3.621  16.343 -0.4186 -0.2082  0.5210
  763MPD2    C111265   3.838   3.597  16.333 -0.4493 -0.1730 -0.3014
  763MPD2    C211266   3.924   3.653  16.426  0.2715 -0.8778  0.1209
  763MPD2    C311267   3.882   3.762  16.503  0.7894 -0.4694  0.4657
  763MPD2    C411268   3.747   3.798  16.500  1.6486 -0.3945  0.0709
  763MPD2    C511269   3.660   3.733  16.418 -0.4438 -1.1872 -0.0199
  763MPD2     H11270   4.029   3.626  16.422  0.3721 -0.1317 -2.8061
  763MPD2    H111271   3.709   3.878  16.563  1.1694 -2.7634  2.7614
  763MPD2    H211272   3.625   3.568  16.293 -1.2414  1.0006  0.5533
  763MPD2    H311273   3.554   3.744  16.442 -0.4007 -2.0485  0.6005
  763MPD2     N11274   3.980   3.831  16.581  0.1486  0.2194  0.1608
  763MPD2    H511275   4.074   3.794  16.573  0.0985  0.2492 -0.5935
  763MPD2    N111276   3.893   3.515  16.235  0.1075 -0.1044  0.2214
  763MPD2    H711277   3.995   3.516  16.233  0.0828 -1.2908 -1.9737
  764MPD2     C11278   1.533   0.394  17.103 -0.1383  0.1459  0.6541
  764MPD2    C111279   1.593   0.277  17.061  0.4348 -0.3339 -0.3113
  764MPD2    C211280   1.580   0.166  17.139 -0.8251  0.0230 -0.1109
  764MPD2    C311281   1.517   0.168  17.264  0.4150 -0.1238  0.4608
  764MPD2    C411282   1.450   0.287  17.299  0.0708  0.1569 -0.2562
  764MPD2    C511283   1.461   0.394  17.220 -0.4061 -0.6012 -0.2227
  764MPD2     H11284   1.637   0.074  17.126 -0.9958 -0.2141  0.8337
  764MPD2    H111285   1.384   0.299  17.384  2.4369 -0.1525  1.6104
  764MPD2    H211286   1.528   0.482  17.040 -3.0957 -1.5275 -1.4782
  764MPD2    H311287   1.403   0.483  17.238  0.3272 -0.7778  3.1320
  764MPD2     N11288   1.510   0.054  17.340  0.0243  0.1126 -0.0293
  764MPD2    H511289   1.556   4.692  17.311 -0.8896  0.4485 -2.4351
  764MPD2    N111290   1.662   0.274  16.939  1.0114 -0.1123 -0.3758
  764MPD2    H711291   1.706   0.185  16.916 -0.3349 -0.6479 -0.8820
  765MPD2     C11292   1.740   2.524  16.463  0.6028 -0.0382 -0.2766
  765MPD2    C111293   1.803   2.604  16.373 -0.8520 -0.7731 -0.2522
  765MPD2    C211294   1.941   2.593  16.359  0.1013  0.4211  1.1683
  765MPD2    C311295   2.014   2.498  16.441  0.3706  0.6025 -0.4630
  765MPD2    C411296   1.938   2.411  16.525  0.0987  0.2605 -0.4781
  765MPD2    C511297   1.808   2.433  16.540  0.5343 -0.2148 -0.1784
  765MPD2     H11298   1.993   2.654  16.286  0.9736 -1.3565  0.2929
  765MPD2    H111299   1.981   2.342  16.597 -1.4852 -0.2810 -0.0459
  765MPD2    H211300   1.634   2.532  16.479  0.6428 -1.2152  0.5917
  765MPD2    H311301   1.748   2.384  16.615  1.3585 -1.1985 -0.1597
  765MPD2     N11302   2.152   2.475  16.410  0.4801  0.9430  0.3795
  765MPD2    H511303   2.191   2.533  16.337 -2.9787  1.9866 -0.6435
  765MPD2    N111304   1.728   2.693  16.302 -0.0070  0.1229  0.1655
  765MPD2    H711305   1.627   2.680  16.305 -0.0609  0.3662 -0.5718
  766MPD2     C11306   1.391   2.625  15.603  0.8463  0.0082 -0.5859
  766MPD2    C111307   1.521   2.663  15.623  0.1943  0.2384 -0.0943
  766MPD2    C211308   1.613   2.664  15.520 -0.0926 -0.0628  0.3482
  766MPD2    C311309   1.579   2.618  15.393 -0.4440  0.1114 -0.2026
  766MPD2    C411310   1.450   2.568  15.378  0.1006 -0.4471 -0.0166
  766MPD2    C511311   1.354   2.570  15.478 -0.0165 -0.2342  0.0147
  766MPD2     H11312   1.710   2.710  15.534  0.1274 -0.3438 -0.2762
  766MPD2    H111313   1.426   2.527  15.280 -2.1928 -2.3784  1.3461
  766MPD2    H211314   1.318   2.626  15.684 -2.0038 -0.4750 -3.1456
  766MPD2    H311315   1.253   2.542  15.454 -0.8564  1.6731  1.3043
  766MPD2     N11316   1.661   2.631  15.285  0.1327 -0.2692 -0.3887
  766MPD2    H511317   1.626   2.604  15.193 -0.6895 -0.7732  0.0762
  766MPD2    N111318   1.569   2.730  15.744 -0.3299 -0.7306 -0.1104
  766MPD2    H711319   1.659   2.776  15.750  1.4229 -4.0009 -1.0973
  767MPD2     C11320   1.266   2.774  15.236 -0.4912 -0.6450  0.1789
  767MPD2    C111321   1.367   2.855  15.188  0.1358 -0.1145 -1.0692
  767MPD2    C211322   1.407   2.836  15.057  0.1439  0.0363  0.0314
  767MPD2    C311323   1.342   2.752  14.966 -0.7644  0.3562  0.1685
  767MPD2    C411324   1.221   2.687  15.009 -0.1734  0.4109  0.5762
  767MPD2    C511325   1.188   2.702  15.146  0.7192  0.2919  0.1103
  767MPD2     H11326   1.487   2.894  15.014 -0.4470  2.2700  1.9464
  767MPD2    H111327   1.165   2.618  14.947  2.0302  0.1331 -1.1032
  767MPD2    H211328   1.243   2.779  15.342 -2.3546 -1.3575 -0.2080
  767MPD2    H311329   1.125   2.623  15.186  0.6517  0.0593 -0.4501
  767MPD2     N11330   1.399   2.736  14.836  0.3353  0.6841  0.3383
  767MPD2    H511331   1.498   2.753  14.826  0.0479  1.0557 -1.9960
  767MPD2    N111332   1.435   2.929  15.280  0.4624  0.0496 -0.3855
  767MPD2    H711333   1.412   2.908  15.377 -2.1284 -1.5959 -1.3305
  768MPD2     C11334   2.269   1.180  10.358  0.0932  0.1882 -0.2702
  768MPD2    C111335   2.205   1.155  10.480  0.6191  0.4293 -0.2443
  768MPD2    C211336   2.268   1.208  10.590  0.6068  0.4325 -0.4206
  768MPD2    C311337   2.376   1.289  10.586  0.9552 -0.5396  0.4700
  768MPD2    C411338   2.437   1.308  10.467 -0.5314  0.4452 -0.1368
  768MPD2    C511339   2.384   1.249  10.356  0.3799  0.2836  0.1167
  768MPD2     H11340   2.219   1.193  10.686  0.0681  0.5329 -0.6778
  768MPD2    H111341   2.531   1.362  10.465  0.0560 -0.5915 -0.5186
  768MPD2    H211342   2.231   1.146  10.263 -4.7203  4.2194  0.1951
  768MPD2    H311343   2.442   1.262  10.266 -0.7914 -0.4978 -0.7541
  768MPD2     N11344   2.439   1.345  10.700 -0.0105 -0.0664  0.2969
  768MPD2    H511345   2.513   1.412  10.679 -1.4164  1.2610 -0.4582
  768MPD2    N111346   2.086   1.084  10.496 -0.1219 -0.6150  0.4035
  768MPD2    H711347   2.057   1.078  10.594  2.4739  1.3670  1.2996
  769MPD2     C11348   3.029   4.679  15.113 -0.2317 -0.0425  0.2870
  769MPD2    C111349   3.007   4.592  15.217 -0.2407 -0.0990  0.0619
  769MPD2    C211350   3.068   4.618  15.341  0.1139  0.2185  0.9146
  769MPD2    C311351   3.140   0.009  15.356 -0.4957 -0.4411 -0.0119
  769MPD2    C411352   3.157   0.088  15.245  0.2926  0.4927 -1.2032
  769MPD2    C511353   3.105   0.064  15.128 -0.5782  0.2953 -0.1570
  769MPD2     H11354   3.055   4.558  15.430 -1.4922  0.5540  0.8878
  769MPD2    H111355   3.206   0.184  15.255 -0.0617  0.6699 -1.1849
  769MPD2    H211356   2.976   4.672  15.018 -0.8655 -1.0862  0.7213
  769MPD2    H311357   3.107   0.135  15.046 -4.3308  1.4140  0.7118
  769MPD2     N11358   3.203   0.032  15.478  0.4569 -0.3894  0.2311
  769MPD2    H511359   3.172   4.691  15.549 -1.3659  0.2546  0.0216
  769MPD2    N111360   2.897   4.497  15.202  0.1912 -0.1684  1.1028
  769MPD2    H711361   2.863   4.468  15.111 -0.2135 -0.6471  1.4090
  770MPD2     C11362   2.363   3.738  15.757  0.4582  0.7178  0.0168
  770MPD2    C111363   2.477   3.696  15.690  0.8060  0.2740  0.3727
  770MPD2    C211364   2.536   3.782  15.600 -0.0768 -0.2055 -0.8153
  770MPD2    C311365   2.487   3.905  15.574  0.1891 -0.0275 -0.6512
  770MPD2    C411366   2.371   3.946  15.640  0.5801 -0.3447  0.4928
  770MPD2    C511367   2.311   3.864  15.730  0.0252  0.0713  0.0005
  770MPD2     H11368   2.621   3.749  15.542  0.2727 -0.1034 -0.3679
  770MPD2    H111369   2.329   4.042  15.612  2.0969  0.6322  1.5779
  770MPD2    H211370   2.317   3.675  15.832  2.0008  0.8277  1.0411
  770MPD2    H311371   2.224   3.904  15.780 -1.4199 -2.0628 -0.8136
  770MPD2     N11372   2.551   3.980  15.472  0.1778 -0.7090 -1.1389
  770MPD2    H511373   2.611   3.935  15.403  0.1728 -0.5983 -1.2168
  770MPD2    N111374   2.536   3.574  15.720  0.4142 -0.3117  0.2846
  770MPD2    H711375   2.487   3.504  15.773  0.5023 -0.0515  0.7063
  771MPD2     C11376   3.729   2.250  14.096  0.1405 -0.8290 -0.1413
  771MPD2    C111377   3.678   2.366  14.036  0.1845  0.6562 -0.7422
  771MPD2    C211378   3.624   2.345  13.910 -0.4392 -0.3897 -0.0678
  771MPD2    C311379   3.608   2.217  13.852 -0.4354 -0.1811 -0.3641
  771MPD2    C411380   3.662   2.105  13.919  0.2189  0.1389  0.1747
  771MPD2    C511381   3.724   2.128  14.039  0.2687 -0.1215 -0.7926
  771MPD2     H11382   3.586   2.435  13.864  0.8607 -0.9713 -2.2689
  771MPD2    H111383   3.647   2.003  13.885  0.0500 -0.0017  0.6661
  771MPD2    H211384   3.774   2.258  14.194  0.8331  0.3934 -0.5598
  771MPD2    H311385   3.749   2.042  14.100  0.7248  1.7107  1.6038
  771MPD2     N11386   3.531   2.210  13.739 -0.4827  0.2842  0.1414
  771MPD2    H511387   3.485   2.295  13.707 -0.1996  0.1474 -0.6287
  771MPD2    N111388   3.677   2.497  14.093 -0.0799 -0.1084  0.4571
  771MPD2    H711389   3.655   2.575  14.032  0.2035 -1.5341 -1.4812
  772MPD2     C11390   3.452   2.990  14.774  0.6658  0.2103  0.3526
  772MPD2    C111391   3.411   3.003  14.639 -0.3453 -0.3387  0.2893
  772MPD2    C211392   3.283   3.045  14.621 -0.1663 -0.1820  0.9445
  772MPD2    C311393   3.192   3.058  14.731  0.7671  1.1218 -0.0953
  772MPD2    C411394   3.235   3.037  14.859 -0.6740 -0.2266 -0.6861
  772MPD2    C511395   3.366   3.003  14.879 -0.1286  0.0142  0.6138
  772MPD2     H11396   3.257   3.062  14.517 -0.8771 -2.2316  0.7761
  772MPD2    H111397   3.166   3.053  14.941 -1.1956  0.8886 -1.3581
  772MPD2    H211398   3.554   2.959  14.796  0.8529  1.0414  0.6367
  772MPD2    H311399   3.394   2.976  14.980  1.7899  0.1207  0.1131
  772MPD2     N11400   3.058   3.085  14.713  0.2765 -0.6704 -0.0308
  772MPD2    H511401   3.014   3.120  14.798  0.0430  0.3232 -0.5704
  772MPD2    N111402   3.490   2.967  14.523 -0.1759 -1.0838 -0.3349
  772MPD2    H711403   3.453   2.978  14.429 -0.8952 -1.5651 -0.1083
  773MPD2     C11404   3.012   3.986   0.327 -0.0203  0.3230 -0.0334
  773MPD2    C111405   2.961   3.861   0.290  0.5819  0.2010  0.0520
  773MPD2    C211406   3.025   3.747   0.320  0.4546 -0.6431  0.0455
  773MPD2    C311407   3.141   3.760   0.399  0.3897  0.0234 -0.6085
  773MPD2    C411408   3.190   3.876   0.442  0.0358 -0.3340  0.0114
  773MPD2    C511409   3.127   3.988   0.406  0.2067 -0.6575 -0.0486
  773MPD2     H11410   2.987   3.650   0.292 -1.8087 -0.4588  2.5038
  773MPD2    H111411   3.280   3.898   0.498  1.8928 -0.8825 -2.7293
  773MPD2    H211412   2.972   4.079   0.288 -0.9808 -0.1796 -0.2479
  773MPD2    H311413   3.162   4.085   0.440  0.2509 -1.0704  1.0935
  773MPD2     N11414   3.213   3.638   0.431 -0.7152 -0.6304  0.0296
  773MPD2    H511415   3.164   3.551   0.410 -0.6174 -0.8609  0.7595
  773MPD2    N111416   2.849   3.852   0.203  0.7315  0.2041  0.5666
  773MPD2    H711417   2.833   3.761   0.160 -0.5838  1.0583 -0.7492
  774MPD2     C11418   1.766   2.468  13.527 -0.0058  0.2175  0.3917
  774MPD2    C111419   1.749   2.577  13.602 -0.2337  0.3237 -0.6434
  774MPD2    C211420   1.663   2.680  13.569 -0.1606 -0.1845 -0.2097
  774MPD2    C311421   1.615   2.687  13.439  1.1362 -0.3092  0.7362
  774MPD2    C411422   1.627   2.580  13.360 -0.3122  0.8244 -0.1416
  774MPD2    C511423   1.704   2.474  13.403 -0.0858  0.0063  0.2601
  774MPD2     H11424   1.638   2.764  13.631  1.6582 -0.6743  1.1928
  774MPD2    H111425   1.598   2.574  13.256 -0.7532 -2.9466  0.2164
  774MPD2    H211426   1.822   2.378  13.548  0.4830  0.4926  0.2554
  774MPD2    H311427   1.731   2.398  13.330 -0.3417  0.9314 -0.7926
  774MPD2     N11428   1.551   2.810  13.404  0.0343  0.0142 -0.1204
  774MPD2    H511429   1.569   2.889  13.465  0.6229 -0.0737 -0.1834
  774MPD2    N111430   1.821   2.577  13.725  0.4111 -0.0186  0.0859
  774MPD2    H711431   1.879   2.495  13.739  0.8044  0.9697  4.2759
  775MPD2     C11432   3.435   4.477  15.851 -0.4405 -1.0064 -0.2026
  775MPD2    C111433   3.496   4.533  15.954 -0.8481  0.2271 -0.1364
  775MPD2    C211434   3.600   4.624  15.931  0.3374  0.0926  0.3366
  775MPD2    C311435   3.642   4.647  15.796  0.0191 -0.4849 -0.1133
  775MPD2    C411436   3.566   4.599  15.693 -0.6423  0.3104 -0.4524
  775MPD2    C511437   3.466   4.511  15.721  0.5602  0.4241  0.0880
  775MPD2     H11438   3.646   4.673  16.016  0.5504  1.0132 -0.3105
  775MPD2    H111439   3.597   4.622  15.592 -0.5117  3.0831  0.2412
  775MPD2    H211440   3.343   4.423  15.867 -0.9365  0.4624  1.9162
  775MPD2    H311441   3.414   4.470  15.636  0.0785  0.0275  0.5765
  775MPD2     N11442   3.744   0.014  15.759  0.1285  0.3242 -0.0106
  775MPD2    H511443   3.748   0.030  15.659 -0.7274 -0.7690 -0.2193
  775MPD2    N111444   3.451   4.487  16.076 -0.3066  0.6117  0.3038
  775MPD2    H711445   3.373   4.422  16.075  0.2753 -0.0535 -1.5790
  776MPD2     C11446   2.452   0.002  11.115  0.3428  0.0001  0.1739
  776MPD2    C111447   2.497   4.721  11.248  0.5404 -0.2233  0.2115
  776MPD2    C211448   2.524   0.114  11.312  0.3089  0.0093 -0.0331
  776MPD2    C311449   2.547   0.227  11.242  0.3393 -0.4798  0.0486
  776MPD2    C411450   2.522   0.224  11.107  0.6992  0.2380 -0.7271
  776MPD2    C511451   2.467   0.120  11.046  0.3826  0.1200 -0.2139
  776MPD2     H11452   2.544   0.101  11.418  0.1860 -0.3938 -0.0586
  776MPD2    H111453   2.521   0.317  11.051 -0.2447 -0.8849 -2.5731
  776MPD2    H211454   2.411   4.641  11.061  1.2223 -0.8962  0.9202
  776MPD2    H311455   2.435   0.134  10.944 -0.8934  1.6247  0.4013
  776MPD2     N11456   2.596   0.352  11.292 -0.0615 -0.2397  0.0968
  776MPD2    H511457   2.615   0.425  11.224 -1.0564  0.9990  1.1495
  776MPD2    N111458   2.487   4.598  11.326 -0.0016 -0.6218  0.1866
  776MPD2    H711459   2.459   4.516  11.272  0.3987 -2.0022  2.0596
  777MPD2     C11460   2.947   2.750   1.272 -0.9205  0.8529  0.5185
  777MPD2    C111461   2.970   2.672   1.380  0.4139 -0.3390 -1.0246
  777MPD2    C211462   3.003   2.538   1.358 -0.2132 -0.2673 -0.0370
  777MPD2    C311463   3.007   2.484   1.228 -0.3111 -0.6427 -0.7693
  777MPD2    C411464   2.982   2.564   1.124  0.5860  0.0119 -0.0050
  777MPD2    C511465   2.956   2.698   1.147  0.5774 -0.3363 -0.2445
  777MPD2     H11466   3.013   2.473   1.444 -0.6117  0.4062  0.5162
  777MPD2    H111467   2.984   2.534   1.020 -0.8861 -4.4919  1.2542
  777MPD2    H211468   2.902   2.848   1.278 -2.5347  0.0867  0.9483
  777MPD2    H311469   2.928   2.768   1.070  1.0941 -0.7347 -0.7921
  777MPD2     N11470   3.020   2.347   1.211 -0.3078 -0.2676 -0.3916
  777MPD2    H511471   3.067   2.294   1.284 -0.3380 -1.7695 -1.4656
  777MPD2    N111472   2.949   2.719   1.510  0.0419  0.3620 -0.2536
  777MPD2    H711473   2.902   2.809   1.510  2.4161  1.5977 -1.7225
  778MPD2     C11474   4.698   2.355  14.469  0.1279  0.1537 -0.2712
  778MPD2    C111475   4.632   2.254  14.410 -0.4273 -0.0035  0.7544
  778MPD2    C211476   4.648   2.241  14.272 -0.3199  0.3673  0.2721
  778MPD2    C311477   4.724   2.327  14.197 -0.2625 -0.6243  0.0782
  778MPD2    C411478   0.073   2.429  14.264 -0.3605 -0.2494  0.8878
  778MPD2    C511479   0.049   2.447  14.394 -0.6008  0.2532  0.4667
  778MPD2     H11480   4.592   2.168  14.215  2.1600 -0.5299 -1.0567
  778MPD2    H111481   0.135   2.498  14.208 -0.9170 -0.9847 -0.6569
  778MPD2    H211482   4.693   2.385  14.573  1.9118  2.4945 -0.8558
  778MPD2    H311483   0.095   2.538  14.431 -0.4775  1.5657 -2.9514
  778MPD2     N11484   4.712   2.319  14.054 -0.6893 -0.2713  0.0004
  778MPD2    H511485   4.691   2.231  14.010  1.6981 -0.5534 -0.6010
  778MPD2    N111486   4.540   2.173  14.482 -0.4375 -0.3363  0.2444
  778MPD2    H711487   4.489   2.112  14.418  0.6028 -0.9393 -0.0090
  779MPD2     C11488   4.119   1.103  13.996 -0.4368 -0.0594  0.4280
  779MPD2    C111489   4.111   1.114  14.135 -0.3258 -0.4325 -0.3350
  779MPD2    C211490   4.190   1.210  14.196 -0.4370  0.4986  0.5555
  779MPD2    C311491   4.260   1.305  14.128  0.5078  0.1573 -0.1490
  779MPD2    C411492   4.270   1.293  13.990  0.8713  0.1629  0.2546
  779MPD2    C511493   4.205   1.188  13.927 -0.0064  0.0240 -0.5379
  779MPD2     H11494   4.180   1.220  14.303 -0.0552 -2.0017  0.8021
  779MPD2    H111495   4.321   1.363  13.924  1.1310 -1.5051 -1.3058
  779MPD2    H211496   4.066   1.027  13.941  0.0798 -0.6434  0.7430
  779MPD2    H311497   4.207   1.187  13.819  0.1619 -0.6739 -0.5272
  779MPD2     N11498   4.309   1.421  14.194  0.2871  0.3111  0.0497
  779MPD2    H511499   4.314   1.421  14.296  1.8018  0.7740 -0.0204
  779MPD2    N111500   4.019   1.046  14.222  0.0257  0.2659  0.2808
  779MPD2    H711501   4.022   1.080  14.317 -0.0438 -1.7658  1.0073
  780MPD2     C11502   2.906   1.137   1.059  0.4769 -0.0645 -0.2795
  780MPD2    C111503   2.829   1.104   0.950  0.1254 -1.0224 -0.0608
  780MPD2    C211504   2.855   1.156   0.829  0.0758  0.3502 -1.6269
  780MPD2    C311505   2.955   1.253   0.813  0.1699  0.7966 -0.1194
  780MPD2    C411506   3.021   1.303   0.925 -0.7202  0.4701 -0.2326
  780MPD2    C511507   2.994   1.241   1.051  0.1578  0.6456  0.0841
  780MPD2     H11508   2.800   1.121   0.742  1.9356 -0.6180 -2.3936
  780MPD2    H111509   3.100   1.378   0.923  1.4957 -1.8330  1.1400
  780MPD2    H211510   2.895   1.090   1.156  3.3846  1.6183  0.8560
  780MPD2    H311511   3.047   1.266   1.142 -3.9679  1.9299  2.1330
  780MPD2     N11512   2.994   1.288   0.679  0.1345 -0.0085 -0.6478
  780MPD2    H511513   2.946   1.243   0.601  1.1280 -1.1252 -0.6340
  780MPD2    N111514   2.740   0.990   0.967 -0.1039 -0.0088 -0.2944
  780MPD2    H711515   2.726   0.955   1.061  0.3251  1.9763  0.5045
  781MPD2     C11516   0.354   2.398  12.318 -0.1268 -0.8086  0.1621
  781MPD2    C111517   0.326   2.532  12.347 -0.4576 -0.3726  0.8798
  781MPD2    C211518   0.325   2.614  12.238  0.4524  0.1035  0.1334
  781MPD2    C311519   0.335   2.567  12.111 -0.0604 -0.3780  0.2778
  781MPD2    C411520   0.355   2.435  12.092  0.2065 -0.2663  0.1831
  781MPD2    C511521   0.371   2.349  12.196 -0.4142 -0.8982  0.6209
  781MPD2     H11522   0.298   2.718  12.254 -1.5381 -0.2599 -0.8683
  781MPD2    H111523   0.372   2.405  11.990 -0.3142  1.3926 -0.3799
  781MPD2    H211524   0.346   2.329  12.402  2.1578 -1.6020 -0.2695
  781MPD2    H311525   0.406   2.247  12.193 -0.1010 -0.8144  1.5419
  781MPD2     N11526   0.353   2.651  11.992  0.7286 -0.1314 -0.0680
  781MPD2    H511527   0.382   2.600  11.910  0.0004 -2.6653  1.2342
  781MPD2    N111528   0.304   2.563  12.484  0.2573  0.2356 -0.5536
  781MPD2    H711529   0.299   2.485  12.548  1.8699  0.6839  0.1351
  782MPD2     C11530   3.389   2.956  10.243  0.1266  0.1024 -0.5691
  782MPD2    C111531   3.494   3.008  10.324 -0.2172 -0.5186 -0.0754
  782MPD2    C211532   3.545   3.132  10.295 -0.3869 -0.8082 -1.3934
  782MPD2    C311533   3.487   3.209  10.196  0.0931  0.4615  0.1320
  782MPD2    C411534   3.380   3.154  10.122  0.3339  0.0644 -0.6653
  782MPD2    C511535   3.329   3.034  10.147  0.3790  0.2141 -0.7233
  782MPD2     H11536   3.611   3.186  10.363 -3.0517 -0.2513  0.7886
  782MPD2    H111537   3.327   3.200  10.040 -0.3412  0.9251  0.2468
  782MPD2    H211538   3.350   2.855  10.243  1.1194 -0.2824  1.5307
  782MPD2    H311539   3.258   2.987  10.080  0.0835  1.4921 -1.3107
  782MPD2     N11540   3.509   3.345  10.194 -0.3899 -0.4199  0.2246
  782MPD2    H511541   3.436   3.409  10.163 -2.1884 -2.4116  0.3278
  782MPD2    N111542   3.548   2.929  10.434 -0.2164 -0.1940  0.4073
  782MPD2    H711543   3.490   2.849  10.457 -1.5303  1.2104  2.0142
  783MPD2     C11544   2.937   3.023  10.798 -0.0330 -0.1784 -0.1087
  783MPD2    C111545   3.026   3.122  10.800 -0.5237 -0.5327 -0.1143
  783MPD2    C211546   3.167   3.099  10.807  0.1036 -0.3300 -1.1892
  783MPD2    C311547   3.211   2.966  10.819  0.2003 -0.7564 -0.1665
  783MPD2    C411548   3.114   2.860  10.823 -0.3095  0.9552  0.3505
  783MPD2    C511549   2.984   2.892  10.808 -0.2231  0.4270  0.3564
  783MPD2     H11550   3.238   3.182  10.802  1.0457 -0.9748  1.6807
  783MPD2    H111551   3.137   2.754  10.821  1.2315  1.3384 -2.8451
  783MPD2    H211552   2.830   3.036  10.786 -0.5260 -1.9885  2.3747
  783MPD2    H311553   2.915   2.809  10.807  1.3226 -0.8663  0.8800
  783MPD2     N11554   3.346   2.932  10.814 -0.4262  0.4730 -0.0986
  783MPD2    H511555   3.413   3.004  10.789  0.3566 -0.8053 -1.6561
  783MPD2    N111556   2.971   3.250  10.792 -0.0296  1.0328  0.1108
  783MPD2    H711557   2.874   3.261  10.764  0.1983  0.6820 -0.7844
  784MPD2     C11558   1.474   3.923   0.636  0.1998 -0.2921 -0.3549
  784MPD2    C111559   1.362   3.892   0.707 -0.3023 -0.2412 -0.4717
  784MPD2    C211560   1.235   3.922   0.664  0.1803 -0.0645  0.5681
  784MPD2    C311561   1.211   3.966   0.535 -0.0569  0.6767  0.2885
  784MPD2    C411562   1.322   3.996   0.455  0.3635 -0.1171 -0.3863
  784MPD2    C511563   1.447   3.978   0.510  0.1810 -0.4735 -0.5337
  784MPD2     H11564   1.146   3.887   0.714  0.3325 -1.2641  0.0006
  784MPD2    H111565   1.325   4.034   0.353 -1.2081 -0.5953 -0.6171
  784MPD2    H211566   1.575   3.919   0.673 -0.8129 -1.1747  2.2976
  784MPD2    H311567   1.526   4.017   0.447  0.7751 -0.3750  0.2779
  784MPD2     N11568   1.081   3.996   0.499  0.5049 -0.8385 -0.0762
  784MPD2    H511569   1.005   3.991   0.566  0.2699  1.1960 -0.1743
  784MPD2    N111570   1.372   3.856   0.844 -0.0782 -0.3129  0.0769
  784MPD2    H711571   1.285   3.859   0.895  0.1527 -0.3185  0.4722
  785MPD2     C11572   0.798   2.271  11.048  0.5814 -0.4963  0.7387
  785MPD2    C111573   0.830   2.252  10.921  0.4815 -0.4662 -0.6868
  785MPD2    C211574   0.790   2.132  10.854 -0.2880 -0.2742  0.1195
  785MPD2    C311575   0.722   2.037  10.923  0.1076 -0.1889 -0.2595
  785MPD2    C411576   0.692   2.048  11.056  0.2186 -0.1135  0.5637
  785MPD2    C511577   0.730   2.170  11.111 -0.1743  0.5612 -1.0318
  785MPD2     H11578   0.824   2.122  10.752 -2.2744 -2.6785 -0.3023
  785MPD2    H111579   0.639   1.976  11.116  0.7443 -0.5919  0.4468
  785MPD2    H211580   0.831   2.358  11.105 -0.3960 -0.8251  1.7901
  785MPD2    H311581   0.708   2.177  11.217 -1.7100 -0.2370 -1.3009
  785MPD2     N11582   0.673   1.935  10.845 -0.1731  0.0502 -0.1850
  785MPD2    H511583   0.696   1.933  10.747 -1.6691  1.7961 -0.5689
  785MPD2    N111584   0.900   2.357  10.850  0.1248 -0.1324 -0.0819
  785MPD2    H711585   0.917   2.446  10.897 -0.3937  0.5308 -1.1605
  786MPD2     C11586   4.559   0.759  14.818 -0.5372 -0.1683 -0.2497
  786MPD2    C111587   4.462   0.726  14.907  0.2514  0.7585 -0.0216
  786MPD2    C211588   4.479   0.752  15.038 -0.4657  0.1667 -0.9294
  786MPD2    C311589   4.603   0.792  15.078  0.0433  0.6462  0.4577
  786MPD2    C411590   4.708   0.808  14.990  0.2870  0.6056  1.0771
  786MPD2    C511591   4.682   0.803  14.852  0.1179  0.5701  0.1767
  786MPD2     H11592   4.397   0.726  15.104 -0.2135 -2.6216 -1.7017
  786MPD2    H111593   0.085   0.835  15.020  0.6272 -1.4940  1.8528
  786MPD2    H211594   4.548   0.752  14.711  1.3764  0.1143 -0.4646
  786MPD2    H311595   0.031   0.823  14.775 -0.0938 -2.6663 -0.8635
  786MPD2     N11596   4.642   0.798  15.210  0.4322  0.4493  0.0016
  786MPD2    H511597   0.018   0.795  15.231  0.1097  0.8900  1.6016
  786MPD2    N111598   4.347   0.647  14.867 -0.8811  0.0397  0.8359
  786MPD2    H711599   4.292   0.615  14.946 -2.9579 -0.9143 -0.9859
  787MPD2     C11600   4.369   0.142  15.260 -0.0794 -0.1926 -0.3364
  787MPD2    C111601   4.345   0.088  15.134 -0.0691 -0.6495  0.3979
  787MPD2    C211602   4.376   4.679  15.113  0.4400  0.3284 -0.0686
  787MPD2    C311603   4.434   4.599  15.212 -0.2056  0.6369 -0.5145
  787MPD2    C411604   4.471   4.663  15.327  0.2999 -0.5130 -0.4750
  787MPD2    C511605   4.434   0.067  15.355  0.2530  0.6114 -0.1160
  787MPD2     H11606   4.364   4.638  15.014  0.3550  3.3889 -1.3187
  787MPD2    H111607   4.518   4.614  15.412  1.9299  1.6159 -0.1765
  787MPD2    H211608   4.341   0.245  15.279  1.3715  0.0785  0.3562
  787MPD2    H311609   4.468   0.113  15.447  0.0048  0.1798  0.1940
  787MPD2     N11610   4.454   4.466  15.188 -0.2511  0.0343 -0.4210
  787MPD2    H511611   4.417   4.423  15.104 -1.2911  0.9472 -0.4178
  787MPD2    N111612   4.303   0.183  15.040  0.4051  0.2740 -0.0331
  787MPD2    H711613   4.272   0.272  15.077 -0.4797 -0.6039  1.3476
  788MPD2     C11614   1.929   3.434   0.167  0.0832  0.5204  0.0442
  788MPD2    C111615   1.853   3.397   0.275 -0.3025  0.0302  0.0409
  788MPD2    C211616   1.733   3.333   0.250  0.1168  0.3044  0.0911
  788MPD2    C311617   1.675   3.326   0.122  0.4391 -0.3308  0.1977
  788MPD2    C411618   1.757   3.356   0.017 -0.2502  0.2747  0.1338
  788MPD2    C511619   1.883   3.411   0.037  0.1721 -0.5237  0.4299
  788MPD2     H11620   1.675   3.298   0.335  0.3408  1.2211  0.6185
  788MPD2    H111621   1.732   3.332  17.612 -1.1908 -0.9831  0.6573
  788MPD2    H211622   2.031   3.471   0.175  0.3968 -0.1226 -0.9654
  788MPD2    H311623   1.961   3.423  17.660 -1.6108 -0.8192 -1.4919
  788MPD2     N11624   1.553   3.258   0.089 -0.3399 -0.2891 -0.1490
  788MPD2    H511625   1.537   3.229  17.691  1.0118  2.7594 -1.3164
  788MPD2    N111626   1.905   3.394   0.407  0.2585 -0.2957  0.1456
  788MPD2    H711627   1.847   3.351   0.478 -0.1982  0.5720  0.2953
  789MPD2     C11628   1.663   2.713  16.709 -0.2457 -0.4696  0.0335
  789MPD2    C111629   1.574   2.611  16.740  1.2615 -0.0715 -0.4664
  789MPD2    C211630   1.459   2.611  16.673  0.5042 -0.4763  0.5752
  789MPD2    C311631   1.419   2.709  16.579 -0.4080 -0.3708 -0.2450
  789MPD2    C411632   1.507   2.804  16.543 -0.1425  0.7506  0.3554
  789MPD2    C511633   1.626   2.805  16.605  0.4672 -0.2344  0.8271
  789MPD2     H11634   1.387   2.534  16.700  1.4553 -1.2438  0.9306
  789MPD2    H111635   1.474   2.881  16.474  1.0328  0.5985 -0.3760
  789MPD2    H211636   1.755   2.716  16.766 -0.2697  0.5870  0.0268
  789MPD2    H311637   1.693   2.888  16.590 -1.9546  1.6128  0.2688
  789MPD2     N11638   1.283   2.736  16.544  0.8484  0.0145  0.4549
  789MPD2    H511639   1.270   2.819  16.488  0.2018 -0.3971 -0.0032
  789MPD2    N111640   1.591   2.512  16.842 -0.9994 -0.1025 -0.1768
  789MPD2    H711641   1.509   2.457  16.863 -0.9614  0.0229  0.2945
  790MPD2     C11642   2.371   0.310  13.856 -0.5223 -0.4998  1.2431
  790MPD2    C111643   2.456   0.206  13.830  0.0253  0.3261  0.3755
  790MPD2    C211644   2.471   0.153  13.703  0.2924 -0.2500 -0.2222
  790MPD2    C311645   2.383   0.200  13.605 -1.0845  0.5182 -0.4769
  790MPD2    C411646   2.289   0.292  13.632 -0.5685 -0.2486 -0.2701
  790MPD2    C511647   2.292   0.352  13.754  0.8051  0.4787 -0.0019
  790MPD2     H11648   2.538   0.068  13.697 -2.9894 -2.9069  0.8394
  790MPD2    H111649   2.220   0.341  13.564 -0.8826 -0.9290 -0.4347
  790MPD2    H211650   2.369   0.360  13.952  1.2697 -0.9829  1.5430
  790MPD2    H311651   2.218   0.429  13.775 -0.6384 -0.6552 -0.9547
  790MPD2     N11652   2.397   0.127  13.477  0.8397  0.0906  0.0940
  790MPD2    H511653   2.472   0.059  13.472  0.3575 -0.3856 -0.7497
  790MPD2    N111654   2.537   0.170  13.943 -0.9390 -0.3493 -0.2922
  790MPD2    H711655   2.504   0.203  14.033  0.2387 -1.1497  0.4390
  791MPD2     C11656   1.740   4.719  13.077  0.7448  0.2198 -0.2028
  791MPD2    C111657   1.812   4.613  13.088 -0.4166 -0.2486  0.2580
  791MPD2    C211658   1.753   4.490  13.071 -0.6572  0.2842 -0.1079
  791MPD2    C311659   1.618   4.476  13.053  0.1104  0.8114  0.8064
  791MPD2    C411660   1.542   4.590  13.050 -0.4812 -0.1576  0.7771
  791MPD2    C511661   1.604   4.714  13.064  0.3540  0.1872  0.0380
  791MPD2     H11662   1.802   4.395  13.058  0.4992  1.0199 -1.1428
  791MPD2    H111663   1.434   4.592  13.043 -0.3268  1.4415 -1.2366
  791MPD2    H211664   1.777   0.097  13.075  1.1717  0.1287  3.2538
  791MPD2    H311665   1.547   0.082  13.069  0.4297  0.2233  0.2439
  791MPD2     N11666   1.565   4.348  13.041 -0.3853  0.2879  0.1980
  791MPD2    H511667   1.626   4.267  13.052  0.2948  0.9645  1.3683
  791MPD2    N111668   1.955   4.624  13.115  0.2146 -0.2560  0.0302
  791MPD2    H711669   1.996   4.717  13.120 -2.2128  0.8950 -1.3621
  792MPD2     C11670   3.172   4.210  11.123  0.2377 -0.7592  0.1204
  792MPD2    C111671   3.044   4.181  11.078  0.8006 -0.3418 -0.1126
  792MPD2    C211672   3.025   4.092  10.973 -0.4106 -0.0237  0.0669
  792MPD2    C311673   3.132   4.030  10.913 -0.0008  0.9297 -0.0164
  792MPD2    C411674   3.255   4.058  10.959 -0.0801  0.1484 -0.1397
  792MPD2    C511675   3.274   4.148  11.059  0.0678  0.1238  0.0161
  792MPD2     H11676   2.931   4.075  10.924 -1.1983  1.3458  1.0948
  792MPD2    H111677   3.347   4.021  10.915  0.0357 -0.8169  0.9228
  792MPD2    H211678   3.193   4.273  11.208  2.1658  0.0503 -0.9565
  792MPD2    H311679   3.370   4.171  11.104 -0.3861  1.1801  0.4413
  792MPD2     N11680   3.110   3.964  10.786 -0.9352 -0.3454  0.6125
  792MPD2    H511681   3.016   3.968  10.750 -0.7971  0.0851  0.2851
  792MPD2    N111682   2.940   4.258  11.123 -0.0355  0.4049 -0.2359
  792MPD2    H711683   2.968   4.327  11.193 -0.8468  0.4422  0.0508
  793MPD2     C11684   2.598   3.545  10.026  0.7639 -0.5174  0.5316
  793MPD2    C111685   2.729   3.520  10.008 -0.3924  0.9402  0.2172
  793MPD2    C211686   2.811   3.545  10.116  0.8994  0.0201  0.3196
  793MPD2    C311687   2.763   3.589  10.238 -0.7476  0.1012  0.8825
  793MPD2    C411688   2.629   3.611  10.260  0.1582 -0.5253  0.0198
  793MPD2    C511689   2.549   3.583  10.148 -0.1076 -0.0043 -0.4175
  793MPD2     H11690   2.917   3.528  10.104  0.7584  0.2098 -1.1739
  793MPD2    H111691   2.585   3.644  10.353 -1.2947  1.2691 -1.2810
  793MPD2    H211692   2.527   3.516   9.950 -0.9890 -0.9150  2.3205
  793MPD2    H311693   2.442   3.599  10.161 -0.1093 -0.4332  0.0966
  793MPD2     N11694   2.855   3.617  10.333 -0.2119 -0.2614  0.2484
  793MPD2    H511695   2.949   3.584  10.312  0.3603  0.7172  1.3157
  793MPD2    N111696   2.788   3.489   9.887  0.4897 -0.7029  0.3822
  793MPD2    H711697   2.889   3.486   9.890  0.5991  0.4049 -2.7153
  794MPD2     C11698   2.118   4.195  17.513 -0.0278  0.2146 -0.5050
  794MPD2    C111699   2.218   4.134  17.438  0.1947  0.4648  0.1177
  794MPD2    C211700   2.202   4.115  17.299 -0.3240 -0.0227  0.2075
  794MPD2    C311701   2.088   4.167  17.237 -0.1572 -0.7034 -0.4881
  794MPD2    C411702   2.002   4.250  17.305  0.2868 -0.2861  0.2714
  794MPD2    C511703   2.019   4.260  17.436  0.2243 -0.1319 -0.6682
  794MPD2     H11704   2.278   4.059  17.245  0.6265  0.0620  1.4367
  794MPD2    H111705   1.926   4.313  17.261  1.6376  1.2379  0.1036
  794MPD2    H211706   2.117   4.214  17.620  2.7974 -0.4691 -0.3820
  794MPD2    H311707   1.948   4.327  17.484 -0.4900 -2.0375  0.9351
  794MPD2     N11708   2.061   4.156  17.096 -0.1440  0.1745 -0.5092
  794MPD2    H511709   1.977   4.200  17.059 -0.7503 -2.5651 -2.3822
  794MPD2    N111710   2.311   4.050  17.502 -0.2257  0.3585 -0.1845
  794MPD2    H711711   2.366   3.991  17.440 -0.1896  2.4925 -2.1944
  795MPD2     C11712   0.323   1.740  13.117 -0.0371  0.3643  0.3127
  795MPD2    C111713   0.287   1.614  13.154  0.4131 -0.0887 -0.5883
  795MPD2    C211714   0.366   1.508  13.134  0.3062  0.3005  0.1456
  795MPD2    C311715   0.485   1.527  13.067 -0.3275  0.0003 -0.3507
  795MPD2    C411716   0.525   1.653  13.028  0.8070  0.1994  0.6485
  795MPD2    C511717   0.440   1.759  13.052 -0.8920 -0.0396  0.0608
  795MPD2     H11718   0.340   1.409  13.170  3.0800 -0.8310 -0.9650
  795MPD2    H111719   0.617   1.685  12.982  0.5661 -1.4091 -0.9254
  795MPD2    H211720   0.256   1.826  13.120 -1.2581 -0.5368 -0.7694
  795MPD2    H311721   0.471   1.855  13.015  1.6544 -0.8703  0.0191
  795MPD2     N11722   0.576   1.424  13.047 -0.2974  0.4076 -0.0950
  795MPD2    H511723   0.547   1.337  13.091  0.2531  1.7403  2.8940
  795MPD2    N111724   0.153   1.592  13.202 -0.0852 -0.6432  0.4612
  795MPD2    H711725   0.126   1.494  13.210 -0.1288 -0.5760  1.1199
  796MPD2     C11726   4.317   2.559  16.230 -0.3880 -0.2636  0.2621
  796MPD2    C111727   4.400   2.599  16.327 -0.0391  0.0426  0.6316
  796MPD2    C211728   4.400   2.735  16.359 -0.0231  0.4583 -0.1656
  796MPD2    C311729   4.305   2.825  16.313 -0.5263 -0.3851 -0.0737
  796MPD2    C411730   4.207   2.773  16.230  0.1402 -0.0449  0.6595
  796MPD2    C511731   4.215   2.643  16.189 -0.1085  0.3893 -0.3343
  796MPD2     H11732   4.460   2.776  16.439 -1.0953 -0.6068  1.2050
  796MPD2    H111733   4.125   2.836  16.197  0.3558 -0.6083 -0.9935
  796MPD2    H211734   4.310   2.457  16.195  0.4331  0.4040 -1.8447
  796MPD2    H311735   4.154   2.603  16.109 -1.2446 -0.1905  0.8276
  796MPD2     N11736   4.316   2.958  16.349  0.8880  0.2175 -0.7707
  796MPD2    H511737   4.392   2.982  16.412  1.2083 -2.0370 -0.2792
  796MPD2    N111738   4.495   2.508  16.369  0.1871  0.7877 -0.0964
  796MPD2    H711739   4.481   2.411  16.342  1.7405 -0.0623  2.1344
  797MPD2     C11740   0.282   2.241   0.129  0.3519 -0.4583  0.9505
  797MPD2    C111741   0.295   2.363   0.190 -0.4571 -0.3411  0.6858
  797MPD2    C211742   0.270   2.481   0.117  0.5147 -0.3596  0.0880
  797MPD2    C311743   0.210   2.483  17.688 -0.6088 -0.8250 -0.3625
  797MPD2    C411744   0.196   2.356  17.628  0.5515  0.1981  0.5940
  797MPD2    C511745   0.227   2.245   0.002 -0.4462 -0.3290  0.3585
  797MPD2     H11746   0.281   2.569   0.179  1.1065 -0.3536 -0.0317
  797MPD2    H111747   0.158   2.349  17.527 -1.3931  1.1738  1.2607
  797MPD2    H211748   0.291   2.148   0.184  0.2227  0.5095  2.6226
  797MPD2    H311749   0.233   2.147  17.655 -0.9231 -0.0408 -0.3424
  797MPD2     N11750   0.200   2.604  17.613 -0.0051 -0.2718  0.3210
  797MPD2    H511751   0.185   2.595  17.513 -0.4746 -1.7614  0.5174
  797MPD2    N111752   0.355   2.379   0.323 -0.3738 -0.3686 -0.5281
  797MPD2    H711753   0.358   2.474   0.361  2.6789 -0.5224 -0.3548
  798MPD2     C11754   0.599   3.056   0.281 -0.6523 -0.1288  0.6519
  798MPD2    C111755   0.490   2.973   0.254 -0.6386 -0.0113  0.1640
  798MPD2    C211756   0.455   2.869   0.343  0.8032  0.0737  0.1536
  798MPD2    C311757   0.523   2.853   0.458 -0.3076  0.7442 -0.1027
  798MPD2    C411758   0.626   2.942   0.491 -0.2172  0.3276  0.4044
  798MPD2    C511759   0.659   3.043   0.408 -0.1641 -0.1103 -0.2353
  798MPD2     H11760   0.382   2.798   0.306  2.0323 -0.9344 -0.3257
  798MPD2    H111761   0.690   2.932   0.578 -0.7605  2.1922  1.0162
  798MPD2    H211762   0.627   3.139   0.218 -0.3575  1.9916  3.6064
  798MPD2    H311763   0.743   3.104   0.439  0.9617 -1.3302 -0.8832
  798MPD2     N11764   0.478   2.747   0.543  0.4973 -0.3884  0.6240
  798MPD2    H511765   0.398   2.695   0.511 -0.0112  0.5018  0.4447
  798MPD2    N111766   0.415   2.978   0.137  0.2644  0.3265 -0.1597
  798MPD2    H711767   0.346   2.908   0.111  0.5051 -0.2779  0.8530
  799MPD2     C11768   3.862   3.817  14.896 -0.1924 -0.3902 -0.1191
  799MPD2    C111769   3.991   3.843  14.867 -0.4717 -0.1515 -0.6492
  799MPD2    C211770   4.020   3.878  14.734 -0.8941 -0.9042  0.4054
  799MPD2    C311771   3.921   3.879  14.635 -0.4893 -0.0129 -0.2019
  799MPD2    C411772   3.792   3.845  14.668 -0.1186  0.1370  0.9378
  799MPD2    C511773   3.767   3.821  14.797  0.0383  0.1430  0.6499
  799MPD2     H11774   4.119   3.912  14.705 -1.3434  0.3378  0.3149
  799MPD2    H111775   3.711   3.856  14.597  1.9890  0.2901 -1.4347
  799MPD2    H211776   3.838   3.792  14.999 -0.5929 -2.5098 -0.7130
  799MPD2    H311777   3.664   3.807  14.826  0.2826 -3.5337 -0.2348
  799MPD2     N11778   3.942   3.918  14.498 -0.1876  0.1908 -0.4680
  799MPD2    H511779   3.869   3.898  14.430 -0.1226 -0.7952 -0.2555
  799MPD2    N111780   4.088   3.824  14.968 -0.3907 -0.5105 -0.1596
  799MPD2    H711781   4.052   3.806  15.062  0.2565  1.5613  0.4770
  800MPD2     C11782   0.749   0.060  14.285 -0.0151 -0.5192  1.1633
  800MPD2    C111783   0.705   0.185  14.282  0.2129  0.4427 -0.3580
  800MPD2    C211784   0.643   0.229  14.169 -0.3584  0.3385  0.0456
  800MPD2    C311785   0.611   0.141  14.063  0.2584  0.6875  0.2778
  800MPD2    C411786   0.663   0.015  14.061  0.9656  0.0413  0.3307
  800MPD2    C511787   0.743   4.708  14.170 -0.5486  0.5308 -0.4066
  800MPD2     H11788   0.610   0.332  14.160  0.9899  1.0927  3.9113
  800MPD2    H111789   0.659   4.662  13.985 -0.7324  1.2283 -0.7930
  800MPD2    H211790   0.814   0.032  14.367  2.0306 -0.6532 -0.4906
  800MPD2    H311791   0.783   4.607  14.174 -0.9499  0.5066  3.5025
  800MPD2     N11792   0.531   0.197  13.953  0.4578 -0.0384 -0.5581
  800MPD2    H511793   0.484   0.286  13.969 -4.6170 -2.6203 -1.2221
  800MPD2    N111794   0.720   0.263  14.397 -0.5564 -0.2996 -0.1501
  800MPD2    H711795   0.771   0.217  14.471 -0.9066 -2.2265 -1.1195
  801MPD2     C11796   0.572   1.035  14.777 -0.0762  0.0637 -0.1984
  801MPD2    C111797   0.508   0.938  14.699  0.2424 -0.2792  0.5873
  801MPD2    C211798   0.381   0.966  14.650 -0.3567  0.5177  0.5367
  801MPD2    C311799   0.309   1.081  14.688 -0.1391 -0.8777 -0.3136
  801MPD2    C411800   0.375   1.166  14.779  0.3665 -0.3028 -0.1177
  801MPD2    C511801   0.503   1.144  14.822  0.5828  0.4593 -0.3101
  801MPD2     H11802   0.330   0.897  14.583 -1.0653  2.4350 -0.8781
  801MPD2    H111803   0.321   1.251  14.820  0.8109  0.2474 -0.6652
  801MPD2    H211804   0.678   1.029  14.802 -0.0177 -0.3293 -0.5445
  801MPD2    H311805   0.547   1.209  14.896  1.7853  1.3767 -1.8293
  801MPD2     N11806   0.179   1.111  14.655 -1.0178 -0.0404 -0.3209
  801MPD2    H511807   0.146   1.204  14.679 -1.2098  0.9398 -4.3142
  801MPD2    N111808   0.569   0.816  14.668 -0.1440  0.5342  0.1370
  801MPD2    H711809   0.513   0.749  14.616  0.7741  0.5381 -0.8675
  802MPD2     C11810   4.357   2.185   0.768 -0.5909 -0.3838  0.6740
  802MPD2    C111811   4.258   2.135   0.686  0.3141 -0.1739  0.3774
  802MPD2    C211812   4.304   2.048   0.585 -0.3779 -0.1484  0.1938
  802MPD2    C311813   4.434   2.000   0.580 -0.2818  0.1904 -0.9389
  802MPD2    C411814   4.534   2.045   0.669 -0.4952  0.1675 -0.9195
  802MPD2    C511815   4.486   2.134   0.764  0.3306  0.6459  0.1764
  802MPD2     H11816   4.233   2.007   0.515 -0.9008  0.2893  0.4729
  802MPD2    H111817   4.640   2.021   0.671 -0.1776  1.6834  0.2486
  802MPD2    H211818   4.327   2.251   0.849 -0.6111  0.1932  0.2015
  802MPD2    H311819   4.557   2.173   0.836 -1.2129  2.2766  0.8179
  802MPD2     N11820   4.449   1.891   0.495  0.2716  0.3469  0.1368
  802MPD2    H511821   4.365   1.874   0.442 -0.5526 -0.5421  1.7230
  802MPD2    N111822   4.124   2.179   0.695 -0.2656  0.5842 -0.0878
  802MPD2    H711823   4.062   2.145   0.621 -1.2207  1.6526  0.2288
  803MPD2     C11824   0.755   4.369  11.971  0.3008 -0.1452  0.2904
  803MPD2    C111825   0.804   4.389  12.097  0.1070  0.5705  0.3820
  803MPD2    C211826   0.751   4.323  12.203 -0.1166  0.2089 -0.2606
  803MPD2    C311827   0.635   4.245  12.196 -0.8819 -0.6193 -0.1942
  803MPD2    C411828   0.590   4.219  12.066 -0.5218 -0.6480 -0.0369
  803MPD2    C511829   0.648   4.278  11.956  0.5244 -0.3956 -0.4720
  803MPD2     H11830   0.789   4.336  12.304 -0.3162  0.1332 -0.1761
  803MPD2    H111831   0.500   4.165  12.038 -1.3161  1.0727 -0.8042
  803MPD2    H211832   0.791   4.429  11.889  0.7745 -0.2648  0.4144
  803MPD2    H311833   0.606   4.270  11.857 -2.3322 -0.2523  0.7272
  803MPD2     N11834   0.582   4.179  12.310 -0.2384 -0.8452 -0.1986
  803MPD2    H511835   0.636   4.185  12.395 -0.0966 -3.0009 -0.1450
  803MPD2    N111836   0.902   4.493  12.125  0.5412 -0.5513  0.5448
  803MPD2    H711837   0.920   4.515  12.223  0.4672  0.2645  0.3748
  804MPD2     C11838   0.341   1.115  17.137  0.0055 -0.0327 -0.6990
  804MPD2    C111839   0.343   1.063  17.265  0.4624 -0.0591  0.3821
  804MPD2    C211840   0.383   1.134  17.378 -0.0472 -0.3163  0.4168
  804MPD2    C311841   0.435   1.262  17.352  0.2573  0.2372  0.0521
  804MPD2    C411842   0.427   1.320  17.222 -0.3511 -0.6579  0.4500
  804MPD2    C511843   0.381   1.244  17.118 -0.0170 -0.3293 -0.1310
  804MPD2     H11844   0.377   1.084  17.474 -0.5851 -1.5589 -0.2663
  804MPD2    H111845   0.465   1.415  17.185 -1.0163 -0.2536  0.8147
  804MPD2    H211846   0.321   1.055  17.049 -1.9069  1.1855 -1.1211
  804MPD2    H311847   0.390   1.287  17.019  0.0996  0.3328  0.1671
  804MPD2     N11848   0.479   1.341  17.465 -0.2336 -0.3077  0.1464
  804MPD2    H511849   0.481   1.292  17.553 -3.3118 -1.2320 -0.3095
  804MPD2    N111850   0.314   0.925  17.288 -0.3005 -0.8466  0.0565
  804MPD2    H711851   0.337   0.881  17.377 -1.5736 -0.4973  0.5634
  805MPD2     C11852   4.466   4.695  15.710 -0.3038 -0.1430 -0.5702
  805MPD2    C111853   4.459   4.562  15.666  0.1372 -0.3402 -0.6092
  805MPD2    C211854   4.572   4.483  15.682  0.1253 -0.0789  0.8444
  805MPD2    C311855   4.681   4.530  15.759  0.0980  0.8935  0.7375
  805MPD2    C411856   4.679   4.661  15.808 -0.1286  0.8080 -0.3187
  805MPD2    C511857   4.574   0.019  15.786  0.0326 -0.5866  0.6012
  805MPD2     H11858   4.574   4.385  15.636  1.6660  0.6602 -0.7025
  805MPD2    H111859   0.031   4.690  15.880  0.3425  1.2412 -0.9996
  805MPD2    H211860   4.388   0.042  15.684 -0.6201 -0.2599  0.0584
  805MPD2    H311861   4.574   0.123  15.815 -2.2611 -1.1345  2.5762
  805MPD2     N11862   0.077   4.457  15.780 -0.1392  0.1219 -0.9175
  805MPD2    H511863   0.142   4.495  15.848  1.3794 -3.1765 -0.5341
  805MPD2    N111864   4.347   4.508  15.606  0.3432  0.2223  0.1527
  805MPD2    H711865   4.361   4.409  15.588  2.0480 -0.0229  2.8113
  806MPD2     C11866   0.052   3.497   0.339 -0.4968 -0.2840  0.0463
  806MPD2    C111867   4.720   3.597   0.417 -0.0398  0.1690  0.4391
  806MPD2    C211868   4.709   3.729   0.369 -0.2028  0.1780 -0.1995
  806MPD2    C311869   0.034   3.760   0.241 -0.0697 -0.0546  0.7962
  806MPD2    C411870   0.083   3.660   0.164 -0.0003 -0.2229 -0.2239
  806MPD2    C511871   0.108   3.538   0.217  0.7454  0.3803 -0.1526
  806MPD2     H11872   4.674   3.809   0.432 -0.5295 -1.5105  1.7545
  806MPD2    H111873   0.137   3.678   0.071  3.2698  1.6991  2.0461
  806MPD2    H211874   0.064   3.395   0.375 -1.5586 -1.0285 -1.7302
  806MPD2    H311875   0.159   3.462   0.160  1.1080  0.2995  0.2805
  806MPD2     N11876   0.042   3.896   0.197  0.1491  0.0305 -0.3461
  806MPD2    H511877   0.010   3.962   0.268 -0.2070  1.6292 -2.0013
  806MPD2    N111878   4.685   3.558   0.547  0.2930 -0.2231 -0.0563
  806MPD2    H711879   4.691   3.460   0.574  0.8521  0.4897  2.4725
  807MPD2     C11880   4.215   3.724   1.289 -0.2232  0.0902  0.6275
  807MPD2    C111881   4.330   3.651   1.302  0.0579  0.0083 -0.2006
  807MPD2    C211882   4.362   3.603   1.427 -0.0188 -0.0696  0.0582
  807MPD2    C311883   4.283   3.631   1.540 -0.0812 -0.3246  0.4846
  807MPD2    C411884   4.168   3.709   1.519 -0.9898 -0.9899 -0.4524
  807MPD2    C511885   4.133   3.748   1.397  0.5406 -0.3652  0.2583
  807MPD2     H11886   4.446   3.535   1.436 -0.0886 -0.4079 -1.9270
  807MPD2    H111887   4.112   3.752   1.601  2.3189  0.9654  0.7759
  807MPD2    H211888   4.184   3.763   1.193  0.4677 -0.0616  0.3374
  807MPD2    H311889   4.048   3.813   1.379  1.3249  0.6794  0.3173
  807MPD2     N11890   4.323   3.601   1.672  0.3710 -0.3765  0.0526
  807MPD2    H511891   4.417   3.563   1.678  0.1659 -0.9133 -0.0914
  807MPD2    N111892   4.415   3.615   1.195  0.2246 -0.4152  0.0334
  807MPD2    H711893   4.490   3.552   1.223  1.6962  1.4146  0.2616
  808MPD2     C11894   0.701   0.094   9.985  0.0117  0.5147  0.0174
  808MPD2    C111895   0.597   0.138  10.070 -0.1718  0.1031  0.0483
  808MPD2    C211896   0.580   0.275  10.084 -0.4746 -0.1163  0.1726
  808MPD2    C311897   0.671   0.365  10.030  0.0132 -0.7690 -0.5953
  808MPD2    C411898   0.777   0.320   9.953  0.1862 -0.4462  0.5109
  808MPD2    C511899   0.790   0.184   9.929  0.3805  0.3445 -0.1808
  808MPD2     H11900   0.498   0.310  10.145 -0.8287 -0.4725 -0.1060
  808MPD2    H111901   0.852   0.386   9.912  0.3545 -1.3223 -0.5898
  808MPD2    H211902   0.713   4.713   9.964  2.2507  0.4505  1.5280
  808MPD2    H311903   0.869   0.140   9.868  1.3896 -0.2837  1.5880
  808MPD2     N11904   0.655   0.504  10.038 -0.2425  0.2915 -0.4469
  808MPD2    H511905   0.716   0.564   9.983 -1.6360  1.4868 -0.6541
  808MPD2    N111906   0.500   0.054  10.132 -0.7801 -0.0590  0.3497
  808MPD2    H711907   0.444   0.104  10.200 -0.3529  0.5378  0.2643
  809MPD2     C11908   1.088   0.802   9.519  0.0068  0.6700  0.4663
  809MPD2    C111909   1.106   0.868   9.640 -0.2525 -0.4547  0.0680
  809MPD2    C211910   0.998   0.885   9.721  0.3151  0.0114 -0.2945
  809MPD2    C311911   0.874   0.840   9.683  0.3846 -0.7286  0.0336
  809MPD2    C411912   0.851   0.785   9.552  0.0949 -0.1099  0.4535
  809MPD2    C511913   0.960   0.767   9.474 -0.3913 -1.0504 -0.0517
  809MPD2     H11914   1.009   0.933   9.817  1.5519  0.7575 -0.8138
  809MPD2    H111915   0.754   0.763   9.509  0.0122  1.7742 -0.3364
  809MPD2    H211916   1.166   0.772   9.451 -0.4864 -1.1440  0.6871
  809MPD2    H311917   0.949   0.745   9.369 -0.8003 -0.4918 -0.1254
  809MPD2     N11918   0.755   0.866   9.755  0.3504  0.0961 -0.0851
  809MPD2    H511919   0.663   0.843   9.717  0.1107  0.2786  0.3769
  809MPD2    N111920   1.235   0.894   9.684 -0.4331  0.1357  0.5762
  809MPD2    H711921   1.237   0.917   9.783 -0.7807 -1.2659  0.9091
  810MPD2     C11922   4.126   0.290  10.952  0.1263  0.0959 -0.1851
  810MPD2    C111923   4.142   0.221  10.835 -0.4928 -0.2276 -0.2545
  810MPD2    C211924   4.169   0.291  10.720 -0.5120  0.1748  0.4674
  810MPD2    C311925   4.192   0.427  10.722 -0.6987  0.0056  0.4267
  810MPD2    C411926   4.156   0.502  10.837  0.4441 -0.4430  0.2221
  810MPD2    C511927   4.120   0.428  10.945 -0.0501 -0.6741  0.1345
  810MPD2     H11928   4.183   0.235  10.629  1.1830  1.1920  0.1138
  810MPD2    H111929   4.164   0.610  10.839 -1.5797 -0.2847  0.1187
  810MPD2    H211930   4.098   0.243  11.046 -2.2768  1.4487 -0.2356
  810MPD2    H311931   4.098   0.479  11.038  0.3572  0.8963 -0.6189
  810MPD2     N11932   4.230   0.506  10.616  0.0112 -0.1893 -0.1538
  810MPD2    H511933   4.226   0.605  10.639 -0.9874  0.1156 -1.5927
  810MPD2    N111934   4.119   0.077  10.823  0.1064  0.2175 -0.3478
  810MPD2    H711935   4.116   0.044  10.727  0.7434 -0.4636 -0.1344
  811MPD2     C11936   4.059   4.217  10.295 -0.1467  0.1690  0.0163
  811MPD2    C111937   4.118   4.329  10.350  0.1200 -0.3157 -0.3666
  811MPD2    C211938   4.123   4.446  10.275  0.0303  0.6792  0.3122
  811MPD2    C311939   4.089   4.442  10.141 -0.0174 -0.5532  0.6354
  811MPD2    C411940   4.032   4.327  10.085 -0.0177  0.3564 -0.1091
  811MPD2    C511941   4.018   4.214  10.163 -0.0878  0.4750  0.0527
  811MPD2     H11942   4.164   4.539  10.311  1.7490 -0.2002  0.6485
  811MPD2    H111943   4.009   4.322   9.979 -2.0448  0.1606  0.3310
  811MPD2    H211944   4.036   4.128  10.353 -1.4094  0.7591  0.4292
  811MPD2    H311945   3.977   4.120  10.127 -1.2969  1.0064  0.0492
  811MPD2     N11946   4.109   4.563  10.070  0.0609  0.0761 -0.4369
  811MPD2    H511947   4.155   4.642  10.114 -1.1587  0.2201  0.5938
  811MPD2    N111948   4.153   4.335  10.486  0.6704  0.5807  0.4984
  811MPD2    H711949   4.128   4.247  10.530  0.2747  0.0262 -0.8117
  812MPD2     C11950   3.299   4.286  12.296 -0.0911  0.1317 -0.3507
  812MPD2    C111951   3.216   4.378  12.346 -0.0599  0.4519 -0.3287
  812MPD2    C211952   3.209   4.395  12.487 -0.3360  0.3373 -0.0836
  812MPD2    C311953   3.270   4.301  12.562 -0.7772  0.1437  0.2800
  812MPD2    C411954   3.336   4.192  12.509  0.6689 -0.0958 -0.1258
  812MPD2    C511955   3.336   4.180  12.372  0.3225 -0.0684  0.3042
  812MPD2     H11956   3.170   4.487  12.529  2.5502  2.2695 -1.6918
  812MPD2    H111957   3.385   4.107  12.554 -2.7012 -1.8381  0.3040
  812MPD2    H211958   3.317   4.260  12.192  0.8868 -2.1717  0.3819
  812MPD2    H311959   3.378   4.100  12.313  0.4555  2.1447 -2.6215
  812MPD2     N11960   3.264   4.313  12.705  0.0976  0.0859 -0.4214
  812MPD2    H511961   3.231   4.400  12.746  1.2012  0.1311  0.3773
  812MPD2    N111962   3.156   4.474  12.255  0.1903  0.7989 -0.0105
  812MPD2    H711963   3.190   4.471  12.160 -2.6223  1.1111 -1.0036
  813MPD2     C11964   2.301   1.915  12.472 -1.0572  0.1014 -0.0162
  813MPD2    C111965   2.383   1.979  12.560  0.1294  0.2093  0.2965
  813MPD2    C211966   2.328   2.041  12.666  0.2631  0.7061  0.1657
  813MPD2    C311967   2.189   2.028  12.692 -0.0312 -0.1830  0.1842
  813MPD2    C411968   2.108   1.964  12.604 -0.5318  0.2135  0.0448
  813MPD2    C511969   2.165   1.909  12.488  0.2738  1.0881  0.2929
  813MPD2     H11970   2.394   2.102  12.726 -1.2641  1.8190  0.7266
  813MPD2    H111971   2.000   1.953  12.601 -0.8273  3.0642 -0.4788
  813MPD2    H211972   2.342   1.850  12.397 -0.6912  0.4196 -0.0916
  813MPD2    H311973   2.105   1.854  12.417 -1.2942  1.9393  0.9586
  813MPD2     N11974   2.139   2.099  12.803 -0.3530 -0.1452  0.0863
  813MPD2    H511975   2.197   2.164  12.855 -1.5372  1.3882 -0.5019
  813MPD2    N111976   2.520   1.974  12.536  0.2267 -0.7046 -0.1289
  813MPD2    H711977   2.549   1.910  12.462 -0.4903  0.1427 -1.1364
  814MPD2     C11978   2.717   2.426  12.227  0.0766  0.4799 -0.2986
  814MPD2    C111979   2.806   2.510  12.162  0.7047  0.0372  0.1456
  814MPD2    C211980   2.890   2.591  12.239 -0.0821  0.1420  0.1642
  814MPD2    C311981   2.879   2.589  12.380 -0.0194  0.5820  0.1250
  814MPD2    C411982   2.791   2.504  12.438  0.4639  0.0554  0.0598
  814MPD2    C511983   2.711   2.415  12.363 -0.2393  0.0441 -0.0766
  814MPD2     H11984   2.953   2.659  12.182  1.3648 -0.8837  0.5464
  814MPD2    H111985   2.777   2.489  12.545  0.8939  2.0463  0.3867
  814MPD2    H211986   2.638   2.372  12.176  0.6738 -1.3676  0.7360
  814MPD2    H311987   2.638   2.349  12.409  0.0289  1.1584  1.9411
  814MPD2     N11988   2.937   2.684  12.467 -0.2688  0.0047  0.3442
  814MPD2    H511989   2.919   2.673  12.566  1.9257  2.3830  0.9980
  814MPD2    N111990   2.790   2.545  12.026  0.2133 -0.0531  0.0413
  814MPD2    H711991   2.863   2.606  11.990 -0.3066 -0.1084 -1.0960
  815MPD2     C11992   3.248   1.711  11.717 -0.5004  0.1936  0.1715
  815MPD2    C111993   3.162   1.603  11.721  0.5890 -0.2705  0.1226
  815MPD2    C211994   3.038   1.630  11.774 -0.0045 -0.1862  0.1688
  815MPD2    C311995   3.010   1.755  11.827 -0.0367  0.3996  0.0572
  815MPD2    C411996   3.103   1.859  11.819 -0.4925  0.1695  0.3326
  815MPD2    C511997   3.214   1.836  11.752  0.2905 -0.3730 -0.6456
  815MPD2     H11998   2.961   1.554  11.765  2.3435 -2.8912  2.9612
  815MPD2    H111999   3.071   1.960  11.845 -0.6035  0.1192  0.3901
  815MPD2    H212000   3.345   1.698  11.669 -1.6801  0.4553 -2.2680
  815MPD2    H312001   3.297   1.904  11.740  0.4573  0.2383  3.7798
  815MPD2     N12002   2.883   1.767  11.882  0.5087  0.0000  0.9327
  815MPD2    H512003   2.827   1.683  11.890 -1.0757  1.1214  1.7205
  815MPD2    N112004   3.193   1.480  11.660  0.3768 -0.1746  0.1895
  815MPD2    H712005   3.282   1.472  11.613 -1.0087 -1.9615 -2.1142
  816MPD2     C12006   3.640   0.881  17.386 -0.9834  0.5134 -0.3847
  816MPD2    C112007   3.735   0.983  17.374  0.3238  0.1808  0.0724
  816MPD2    C212008   3.860   0.960  17.417  0.1318 -0.2345 -0.2992
  816MPD2    C312009   3.898   0.841  17.473 -0.1842 -0.3449  0.0337
  816MPD2    C412010   3.804   0.740  17.497  0.3426  0.2044  0.0834
  816MPD2    C512011   3.678   0.766  17.454 -0.7658 -0.0763  0.3283
  816MPD2     H12012   3.947   1.021  17.396 -0.9185  1.2070 -0.4264
  816MPD2    H112013   3.818   0.641  17.540  1.1553  0.3160  0.0749
  816MPD2    H212014   3.534   0.889  17.365 -0.8641  1.5998 -0.5550
  816MPD2    H312015   3.601   0.692  17.470 -1.0902  0.5967  1.8795
  816MPD2     N12016   4.032   0.820  17.507  0.4908 -0.5088 -0.0223
  816MPD2    H512017   4.106   0.883  17.476  0.2856  0.8210  2.2400
  816MPD2    N112018   3.697   1.106  17.317  0.1632  0.2458  0.1895
  816MPD2    H712019   3.601   1.119  17.287  0.2141  2.1736  0.8431
  817MPD2     C12020   3.955   1.874   9.833 -0.0828  0.1525  0.1946
  817MPD2    C112021   3.866   1.881   9.729  0.4950 -0.0485  0.5651
  817MPD2    C212022   3.821   2.006   9.690  0.7037  0.0267  0.5469
  817MPD2    C312023   3.853   2.122   9.757 -0.1820  0.2306  0.1983
  817MPD2    C412024   3.945   2.108   9.862  0.6022  0.3778 -0.1307
  817MPD2    C512025   3.993   1.982   9.902  0.3591 -0.2315 -0.1653
  817MPD2     H12026   3.758   2.005   9.602 -0.9735 -1.2268  1.7673
  817MPD2    H112027   3.969   2.188   9.932 -3.7211  1.8340 -0.3421
  817MPD2    H212028   3.983   1.777   9.872 -2.3064  0.2476  2.0761
  817MPD2    H312029   4.068   1.959   9.977 -1.3428 -1.0091  1.2822
  817MPD2     N12030   3.817   2.252   9.705  0.1360  0.2317  0.1913
  817MPD2    H512031   3.755   2.258   9.626  0.3887  3.6190  0.2444
  817MPD2    N112032   3.822   1.767   9.652 -0.0402  0.0374  0.1378
  817MPD2    H712033   3.747   1.785   9.586  2.2920  0.6253 -2.3299
  818MPD2     C12034   2.421   1.640  10.108 -0.4540  0.0614  0.0111
  818MPD2    C112035   2.292   1.603  10.086  1.2139  0.1004 -0.0347
  818MPD2    C212036   2.261   1.481  10.035 -0.2227 -0.1862 -0.0947
  818MPD2    C312037   2.350   1.387  10.018 -0.1395  0.3165  0.1022
  818MPD2    C412038   2.479   1.427  10.029  0.0078 -0.4393 -0.0719
  818MPD2    C512039   2.510   1.545  10.076 -0.1150 -0.3072  0.4959
  818MPD2     H12040   2.161   1.460   9.997 -0.1222  0.3276 -0.6287
  818MPD2    H112041   2.561   1.355  10.029 -0.0779 -0.5383 -0.6477
  818MPD2    H212042   2.454   1.735  10.149 -0.1881  0.3580 -0.8808
  818MPD2    H312043   2.616   1.558  10.097 -0.2611  0.9156  0.4813
  818MPD2     N12044   2.328   1.250   9.998 -0.0404 -0.5309 -0.6503
  818MPD2    H512045   2.414   1.198   9.987  0.3057  0.2065 -1.4785
  818MPD2    N112046   2.182   1.691  10.099 -1.0542  0.4128 -0.1903
  818MPD2    H712047   2.092   1.646  10.116 -1.0579  0.0656 -1.1238
  819MPD2     C12048   0.241   3.755  15.439  0.2399  0.0479  0.9168
  819MPD2    C112049   0.209   3.654  15.526 -0.1621  0.3037  0.1554
  819MPD2    C212050   0.325   3.582  15.575 -0.2944 -0.1245 -0.6743
  819MPD2    C312051   0.454   3.612  15.547  0.4578 -0.0954  0.2400
  819MPD2    C412052   0.478   3.723  15.460  0.4407  0.1193 -0.4579
  819MPD2    C512053   0.369   3.786  15.404  0.0074  0.7165 -0.6442
  819MPD2     H12054   0.299   3.494  15.633  1.5814  0.4740  1.0660
  819MPD2    H112055   0.579   3.751  15.433  0.2733  2.3184  1.2851
  819MPD2    H212056   0.167   3.809  15.381  3.1250  0.6362 -2.2064
  819MPD2    H312057   0.381   3.861  15.326 -2.3748  1.0932 -0.6567
  819MPD2     N12058   0.554   3.527  15.599 -0.1585  0.0739 -0.0077
  819MPD2    H512059   0.522   3.453  15.661 -0.2647 -1.0822 -1.4522
  819MPD2    N112060   0.078   3.619  15.552 -0.1875  0.3180  0.0606
  819MPD2    H712061   0.005   3.677  15.511 -0.0479  1.4068  1.3248
  820MPD2     C12062   3.933   3.912  15.255  0.4035  0.3927 -0.2269
  820MPD2    C112063   4.048   3.975  15.303 -0.4050 -0.4637 -0.0666
  820MPD2    C212064   4.147   3.902  15.370 -0.2286  0.1126  0.2161
  820MPD2    C312065   4.132   3.757  15.384 -0.3467 -0.3412 -0.2280
  820MPD2    C412066   4.013   3.698  15.336  0.3934  0.8872  0.2901
  820MPD2    C512067   3.918   3.779  15.270  0.5554  0.2042 -0.0562
  820MPD2     H12068   4.242   3.950  15.388 -0.1899 -0.2224  0.9042
  820MPD2    H112069   3.983   3.601  15.373  2.2599  0.6087  1.0688
  820MPD2    H212070   3.849   3.968  15.216 -0.8081 -1.5224 -0.3967
  820MPD2    H312071   3.822   3.738  15.243  1.2918 -1.3461 -0.3267
  820MPD2     N12072   4.228   3.670  15.439  0.2588 -0.4039 -0.5225
  820MPD2    H512073   4.218   3.570  15.430  1.6157 -0.4909 -1.0990
  820MPD2    N112074   4.056   4.113  15.282  0.2346  0.0022 -0.1330
  820MPD2    H712075   3.990   4.156  15.218  1.3215  1.6106 -0.1724
  821MPD2     C12076   0.566   0.124  13.087 -1.2325  0.4184 -0.1107
  821MPD2    C112077   0.648   0.189  13.183 -0.7531 -0.6018 -0.4551
  821MPD2    C212078   0.779   0.215  13.140 -0.8579 -0.1619  0.0713
  821MPD2    C312079   0.823   0.200  13.008 -0.7468 -0.3868  0.8414
  821MPD2    C412080   0.741   0.134  12.919 -0.3152  0.1469  0.4713
  821MPD2    C512081   0.615   0.098  12.961  0.0949  0.4508 -0.2839
  821MPD2     H12082   0.833   0.269  13.218 -1.2932  0.3769 -0.0049
  821MPD2    H112083   0.769   0.107  12.818  0.6388  1.7027  0.3080
  821MPD2    H212084   0.465   0.093  13.107 -2.1070  2.5467 -1.1749
  821MPD2    H312085   0.553   0.040  12.894  0.2561 -2.7044  2.2628
  821MPD2     N12086   0.947   0.236  12.958 -0.6301  0.4656 -0.4225
  821MPD2    H512087   0.961   0.223  12.859 -0.7827 -0.8711 -0.2655
  821MPD2    N112088   0.610   0.233  13.310  0.1426 -0.3932  0.6379
  821MPD2    H712089   0.674   0.297  13.356 -0.0223 -0.8050  1.4405
  822MPD2     C12090   1.078   0.502  15.908  0.5990  0.1708 -0.2601
  822MPD2    C112091   1.078   0.465  16.042  0.0733  0.3627 -0.2241
  822MPD2    C212092   0.988   0.538  16.120  0.0794  0.0653  0.1172
  822MPD2    C312093   0.928   0.655  16.081  0.0665  0.0643 -0.4325
  822MPD2    C412094   0.941   0.691  15.939 -0.3018 -0.2461 -0.0480
  822MPD2    C512095   1.011   0.605  15.855 -0.1084  0.4399  0.2906
  822MPD2     H12096   0.985   0.511  16.225  1.2024 -0.8371 -0.0866
  822MPD2    H112097   0.896   0.783  15.903 -0.7943 -1.1527 -1.7578
  822MPD2    H212098   1.136   0.440  15.841 -1.1197  1.7135 -3.2001
  822MPD2    H312099   1.012   0.630  15.750 -3.0840  2.2522  0.6860
  822MPD2     N12100   0.869   0.731  16.185  0.4781 -0.3193 -0.3550
  822MPD2    H512101   0.853   0.687  16.275 -1.8195  2.7043  0.6901
  822MPD2    N112102   1.149   0.360  16.098 -1.1653 -0.2407  0.7914
  822MPD2    H712103   1.158   0.363  16.199  0.8774 -0.0952  0.6013
  823MPD2     C12104   0.612   0.997  16.922 -0.3057  0.5419 -0.2665
  823MPD2    C112105   0.640   0.895  16.838 -0.9456 -0.6301  0.7435
  823MPD2    C212106   0.696   0.782  16.891  0.4123  0.7359 -0.3343
  823MPD2    C312107   0.719   0.766  17.027 -0.1013  0.0570  0.9278
  823MPD2    C412108   0.688   0.870  17.115  0.3960 -0.1688  0.3644
  823MPD2    C512109   0.634   0.987  17.061 -0.0159 -0.4897 -0.3001
  823MPD2     H12110   0.718   0.706  16.817 -0.4590 -0.2193  0.3953
  823MPD2    H112111   0.707   0.859  17.222  0.5526 -1.7497  0.1743
  823MPD2    H212112   0.568   1.092  16.893 -0.9258  0.5013  0.5274
  823MPD2    H312113   0.614   1.066  17.133  0.8111 -0.6291  0.0794
  823MPD2     N12114   0.767   0.645  17.076 -0.1664 -0.2334 -0.7498
  823MPD2    H512115   0.780   0.635  17.177  1.3005  2.2236 -0.6838
  823MPD2    N112116   0.620   0.928  16.702 -0.0292  0.8000 -0.0469
  823MPD2    H712117   0.596   1.025  16.687  2.0042  1.1674 -0.8633
  824MPD2     C12118   1.617   4.316  16.316  0.1513  0.0858  0.6566
  824MPD2    C112119   1.581   4.393  16.205  0.9151  0.1417  0.2907
  824MPD2    C212120   1.626   4.348  16.080  0.1151 -0.1081  0.2920
  824MPD2    C312121   1.700   4.231  16.068  0.3549 -0.3636  0.2580
  824MPD2    C412122   1.731   4.162  16.179 -0.1429 -0.3381  1.4326
  824MPD2    C512123   1.690   4.205  16.299  0.4949 -0.9529  0.9439
  824MPD2     H12124   1.590   4.403  15.993  2.7912 -1.3732 -1.5961
  824MPD2    H112125   1.795   4.074  16.186  1.6843  0.9324  0.7197
  824MPD2    H212126   1.591   4.341  16.418 -0.7058 -1.6026  0.8523
  824MPD2    H312127   1.714   4.144  16.385  1.7566 -0.8154  0.6924
  824MPD2     N12128   1.743   4.183  15.941 -0.5448  0.2329 -0.0095
  824MPD2    H512129   1.735   4.242  15.859 -1.1481 -0.5851 -0.5375
  824MPD2    N112130   1.508   4.512  16.228  0.5375  0.0604 -0.7376
  824MPD2    H712131   1.478   4.529  16.324 -0.7015 -0.2009 -1.0900
  825MPD2     C12132   2.179   4.089  15.217 -0.4407  0.2188  0.0838
  825MPD2    C112133   2.175   4.163  15.333  0.0990 -0.6897 -0.3488
  825MPD2    C212134   2.239   4.290  15.343  0.4295 -0.1143 -0.2686
  825MPD2    C312135   2.326   4.332  15.236 -0.2106  0.1987  0.1467
  825MPD2    C412136   2.326   4.254  15.120  0.3910 -0.1354 -0.0859
  825MPD2    C512137   2.256   4.136  15.115  0.1923 -0.2431 -0.0923
  825MPD2     H12138   2.232   4.340  15.439 -3.1098  1.1821 -1.1943
  825MPD2    H112139   2.401   4.280  15.047  2.1013  1.4693  2.2379
  825MPD2    H212140   2.131   3.992  15.202 -0.6700  0.5537 -1.3579
  825MPD2    H312141   2.261   4.080  15.022 -0.4714  1.0908 -0.9500
  825MPD2     N12142   2.398   4.452  15.236  0.0598  0.1770 -0.4825
  825MPD2    H512143   2.452   4.468  15.152 -1.2201 -3.5681 -2.0464
  825MPD2    N112144   2.096   4.100  15.439 -0.4316  0.0216  0.0999
  825MPD2    H712145   2.083   4.000  15.424  0.1037 -0.2948  1.6627
  826MPD2     C12146   0.984   4.261  13.798 -0.2141 -0.6707  0.1838
  826MPD2    C112147   0.943   4.316  13.682 -0.6166  0.8618 -0.4017
  826MPD2    C212148   0.893   4.444  13.678  0.1211 -0.0317 -0.2015
  826MPD2    C312149   0.895   4.522  13.795  0.8009 -0.0238 -0.3029
  826MPD2    C412150   0.929   4.465  13.914 -0.6197  0.1502 -0.3856
  826MPD2    C512151   0.982   4.337  13.919 -0.4560  0.6039 -0.0131
  826MPD2     H12152   0.867   4.497  13.587 -1.4165  0.1778  0.3642
  826MPD2    H112153   0.910   4.517  14.007  0.0652  0.9232 -0.6751
  826MPD2    H212154   1.017   4.159  13.805 -0.1071 -0.6379  0.1537
  826MPD2    H312155   1.046   4.308  14.001 -0.9192  2.0147  0.8466
  826MPD2     N12156   0.860   4.663  13.802  0.2854 -0.1686 -0.7682
  826MPD2    H512157   0.881   4.711  13.889 -1.8086  4.0153 -2.5623
  826MPD2    N112158   0.952   4.234  13.564  0.4703  0.1231  0.0766
  826MPD2    H712159   0.996   4.142  13.568 -0.5566 -0.3871 -0.2749
  827MPD2     C12160   2.021   0.447  10.211 -0.4021  0.1996 -0.1818
  827MPD2    C112161   2.152   0.410  10.217  0.3422  0.4341 -0.0705
  827MPD2    C212162   2.208   0.335  10.118 -0.1252 -0.7104  0.2006
  827MPD2    C312163   2.125   0.287  10.025  0.2116 -0.1320  0.1796
  827MPD2    C412164   1.987   0.317  10.021  0.5898  0.0980 -0.0195
  827MPD2    C512165   1.941   0.404  10.115  0.1834 -0.0922 -0.0241
  827MPD2     H12166   2.308   0.294  10.122 -0.7773 -2.0835  2.3207
  827MPD2    H112167   1.921   0.272   9.947  1.3511 -0.4819 -0.3531
  827MPD2    H212168   1.974   0.507  10.288 -2.3040  2.2568 -2.9090
  827MPD2    H312169   1.835   0.422  10.132 -0.2806 -1.2416 -1.7077
  827MPD2     N12170   2.181   0.197   9.935 -0.0433  0.1668  0.4145
  827MPD2    H512171   2.279   0.182   9.953  0.3097  1.0268 -0.8185
  827MPD2    N112172   2.223   0.459  10.329  0.3191 -0.3193  0.7496
  827MPD2    H712173   2.177   0.527  10.388 -0.2621 -1.5291  1.6708
  828MPD2     C12174   0.753   0.665  12.165  0.4107  0.0379 -0.6150
  828MPD2    C112175   0.703   0.543  12.191 -0.2363 -0.7214 -0.2789
  828MPD2    C212176   0.740   0.436  12.114 -0.5547  0.3917 -0.3576
  828MPD2    C312177   0.836   0.453  12.020 -0.3054  0.3979 -0.2588
  828MPD2    C412178   0.896   0.577  12.002 -0.0555 -0.2322 -0.2599
  828MPD2    C512179   0.856   0.681  12.077 -0.4252 -0.0949 -0.3509
  828MPD2     H12180   0.685   0.346  12.140  0.6338  0.1617  1.3213
  828MPD2    H112181   0.977   0.595  11.932  0.0425  2.3580  0.5294
  828MPD2    H212182   0.734   0.752  12.228  1.2624  0.2250 -0.6265
  828MPD2    H312183   0.912   0.773  12.080 -0.4925 -0.0477 -0.5513
  828MPD2     N12184   0.899   0.351  11.941  0.4126 -0.4218  0.1619
  828MPD2    H512185   0.966   0.376  11.868 -0.7287  3.0402  0.2651
  828MPD2    N112186   0.594   0.515  12.277  0.1111 -0.0086 -0.2591
  828MPD2    H712187   0.549   0.425  12.265  1.6857 -0.9689  0.9686
  829MPD2     C12188   4.709   0.082  11.993 -0.0192 -0.5619 -0.5690
  829MPD2    C112189   4.637   0.185  12.051 -0.5173  0.2159  0.1803
  829MPD2    C212190   4.697   0.266  12.148 -0.3698  0.0001  0.4296
  829MPD2    C312191   0.096   0.223  12.200  0.3006 -0.4288  0.1464
  829MPD2    C412192   0.170   0.127  12.141 -0.0232  0.3539 -0.5103
  829MPD2    C512193   0.115   0.058  12.035 -1.1716 -0.4379  0.0620
  829MPD2     H12194   4.655   0.353  12.197  3.5593  1.1428  1.7530
  829MPD2    H112195   0.258   0.088  12.191  0.1479  0.3959 -0.7759
  829MPD2    H212196   4.661   0.019  11.919  0.3233 -2.3101  0.6892
  829MPD2    H312197   0.172   4.699  11.994  1.1627 -0.8980  4.1839
  829MPD2     N12198   0.170   0.294  12.299  0.0402 -0.0288 -0.2117
  829MPD2    H512199   0.271   0.288  12.300  0.1323  1.7805  0.3481
  829MPD2    N112200   4.511   0.200  12.005  0.0833 -0.1008 -0.1057
  829MPD2    H712201   4.474   0.123  11.951  0.1135  0.1416 -0.4741
  830MPD2     C12202   1.264   3.708  15.867 -0.4065 -0.0902  0.2816
  830MPD2    C112203   1.242   3.659  15.742  0.3948 -0.3311 -1.1368
  830MPD2    C212204   1.280   3.734  15.629 -0.2495 -0.1816  0.2445
  830MPD2    C312205   1.343   3.855  15.645 -0.9586  0.3582 -0.3275
  830MPD2    C412206   1.373   3.901  15.770  0.0870  0.1205  0.3283
  830MPD2    C512207   1.332   3.825  15.881  0.1287  0.1782  0.3690
  830MPD2     H12208   1.259   3.688  15.533  0.2215  0.3337 -0.1051
  830MPD2    H112209   1.432   3.992  15.780  0.0484  0.1201  0.5558
  830MPD2    H212210   1.236   3.652  15.955 -0.3988 -2.1303 -1.0036
  830MPD2    H312211   1.345   3.859  15.983  0.6941  2.9591 -0.6293
  830MPD2     N12212   1.368   3.943  15.532  0.1437 -0.0588 -0.9203
  830MPD2    H512213   1.392   4.040  15.551  2.4275 -0.9842  0.8006
  830MPD2    N112214   1.158   3.545  15.738  0.1722  0.0973 -1.3322
  830MPD2    H712215   1.133   3.505  15.828  4.9006 -0.2179 -0.1429
  831MPD2     C12216   1.103   0.887  16.507  0.0676 -0.0865  0.4776
  831MPD2    C112217   1.167   0.801  16.420  0.4782  0.3630  0.5463
  831MPD2    C212218   1.140   0.667  16.434 -0.0210  0.1332 -0.5033
  831MPD2    C312219   1.049   0.619  16.534 -0.0989  0.7183 -0.4508
  831MPD2    C412220   0.990   0.705  16.621  0.3200  0.0507  0.1831
  831MPD2    C512221   1.028   0.841  16.610  0.2455  0.2681 -0.6937
  831MPD2     H12222   1.164   0.600  16.353  3.9443  0.8131  0.0941
  831MPD2    H112223   0.921   0.670  16.698 -0.1653  1.3644  0.3474
  831MPD2    H212224   1.117   0.995  16.499 -2.1031  0.0402 -1.5534
  831MPD2    H312225   0.983   0.910  16.681 -2.8294 -2.0309 -0.4115
  831MPD2     N12226   1.000   0.484  16.539 -0.3060 -0.2678 -0.0684
  831MPD2    H512227   0.923   0.469  16.603 -1.2583 -0.2851 -1.2270
  831MPD2    N112228   1.229   0.852  16.305  0.1666 -0.3232  0.2166
  831MPD2    H712229   1.223   0.951  16.286  0.0897 -0.0489  1.6848
  832MPD2     C12230   4.205   1.946  17.560  0.6632  0.6338 -0.1089
  832MPD2    C112231   4.233   2.057  17.483  0.0060 -0.0424  0.5914
  832MPD2    C212232   4.180   2.067  17.359  0.4973  0.1141 -0.5225
  832MPD2    C312233   4.091   1.968  17.318  0.3978  0.6273 -0.2957
  832MPD2    C412234   4.072   1.860  17.395 -0.0728 -0.9922 -0.3499
  832MPD2    C512235   4.128   1.842  17.518  0.1340  0.5669  0.5224
  832MPD2     H12236   4.177   2.159  17.302  1.9351  0.7420  0.3964
  832MPD2    H112237   4.002   1.784  17.363 -1.5018  0.0654  0.2435
  832MPD2    H212238   4.237   1.946  17.663  0.0951 -2.0428  0.0615
  832MPD2    H312239   4.107   1.756  17.580 -1.4584  0.0787 -0.6877
  832MPD2     N12240   4.013   1.965  17.197 -0.6917 -0.3002 -0.3781
  832MPD2    H512241   3.958   1.882  17.178  0.3680 -1.0629 -0.1624
  832MPD2    N112242   4.325   2.153  17.534 -0.5384  0.2342  0.7348
  832MPD2    H712243   4.353   2.146  17.631  0.2522 -0.5197  0.4520
  833MPD2     C12244   0.962   2.920  12.144  0.2402 -0.0342 -0.4579
  833MPD2    C112245   1.026   3.038  12.152 -0.4613 -0.0046  0.1097
  833MPD2    C212246   1.133   3.056  12.068 -0.1171  0.2094 -0.0853
  833MPD2    C312247   1.181   2.961  11.987 -0.4033  0.0225  0.0893
  833MPD2    C412248   1.123   2.844  11.978  0.0802  0.1154 -0.3005
  833MPD2    C512249   1.016   2.820  12.062 -0.0446  0.0334  0.2760
  833MPD2     H12250   1.194   3.146  12.066  0.2727 -0.0288  0.8447
  833MPD2    H112251   1.154   2.762  11.914  0.9369  0.3797 -0.2266
  833MPD2    H212252   0.884   2.894  12.214 -0.0209  0.9806 -0.3767
  833MPD2    H312253   0.979   2.718  12.062  2.3320 -0.8567 -2.8606
  833MPD2     N12254   1.295   2.997  11.915  0.2911 -0.3564 -0.1076
  833MPD2    H512255   1.334   3.090  11.928  0.2883 -0.3090 -0.4306
  833MPD2    N112256   0.982   3.131  12.253  0.0585 -0.0260  0.6024
  833MPD2    H712257   0.893   3.116  12.299  0.2627 -1.9059  0.4061
  834MPD2     C12258   1.509   3.008  10.954  0.5600  0.7013  0.2186
  834MPD2    C112259   1.451   2.912  11.033  0.1878 -0.9368 -0.5365
  834MPD2    C212260   1.446   2.937  11.170 -0.4826  0.0560  0.4366
  834MPD2    C312261   1.483   3.054  11.222  0.1269  0.0451 -0.3439
  834MPD2    C412262   1.550   3.148  11.150 -0.4297 -0.8955  0.2803
  834MPD2    C512263   1.562   3.122  11.016 -0.0192 -0.0189  0.4532
  834MPD2     H12264   1.403   2.855  11.227  0.8035 -0.7804  0.2003
  834MPD2    H112265   1.601   3.231  11.197 -0.6262 -1.3683  1.3458
  834MPD2    H212266   1.519   3.009  10.846  3.7740  0.2490  0.5022
  834MPD2    H312267   1.613   3.183  10.943 -1.2122 -0.5953 -0.8645
  834MPD2     N12268   1.453   3.070  11.358  0.0796  0.2011 -0.0778
  834MPD2    H512269   1.394   2.994  11.388  1.3289 -0.6054  0.3652
  834MPD2    N112270   1.407   2.790  10.972  0.4467  0.3435 -1.0593
  834MPD2    H712271   1.425   2.789  10.872 -3.6886  0.5143 -1.7766
  835MPD2     C12272   1.626   0.484  11.576  0.7941 -0.2183 -0.1928
  835MPD2    C112273   1.554   0.600  11.585 -0.0960 -0.8316  0.4503
  835MPD2    C212274   1.612   0.696  11.671  0.4910  0.5691 -0.2682
  835MPD2    C312275   1.716   0.663  11.759 -0.1204  0.4040  0.0487
  835MPD2    C412276   1.773   0.545  11.750  0.4872  0.4056 -0.2851
  835MPD2    C512277   1.732   0.454  11.655  0.4243  0.3695 -0.1880
  835MPD2     H12278   1.563   0.793  11.666 -0.5106  0.0777  0.1002
  835MPD2    H112279   1.854   0.518  11.818 -0.5244 -0.0568  0.7347
  835MPD2    H212280   1.600   0.421  11.492  0.0567  0.4472 -0.4608
  835MPD2    H312281   1.798   0.369  11.644 -0.4768 -0.4933  1.0345
  835MPD2     N12282   1.760   0.755  11.863 -0.4858 -0.0581 -0.4845
  835MPD2    H512283   1.822   0.714  11.932 -4.8472 -2.4197  2.1143
  835MPD2    N112284   1.442   0.641  11.509 -0.1332 -0.6024  0.6184
  835MPD2    H712285   1.408   0.736  11.515 -1.4746 -0.9850 -0.9224
  836MPD2     C12286   1.537   1.487  11.964 -0.3872 -0.0691  0.2562
  836MPD2    C112287   1.582   1.420  12.075 -0.3054 -0.5608  1.0748
  836MPD2    C212288   1.513   1.435  12.193  0.1606  0.1215 -0.7440
  836MPD2    C312289   1.405   1.519  12.200  0.1377 -0.1680  0.0228
  836MPD2    C412290   1.364   1.587  12.083 -0.0233 -0.1636  0.6636
  836MPD2    C512291   1.429   1.572  11.964  0.0573 -0.0480 -0.0683
  836MPD2     H12292   1.538   1.373  12.279 -0.3888  1.2432  0.2217
  836MPD2    H112293   1.298   1.672  12.089  1.7577  1.4821 -2.9210
  836MPD2    H212294   1.583   1.454  11.871  1.5055 -0.3554  1.2934
  836MPD2    H312295   1.396   1.634  11.882  1.8678 -0.6413 -1.2433
  836MPD2     N12296   1.321   1.522  12.310  0.7049 -0.1466  0.0461
  836MPD2    H512297   1.232   1.567  12.294 -0.3372 -2.3794 -0.4735
  836MPD2    N112298   1.687   1.329  12.063  0.0733  0.0353  0.5703
  836MPD2    H712299   1.733   1.321  11.973  0.6208 -0.5608  0.9022
  837MPD2     C12300   4.520   0.517  10.023  0.3980  0.5550  0.2133
  837MPD2    C112301   4.472   0.473   9.902  0.0002  0.2423  0.3062
  837MPD2    C212302   4.490   0.557   9.788  0.3603  0.2709 -0.3837
  837MPD2    C312303   4.562   0.671   9.794  0.2524 -0.3362  0.1905
  837MPD2    C412304   4.619   0.707   9.909 -0.2380 -0.6006  0.1865
  837MPD2    C512305   4.579   0.639  10.027 -0.0115  0.5216 -0.7424
  837MPD2     H12306   4.441   0.532   9.694  2.4789 -0.6107 -1.2542
  837MPD2    H112307   4.674   0.800   9.911 -1.3662  0.0500  1.5989
  837MPD2    H212308   4.511   0.458  10.113 -0.7106 -0.0751 -0.3096
  837MPD2    H312309   4.620   0.672  10.122 -1.8099 -0.5465  0.4111
  837MPD2     N12310   4.560   0.755   9.684  0.1080  0.4765  0.3672
  837MPD2    H512311   4.510   0.717   9.604  1.0535 -0.4031  0.1910
  837MPD2    N112312   4.396   0.356   9.878 -0.0466  0.1943  0.3231
  837MPD2    H712313   4.368   0.340   9.781 -1.1235  2.3459  0.2637
  838MPD2     C12314   3.256   3.570  11.642  0.4050  0.0255 -0.0996
  838MPD2    C112315   3.192   3.446  11.676 -0.0354  0.1395  0.1438
  838MPD2    C212316   3.122   3.435  11.794 -0.1616  0.5130  0.4386
  838MPD2    C312317   3.113   3.541  11.881  0.5480 -1.0410  0.0893
  838MPD2    C412318   3.185   3.661  11.847 -0.4669 -0.5335 -0.1981
  838MPD2    C512319   3.253   3.671  11.732  0.5679 -0.3330 -0.3971
  838MPD2     H12320   3.082   3.338  11.819 -1.7744  0.6472 -1.6419
  838MPD2    H112321   3.174   3.749  11.909 -0.0663 -1.7476  1.6028
  838MPD2    H212322   3.307   3.590  11.548  0.1794  0.2316 -0.1760
  838MPD2    H312323   3.290   3.769  11.705 -1.0317 -0.1650 -1.9655
  838MPD2     N12324   3.042   3.522  12.006 -0.3140 -0.0100  0.4959
  838MPD2    H512325   3.006   3.430  12.025  0.7425 -0.7422 -1.0053
  838MPD2    N112326   3.200   3.329  11.595 -0.0933 -0.3282 -0.2486
  838MPD2    H712327   3.135   3.257  11.625  0.7472 -1.0434 -0.1448
  839MPD2     C12328   2.637   3.390  11.007  0.0930  0.0052  0.0081
  839MPD2    C112329   2.666   3.259  10.979 -0.4299 -0.1108 -0.3630
  839MPD2    C212330   2.771   3.215  11.046 -0.8118 -0.3606 -0.1791
  839MPD2    C312331   2.841   3.288  11.147  0.2976  0.3818  0.5977
  839MPD2    C412332   2.801   3.410  11.179  0.3283  0.0873 -0.9075
  839MPD2    C512333   2.694   3.458  11.105  0.3492  0.5460  0.1771
  839MPD2     H12334   2.809   3.117  11.022  0.6616 -0.0617  0.8661
  839MPD2    H112335   2.850   3.474  11.252  0.1884 -0.8619  0.0130
  839MPD2    H212336   2.556   3.438  10.953 -1.5808 -0.1588  2.3648
  839MPD2    H312337   2.653   3.557  11.122  0.8389  0.9765 -1.1138
  839MPD2     N12338   2.944   3.221  11.216  0.1340 -0.6767  0.5035
  839MPD2    H512339   2.989   3.271  11.292  0.8045 -2.9391  1.6022
  839MPD2    N112340   2.592   3.171  10.903 -0.1572 -0.2342  0.1721
  839MPD2    H712341   2.603   3.071  10.890 -1.1461 -0.1634 -1.2520
  840MPD2     C12342   2.926   0.743  10.329 -0.0129 -0.6418 -0.1278
  840MPD2    C112343   2.878   0.743  10.456  0.3595 -0.4050  0.2402
  840MPD2    C212344   2.929   0.836  10.549  0.3462 -0.0060  0.2487
  840MPD2    C312345   3.023   0.928  10.508 -0.0613 -0.1494  0.0852
  840MPD2    C412346   3.071   0.922  10.378 -0.4442  0.0454 -0.2066
  840MPD2    C512347   3.015   0.842  10.292 -0.2312  0.2710  0.3332
  840MPD2     H12348   2.895   0.848  10.651 -0.3312 -0.9156  0.1288
  840MPD2    H112349   3.156   0.980  10.342  1.1468 -1.4602  1.1506
  840MPD2    H212350   2.899   0.675  10.249  1.0989 -1.9834  0.6254
  840MPD2    H312351   3.055   0.844  10.191 -0.4676  0.3325  0.2403
  840MPD2     N12352   3.067   1.040  10.580  0.1429  0.7120 -0.0683
  840MPD2    H512353   3.136   1.100  10.537  0.6328 -1.0516 -1.7588
  840MPD2    N112354   2.773   0.655  10.485  0.3237 -0.2399 -0.2309
  840MPD2    H712355   2.735   0.602  10.407 -1.0875 -0.0916  0.3716
  841MPD2     C12356   2.715   1.325  14.422  1.0167 -0.0537  0.1167
  841MPD2    C112357   2.749   1.232  14.520  0.3080  0.5827 -0.0684
  841MPD2    C212358   2.857   1.232  14.591 -0.3669  0.3604  0.6427
  841MPD2    C312359   2.949   1.329  14.559  0.3523  0.4013  0.2127
  841MPD2    C412360   2.926   1.425  14.458  0.6911  1.1254  0.9979
  841MPD2    C512361   2.805   1.428  14.391 -0.3573 -0.3820 -0.1697
  841MPD2     H12362   2.886   1.157  14.664  2.3068  0.2541 -0.5434
  841MPD2    H112363   3.001   1.499  14.431  0.1187  0.9542 -1.0150
  841MPD2    H212364   2.625   1.325  14.362  0.8864 -1.4104  0.2992
  841MPD2    H312365   2.790   1.507  14.319 -1.6758 -1.0765 -0.6659
  841MPD2     N12366   3.070   1.322  14.635  0.6563  0.1737  0.2167
  841MPD2    H512367   3.078   1.238  14.691  0.1893  0.2005  0.3155
  841MPD2    N112368   2.661   1.127  14.552  0.0634  0.4542  0.4521
  841MPD2    H712369   2.703   1.069  14.624 -0.9113  2.8357  2.9371
  842MPD2     C12370   3.436   2.375  17.333  0.2075  0.2213  0.2343
  842MPD2    C112371   3.336   2.282  17.327  0.0685 -0.2424  0.4209
  842MPD2    C212372   3.324   2.198  17.438 -0.4423 -0.0843 -0.4550
  842MPD2    C312373   3.419   2.206  17.540  0.2986  0.0628  0.0130
  842MPD2    C412374   3.503   2.309  17.559 -0.6844 -0.5196 -0.6494
  842MPD2    C512375   3.512   2.398  17.452  0.3990 -0.2939 -0.0910
  842MPD2     H12376   3.256   2.115  17.423 -0.8180  0.1999 -0.3074
  842MPD2    H112377   3.568   2.320  17.646  1.9755 -0.7509 -2.6005
  842MPD2    H212378   3.453   2.445  17.252  1.2391  0.7461  0.8972
  842MPD2    H312379   3.590   2.474  17.446  1.5896 -1.5595 -0.5932
  842MPD2     N12380   3.425   2.101  17.636  0.4095  0.3299  0.8703
  842MPD2    H512381   3.494   2.118   0.010 -0.2967  0.2567  1.5622
  842MPD2    N112382   3.256   2.289  17.209  0.1427  0.6482 -0.4024
  842MPD2    H712383   3.290   2.352  17.137  3.9282  3.1380  3.5801
  843MPD2     C12384   0.980   1.577   1.435 -0.3499  0.1198 -0.2182
  843MPD2    C112385   0.891   1.675   1.398 -0.6171 -0.8901  0.4745
  843MPD2    C212386   0.921   1.766   1.298  0.3630 -0.1582  0.6561
  843MPD2    C312387   1.039   1.767   1.228 -0.3766 -0.3805 -0.3696
  843MPD2    C412388   1.126   1.665   1.264  0.0706 -0.3678 -0.7251
  843MPD2    C512389   1.104   1.578   1.371 -0.0452 -0.1630  0.3674
  843MPD2     H12390   0.843   1.834   1.266  1.7428  0.7454 -0.6989
  843MPD2    H112391   1.217   1.648   1.208  1.5884  1.3289  1.1948
  843MPD2    H212392   0.960   1.501   1.510 -1.9048  0.9585  0.2237
  843MPD2    H312393   1.180   1.506   1.401 -0.7787 -1.3659 -0.6437
  843MPD2     N12394   1.071   1.856   1.121 -0.2200 -0.2247  0.7048
  843MPD2    H512395   1.155   1.854   1.064 -0.4400 -0.4609  0.3882
  843MPD2    N112396   0.767   1.665   1.463  0.4455  0.0094  0.6665
  843MPD2    H712397   0.744   1.581   1.515 -0.8339  0.1323  0.3041
  844MPD2     C12398   3.879   1.131  16.848 -0.0998  0.3627  0.6051
  844MPD2    C112399   3.977   1.167  16.760  0.3820 -0.2827  0.2851
  844MPD2    C212400   4.032   1.294  16.769 -0.0582 -0.3673  0.5362
  844MPD2    C312401   3.995   1.386  16.865  0.3925  0.1690  0.9494
  844MPD2    C412402   3.886   1.347  16.952  0.0821 -0.7212 -0.2519
  844MPD2    C512403   3.836   1.218  16.945 -0.1855  1.0538 -0.1939
  844MPD2     H12404   4.115   1.328  16.708 -0.0506 -0.5244  0.4601
  844MPD2    H112405   3.850   1.420  17.023  2.0297  0.9525 -0.9825
  844MPD2    H212406   3.841   1.030  16.853  2.5030 -0.6758 -0.2797
  844MPD2    H312407   3.759   1.188  17.015 -0.8427  1.8847 -0.5718
  844MPD2     N12408   4.051   1.510  16.863  0.1842 -0.5977 -0.1288
  844MPD2    H512409   4.123   1.525  16.792  1.0960  0.7312  1.0632
  844MPD2    N112410   4.041   1.081  16.672  0.0440  0.1408  0.5017
  844MPD2    H712411   4.125   1.111  16.623 -1.7445 -1.2717 -3.4453
  845MPD2     C12412   4.287   2.433  16.617 -0.5256 -0.4294 -0.6799
  845MPD2    C112413   4.356   2.418  16.743 -0.5752  0.1315 -0.2828
  845MPD2    C212414   4.369   2.292  16.796  0.0300  0.4117  0.3150
  845MPD2    C312415   4.324   2.181  16.728  0.3210  1.1374 -0.0790
  845MPD2    C412416   4.273   2.188  16.600 -0.3229  0.4680  0.2434
  845MPD2    C512417   4.258   2.317  16.549  0.4129  0.7022 -0.4632
  845MPD2     H12418   4.416   2.274  16.893 -1.0472  0.5449  0.8607
  845MPD2    H112419   4.244   2.098  16.545  1.6385  0.2431 -0.4166
  845MPD2    H212420   4.273   2.525  16.562 -0.8417  0.3802  0.7797
  845MPD2    H312421   4.221   2.313  16.447 -0.3792  0.2316 -0.1561
  845MPD2     N12422   4.337   2.061  16.803 -0.0514  0.5724  0.3233
  845MPD2    H512423   4.372   2.074  16.898 -0.8163 -2.5166  1.0295
  845MPD2    N112424   4.403   2.537  16.802  0.0371 -0.2031  0.1959
  845MPD2    H712425   4.368   2.624  16.763  0.0679  0.1124  0.8761
  846MPD2     C12426   0.911   2.766  13.940 -0.6626  0.0298  0.8333
  846MPD2    C112427   0.797   2.842  13.964  0.1132  0.5245  0.6230
  846MPD2    C212428   0.754   2.848  14.087 -0.4434 -0.7112  0.5649
  846MPD2    C312429   0.822   2.813  14.197  0.0721 -0.1520 -0.1911
  846MPD2    C412430   0.943   2.743  14.173  0.4699 -0.8233  0.0770
  846MPD2    C512431   0.982   2.714  14.045 -0.3977  0.2817 -0.9507
  846MPD2     H12432   0.666   2.909  14.108 -1.1875 -1.6147  0.0868
  846MPD2    H112433   1.004   2.702  14.252  0.0103 -0.8130  0.4340
  846MPD2    H212434   0.943   2.755  13.837 -0.2208 -1.0052  1.0807
  846MPD2    H312435   1.075   2.663  14.026 -0.8854 -1.3376  0.8848
  846MPD2     N12436   0.769   2.837  14.325  0.2200  0.1089 -0.0224
  846MPD2    H512437   0.670   2.854  14.334 -0.3807 -2.2942 -2.1589
  846MPD2    N112438   0.732   2.922  13.857 -0.6069 -0.6747 -0.2138
  846MPD2    H712439   0.650   2.977  13.882 -0.8341 -0.4603 -1.4031
  847MPD2     C12440   0.741   3.675  14.292 -0.7647  0.1997 -0.3205
  847MPD2    C112441   0.750   3.776  14.381 -0.6536  0.3459 -0.0170
  847MPD2    C212442   0.835   3.752  14.487  0.1492 -0.1811 -0.5381
  847MPD2    C312443   0.912   3.634  14.514  1.3281  0.3896  0.2255
  847MPD2    C412444   0.903   3.533  14.427  0.1246 -0.3445 -0.0709
  847MPD2    C512445   0.807   3.561  14.329 -0.1299  0.2673 -0.4352
  847MPD2     H12446   0.838   3.837  14.555 -1.7141 -1.1114  0.7302
  847MPD2    H112447   0.948   3.435  14.432  1.2604  0.1892  0.2950
  847MPD2    H212448   0.670   3.685  14.210 -0.3637 -0.0049 -0.6930
  847MPD2    H312449   0.801   3.481  14.256  2.7133 -0.5273  0.2079
  847MPD2     N12450   0.983   3.625  14.634  0.1516 -0.1746  0.1295
  847MPD2    H512451   0.973   3.709  14.691  0.8508 -1.7266  2.5159
  847MPD2    N112452   0.668   3.891  14.380 -0.7571 -0.2404  0.0416
  847MPD2    H712453   0.684   3.962  14.451  0.6751  1.2538 -1.7704
  848MPD2     C12454   3.988   2.249  16.377  0.4206 -0.3816 -0.1918
  848MPD2    C112455   3.940   2.303  16.491  0.0656 -0.4412 -0.8033
  848MPD2    C212456   3.902   2.438  16.509 -0.2928  0.1161 -0.2972
  848MPD2    C312457   3.905   2.515  16.391  0.3420 -0.0134  0.3057
  848MPD2    C412458   3.951   2.467  16.272 -0.0151 -0.3460  0.0058
  848MPD2    C512459   3.989   2.332  16.267  0.6045 -0.2066 -0.4888
  848MPD2     H12460   3.864   2.466  16.606 -0.0513  3.2094 -1.0740
  848MPD2    H112461   3.947   2.527  16.181 -1.5796  1.6131  1.3906
  848MPD2    H212462   4.031   2.150  16.364  2.2334  0.3145  0.5809
  848MPD2    H312463   4.039   2.301  16.175 -2.3694 -0.3589 -2.0621
  848MPD2     N12464   3.858   2.644  16.385 -0.6816 -0.1297 -0.1662
  848MPD2    H512465   3.877   2.701  16.304 -1.2719  0.5399  0.1620
  848MPD2    N112466   3.943   2.223  16.605 -0.0518 -0.4375 -0.2062
  848MPD2    H712467   3.950   2.270  16.695  1.3229  0.8054 -0.9543
  849MPD2     C12468   2.862   1.406  14.015 -0.2123 -0.6321 -0.8930
  849MPD2    C112469   2.914   1.515  13.953 -0.3451  0.5383  0.2304
  849MPD2    C212470   3.037   1.555  13.980 -0.4425 -0.0930  0.5388
  849MPD2    C312471   3.113   1.492  14.069 -0.7607 -0.0861 -0.4229
  849MPD2    C412472   3.063   1.378  14.134  0.5230 -0.2078  0.4858
  849MPD2    C512473   2.936   1.333  14.100 -1.0249  0.4417 -0.3760
  849MPD2     H12474   3.074   1.648  13.938 -0.9240  0.1263  0.6009
  849MPD2    H112475   3.116   1.325  14.212 -1.1751  0.1657  1.8946
  849MPD2    H212476   2.758   1.376  14.005  0.3598 -2.2606 -2.0514
  849MPD2    H312477   2.885   1.256  14.156 -1.1573  1.4835  0.9358
  849MPD2     N12478   3.242   1.547  14.101 -0.1590 -0.1148 -0.2966
  849MPD2    H512479   3.258   1.628  14.042  2.1065  0.1078  0.6240
  849MPD2    N112480   2.832   1.596  13.861 -0.0083 -0.3337  0.3206
  849MPD2    H712481   2.879   1.665  13.803  0.9211 -0.6569  0.6814
  850MPD2     C12482   0.729   0.086  15.059  0.8496  0.6898 -0.7824
  850MPD2    C112483   0.788   0.041  15.175  0.2028  0.0179  0.1234
  850MPD2    C212484   0.927   0.014  15.175 -0.2361  0.4838  0.2482
  850MPD2    C312485   1.004   0.034  15.061  0.0318  0.6678 -0.0719
  850MPD2    C412486   0.941   0.068  14.944 -0.4760  0.0129  0.3283
  850MPD2    C512487   0.812   0.102  14.948 -0.2689  0.5933  0.3165
  850MPD2     H12488   0.969   4.716  15.272  0.4588  1.3250  0.1482
  850MPD2    H112489   0.988   0.086  14.848  0.2718  1.1661  0.9102
  850MPD2    H212490   0.625   0.116  15.055  0.5525 -0.5963 -3.0471
  850MPD2    H312491   0.766   0.123  14.852  2.0480  1.5200 -0.5873
  850MPD2     N12492   1.147   0.027  15.065  0.3120 -0.1833  0.2854
  850MPD2    H512493   1.188   0.060  14.978  1.0133 -0.0494  0.6611
  850MPD2    N112494   0.701   0.036  15.283 -0.2221  0.2947  0.4672
  850MPD2    H712495   0.603   0.054  15.265 -0.5660 -1.3309  0.7347
  851MPD2     C12496   1.525   0.085  15.617 -0.4090 -0.4909 -0.1492
  851MPD2    C112497   1.397   0.033  15.618 -0.0591 -0.4610  0.1554
  851MPD2    C212498   1.384   4.630  15.567 -0.1867 -0.1141  0.9460
  851MPD2    C312499   1.489   4.555  15.520 -0.2419  0.6846 -0.2596
  851MPD2    C412500   1.617   4.595  15.554  0.2775 -0.6062 -0.1618
  851MPD2    C512501   1.629   4.724  15.602 -0.1142  0.7735 -0.1508
  851MPD2     H12502   1.283   4.601  15.541 -1.3499  1.2082  3.9365
  851MPD2    H112503   1.704   4.549  15.510 -0.1107  0.5049 -2.1007
  851MPD2    H212504   1.556   0.187  15.638  1.5227 -1.2046  0.4232
  851MPD2    H312505   1.733   0.029  15.614  0.0631 -0.4136  1.2670
  851MPD2     N12506   1.459   4.448  15.438 -0.3865 -0.1781  0.6164
  851MPD2    H512507   1.365   4.447  15.399 -0.8698 -0.1671  1.7674
  851MPD2    N112508   1.280   0.102  15.653  0.0806  0.3982  0.4390
  851MPD2    H712509   1.281   0.202  15.673 -1.9552  0.2173  1.4365
  852MPD2     C12510   0.860   1.533  10.257  0.2171 -0.5153  0.2221
  852MPD2    C112511   0.817   1.669  10.247 -0.0774  0.4872 -0.3981
  852MPD2    C212512   0.857   1.742  10.140 -0.1272 -0.1729 -0.4238
  852MPD2    C312513   0.934   1.687  10.046  0.0306 -0.0661 -0.7297
  852MPD2    C412514   0.977   1.555  10.054 -0.4952 -0.3140 -0.3087
  852MPD2    C512515   0.938   1.477  10.158  0.0786 -0.1355  0.3351
  852MPD2     H12516   0.832   1.846  10.131 -0.6010 -0.2582 -0.0852
  852MPD2    H112517   1.034   1.511   9.973 -0.3786  0.4989 -0.6706
  852MPD2    H212518   0.836   1.476  10.347  1.8255  0.2614  1.1531
  852MPD2    H312519   0.971   1.373  10.164  2.7379  0.7515  1.0341
  852MPD2     N12520   0.968   1.770   9.938  0.0914 -0.6972  0.1465
  852MPD2    H512521   0.920   1.860   9.935  1.7141  0.1388 -1.0981
  852MPD2    N112522   0.734   1.735  10.342  0.8219  0.4447 -0.3104
  852MPD2    H712523   0.722   1.835  10.327  0.5292  0.6497  1.3216
  853MPD2     C12524   2.027   2.511  11.961  0.2990 -0.4328 -0.9325
  853MPD2    C112525   2.152   2.556  11.921  0.1663  0.1625  0.8187
  853MPD2    C212526   2.189   2.524  11.795 -0.1295 -0.0411 -0.0324
  853MPD2    C312527   2.108   2.464  11.708  0.8283  0.0965 -0.2348
  853MPD2    C412528   1.976   2.437  11.742 -0.5672  0.3087 -0.2823
  853MPD2    C512529   1.937   2.459  11.873 -0.2672 -0.0417  0.2238
  853MPD2     H12530   2.289   2.552  11.764  0.1632  0.8904  1.7267
  853MPD2    H112531   1.905   2.396  11.671 -1.2558 -2.2258  1.8748
  853MPD2    H212532   1.993   2.528  12.062 -2.5638 -4.5905 -1.1982
  853MPD2    H312533   1.837   2.436  11.908 -0.5031 -3.9499 -3.0687
  853MPD2     N12534   2.154   2.438  11.577  0.1740 -0.5637  0.5691
  853MPD2    H512535   2.088   2.435  11.500  0.2130 -2.3975  0.6118
  853MPD2    N112536   2.225   2.626  12.014  0.1911  0.8817  0.6205
  853MPD2    H712537   2.172   2.655  12.095 -3.0724  0.7110 -1.4084
  854MPD2     C12538   3.255   2.589  13.270 -0.1456 -0.3180  0.1944
  854MPD2    C112539   3.368   2.630  13.339  0.5424 -0.3085  0.2492
  854MPD2    C212540   3.466   2.536  13.372  0.1088 -0.0827  0.9085
  854MPD2    C312541   3.455   2.409  13.326 -0.1891 -0.2755  0.2120
  854MPD2    C412542   3.340   2.362  13.261 -0.6241 -0.1360 -0.0596
  854MPD2    C512543   3.241   2.458  13.230  0.4647 -0.6615  0.2685
  854MPD2     H12544   3.557   2.570  13.419  0.6586 -0.3265  0.0302
  854MPD2    H112545   3.334   2.258  13.232 -1.8465  0.2759 -1.2754
  854MPD2    H212546   3.177   2.665  13.263 -0.6387 -0.9520 -1.1994
  854MPD2    H312547   3.168   2.431  13.155  2.1813 -4.0672 -0.1643
  854MPD2     N12548   3.555   2.315  13.353 -0.3148  0.0204 -0.2031
  854MPD2    H512549   3.546   2.217  13.328 -0.5816  0.6308 -2.4598
  854MPD2    N112550   3.368   2.767  13.379  0.3388 -0.1602  0.1514
  854MPD2    H712551   3.295   2.829  13.346  1.1428  2.0578  2.5817
  855MPD2     C12552   4.384   2.265  13.832  0.5297 -0.2315 -0.8086
  855MPD2    C112553   4.395   2.170  13.735  0.9792  0.7592  0.0319
  855MPD2    C212554   4.323   2.193  13.620 -0.5457 -0.6247 -0.0615
  855MPD2    C312555   4.254   2.307  13.599  0.0676 -0.9962 -0.6212
  855MPD2    C412556   4.237   2.401  13.696 -0.2423 -0.2179 -1.1040
  855MPD2    C512557   4.303   2.380  13.814 -1.0808 -0.6232  0.0537
  855MPD2     H12558   4.325   2.115  13.544  2.4303 -0.4382 -0.1599
  855MPD2    H112559   4.174   2.488  13.679  1.4728  1.0845 -0.8840
  855MPD2    H212560   4.426   2.259  13.931 -1.6511 -1.3667  0.0418
  855MPD2    H312561   4.295   2.449  13.897 -0.2618 -0.9897  0.4437
  855MPD2     N12562   4.166   2.326  13.485  0.0533  0.0368 -0.0422
  855MPD2    H512563   4.100   2.403  13.487 -1.2021 -0.9917 -1.6516
  855MPD2    N112564   4.469   2.047  13.742  1.0279  0.0167 -0.4301
  855MPD2    H712565   4.456   1.982  13.665  0.6242 -0.6365  0.1911
  856MPD2     C12566   1.691   3.109  14.172 -0.2693  0.6142  0.6685
  856MPD2    C112567   1.760   3.224  14.220  0.3451  0.9548  0.1754
  856MPD2    C212568   1.688   3.342  14.256 -0.0010  0.3797 -0.6483
  856MPD2    C312569   1.544   3.345  14.234 -0.0691  0.5672 -0.1991
  856MPD2    C412570   1.490   3.242  14.172  0.3461 -0.1989  0.5241
  856MPD2    C512571   1.559   3.130  14.146  0.3810 -0.1495  0.3545
  856MPD2     H12572   1.744   3.423  14.303 -1.5839  0.8216  0.4921
  856MPD2    H112573   1.386   3.255  14.145  0.8430 -1.0102 -1.7701
  856MPD2    H212574   1.734   3.015  14.139 -0.2777  0.9577 -0.3147
  856MPD2    H312575   1.513   3.050  14.090  1.5327  0.4234 -1.4013
  856MPD2     N12576   1.456   3.452  14.275 -0.0024 -0.1102  0.5125
  856MPD2    H512577   1.357   3.442  14.254 -0.1133  1.1674  0.3995
  856MPD2    N112578   1.887   3.206  14.283 -0.3848  0.1646 -0.1670
  856MPD2    H712579   1.902   3.114  14.322  0.3434  0.1194 -0.5534
  857MPD2     C12580   3.185   0.397  13.362  0.5792  0.2240  0.4350
  857MPD2    C112581   3.269   0.416  13.256  0.2323  0.1042  0.6860
  857MPD2    C212582   3.341   0.536  13.254  0.1569 -0.2768  0.1457
  857MPD2    C312583   3.311   0.635  13.349  0.2327  0.2953  0.1528
  857MPD2    C412584   3.236   0.605  13.462 -0.1843 -0.0906  0.0010
  857MPD2    C512585   3.176   0.486  13.468 -0.8318  0.7787  0.3301
  857MPD2     H12586   3.407   0.570  13.175  0.4655 -1.3819 -0.0768
  857MPD2    H112587   3.233   0.678  13.542  1.3545 -0.5661  0.5065
  857MPD2    H212588   3.122   0.309  13.369  0.6158  0.2959  1.7007
  857MPD2    H312589   3.123   0.465  13.561 -3.0759  1.7588 -0.7442
  857MPD2     N12590   3.372   0.759  13.326  0.1973  0.2624 -0.0338
  857MPD2    H512591   3.442   0.759  13.252  0.0446  0.6662 -0.1791
  857MPD2    N112592   3.278   0.317  13.153  0.5231  0.0929  0.3136
  857MPD2    H712593   3.210   0.244  13.170  2.5743 -1.6402  1.1416
  858MPD2     C12594   4.157   4.602  16.647 -0.6602  0.1339  0.1083
  858MPD2    C112595   4.213   4.507  16.727 -0.1296 -0.3181  0.2823
  858MPD2    C212596   4.269   4.541  16.847 -0.2934 -0.2732  0.1224
  858MPD2    C312597   4.269   4.674  16.883 -0.4562  0.4136 -0.9491
  858MPD2    C412598   4.221   0.051  16.803  0.0123 -0.5480  0.1588
  858MPD2    C512599   4.156   0.011  16.691  0.0528 -0.4311 -0.4273
  858MPD2     H12600   4.314   4.468  16.913  2.6374  1.3192 -0.1275
  858MPD2    H112601   4.234   0.155  16.832 -0.8882 -0.5091  0.4053
  858MPD2    H212602   4.121   4.572  16.549 -2.4971  1.0194  0.5233
  858MPD2    H312603   4.117   0.088  16.626  0.2730 -0.4073 -0.5304
  858MPD2     N12604   4.313   4.721  17.014  0.9936 -0.1794  0.3319
  858MPD2    H512605   4.311   0.098  17.023 -2.3915 -0.0679 -1.3823
  858MPD2    N112606   4.224   4.376  16.668  0.0755 -0.3432  0.1398
  858MPD2    H712607   4.174   4.362  16.581 -0.9548  0.5816  0.5714
  859MPD2     C12608   3.077   2.095  15.987  1.0410  0.1110  0.3598
  859MPD2    C112609   3.098   2.037  15.867  0.0360  0.2869  0.5317
  859MPD2    C212610   3.069   1.903  15.840  0.1416  0.3950  0.2124
  859MPD2    C312611   3.009   1.828  15.939  0.0125 -0.3915 -0.1202
  859MPD2    C412612   2.987   1.888  16.066 -0.4883 -0.2667 -0.5320
  859MPD2    C512613   3.022   2.018  16.088 -0.0860 -0.5824  0.0338
  859MPD2     H12614   3.097   1.854  15.747  0.5703  0.6984  0.1839
  859MPD2    H112615   2.934   1.832  16.142 -1.4061  1.3510  0.0275
  859MPD2    H212616   3.087   2.203  15.996  3.3824 -0.1984  1.3979
  859MPD2    H312617   2.997   2.056  16.187 -0.4803  0.6117 -0.5227
  859MPD2     N12618   2.983   1.691  15.923 -0.2343 -0.4190  0.1090
  859MPD2    H512619   2.950   1.649  16.010 -3.7629  0.6414 -0.7007
  859MPD2    N112620   3.150   2.119  15.767  0.6398  0.6064 -0.3530
  859MPD2    H712621   3.179   2.214  15.789  0.4960  0.3362  1.0219
  860MPD2     C12622   0.210   1.389  11.942 -0.6851 -0.0741 -0.2128
  860MPD2    C112623   0.238   1.510  12.001  0.1102  0.2397 -0.0693
  860MPD2    C212624   0.169   1.555  12.107 -0.0007  0.3758  0.3888
  860MPD2    C312625   0.055   1.494  12.153 -0.4532  0.0500 -0.2147
  860MPD2    C412626   0.017   1.375  12.090 -0.0853 -0.1110  0.4452
  860MPD2    C512627   0.101   1.320  11.992 -0.3706 -0.0057 -0.3629
  860MPD2     H12628   0.207   1.642  12.159  0.6377 -1.3617  2.8114
  860MPD2    H112629   4.658   1.312  12.121 -0.4013 -0.3480 -0.8953
  860MPD2    H212630   0.269   1.339  11.866  1.0712  1.4324  0.1587
  860MPD2    H312631   0.076   1.224  11.947  0.8873 -0.6818  0.3834
  860MPD2     N12632   0.007   1.546  12.274  0.1426  0.3975 -0.4206
  860MPD2    H512633   0.037   1.637  12.307  2.1094 -1.0429  1.7345
  860MPD2    N112634   0.352   1.590  11.970 -0.2765  0.4624 -0.1930
  860MPD2    H712635   0.372   1.672  12.027  1.0527 -0.0315  0.0482
  861MPD2     C12636   3.281   4.572  11.154  0.0887 -0.6983  0.0352
  861MPD2    C112637   3.326   4.699  11.191  0.5263 -0.4215  0.1855
  861MPD2    C212638   3.345   0.070  11.092 -0.3149  0.0049  0.2898
  861MPD2    C312639   3.303   0.047  10.956 -0.0506 -0.2783 -0.5597
  861MPD2    C412640   3.257   4.643  10.922  0.1798 -0.4207  0.4091
  861MPD2    C512641   3.247   4.550  11.022  0.2252 -0.3367 -0.0676
  861MPD2     H12642   3.383   0.166  11.123  1.2554  0.3951 -2.8120
  861MPD2    H112643   3.217   4.629  10.823 -0.4442 -0.0767  0.6134
  861MPD2    H212644   3.282   4.487  11.221  2.7092  0.3141  1.2744
  861MPD2    H312645   3.199   4.457  10.993  0.8049 -1.0760  1.2969
  861MPD2     N12646   3.305   0.149  10.853 -0.2430  0.1656  1.0280
  861MPD2    H512647   3.257   0.130  10.766  0.2969  0.2015  0.7194
  861MPD2    N112648   3.359   0.004  11.325 -0.0586  0.3514  0.2117
  861MPD2    H712649   3.336   4.647  11.381  2.5128 -0.2154  0.4038
  862MPD2     C12650   3.176   0.289  10.183  0.7501  0.6192  0.1598
  862MPD2    C112651   3.243   0.238  10.296 -0.2790 -0.2129 -0.2056
  862MPD2    C212652   3.265   0.102  10.312  0.3534  0.2059  0.1133
  862MPD2    C312653   3.211   0.012  10.228 -0.1731  0.2205 -0.3933
  862MPD2    C412654   3.160   0.056  10.112 -0.1651  0.0535  0.4122
  862MPD2    C512655   3.149   0.192  10.088  0.0484  0.5996 -0.4811
  862MPD2     H12656   3.309   0.073  10.407 -1.3831  0.4037  0.9751
  862MPD2    H112657   3.121   4.710  10.039 -1.0711  2.9240 -1.8450
  862MPD2    H212658   3.158   0.396  10.172 -0.5897  0.3334 -0.4113
  862MPD2    H312659   3.111   0.216   9.990  0.3518  3.0478  0.0150
  862MPD2     N12660   3.214   4.594  10.250  0.1825 -0.2912 -0.6588
  862MPD2    H512661   3.165   4.534  10.185 -0.0439  0.0870 -0.8390
  862MPD2    N112662   3.289   0.323  10.402  0.0733 -0.0866 -0.1882
  862MPD2    H712663   3.323   0.280  10.488 -1.7281 -2.5077 -0.6819
  863MPD2     C12664   2.888   3.488  16.599  0.1030  0.4226 -0.1344
  863MPD2    C112665   2.833   3.488  16.727 -0.5045 -0.0457  0.5721
  863MPD2    C212666   2.904   3.428  16.828  0.3506  0.1093 -0.5947
  863MPD2    C312667   3.041   3.401  16.813 -0.1056  0.0837  0.9643
  863MPD2    C412668   3.101   3.415  16.687  0.0345 -0.9406 -1.2679
  863MPD2    C512669   3.021   3.451  16.578 -0.4307 -0.1206 -0.0711
  863MPD2     H12670   2.861   3.417  16.927 -2.6365  0.4579 -1.8565
  863MPD2    H112671   3.206   3.388  16.675 -0.6995 -3.5307 -1.8365
  863MPD2    H212672   2.827   3.519  16.516 -1.9178 -2.6791  0.1763
  863MPD2    H312673   3.070   3.463  16.483 -0.6049  0.3152 -0.1057
  863MPD2     N12674   3.124   3.367  16.920 -0.5139  0.4875 -0.3460
  863MPD2    H512675   3.221   3.358  16.892 -1.4157  0.7879 -3.5276
  863MPD2    N112676   2.698   3.537  16.747 -0.5404 -0.4462  0.0832
  863MPD2    H712677   2.648   3.576  16.668 -1.8711  0.0236  1.1865
  864MPD2     C12678   3.193   4.193  17.566  0.0605  0.0537 -0.4024
  864MPD2    C112679   3.287   4.156  17.475  0.0903 -0.0670 -0.4155
  864MPD2    C212680   3.372   4.251  17.416  0.7231 -0.6653 -0.1275
  864MPD2    C312681   3.342   4.382  17.438  0.4153 -0.2067  0.7799
  864MPD2    C412682   3.240   4.424  17.521  0.4646 -0.1214  0.2258
  864MPD2    C512683   3.176   4.325  17.592  0.5164  0.0612  0.4277
  864MPD2     H12684   3.445   4.216  17.344  1.9622  0.2032  0.7011
  864MPD2    H112685   3.217   4.530  17.534  2.1330  0.4221 -1.1811
  864MPD2    H212686   3.116   4.130  17.610 -1.0573  0.2819 -2.0439
  864MPD2    H312687   3.106   4.360  17.668  2.6149 -3.1006  3.8046
  864MPD2     N12688   3.400   4.482  17.361 -0.3193  0.3130 -0.1125
  864MPD2    H512689   3.373   4.578  17.382  2.1723  0.7408  1.1454
  864MPD2    N112690   3.296   4.018  17.449 -0.1566  0.4284 -0.8926
  864MPD2    H712691   3.257   3.948  17.510  2.6431 -1.7713 -1.6219
  865MPD2     C12692   3.328   0.273  16.625  0.7843 -0.1793 -0.1293
  865MPD2    C112693   3.334   0.146  16.682 -0.1401  0.6595 -0.4889
  865MPD2    C212694   3.327   0.139  16.826  0.0006 -1.1396 -0.2288
  865MPD2    C312695   3.318   0.254  16.900 -0.7817  0.2596 -0.3734
  865MPD2    C412696   3.332   0.375  16.843 -0.2394  0.1919 -0.4195
  865MPD2    C512697   3.349   0.380  16.705 -0.4065 -0.5034 -0.5144
  865MPD2     H12698   3.336   0.042  16.873 -0.2444 -0.6955  0.7313
  865MPD2    H112699   3.339   0.468  16.899  1.0947  0.6082 -1.2851
  865MPD2    H212700   3.339   0.286  16.518 -0.4772  1.7960 -0.0201
  865MPD2    H312701   3.379   0.471  16.654  0.1674 -0.7297 -0.5735
  865MPD2     N12702   3.305   0.265  17.038  0.8624 -0.5435 -0.3344
  865MPD2    H512703   3.272   0.357  17.065  0.5076 -0.0141 -2.5577
  865MPD2    N112704   3.355   0.031  16.598  0.6316  0.2869  0.3029
  865MPD2    H712705   3.389   0.056  16.506 -1.5474  1.8145 -0.0982
  866MPD2     C12706   4.003   0.120  11.487  0.2875  1.2838  0.0023
  866MPD2    C112707   4.060   0.199  11.397  0.1428  0.0360  0.7322
  866MPD2    C212708   3.989   0.306  11.354 -0.5873  0.9928 -0.2850
  866MPD2    C312709   3.864   0.334  11.404 -0.1654  0.2056 -0.1586
  866MPD2    C412710   3.803   0.246  11.495  0.0180 -0.2421  0.1258
  866MPD2    C512711   3.876   0.139  11.540  0.3173 -0.8222  0.0237
  866MPD2     H12712   4.026   0.356  11.266  0.3779  0.3841 -0.2254
  866MPD2    H112713   3.709   0.273  11.540  0.1214  0.6230 -0.1798
  866MPD2    H212714   4.053   0.028  11.516 -2.4300 -0.3769 -0.5956
  866MPD2    H312715   3.837   0.077  11.620  1.6217 -0.8449  0.6292
  866MPD2     N12716   3.782   0.441  11.365  0.3003  0.6400  0.6160
  866MPD2    H512717   3.690   0.456  11.403 -1.1830  0.5075 -2.9258
  866MPD2    N112718   4.185   0.157  11.344 -0.1342 -0.1743 -0.1127
  866MPD2    H712719   4.225   0.068  11.371  0.8755  1.0183  2.2771
  867MPD2     C12720   1.976   4.381  16.266  0.0946 -0.0703  0.0435
  867MPD2    C112721   1.958   4.403  16.398  0.1956  0.4174 -0.5846
  867MPD2    C212722   1.906   4.521  16.442 -0.3060  0.3791 -1.3805
  867MPD2    C312723   1.868   4.626  16.349 -0.3939  0.3955  0.0598
  867MPD2    C412724   1.890   4.602  16.216  0.4925  0.8018  0.2561
  867MPD2    C512725   1.940   4.478  16.174  0.3480  1.1525  0.6583
  867MPD2     H12726   1.904   4.535  16.549  0.1137  1.2566 -1.4895
  867MPD2    H112727   1.856   4.676  16.145 -1.8210  0.3100  0.8292
  867MPD2    H212728   2.024   4.291  16.229 -2.6311 -2.1072  1.5198
  867MPD2    H312729   1.950   4.463  16.067 -0.1253  2.9252  0.3515
  867MPD2     N12730   1.821   0.026  16.394  0.7006  0.2967  0.6109
  867MPD2    H512731   1.814   0.097  16.322 -1.2007  0.4881  1.0051
  867MPD2    N112732   1.982   4.294  16.479 -0.9290 -0.0918 -0.1974
  867MPD2    H712733   2.033   4.216  16.439 -0.8730  0.1609 -0.6269
  868MPD2     C12734   3.894   4.201  13.949  0.4731 -0.1077 -0.1448
  868MPD2    C112735   3.799   4.096  13.965  0.5251  0.2591 -0.2359
  868MPD2    C212736   3.727   4.087  14.082 -0.5234  0.4578  0.5525
  868MPD2    C312737   3.742   4.176  14.185 -1.0385 -0.7147 -0.1531
  868MPD2    C412738   3.823   4.287  14.165  0.7576 -0.4705 -0.8842
  868MPD2    C512739   3.894   4.303  14.044  0.0808 -0.0235 -0.4428
  868MPD2     H12740   3.658   4.005  14.100 -1.2153  0.9898  0.3147
  868MPD2    H112741   3.840   4.364  14.239  1.8292 -0.0191 -1.5984
  868MPD2    H212742   3.948   4.216  13.856  0.2636 -0.1084 -0.2661
  868MPD2    H312743   3.969   4.380  14.029 -0.1270 -0.1072 -1.9866
  868MPD2     N12744   3.680   4.136  14.308  0.2458  0.0453  0.6058
  868MPD2    H512745   3.642   4.042  14.311  0.1959  0.0857  1.3518
  868MPD2    N112746   3.791   4.000  13.857  0.1857 -0.2675 -0.3603
  868MPD2    H712747   3.871   3.999  13.795  0.4827  0.4519  0.0108
  869MPD2     C12748   0.675   2.738   2.785  0.3129  0.3662  0.0050
  869MPD2    C112749   0.686   2.621   2.717  0.2519  0.5723 -0.3025
  869MPD2    C212750   0.588   2.599   2.619  0.4507  0.5608  0.2713
  869MPD2    C312751   0.505   2.698   2.568 -0.4243 -0.4032  0.5289
  869MPD2    C412752   0.508   2.817   2.628  0.0715  0.4429 -0.0532
  869MPD2    C512753   0.595   2.840   2.736  0.0624 -0.9404  0.3365
  869MPD2     H12754   0.608   2.518   2.550 -1.1486 -1.5160  2.2522
  869MPD2    H112755   0.451   2.901   2.589 -0.6957 -0.5017 -0.9380
  869MPD2    H212756   0.737   2.756   2.872 -0.7559 -1.4018  1.1280
  869MPD2    H312757   0.584   2.931   2.794 -1.4595 -0.3674 -0.8479
  869MPD2     N12758   0.398   2.669   2.476 -0.0613 -0.4966  0.0448
  869MPD2    H512759   0.352   2.754   2.444  0.8632  0.0167  0.0946
  869MPD2    N112760   0.790   2.527   2.762  0.1788 -0.3312  0.4296
  869MPD2    H712761   0.857   2.562   2.830 -0.7648  1.0582  0.6524
  870MPD2     C12762   4.473   1.089   2.070 -0.2541 -0.2896 -0.6746
  870MPD2    C112763   4.521   0.977   1.996  0.4390  0.5316 -0.3884
  870MPD2    C212764   4.606   1.009   1.888 -0.4438 -0.0506  0.1202
  870MPD2    C312765   4.629   1.134   1.844 -0.0546  0.1792  0.9986
  870MPD2    C412766   4.570   1.239   1.910 -0.6409  0.0446  0.3863
  870MPD2    C512767   4.506   1.209   2.026 -0.0329 -0.1301  0.8024
  870MPD2     H12768   4.650   0.927   1.832  1.0989  0.5488  0.4526
  870MPD2    H112769   4.591   1.339   1.874  0.2132  0.0438  0.8837
  870MPD2    H212770   4.420   1.086   2.164  3.5833 -1.0981  1.4691
  870MPD2    H312771   4.466   1.290   2.085 -0.7315  1.2815 -1.5917
  870MPD2     N12772   4.699   1.159   1.729 -0.8058  0.5379 -0.1680
  870MPD2    H512773   4.711   1.257   1.708  0.3491  0.6812  1.2010
  870MPD2    N112774   4.489   0.843   2.036 -0.4949 -0.4637  0.0542
  870MPD2    H712775   4.431   0.829   2.118  1.2806 -2.1640  0.9956
  871MPD2     C12776   1.099   0.035  16.653  0.2397 -0.2556 -0.2306
  871MPD2    C112777   1.000   0.001  16.748  0.1736 -0.5415  0.6390
  871MPD2    C212778   0.912   4.623  16.719 -0.2853 -0.7222 -0.8454
  871MPD2    C312779   0.932   4.552  16.599  0.2689 -0.4950  0.2533
  871MPD2    C412780   1.032   4.587  16.513  0.0179 -0.4370  0.5840
  871MPD2    C512781   1.109   4.691  16.534  0.9235  0.0362  0.7457
  871MPD2     H12782   0.822   4.612  16.779  1.1917  0.2793  1.5530
  871MPD2    H112783   1.050   4.531  16.422 -0.9079  0.2379 -0.0141
  871MPD2    H212784   1.157   0.125  16.666 -0.3399  0.5036 -2.7336
  871MPD2    H312785   1.186   4.713  16.461  0.1776 -1.6808 -0.5390
  871MPD2     N12786   0.830   4.464  16.553  0.1008  0.0019 -0.0375
  871MPD2    H512787   0.749   4.470  16.614 -1.5565  1.7540 -2.4135
  871MPD2    N112788   0.979   0.089  16.866  0.3331 -0.1475  0.3096
  871MPD2    H712789   1.039   0.171  16.867 -0.5062  0.4908 -0.5369
  872MPD2     C12790   1.664   2.293  14.399  0.1352  1.0082 -0.0780
  872MPD2    C112791   1.615   2.352  14.284  0.0745  0.0515 -0.1239
  872MPD2    C212792   1.478   2.354  14.260  0.0541  0.2496 -0.3014
  872MPD2    C312793   1.390   2.297  14.358  0.5952  0.4085  0.5111
  872MPD2    C412794   1.440   2.237  14.470  0.3631 -0.9604 -0.3832
  872MPD2    C512795   1.574   2.229  14.489 -0.4462 -0.4312 -0.1639
  872MPD2     H12796   1.431   2.410  14.179  1.4817  1.2942 -0.3988
  872MPD2    H112797   1.388   2.191  14.554 -0.9154  1.6486  0.2442
  872MPD2    H212798   1.769   2.279  14.420  0.2552  0.2436 -1.1904
  872MPD2    H312799   1.610   2.183  14.580  0.1970  2.2764  0.9504
  872MPD2     N12800   1.254   2.323  14.365  0.2535 -0.3978  0.1056
  872MPD2    H512801   1.218   2.291  14.454 -1.3249  1.7146  0.2257
  872MPD2    N112802   1.700   2.411  14.190  0.0037  0.5641  0.5048
  872MPD2    H712803   1.670   2.460  14.106 -1.9023  1.0595  1.4825
  873MPD2     C12804   2.963   3.256   1.245 -0.1829 -0.1262 -0.2153
  873MPD2    C112805   3.036   3.221   1.357  1.0350 -0.2938 -0.8053
  873MPD2    C212806   3.129   3.119   1.343  1.4830 -0.2768  0.1079
  873MPD2    C312807   3.151   3.059   1.220 -0.1711  0.2255  0.3503
  873MPD2    C412808   3.089   3.111   1.109  0.3273 -0.0191  0.7993
  873MPD2    C512809   2.992   3.203   1.123 -0.1223  0.5813  0.4489
  873MPD2     H12810   3.176   3.080   1.433  1.7764 -0.6996 -0.2295
  873MPD2    H112811   3.103   3.071   1.010  0.0606  2.9891 -0.4637
  873MPD2    H212812   2.880   3.327   1.251 -1.1942 -1.2643 -0.7525
  873MPD2    H312813   2.930   3.238   1.041  0.4067  2.6912  0.9631
  873MPD2     N12814   3.235   2.951   1.207  0.0850  0.1856 -0.3443
  873MPD2    H512815   3.233   2.907   1.116  0.0634  0.3479 -0.4222
  873MPD2    N112816   3.020   3.289   1.482 -0.3082 -0.3488 -0.2956
  873MPD2    H712817   2.944   3.356   1.486 -0.2380 -0.2502 -0.5927
  874MPD2     C12818   2.991   2.872  16.774  0.6950 -0.4568 -0.6215
  874MPD2    C112819   3.080   2.769  16.770 -0.3330  0.3929  0.3991
  874MPD2    C212820   3.210   2.794  16.722  0.2755 -0.4425 -0.0402
  874MPD2    C312821   3.244   2.913  16.663  0.1839 -0.2127 -0.7294
  874MPD2    C412822   3.149   3.014  16.662  0.2224  0.5932 -0.1688
  874MPD2    C512823   3.032   2.998  16.734  0.7436  0.2174  0.1432
  874MPD2     H12824   3.296   2.729  16.735 -0.8666 -1.8766  0.3078
  874MPD2    H112825   3.156   3.111  16.614 -0.3926  0.8723  0.2997
  874MPD2    H212826   2.888   2.861  16.805  0.3099  0.6788 -1.5118
  874MPD2    H312827   2.964   3.081  16.747  0.0062  0.1473 -3.2650
  874MPD2     N12828   3.371   2.921  16.598  0.3697 -0.0899  0.6531
  874MPD2    H512829   3.415   2.829  16.593  4.8272  2.0071  1.3372
  874MPD2    N112830   3.041   2.639  16.814 -0.0836  0.5378  0.0817
  874MPD2    H712831   2.941   2.624  16.814  0.0553 -0.4417 -1.1115
  875MPD2     C12832   3.957   0.638  14.836 -0.0990  0.4326  0.6224
  875MPD2    C112833   3.968   0.767  14.780 -0.0906 -0.9037 -0.0638
  875MPD2    C212834   4.002   0.874  14.859  0.0312 -0.2889  0.9706
  875MPD2    C312835   4.053   0.849  14.989 -0.2429  0.2616  0.5265
  875MPD2    C412836   4.050   0.720  15.035  0.0533  0.1494 -0.1179
  875MPD2    C512837   3.997   0.618  14.963  0.2445  0.1121  0.5708
  875MPD2     H12838   3.997   0.975  14.819 -1.1020 -0.1757  1.4068
  875MPD2    H112839   4.073   0.697  15.139  2.3880  2.5500 -0.0958
  875MPD2    H212840   3.916   0.560  14.774  0.4131  0.7556 -0.1247
  875MPD2    H312841   4.008   0.517  15.001 -1.2063 -0.6190 -0.9498
  875MPD2     N12842   4.091   0.951  15.082 -0.2449 -0.4435 -0.2339
  875MPD2    H512843   4.108   0.924  15.179 -3.4025  0.8562  0.6727
  875MPD2    N112844   3.921   0.793  14.648  0.1538  0.4254  0.2404
  875MPD2    H712845   3.920   0.891  14.622 -0.9992  0.6604  1.1986
  876MPD2     C12846   3.341   2.622  16.385 -0.2837 -0.1087 -0.1434
  876MPD2    C112847   3.455   2.564  16.331 -0.1511 -0.1470  0.9466
  876MPD2    C212848   3.502   2.442  16.384 -0.5999 -0.2283  0.2584
  876MPD2    C312849   3.417   2.368  16.471  1.2038 -0.7140 -0.5823
  876MPD2    C412850   3.304   2.429  16.525 -0.1164 -0.3233 -0.3546
  876MPD2    C512851   3.271   2.556  16.482 -0.3329  0.5669 -1.0449
  876MPD2     H12852   3.586   2.380  16.351 -1.2975 -0.4004 -1.1898
  876MPD2    H112853   3.238   2.393  16.602 -0.7619  0.8971 -0.3334
  876MPD2    H212854   3.309   2.724  16.365 -0.5026 -0.2900 -0.7118
  876MPD2    H312855   3.179   2.594  16.525 -0.9769  0.0505 -1.9563
  876MPD2     N12856   3.453   2.235  16.502 -0.5430  0.0237  0.5347
  876MPD2    H512857   3.512   2.182  16.439 -0.0071 -0.7343  1.6820
  876MPD2    N112858   3.503   2.619  16.211 -0.5000 -0.4606  0.1250
  876MPD2    H712859   3.466   2.709  16.179  0.1313 -0.0162  0.6491
  877MPD2     C12860   3.193   2.606  15.542 -0.0608  0.8700  0.0084
  877MPD2    C112861   3.317   2.646  15.506 -0.9011  0.3703 -0.3677
  877MPD2    C212862   3.353   2.656  15.372  0.1271  0.1211  0.0308
  877MPD2    C312863   3.260   2.623  15.281  0.3469 -0.1972  0.6433
  877MPD2    C412864   3.131   2.583  15.320  0.0809  0.1474  0.1617
  877MPD2    C512865   3.097   2.579  15.450  0.2477  0.8308  0.3107
  877MPD2     H12866   3.448   2.698  15.341  0.7255 -0.5733  0.9402
  877MPD2    H112867   3.048   2.579  15.250  0.4840  1.8748 -0.4274
  877MPD2    H212868   3.149   2.600  15.641 -0.1476  0.4686 -0.0563
  877MPD2    H312869   2.996   2.557  15.482  0.4305  0.6206  0.7373
  877MPD2     N12870   3.301   2.640  15.149  0.8733 -0.0993  0.0829
  877MPD2    H512871   3.399   2.668  15.137  0.7460  0.0280 -0.6816
  877MPD2    N112872   3.415   2.676  15.606  0.7250  0.8201 -0.1315
  877MPD2    H712873   3.508   2.689  15.567  0.0611  0.5827 -1.7948
  878MPD2     C12874   2.368   1.814  12.952  0.7717 -0.0046 -0.1032
  878MPD2    C112875   2.506   1.794  12.977 -0.1922 -0.7421 -0.6832
  878MPD2    C212876   2.553   1.801  13.101 -0.3253 -0.7780  0.0976
  878MPD2    C312877   2.465   1.809  13.209 -0.1878  0.7872 -0.0587
  878MPD2    C412878   2.331   1.820  13.191 -0.1669 -0.5166  0.1146
  878MPD2    C512879   2.286   1.831  13.058  0.0626 -0.3725 -0.3429
  878MPD2     H12880   2.659   1.799  13.123 -0.1711 -1.7717 -0.7571
  878MPD2    H112881   2.268   1.839  13.277 -0.2984  0.1869 -0.1368
  878MPD2    H212882   2.324   1.840  12.856 -3.4249  1.4998  2.2455
  878MPD2    H312883   2.181   1.847  13.036  0.0637  2.3100  1.5742
  878MPD2     N12884   2.522   1.838  13.339 -0.4580  0.2583 -0.2088
  878MPD2    H512885   2.622   1.850  13.349 -0.3505  0.9751 -2.0356
  878MPD2    N112886   2.587   1.792  12.867 -0.2462 -0.4133 -0.0209
  878MPD2    H712887   2.539   1.804  12.779  1.5789 -0.0132 -0.9737
  879MPD2     C12888   3.524   3.108  17.002  0.1785 -0.3894 -0.4237
  879MPD2    C112889   3.574   3.043  17.115 -0.1503 -0.5080  0.5687
  879MPD2    C212890   3.501   2.933  17.165  0.5468 -0.1063  0.0658
  879MPD2    C312891   3.382   2.900  17.108  0.6987  0.2093 -0.8879
  879MPD2    C412892   3.330   2.974  17.001  0.1355 -0.4204  0.1011
  879MPD2    C512893   3.406   3.066  16.947 -0.5850  0.2461 -0.4079
  879MPD2     H12894   3.533   2.877  17.252  0.6176 -1.0793 -0.5865
  879MPD2    H112895   3.233   2.959  16.955  0.1595 -3.2944  0.9664
  879MPD2    H212896   3.581   3.188  16.957  2.2698 -2.1600 -0.9104
  879MPD2    H312897   3.376   3.105  16.851 -2.9084  0.3849  0.3668
  879MPD2     N12898   3.303   2.800  17.164 -0.4248 -0.3236 -0.0923
  879MPD2    H512899   3.205   2.801  17.136  0.3702  0.7135 -2.7879
  879MPD2    N112900   3.687   3.098  17.170  0.6560  0.3483 -0.2169
  879MPD2    H712901   3.738   3.184  17.149 -0.3082  0.7765 -0.7806
  880MPD2     C12902   0.837   0.213   0.310 -0.9061  0.9131 -0.3580
  880MPD2    C112903   0.740   0.174   0.392 -0.4096  0.4515 -0.0420
  880MPD2    C212904   0.722   0.040   0.414  0.1458 -0.4564  0.3547
  880MPD2    C312905   0.793   4.676   0.329 -0.2433  0.2438  0.5039
  880MPD2    C412906   0.888   4.716   0.244 -0.6017 -0.5103 -0.2132
  880MPD2    C512907   0.909   0.125   0.239 -0.1631 -0.1799  0.0048
  880MPD2     H12908   0.651   4.719   0.482 -2.8546  1.9433 -1.1845
  880MPD2    H112909   0.927   4.653   0.165  0.1377  1.5508 -1.4969
  880MPD2    H212910   0.860   0.318   0.293  1.7698  0.4229  0.2705
  880MPD2    H312911   0.968   0.161   0.156  0.2666 -0.5257  0.1604
  880MPD2     N12912   0.759   4.541   0.333  0.2520  0.2340  0.8556
  880MPD2    H512913   0.687   4.512   0.398 -0.6746  1.4854  0.3933
  880MPD2    N112914   0.661   0.277   0.452  0.0410  0.5846 -0.7500
  880MPD2    H712915   0.656   0.371   0.413 -0.3996  2.1782  3.1127
  881MPD2     C12916   0.003   0.870   0.098 -0.5620 -0.3023 -0.1514
  881MPD2    C112917   0.049   0.740   0.072 -0.0035 -0.1441  0.1594
  881MPD2    C212918   0.111   0.667   0.175 -0.3013 -0.0284  0.5191
  881MPD2    C312919   0.118   0.709   0.308  0.3147 -0.7075 -0.1637
  881MPD2    C412920   0.050   0.831   0.326  0.5936 -0.1099  0.3166
  881MPD2    C512921   4.713   0.911   0.228 -0.0713  0.6084  0.5444
  881MPD2     H12922   0.167   0.579   0.148  1.4257  1.4450 -0.7161
  881MPD2    H112923   0.038   0.862   0.429 -1.9234 -1.5222  0.4620
  881MPD2    H212924   4.699   0.940   0.020  0.4404 -2.0800 -2.1101
  881MPD2    H312925   4.664   1.006   0.245  0.3153  1.0036 -0.5838
  881MPD2     N12926   0.190   0.657   0.419  0.4948  0.3870  0.4655
  881MPD2    H512927   0.170   0.697   0.511  0.1080 -1.5467  1.2180
  881MPD2    N112928   0.075   0.705  17.639  0.0027  0.6561  0.6523
  881MPD2    H712929   0.040   0.773  17.572 -1.7113 -0.8778 -0.0120
  882MPD2     C12930   3.336   2.526  14.233 -0.1122 -0.0152  0.0486
  882MPD2    C112931   3.283   2.601  14.338  0.5209 -0.3255 -0.0571
  882MPD2    C212932   3.170   2.673  14.303 -0.1313  0.2320  0.0249
  882MPD2    C312933   3.103   2.665  14.183 -0.3711 -0.4628 -0.1408
  882MPD2    C412934   3.157   2.582  14.088  0.0668 -0.5936 -0.0711
  882MPD2    C512935   3.275   2.525  14.111  0.1696 -0.1965 -1.0447
  882MPD2     H12936   3.122   2.730  14.381 -2.1018 -1.3056 -0.0751
  882MPD2    H112937   3.107   2.566  13.994 -0.5636  0.9966  0.0064
  882MPD2    H212938   3.418   2.457  14.253  0.6107  0.8855  0.1863
  882MPD2    H312939   3.325   2.474  14.029  1.7268 -0.6866  0.2045
  882MPD2     N12940   2.983   2.725  14.148 -0.5813 -0.1695 -0.0260
  882MPD2    H512941   2.917   2.686  14.083  0.1113  0.1314 -0.9053
  882MPD2    N112942   3.339   2.596  14.470 -0.1162  0.6473  0.4204
  882MPD2    H712943   3.426   2.546  14.483  1.4975  3.2415 -0.4993
  883MPD2     C12944   0.293   1.785  16.563 -0.1518 -0.0419 -1.4682
  883MPD2    C112945   0.337   1.886  16.485 -0.5372 -0.2806  0.2852
  883MPD2    C212946   0.368   2.006  16.541 -0.6188  0.0060 -0.4086
  883MPD2    C312947   0.353   2.027  16.678  0.3077  0.7587  0.2031
  883MPD2    C412948   0.298   1.927  16.756 -0.6261  0.7898 -0.4739
  883MPD2    C512949   0.262   1.808  16.699  0.1644  0.1416  0.6678
  883MPD2     H12950   0.415   2.077  16.474  0.2448  0.6009  0.8437
  883MPD2    H112951   0.272   1.928  16.861 -1.8194 -0.0382 -0.7588
  883MPD2    H212952   0.263   1.688  16.525  0.6728 -1.6977  2.1232
  883MPD2    H312953   0.203   1.734  16.752  1.2243 -3.1846 -2.7580
  883MPD2     N12954   0.390   2.155  16.722 -0.3021  0.0750  0.8903
  883MPD2    H512955   0.429   2.217  16.652  0.2351 -1.4484 -0.1563
  883MPD2    N112956   0.366   1.880  16.349  0.0182  0.2515 -0.3009
  883MPD2    H712957   0.396   1.969  16.311  0.4657 -0.5960 -1.9184
  884MPD2     C12958   2.292   2.896  15.689  0.1155 -0.2611  0.9106
  884MPD2    C112959   2.286   3.034  15.667  0.2722  0.2223 -0.8954
  884MPD2    C212960   2.162   3.095  15.643  0.7233 -0.7496 -0.3349
  884MPD2    C312961   2.050   3.020  15.641 -0.9065 -0.7142 -0.3698
  884MPD2    C412962   2.059   2.881  15.657 -0.4062 -0.5495  0.3299
  884MPD2    C512963   2.175   2.818  15.679  0.1768 -0.2571  0.0797
  884MPD2     H12964   2.153   3.203  15.635  0.6976 -0.7323 -0.0672
  884MPD2    H112965   1.972   2.818  15.640  0.4127 -2.1011  1.9533
  884MPD2    H212966   2.385   2.843  15.708  0.2329 -1.2690 -2.4280
  884MPD2    H312967   2.180   2.711  15.696  1.4251 -0.4811 -1.7435
  884MPD2     N12968   1.926   3.079  15.607 -0.1892 -0.1958 -0.2477
  884MPD2    H512969   1.940   3.173  15.572  0.5068 -0.7377 -1.4129
  884MPD2    N112970   2.402   3.112  15.661 -0.1619 -0.7329  0.0226
  884MPD2    H712971   2.398   3.205  15.621  1.4527  0.1332  1.8450
  885MPD2     C12972   1.140   3.650   0.375  0.1298 -1.2507 -0.4807
  885MPD2    C112973   1.057   3.538   0.373 -0.5593 -0.0125  0.3745
  885MPD2    C212974   0.982   3.511   0.261 -0.0499 -0.5551 -0.0835
  885MPD2    C312975   0.982   3.595   0.148  0.8024  0.6601 -0.0150
  885MPD2    C412976   1.053   3.710   0.165 -0.6528  0.1382 -0.0393
  885MPD2    C512977   1.139   3.730   0.272 -0.2806  0.4441  0.1751
  885MPD2     H12978   0.916   3.425   0.258 -0.8803  0.1958 -3.1486
  885MPD2    H112979   1.051   3.774   0.078 -0.3072  2.0726  1.3729
  885MPD2    H212980   1.200   3.680   0.460  0.9545 -0.3842 -1.3675
  885MPD2    H312981   1.212   3.811   0.274  0.1912  0.0305 -0.0855
  885MPD2     N12982   0.895   3.576   0.038  0.2260  0.1039 -0.2756
  885MPD2    H512983   0.882   3.477   0.022  0.2232  0.4343 -2.3543
  885MPD2    N112984   1.037   3.464   0.492  0.4493 -0.4322  0.2589
  885MPD2    H712985   1.079   3.509   0.573  0.9111  0.3809 -0.4437
  886MPD2     C12986   1.763   1.810  15.556  0.0790  0.2594 -0.0603
  886MPD2    C112987   1.895   1.770  15.539  0.0706 -0.2343 -0.1184
  886MPD2    C212988   1.978   1.832  15.454 -0.6288 -0.5757  0.7190
  886MPD2    C312989   1.933   1.939  15.375 -0.9052  0.1385  0.8613
  886MPD2    C412990   1.800   1.971  15.389 -0.5486  0.7986 -1.1850
  886MPD2    C512991   1.722   1.914  15.480  0.2133 -0.0830  0.5420
  886MPD2     H12992   2.082   1.803  15.447 -0.4670  0.4789 -1.3650
  886MPD2    H112993   1.751   2.051  15.335 -0.2883  1.3917 -0.5432
  886MPD2    H212994   1.693   1.751  15.614 -1.0631  2.1040  0.4156
  886MPD2    H312995   1.618   1.945  15.485  0.1635 -0.3230  1.0708
  886MPD2     N12996   2.013   2.014  15.290  0.3935 -0.4076 -0.9105
  886MPD2    H512997   1.974   2.090  15.235 -1.1404 -2.8378 -3.1837
  886MPD2    N112998   1.953   1.661  15.613 -0.1967  0.1503 -0.4728
  886MPD2    H712999   2.043   1.636  15.573 -1.3055 -3.2146 -0.8729
  887MPD2     C13000   2.568   1.676  15.995 -0.4020 -0.2461 -0.1958
  887MPD2    C113001   2.443   1.730  15.996  0.1880  0.4897  0.2684
  887MPD2    C213002   2.417   1.856  16.050 -0.6025 -0.2019  0.2319
  887MPD2    C313003   2.519   1.927  16.107  0.4400  0.2102  0.0873
  887MPD2    C413004   2.645   1.872  16.109  0.6406 -0.6717  0.1537
  887MPD2    C513005   2.674   1.747  16.055  0.0825  0.2833 -0.5904
  887MPD2     H13006   2.312   1.885  16.050 -0.4750  0.2458  0.0540
  887MPD2    H113007   2.728   1.918  16.161  2.2493 -1.9982 -1.2296
  887MPD2    H213008   2.589   1.581  15.948 -1.7021 -0.0335 -1.2283
  887MPD2    H313009   2.773   1.705  16.070  0.6865  1.5090 -1.0867
  887MPD2     N13010   2.489   2.047  16.183 -0.3600 -0.0750  0.4317
  887MPD2    H513011   2.390   2.069  16.187 -0.8724 -2.3960  0.6296
  887MPD2    N113012   2.331   1.657  15.948  0.5105  0.1411 -1.2722
  887MPD2    H713013   2.247   1.713  15.932  1.1013  2.2681  3.1250
  888MPD2     C13014   4.503   2.069  15.068 -0.2304  0.0961  0.8844
  888MPD2    C113015   4.418   2.122  15.161 -0.1069  0.4049 -0.0943
  888MPD2    C213016   4.410   2.263  15.172 -0.4405 -0.2225 -0.7501
  888MPD2    C313017   4.491   2.339  15.089 -0.8007  0.2732 -0.7089
  888MPD2    C413018   4.593   2.280  15.015  0.4933 -0.1092  0.3621
  888MPD2    C513019   4.592   2.148  15.008 -0.2331  0.0328 -0.0020
  888MPD2     H13020   4.346   2.309  15.247 -0.4062  0.4653 -1.1409
  888MPD2    H113021   4.667   2.342  14.966  1.3782  0.8119  2.8650
  888MPD2    H213022   4.526   1.963  15.064 -0.3371  0.0715  0.9097
  888MPD2    H313023   4.675   2.103  14.955 -0.9042 -0.1486 -0.8878
  888MPD2     N13024   4.484   2.482  15.080 -0.0762  0.0970  0.4140
  888MPD2    H513025   4.562   2.518  15.026  0.1419 -3.2373 -1.5016
  888MPD2    N113026   4.348   2.045  15.253  0.1902  0.3486 -0.2778
  888MPD2    H713027   4.309   2.101  15.328  0.9360  1.7197 -0.9144
  889MPD2     C13028   3.134   1.489  13.189 -0.3337  0.0446  0.6258
  889MPD2    C113029   3.243   1.502  13.270  0.4200 -0.1344  0.5716
  889MPD2    C213030   3.258   1.616  13.342 -0.2465  0.6586 -0.0837
  889MPD2    C313031   3.190   1.729  13.303  0.0317 -0.3665  0.5328
  889MPD2    C413032   3.096   1.719  13.200 -0.1947 -0.4620  0.0597
  889MPD2    C513033   3.059   1.593  13.155  1.1480  0.8642 -0.2381
  889MPD2     H13034   3.329   1.624  13.424  0.3141 -1.3208 -0.3925
  889MPD2    H113035   3.028   1.799  13.173  3.3812  1.9015 -1.8976
  889MPD2    H213036   3.122   1.389  13.149 -0.4566 -0.1607  1.1843
  889MPD2    H313037   2.970   1.587  13.093  2.8087  0.0083 -2.5421
  889MPD2     N13038   3.218   1.846  13.372  0.3312 -0.2969  0.2073
  889MPD2    H513039   3.290   1.839  13.444  2.7942 -2.9425 -2.5201
  889MPD2    N113040   3.318   1.397  13.308 -0.2856 -0.2901  1.1214
  889MPD2    H713041   3.362   1.404  13.399  1.6751  0.8166  0.1064
  890MPD2     C13042   2.796   3.439  15.395 -0.1876  0.6506 -0.6853
  890MPD2    C113043   2.925   3.451  15.445  0.6012  0.1675  0.3584
  890MPD2    C213044   2.994   3.331  15.478 -0.3713  0.4849  0.1847
  890MPD2    C313045   2.940   3.206  15.459 -0.3240  0.7008  0.0022
  890MPD2    C413046   2.814   3.195  15.406 -0.0346  0.2032  0.0174
  890MPD2    C513047   2.748   3.309  15.367 -0.0410 -0.3063 -0.5896
  890MPD2     H13048   3.089   3.337  15.529  0.4724 -1.9488 -1.1071
  890MPD2    H113049   2.775   3.099  15.375 -0.6789  0.1485  1.0206
  890MPD2    H213050   2.741   3.525  15.357  1.1587  1.0839 -1.6715
  890MPD2    H313051   2.650   3.317  15.321 -1.5225 -0.1046  2.6113
  890MPD2     N13052   3.026   3.107  15.496 -0.0900  0.7156  0.3362
  890MPD2    H513053   3.111   3.152  15.528 -0.8555  1.7985  0.8351
  890MPD2    N113054   2.972   3.576  15.477 -0.1600 -0.7589 -0.7648
  890MPD2    H713055   2.906   3.650  15.455  2.2301  0.8534 -2.5757
  891MPD2     C13056   1.150   1.355  17.038  0.1706 -0.8137  0.2477
  891MPD2    C113057   1.099   1.473  17.084 -0.0817  0.0720  0.6424
  891MPD2    C213058   1.176   1.559  17.149 -0.1100  0.6593 -0.3229
  891MPD2    C313059   1.311   1.530  17.174 -0.6669 -0.5242  0.0924
  891MPD2    C413060   1.363   1.411  17.131 -0.1147  0.2368 -0.2005
  891MPD2    C513061   1.281   1.322  17.067  1.4017  0.0811 -0.2645
  891MPD2     H13062   1.136   1.647  17.197 -0.2239  0.6960 -0.4849
  891MPD2    H113063   1.465   1.376  17.136 -0.8167 -1.8487 -0.4126
  891MPD2    H213064   1.091   1.292  16.972  0.9353 -2.2493  0.9364
  891MPD2    H313065   1.315   1.223  17.037  2.7238  0.3912  0.2391
  891MPD2     N13066   1.385   1.622  17.240  0.7188 -0.4319  0.4865
  891MPD2    H513067   1.347   1.705  17.285 -0.1602 -0.6370  0.1353
  891MPD2    N113068   0.968   1.510  17.048 -0.1472 -0.1540 -0.1248
  891MPD2    H713069   0.917   1.452  16.982 -0.7077 -2.1450  2.0563
  892MPD2     C13070   2.489   2.651  14.964  0.0447  0.3755 -0.3205
  892MPD2    C113071   2.404   2.737  14.887 -0.2381 -0.4150 -0.2109
  892MPD2    C213072   2.450   2.789  14.774  0.0882 -0.7891 -0.2353
  892MPD2    C313073   2.573   2.756  14.724 -0.0628  0.1381  0.0440
  892MPD2    C413074   2.649   2.668  14.795  0.0804 -0.6044  0.3029
  892MPD2    C513075   2.616   2.625  14.918 -0.2319  0.8409 -0.7110
  892MPD2     H13076   2.386   2.854  14.715  0.0673  1.0040  1.7678
  892MPD2    H113077   2.745   2.636  14.756  0.4142 -0.3673  0.9253
  892MPD2    H213078   2.465   2.627  15.067 -0.4538  2.1839 -0.0206
  892MPD2    H313079   2.690   2.584  14.986 -2.4441 -1.6746  0.1971
  892MPD2     N13080   2.624   2.790  14.593 -0.5912 -0.4232  0.6177
  892MPD2    H513081   2.717   2.753  14.575  0.4803  2.0034  1.1602
  892MPD2    N113082   2.272   2.773  14.924  0.1826 -0.1779 -0.1482
  892MPD2    H713083   2.226   2.842  14.865 -0.2563  0.7657  1.2839
  893MPD2     C13084   4.462   1.985   2.028  0.2093 -0.9169  0.4501
  893MPD2    C113085   4.561   2.026   2.112  0.1475 -0.2945  0.1208
  893MPD2    C213086   4.540   2.143   2.191 -0.2376  0.1375 -0.8358
  893MPD2    C313087   4.420   2.215   2.185  0.1960 -0.1241  0.7775
  893MPD2    C413088   4.324   2.162   2.096 -0.1370 -0.8933  0.3869
  893MPD2    C513089   4.348   2.054   2.025 -0.0964 -0.6181 -0.0830
  893MPD2     H13090   4.610   2.164   2.271  1.6272 -2.1848 -1.8657
  893MPD2    H113091   4.228   2.209   2.077  0.1499 -0.3068  0.3837
  893MPD2    H213092   4.474   1.896   1.968 -2.0574  0.0217 -1.3938
  893MPD2    H313093   4.279   2.018   1.950 -1.9432 -0.3729  1.5190
  893MPD2     N13094   4.396   2.331   2.256  0.4650 -0.6813 -0.0077
  893MPD2    H513095   4.308   2.371   2.227  1.3323 -0.2386 -2.0931
  893MPD2    N113096   4.682   1.948   2.118  0.0542 -0.0688  0.5490
  893MPD2    H713097   4.684   1.863   2.062  0.2370  1.2498 -1.4428
  894MPD2     C13098   2.325   3.698   0.828  0.5178  0.0908  0.1790
  894MPD2    C113099   2.286   3.748   0.950 -0.5683  0.8419  0.2689
  894MPD2    C213100   2.181   3.839   0.944  0.0689 -0.1914 -0.2415
  894MPD2    C313101   2.115   3.877   0.831 -0.1776  0.1048  0.1252
  894MPD2    C413102   2.163   3.835   0.708 -0.1042 -0.4161 -0.5128
  894MPD2    C513103   2.268   3.747   0.713 -1.1047 -0.6491  0.2511
  894MPD2     H13104   2.146   3.877   1.040 -0.8196 -2.2453  0.2587
  894MPD2    H113105   2.110   3.855   0.615 -0.7152  2.2360  0.4117
  894MPD2    H213106   2.411   3.632   0.828  2.0964  2.1594 -2.0419
  894MPD2    H313107   2.303   3.706   0.619  2.0279 -0.5166  1.3636
  894MPD2     N13108   2.021   3.978   0.853  0.1649  0.5544  0.1044
  894MPD2    H513109   2.011   4.020   0.945  1.9634  0.1809  0.4689
  894MPD2    N113110   2.342   3.711   1.071 -0.2562  0.2163  0.7929
  894MPD2    H713111   2.313   3.761   1.154 -1.0880  1.8341 -0.4567
  895MPD2     C13112   1.479   2.268  13.791  0.3666  0.0317 -0.3382
  895MPD2    C113113   1.488   2.321  13.658  0.3156 -0.2575  0.1156
  895MPD2    C213114   1.544   2.247  13.562 -0.4051 -0.3983  0.4456
  895MPD2    C313115   1.599   2.121  13.588 -0.1009  0.7310 -0.1732
  895MPD2    C413116   1.595   2.070  13.723  0.5355 -0.1165  0.1964
  895MPD2    C513117   1.524   2.144  13.819  0.4598  0.7363 -0.0324
  895MPD2     H13118   1.525   2.281  13.461 -0.0911 -3.6376 -0.6862
  895MPD2    H113119   1.635   1.973  13.747  0.1942 -0.6031 -1.1988
  895MPD2    H213120   1.445   2.332  13.871 -0.8713 -0.2970 -0.6043
  895MPD2    H313121   1.521   2.107  13.921  0.0944 -0.4655 -0.4671
  895MPD2     N13122   1.654   2.048  13.483 -0.4479 -0.9986  0.1720
  895MPD2    H513123   1.643   2.077  13.387  0.6682 -0.6365  0.1529
  895MPD2    N113124   1.429   2.440  13.613  0.6493 -0.3838  0.3249
  895MPD2    H713125   1.431   2.462  13.514 -0.4635 -0.4941  0.2749
  896MPD2     C13126   3.199   0.082   1.687  0.9368 -0.5582  0.0581
  896MPD2    C113127   3.250   4.696   1.629 -0.1285  0.0320  0.2495
  896MPD2    C213128   3.165   4.613   1.553  0.1537  0.3217  0.4457
  896MPD2    C313129   3.031   4.646   1.540 -0.2629  0.3070 -0.0412
  896MPD2    C413130   2.981   0.040   1.604 -0.1438 -0.3763  0.3242
  896MPD2    C513131   3.070   0.110   1.681 -0.0102 -0.2253 -0.1080
  896MPD2     H13132   3.208   4.525   1.508  1.1386  0.6506  0.7514
  896MPD2    H113133   2.880   0.079   1.601 -0.5331 -1.4223 -0.0048
  896MPD2    H213134   3.264   0.142   1.750  0.6875 -0.2651  0.0343
  896MPD2    H313135   3.024   0.195   1.730  1.6654 -0.0643  1.1926
  896MPD2     N13136   2.945   4.560   1.472 -0.2574 -0.2837  0.8507
  896MPD2    H513137   2.990   4.485   1.421 -0.3743  0.2187  0.0162
  896MPD2    N113138   3.384   4.660   1.667 -0.5622  0.2814 -0.5641
  896MPD2    H713139   3.431   4.714   1.739 -1.1705 -0.4340  0.3624
  897MPD2     C13140   4.660   0.713  10.736 -0.4318 -0.2214 -0.0957
  897MPD2    C113141   4.636   0.845  10.732 -1.2311  0.7492  0.6034
  897MPD2    C213142   4.515   0.900  10.783  0.5071 -0.4240  0.2477
  897MPD2    C313143   4.433   0.832  10.867  0.5005  0.1938  0.8047
  897MPD2    C413144   4.469   0.696  10.887 -0.0489 -0.0285  0.7330
  897MPD2    C513145   4.569   0.639  10.813 -0.1224  0.2305  0.1543
  897MPD2     H13146   4.498   1.007  10.782  0.2128 -0.4655  0.8871
  897MPD2    H113147   4.412   0.626  10.947  1.4619 -1.4586  0.4946
  897MPD2    H213148   0.022   0.660  10.699 -0.1427  0.1845  0.0047
  897MPD2    H313149   4.598   0.536  10.834  2.4847  1.4614  2.6448
  897MPD2     N13150   4.319   0.898  10.915 -0.3820 -0.3668 -0.0124
  897MPD2    H513151   4.311   0.990  10.875  1.3451 -0.5758 -0.8479
  897MPD2    N113152   0.001   0.922  10.652 -0.0759  0.2540  0.1911
  897MPD2    H713153   0.080   0.869  10.616  0.5535  1.5406 -0.3428
  898MPD2     C13154   1.293   2.368   0.336  0.3013 -0.2887  0.8310
  898MPD2    C113155   1.380   2.335   0.234 -0.1958  0.3609 -0.2682
  898MPD2    C213156   1.354   2.388   0.111  0.1900 -0.4969 -0.9568
  898MPD2    C313157   1.240   2.466   0.083 -0.4346 -0.3449 -0.3114
  898MPD2    C413158   1.149   2.485   0.185 -0.1950 -0.3388 -0.5903
  898MPD2    C513159   1.176   2.438   0.308 -0.0606  0.3165 -0.3775
  898MPD2     H13160   1.438   2.390   0.043  1.3405 -2.7897  0.3886
  898MPD2    H113161   1.057   2.542   0.183 -0.5137 -0.7662  1.4044
  898MPD2    H213162   1.305   2.333   0.438 -0.0642  0.6448  1.1951
  898MPD2    H313163   1.110   2.468   0.389 -1.7134  1.5266 -2.1563
  898MPD2     N13164   1.225   2.514  17.649  0.6233  0.5909  0.1830
  898MPD2    H513165   1.306   2.494  17.591 -0.0796 -1.8529  0.0601
  898MPD2    N113166   1.509   2.271   0.253  0.0149  0.1285 -0.7436
  898MPD2    H713167   1.561   2.248   0.169 -0.4932  0.2116 -1.0844
  899MPD2     C13168   2.839   2.858  17.381  0.1971 -0.2930 -0.3585
  899MPD2    C113169   2.959   2.889  17.452  0.3586 -0.4538  0.5222
  899MPD2    C213170   2.967   2.865  17.587  0.8296  0.0566 -0.3208
  899MPD2    C313171   2.856   2.829  17.656  0.0436  0.2093 -0.0292
  899MPD2    C413172   2.735   2.803  17.588  0.2873  0.8586 -0.1331
  899MPD2    C513173   2.731   2.826  17.459  0.2108  0.1200 -0.6242
  899MPD2     H13174   3.063   2.874  17.636  0.1772  3.2860  0.3466
  899MPD2    H113175   2.645   2.771  17.640  1.5643 -1.0595  0.8802
  899MPD2    H213176   2.825   2.864  17.274 -2.8111 -2.7949 -0.0937
  899MPD2    H313177   2.631   2.817  17.417 -0.9655  0.3204  2.1902
  899MPD2     N13178   2.846   2.818   0.094  0.0155 -0.2735 -0.3317
  899MPD2    H513179   2.751   2.816   0.129  0.0632  0.4586 -0.1508
  899MPD2    N113180   3.058   2.952  17.368  0.7168  0.1118  0.4727
  899MPD2    H713181   3.025   2.967  17.273 -1.7948  1.2386  1.5155
  900MPD2     C13182   2.509   4.299  12.850 -0.2359 -0.4479 -0.3340
  900MPD2    C113183   2.400   4.225  12.906 -0.0001  0.2457  0.4192
  900MPD2    C213184   2.268   4.260  12.877  0.4186  0.6335  0.2801
  900MPD2    C313185   2.245   4.372  12.800 -0.0088  0.0230 -0.3827
  900MPD2    C413186   2.354   4.448  12.747  0.3022 -0.3412 -1.1702
  900MPD2    C513187   2.480   4.407  12.767  0.4920 -0.8216 -0.0794
  900MPD2     H13188   2.183   4.205  12.917  1.4000 -0.8824  0.2840
  900MPD2    H113189   2.336   4.528  12.677 -0.2019  1.1919  0.7257
  900MPD2    H213190   2.615   4.278  12.864 -0.2236 -1.4230 -1.8266
  900MPD2    H313191   2.548   4.464  12.705  0.8624 -0.0498  1.0357
  900MPD2     N13192   2.102   4.401  12.780  0.3351  0.1738 -0.0604
  900MPD2    H513193   2.035   4.333  12.815  0.8664 -0.6158 -0.5571
  900MPD2    N113194   2.440   4.105  12.976 -0.1779  0.2362 -0.0840
  900MPD2    H713195   2.540   4.084  12.976  0.0733  1.4427 -1.2153
  901MPD2     C13196   2.165   3.137  13.314  0.3357  0.1367 -0.0747
  901MPD2    C113197   2.253   3.150  13.211 -0.3538  0.0173  0.4648
  901MPD2    C213198   2.309   3.270  13.186 -0.1867  0.0072 -0.0703
  901MPD2    C313199   2.276   3.385  13.253  0.1683  0.6963  0.6033
  901MPD2    C413200   2.174   3.379  13.345  0.0639  0.4934 -0.3443
  901MPD2    C513201   2.121   3.256  13.372  0.2360 -0.5983 -0.0650
  901MPD2     H13202   2.393   3.274  13.118  1.3954  0.1105  1.8903
  901MPD2    H113203   2.140   3.464  13.403 -1.9968  0.0992 -0.9555
  901MPD2    H213204   2.114   3.045  13.339 -1.0868 -0.1879 -4.2555
  901MPD2    H313205   2.040   3.245  13.444  1.8445 -0.3442  1.7857
  901MPD2     N13206   2.344   3.505  13.217 -0.2349 -0.0620 -0.0773
  901MPD2    H513207   2.408   3.510  13.139 -1.9713 -0.2049 -1.4956
  901MPD2    N113208   2.312   3.037  13.146 -0.3613  0.2516 -0.4897
  901MPD2    H713209   2.297   2.950  13.195  0.2895 -0.2132 -1.1259
  902MPD2     C13210   1.315   1.845  12.544  0.6651  0.1310 -0.6483
  902MPD2    C113211   1.278   1.910  12.430  0.1227 -0.4147  0.6193
  902MPD2    C213212   1.362   1.906  12.318  0.7769 -0.2011  0.1703
  902MPD2    C313213   1.492   1.851  12.331 -0.5990 -0.2297  0.2554
  902MPD2    C413214   1.529   1.789  12.451  0.3200  0.4792  0.2096
  902MPD2    C513215   1.444   1.790  12.553  0.1360 -0.8084 -0.0220
  902MPD2     H13216   1.331   1.964  12.231  0.4930 -0.7534 -0.0968
  902MPD2    H113217   1.628   1.747  12.465 -0.3484 -1.4832 -1.0049
  902MPD2    H213218   1.253   1.845  12.633  0.2362  1.3620 -0.9511
  902MPD2    H313219   1.479   1.737  12.641  0.5908  0.1402  0.3704
  902MPD2     N13220   1.573   1.857  12.214 -0.1558 -0.6110  0.5112
  902MPD2    H513221   1.524   1.882  12.129  0.0691 -2.8228 -0.2615
  902MPD2    N113222   1.166   1.992  12.432  0.4181 -1.6440  0.3233
  902MPD2    H713223   1.127   1.998  12.526 -3.8886 -0.8066 -1.5390
  903MPD2     C13224   1.338   1.818  11.505 -0.0432  0.7309  0.1878
  903MPD2    C113225   1.347   1.836  11.638  0.2389  0.4690 -0.3135
  903MPD2    C213226   1.232   1.821  11.723  0.5598  0.2634 -0.2445
  903MPD2    C313227   1.113   1.783  11.661  0.1257  0.4790 -0.2866
  903MPD2    C413228   1.110   1.769  11.522  0.1272 -0.1196 -0.2798
  903MPD2    C513229   1.222   1.785  11.444 -0.7896 -0.5280 -0.0435
  903MPD2     H13230   1.239   1.816  11.831 -1.7818 -1.9667 -0.2054
  903MPD2    H113231   1.014   1.749  11.474 -0.1631  2.0835 -0.6118
  903MPD2    H213232   1.419   1.839  11.436 -2.3450  2.3570 -2.0451
  903MPD2    H313233   1.224   1.778  11.336 -0.5844 -0.1756 -0.0611
  903MPD2     N13234   1.000   1.758  11.745 -0.1292 -0.0808  0.4986
  903MPD2    H513235   1.016   1.780  11.843 -0.2971 -1.5369  0.8510
  903MPD2    N113236   1.475   1.872  11.687 -0.1877 -0.6045 -0.0279
  903MPD2    H713237   1.554   1.886  11.626  1.0005 -0.0979  1.6134
  904MPD2     C13238   1.779   1.206  13.598 -0.7942  0.5625  0.4473
  904MPD2    C113239   1.760   1.331  13.650 -0.1649 -0.6947 -1.1031
  904MPD2    C213240   1.873   1.410  13.691  0.4783 -0.3373 -0.8647
  904MPD2    C313241   2.001   1.361  13.696 -1.0262  0.3083  0.6638
  904MPD2    C413242   2.015   1.231  13.650 -0.5409  0.7492  0.1674
  904MPD2    C513243   1.907   1.162  13.596 -0.0438 -0.1447 -0.6361
  904MPD2     H13244   1.843   1.506  13.730 -2.3057 -1.5709  0.0108
  904MPD2    H113245   2.108   1.178  13.629 -0.8010  0.7393 -0.9444
  904MPD2    H213246   1.709   1.129  13.566  0.7385 -0.9962  0.8304
  904MPD2    H313247   1.918   1.060  13.560  0.0138 -0.1305 -0.6595
  904MPD2     N13248   2.102   1.447  13.732  0.4016  0.0313  0.5053
  904MPD2    H513249   2.078   1.545  13.742  1.0899  0.3914 -1.4722
  904MPD2    N113250   1.631   1.400  13.660 -0.3703 -0.1545 -0.1880
  904MPD2    H713251   1.626   1.495  13.693 -0.5183 -1.0865  2.4509
  905MPD2     C13252   1.182   1.580  13.091 -0.1196 -1.1598  0.3329
  905MPD2    C113253   1.266   1.639  13.189  0.1216 -0.3388 -0.0447
  905MPD2    C213254   1.352   1.740  13.143  0.4284  0.4782 -0.2206
  905MPD2    C313255   1.381   1.761  13.005 -0.1073  0.7165 -0.0475
  905MPD2    C413256   1.310   1.684  12.916  0.0712  0.1836 -0.2319
  905MPD2    C513257   1.204   1.605  12.957  0.1839 -0.9134  0.7190
  905MPD2     H13258   1.416   1.790  13.215 -0.1076 -1.2514  1.4742
  905MPD2    H113259   1.331   1.688  12.810 -1.9788 -0.6328 -0.6775
  905MPD2    H213260   1.106   1.507  13.115 -0.0233 -1.3024  0.1982
  905MPD2    H313261   1.140   1.560  12.883 -1.0870  1.0726  0.5938
  905MPD2     N13262   1.475   1.855  12.958  0.3245  0.8192  0.2841
  905MPD2    H513263   1.453   1.888  12.865 -5.1243 -0.4731  1.1209
  905MPD2    N113264   1.263   1.606  13.323 -0.8866 -0.2464  0.3674
  905MPD2    H713265   1.326   1.655  13.386  0.2009  1.5008 -2.0604
  906MPD2     C13266   2.928   1.486  11.322  0.2790  0.2396 -0.1491
  906MPD2    C113267   2.896   1.371  11.253  0.8531 -0.7043  0.4047
  906MPD2    C213268   2.815   1.269  11.305 -0.1233  0.2433 -0.3448
  906MPD2    C313269   2.762   1.287  11.433  0.8785  0.3438 -0.5489
  906MPD2    C413270   2.785   1.403  11.505  1.0289 -0.2503  0.6446
  906MPD2    C513271   2.861   1.502  11.445  0.2245  0.1495  0.0982
  906MPD2     H13272   2.781   1.190  11.239  0.0619 -1.1251  1.2091
  906MPD2    H113273   2.720   1.421  11.590  0.5688 -1.2119  0.5029
  906MPD2    H213274   2.990   1.566  11.284  0.1052  1.2600  1.7149
  906MPD2    H313275   2.887   1.589  11.503  0.9511 -0.7267  1.1071
  906MPD2     N13276   2.683   1.178  11.475 -0.2867 -0.1401  0.4228
  906MPD2    H513277   2.674   1.103  11.407 -2.8267  0.6885 -0.1504
  906MPD2    N113278   2.948   1.347  11.125  0.2638  0.4792  0.0833
  906MPD2    H713279   2.919   1.257  11.089 -0.0463 -0.5981  3.0154
  907MPD2     C13280   2.965   0.310  15.556 -0.4251  0.3579 -0.4709
  907MPD2    C113281   2.841   0.265  15.597  0.6236  0.1041 -0.4270
  907MPD2    C213282   2.809   0.297  15.725  0.3195  0.0351 -0.1065
  907MPD2    C313283   2.895   0.367  15.812  0.7045 -0.3102  0.0705
  907MPD2    C413284   3.018   0.411  15.765 -0.3018 -0.0058 -0.1332
  907MPD2    C513285   3.049   0.380  15.639 -0.0169  0.6862  0.3980
  907MPD2     H13286   2.716   0.260  15.764  0.6779 -0.0483  0.6625
  907MPD2    H113287   3.101   0.436  15.830 -0.3801 -2.0505  0.7697
  907MPD2    H213288   3.000   0.294  15.455  1.7523 -2.2312  0.6758
  907MPD2    H313289   3.147   0.416  15.607  0.8937 -0.2011  2.1927
  907MPD2     N13290   2.855   0.384  15.951 -0.5439  0.3741 -0.3381
  907MPD2    H513291   2.768   0.339  15.978  0.2542 -2.7280 -2.9506
  907MPD2    N113292   2.744   0.195  15.518 -0.1536 -0.6246 -0.1912
  907MPD2    H713293   2.653   0.180  15.560  0.8632 -0.1191  2.1788
  908MPD2     C13294   0.285   0.705   9.849  0.4817  0.0509 -0.2114
  908MPD2    C113295   0.223   0.636   9.958 -0.5055  0.9358  0.1935
  908MPD2    C213296   0.181   0.720  10.059 -0.0403 -0.7137 -0.1613
  908MPD2    C313297   0.194   0.860  10.060 -0.2064 -0.0259 -0.4200
  908MPD2    C413298   0.250   0.920   9.949  0.0176  0.7199  0.2560
  908MPD2    C513299   0.296   0.840   9.846  0.5261 -0.7000 -0.3631
  908MPD2     H13300   0.135   0.675  10.147  2.2530  0.1238  1.4621
  908MPD2    H113301   0.274   1.026   9.943 -2.0692  1.1210 -1.2358
  908MPD2    H213302   0.330   0.649   9.767  0.5292  0.4686 -0.4693
  908MPD2    H313303   0.356   0.885   9.767  1.5080  0.0737  0.8227
  908MPD2     N13304   0.153   0.934  10.167  0.1373  0.2343 -0.6660
  908MPD2    H513305   0.111   0.888  10.247 -0.7383  0.3992 -1.0286
  908MPD2    N113306   0.196   0.494   9.949 -0.4354  0.0433 -0.4586
  908MPD2    H713307   0.205   0.461   9.853  1.0186 -3.5284  0.8840
  909MPD2     C13308   0.022   3.731  11.943 -0.1880 -0.1837  0.2063
  909MPD2    C113309   4.691   3.812  11.843  0.3556 -0.7011  0.2026
  909MPD2    C213310   4.609   3.911  11.883  0.7180  0.4430  0.2304
  909MPD2    C313311   4.583   3.945  12.019  0.6152  0.4021  0.1062
  909MPD2    C413312   4.642   3.865  12.119 -0.3724 -1.2063  0.1750
  909MPD2    C513313   4.715   3.756  12.073 -0.7238 -0.0874  0.5746
  909MPD2     H13314   4.565   3.975  11.808  2.2888  2.9600  1.4550
  909MPD2    H113315   4.627   3.881  12.225 -1.4013 -2.1897  0.1821
  909MPD2    H213316   0.087   3.647  11.923 -0.4332 -0.3597  0.1453
  909MPD2    H313317   0.034   3.687  12.145  0.5461 -0.1896 -0.2769
  909MPD2     N13318   4.496   4.056  12.044 -0.4284  0.5533 -0.6741
  909MPD2    H513319   4.449   4.105  11.968  1.2947  1.4822 -1.1263
  909MPD2    N113320   4.709   3.789  11.708 -0.3547 -0.0664 -0.2502
  909MPD2    H713321   4.683   3.871  11.654  0.5703 -0.0570 -0.6824
  910MPD2     C13322   1.874   1.007  15.674  0.9725  1.2773 -0.3703
  910MPD2    C113323   1.971   1.062  15.583  1.0678 -0.1215  0.2623
  910MPD2    C213324   1.948   1.173  15.506  0.2570 -0.6318 -0.8560
  910MPD2    C313325   1.837   1.246  15.528 -0.1507  0.0938  0.3336
  910MPD2    C413326   1.746   1.197  15.627 -0.9173 -0.8519 -0.4108
  910MPD2    C513327   1.759   1.084  15.695  0.1083  0.1210  0.2086
  910MPD2     H13328   2.027   1.208  15.440  0.5451  0.5367  0.0794
  910MPD2    H113329   1.653   1.250  15.639 -0.1831  0.0295  1.3719
  910MPD2    H213330   1.887   0.917  15.733 -1.4035  1.0715 -0.1698
  910MPD2    H313331   1.684   1.050  15.766  3.1073 -2.6687  2.0275
  910MPD2     N13332   1.817   1.375  15.464 -0.6611 -0.6563 -0.5697
  910MPD2    H513333   1.745   1.433  15.505 -1.3407 -0.5106 -1.9499
  910MPD2    N113334   2.094   1.001  15.555 -0.4647  0.6089 -0.1718
  910MPD2    H713335   2.148   1.035  15.475  0.1814 -0.2638 -0.1036
  911MPD2     C13336   4.396   1.426  16.335  0.6072 -0.3051 -0.0011
  911MPD2    C113337   4.374   1.480  16.461 -0.3414  0.9377  0.3528
  911MPD2    C213338   4.340   1.617  16.475  0.0176  0.0104  0.0959
  911MPD2    C313339   4.310   1.694  16.365  0.2357  0.3312  0.0800
  911MPD2    C413340   4.341   1.642  16.240  0.0648 -0.0811 -0.1040
  911MPD2    C513341   4.377   1.509  16.225 -0.1022 -0.9962  0.2346
  911MPD2     H13342   4.348   1.663  16.572  0.0048  0.3728 -0.0735
  911MPD2    H113343   4.323   1.705  16.154  0.8415 -0.3125 -0.4403
  911MPD2    H213344   4.431   1.325  16.320  1.1354  0.1352 -1.7500
  911MPD2    H313345   4.391   1.476  16.123  2.4076 -0.0895  0.2926
  911MPD2     N13346   4.260   1.825  16.384 -0.2562  0.2714 -0.3928
  911MPD2    H513347   4.264   1.865  16.477  1.2646  0.6273 -0.6222
  911MPD2    N113348   4.405   1.395  16.571  0.2213  0.4265  0.4756
  911MPD2    H713349   4.441   1.302  16.551  1.1225  0.9791 -0.4426
  912MPD2     C13350   4.220   1.294  15.885  0.1400  0.0186  1.5571
  912MPD2    C113351   4.168   1.341  16.005 -0.0522  0.1665  0.0306
  912MPD2    C213352   4.176   1.274  16.127  0.1967 -0.4396  0.0406
  912MPD2    C313353   4.241   1.152  16.133  0.1129 -0.5612 -0.1187
  912MPD2    C413354   4.301   1.110  16.014  1.0424  0.4601 -0.0033
  912MPD2    C513355   4.288   1.178  15.891 -0.8332 -0.4599 -0.3175
  912MPD2     H13356   4.137   1.307  16.222 -1.6870 -0.2422 -0.7986
  912MPD2    H113357   4.363   1.022  16.023  0.0566 -0.3308 -0.9579
  912MPD2    H213358   4.208   1.341  15.788  1.8033 -1.1442  0.7923
  912MPD2    H313359   4.344   1.130  15.812 -0.5095  0.1494 -0.4531
  912MPD2     N13360   4.250   1.082  16.256 -0.0280 -0.8559 -0.4405
  912MPD2    H513361   4.189   1.116  16.329 -1.5216 -0.1421 -2.0154
  912MPD2    N113362   4.112   1.471  15.997  0.0536 -0.2700 -0.2408
  912MPD2    H713363   4.122   1.514  15.906 -1.4478  2.9477  1.1027
  913MPD2     C13364   4.282   3.041  11.606  0.1232 -0.4118  0.0882
  913MPD2    C113365   4.323   2.910  11.589  0.8983  0.0255  0.5191
  913MPD2    C213366   4.370   2.868  11.462 -0.1074 -0.6997 -0.3713
  913MPD2    C313367   4.367   2.958  11.360 -0.6928 -0.9654 -0.7173
  913MPD2    C413368   4.320   3.087  11.383  1.1014 -0.2082  0.4715
  913MPD2    C513369   4.284   3.132  11.508 -0.5963 -0.5591  0.4976
  913MPD2     H13370   4.405   2.767  11.451  1.4376 -0.3992  1.7218
  913MPD2    H113371   4.311   3.155  11.299 -1.9844 -1.9919 -0.6419
  913MPD2    H213372   4.266   3.078  11.706  0.3669  0.7475 -0.3029
  913MPD2    H313373   4.259   3.236  11.526 -1.0336 -0.2638 -1.8897
  913MPD2     N13374   4.394   2.925  11.225  0.3975 -0.1505 -0.1429
  913MPD2    H513375   4.380   2.995  11.153 -0.5995 -0.8520 -0.6268
  913MPD2    N113376   4.322   2.829  11.705 -0.4477  0.0820 -0.4912
  913MPD2    H713377   4.284   2.868  11.791  0.1861 -3.2011  1.2781
  914MPD2     C13378   2.710   2.989  12.214 -0.0322 -0.3578  0.0632
  914MPD2    C113379   2.715   3.086  12.312  0.7376 -0.7942 -0.0651
  914MPD2    C213380   2.674   3.049  12.442 -0.6550 -0.2315 -0.0592
  914MPD2    C313381   2.643   2.924  12.475  1.3710  1.0255 -0.1773
  914MPD2    C413382   2.653   2.825  12.383 -0.0592  0.6744 -0.1485
  914MPD2    C513383   2.684   2.859  12.251  0.6891 -0.4880  0.1415
  914MPD2     H13384   2.657   3.122  12.521  0.0677  0.9188 -0.9713
  914MPD2    H113385   2.622   2.723  12.406  0.8088  0.3896 -0.2389
  914MPD2    H213386   2.749   3.005  12.114  1.0658  0.1938  0.5699
  914MPD2    H313387   2.685   2.787  12.170  1.9203 -1.4213  0.9831
  914MPD2     N13388   2.609   2.899  12.614  0.1519 -0.3855  0.2743
  914MPD2    H513389   2.589   2.981  12.670  1.0083 -0.6438  0.9683
  914MPD2    N113390   2.739   3.222  12.273 -0.1516 -0.1796  0.1445
  914MPD2    H713391   2.787   3.241  12.186  0.0462 -0.3627  0.2134
  915MPD2     C13392   0.704   2.865  15.666  0.6458  0.1177 -0.4445
  915MPD2    C113393   0.567   2.864  15.664 -0.3078 -0.1234  0.5842
  915MPD2    C213394   0.504   2.929  15.765 -0.3857  0.7738 -0.1586
  915MPD2    C313395   0.566   2.981  15.875 -0.3085 -0.7169 -0.0299
  915MPD2    C413396   0.702   2.979  15.881 -0.0921 -0.3053  0.3005
  915MPD2    C513397   0.767   2.930  15.771  0.1567 -0.0960 -0.2623
  915MPD2     H13398   0.397   2.939  15.779 -0.2896 -0.1993  1.3197
  915MPD2    H113399   0.754   3.033  15.958  1.2764 -0.4833 -0.5020
  915MPD2    H213400   0.765   2.814  15.593  1.6333  1.5153 -0.5854
  915MPD2    H313401   0.875   2.928  15.783  0.0067  1.3380  1.2234
  915MPD2     N13402   0.492   3.052  15.971  0.2071 -0.0943 -0.1937
  915MPD2    H513403   0.398   3.084  15.949 -0.5316 -1.2764  1.3252
  915MPD2    N113404   0.497   2.801  15.556 -0.1385 -0.1465 -0.0489
  915MPD2    H713405   0.543   2.759  15.476 -0.9573  1.5308 -1.3968
  916MPD2     C13406   3.744   1.894  16.132  0.1075  0.1128 -0.3720
  916MPD2    C113407   3.680   1.795  16.205  0.0176  0.3717  0.4281
  916MPD2    C213408   3.675   1.664  16.150 -0.1111  0.3622  0.1009
  916MPD2    C313409   3.717   1.642  16.017  0.3720  0.2792 -0.3160
  916MPD2    C413410   3.769   1.744  15.943  0.6017 -0.1104  0.4458
  916MPD2    C513411   3.790   1.866  16.003  0.6802  0.3262 -0.4122
  916MPD2     H13412   3.648   1.578  16.211 -0.4493  0.7183  0.4560
  916MPD2    H113413   3.795   1.738  15.838 -1.5117 -2.2292  0.0411
  916MPD2    H213414   3.748   1.992  16.176  0.9012  0.1943 -0.6137
  916MPD2    H313415   3.813   1.949  15.938 -1.1725  0.3602 -1.0381
  916MPD2     N13416   3.715   1.513  15.960  0.3827 -0.0862 -0.0196
  916MPD2    H513417   3.693   1.434  16.021 -1.0617 -0.3334 -0.8666
  916MPD2    N113418   3.609   1.838  16.318  0.3910 -0.1719  0.0985
  916MPD2    H713419   3.608   1.935  16.345  1.2034 -0.3167  0.6287
  917MPD2     C13420   3.693   3.481  11.383 -0.1102  1.1834 -0.3283
  917MPD2    C113421   3.652   3.552  11.497 -0.3636 -0.4949  0.0140
  917MPD2    C213422   3.645   3.687  11.483 -0.2357 -0.1740 -0.5183
  917MPD2    C313423   3.692   3.756  11.373  0.5401  0.3004 -0.2002
  917MPD2    C413424   3.725   3.683  11.259 -0.0269 -0.1698 -0.1479
  917MPD2    C513425   3.728   3.550  11.266 -0.9093  0.1490 -0.2936
  917MPD2     H13426   3.583   3.745  11.551 -0.8346  0.8038 -1.8960
  917MPD2    H113427   3.741   3.735  11.165  0.9243  1.0814  0.7020
  917MPD2    H213428   3.686   3.373  11.377 -2.0344  1.3895 -1.5942
  917MPD2    H313429   3.758   3.495  11.177 -0.6957 -1.5594  0.8295
  917MPD2     N13430   3.705   3.899  11.367  0.6083 -0.6561  0.0078
  917MPD2    H513431   3.708   3.934  11.272 -0.4234  1.7076  0.8373
  917MPD2    N113432   3.619   3.479  11.617 -0.6197  0.7335  0.4878
  917MPD2    H713433   3.608   3.378  11.618 -0.9592  0.7744  0.9375
  918MPD2     C13434   3.531   3.660  12.612 -0.6753  0.4279  0.6695
  918MPD2    C113435   3.551   3.746  12.506 -0.2862 -0.3551 -0.6154
  918MPD2    C213436   3.509   3.715  12.384 -0.2894  0.4089  0.5447
  918MPD2    C313437   3.456   3.589  12.357  0.0164 -0.4409  0.2389
  918MPD2    C413438   3.447   3.496  12.462  0.5535 -0.2943 -0.4162
  918MPD2    C513439   3.484   3.537  12.589 -0.3248 -0.4011  0.1013
  918MPD2     H13440   3.511   3.779  12.297  0.2643  0.0155  0.2654
  918MPD2    H113441   3.415   3.394  12.450  3.3652 -1.1436 -0.8500
  918MPD2    H213442   3.573   3.685  12.709  0.7440  0.5136  0.0324
  918MPD2    H313443   3.473   3.462  12.667 -1.2240 -0.1865  0.1859
  918MPD2     N13444   3.450   3.550  12.218  0.5723  0.5641 -0.4029
  918MPD2    H513445   3.500   3.607  12.150  0.3827 -0.4392 -1.3971
  918MPD2    N113446   3.628   3.866  12.515 -0.4008 -0.3034  0.5044
  918MPD2    H713447   3.670   3.911  12.435  1.3712  1.3794  2.3823
  919MPD2     C13448   4.013   2.584  11.810 -0.2075  0.2197 -0.3975
  919MPD2    C113449   4.025   2.459  11.758 -0.6876  0.2727 -0.4496
  919MPD2    C213450   4.032   2.442  11.622 -0.3807  0.5351 -0.3086
  919MPD2    C313451   4.034   2.553  11.538 -0.7313 -0.1435  0.3905
  919MPD2    C413452   4.048   2.680  11.592  0.0061  0.0217  0.0248
  919MPD2    C513453   4.026   2.693  11.726 -0.2509  0.2188  0.4206
  919MPD2     H13454   4.045   2.338  11.593  0.7908  0.4851  0.3531
  919MPD2    H113455   4.077   2.770  11.538 -0.1048 -0.1358 -0.2957
  919MPD2    H213456   4.004   2.609  11.915  0.2247 -1.0012 -0.0823
  919MPD2    H313457   4.045   2.791  11.768  0.3665  0.7318 -1.0379
  919MPD2     N13458   4.059   2.545  11.398 -0.0709  0.2789 -0.0335
  919MPD2    H513459   4.066   2.630  11.343 -2.5685  0.7111  0.3188
  919MPD2    N113460   4.040   2.344  11.838  0.5139  0.4210  0.4348
  919MPD2    H713461   4.080   2.266  11.787 -0.6699  0.3946 -0.4494
  920MPD2     C13462   4.124   3.022  10.522 -0.1200 -0.0171 -0.7206
  920MPD2    C113463   4.049   2.910  10.487 -0.0295 -0.3337 -0.7575
  920MPD2    C213464   4.033   2.809  10.580 -0.6675  0.1751 -0.0196
  920MPD2    C313465   4.074   2.829  10.711  0.3480  0.1675  0.7267
  920MPD2    C413466   4.136   2.951  10.747 -0.7728 -0.1450 -0.5928
  920MPD2    C513467   4.164   3.044  10.651  0.6528 -0.0181 -0.4015
  920MPD2     H13468   3.975   2.721  10.554 -0.6335 -0.4445  2.0338
  920MPD2    H113469   4.161   2.977  10.849  0.2762  1.3438 -1.2368
  920MPD2    H213470   4.137   3.101  10.449 -4.3617  3.2486  2.0193
  920MPD2    H313471   4.214   3.137  10.677  1.3977 -0.3432 -0.6780
  920MPD2     N13472   4.043   2.726  10.803 -0.4343  0.4626  0.3133
  920MPD2    H513473   3.974   2.658  10.774 -0.0622 -0.0147  0.5483
  920MPD2    N113474   3.987   2.896  10.361 -0.3608  0.3396  0.2988
  920MPD2    H713475   3.911   2.829  10.349 -0.4320  0.2227  1.4330
  921MPD2     C13476   0.200   1.697  17.242  0.2720 -0.0491 -0.1381
  921MPD2    C113477   0.250   1.636  17.132  0.5017 -0.2332 -0.8266
  921MPD2    C213478   0.164   1.532  17.076  0.3537 -0.2463  0.0872
  921MPD2    C313479   0.034   1.519  17.118  0.5150  0.1075 -0.5147
  921MPD2    C413480   4.709   1.601  17.211  0.0605  0.5472  0.1244
  921MPD2    C513481   0.067   1.683  17.280 -0.5255  0.6718  0.2667
  921MPD2     H13482   0.201   1.469  16.996 -0.8280  2.2665 -2.4179
  921MPD2    H113483   4.605   1.591  17.242  0.6020  0.4325  1.9474
  921MPD2    H213484   0.265   1.761  17.300 -0.2671 -0.8489  1.3590
  921MPD2    H313485   0.039   1.750  17.361  0.8253  0.5265  0.8474
  921MPD2     N13486   4.668   1.415  17.071 -0.4341 -0.1287 -0.1718
  921MPD2    H513487   4.575   1.415  17.110 -0.7142 -2.5440 -0.8463
  921MPD2    N113488   0.383   1.662  17.090  0.2507  0.6626  0.5006
  921MPD2    H713489   0.434   1.736  17.136 -2.2268  1.2803  2.2315
  922MPD2     C13490   0.496   3.954  16.642 -0.0652  0.2420 -0.0353
  922MPD2    C113491   0.542   4.033  16.743  0.6280  0.2679 -0.2387
  922MPD2    C213492   0.455   4.092  16.835  0.0216  0.8261  0.0422
  922MPD2    C313493   0.321   4.061  16.839 -0.4946  0.3500  0.0044
  922MPD2    C413494   0.275   3.975  16.740 -0.6802 -0.3552  0.7499
  922MPD2    C513495   0.365   3.927  16.643 -0.2048  0.3561 -0.3989
  922MPD2     H13496   0.498   4.147  16.918  0.5371 -1.2910  1.1869
  922MPD2    H113497   0.174   3.938  16.736 -1.5683  1.9064  2.0056
  922MPD2    H213498   0.549   3.918  16.554 -0.3666 -0.6504  0.1474
  922MPD2    H313499   0.324   3.867  16.562  0.8200 -0.4527 -0.3228
  922MPD2     N13500   0.248   4.116  16.948  0.2357 -0.2746 -0.7114
  922MPD2    H513501   0.297   4.185  17.005  0.0165  0.0338 -0.8941
  922MPD2    N113502   0.679   4.057  16.744  0.0194  0.0815  0.2781
  922MPD2    H713503   0.710   4.118  16.819  2.7969  0.9433 -1.5574
  923MPD2     C13504   2.204   1.218   9.413 -0.1642 -0.6401  0.0499
  923MPD2    C113505   2.307   1.249   9.493 -0.2803  0.3837  0.2019
  923MPD2    C213506   2.418   1.169   9.500 -0.1431 -0.4062 -0.3429
  923MPD2    C313507   2.417   1.052   9.428 -0.7529 -0.7661 -0.5299
  923MPD2    C413508   2.319   1.034   9.329 -0.9281  0.3895 -0.2538
  923MPD2    C513509   2.214   1.111   9.329 -0.1016  0.6619  0.0238
  923MPD2     H13510   2.507   1.197   9.554 -0.3814  1.0333 -0.6769
  923MPD2    H113511   2.326   0.949   9.262 -0.0738 -0.0321  0.3700
  923MPD2    H213512   2.123   1.290   9.402  0.1552  0.2188  3.4287
  923MPD2    H313513   2.129   1.086   9.266  1.3011  0.9888 -2.0175
  923MPD2     N13514   2.513   0.942   9.447 -0.2669  0.6881 -0.0824
  923MPD2    H513515   2.497   0.861   9.389 -0.0372 -0.1056  0.9613
  923MPD2    N113516   2.289   1.365   9.567  0.3129  0.6292  0.7687
  923MPD2    H713517   2.200   1.412   9.556 -0.2550 -0.6583 -0.2112
  924MPD2     C13518   2.557   4.472  16.390 -0.4885 -0.0649  1.0003
  924MPD2    C113519   2.476   4.572  16.437  0.8068 -0.7096 -0.0978
  924MPD2    C213520   2.526   4.701  16.422  0.2277 -0.4260 -0.1540
  924MPD2    C313521   2.646   0.002  16.357  0.2174 -0.0896 -0.5904
  924MPD2    C413522   2.712   4.621  16.298  0.0721 -0.0814  0.2845
  924MPD2    C513523   2.670   4.495  16.315  0.7288 -0.3459 -0.0822
  924MPD2     H13524   2.481   0.064  16.469  1.6686  0.2569 -0.0332
  924MPD2    H113525   2.805   4.635  16.243  0.2306  1.4873  0.9781
  924MPD2    H213526   2.522   4.371  16.406  1.3553 -0.5564  1.9265
  924MPD2    H313527   2.724   4.415  16.264 -0.8195 -1.7065  0.4417
  924MPD2     N13528   2.708   0.128  16.337 -0.0003 -0.2098 -0.8155
  924MPD2    H513529   2.797   0.134  16.288 -0.9332  0.0690 -2.4677
  924MPD2    N113530   2.363   4.541  16.520  0.1936  0.9111  0.0227
  924MPD2    H713531   2.369   4.452  16.567  0.2004  0.1331 -1.4575
  925MPD2     C13532   1.098   2.191  14.927  0.0456 -0.3152 -0.1286
  925MPD2    C113533   1.040   2.314  14.936  0.2247 -0.2651  0.2519
  925MPD2    C213534   1.026   2.372  15.060  0.4772  0.0236  0.1294
  925MPD2    C313535   1.068   2.301  15.174 -0.0070 -0.5785  0.7332
  925MPD2    C413536   1.123   2.179  15.162  0.2492 -0.6268  0.0435
  925MPD2    C513537   1.137   2.127  15.037 -0.3460  0.2264  0.0417
  925MPD2     H13538   0.986   2.472  15.075  0.6995 -0.1301  1.6598
  925MPD2    H113539   1.163   2.124  15.246 -0.0604  0.1120  0.6682
  925MPD2    H213540   1.132   2.144  14.836 -2.4135  1.0933 -1.7948
  925MPD2    H313541   1.193   2.037  15.011 -1.3637 -0.3463 -0.1742
  925MPD2     N13542   1.044   2.330  15.313  0.0435 -0.0799  0.4834
  925MPD2    H513543   1.082   2.261  15.377 -1.2018 -2.0696 -0.9330
  925MPD2    N113544   1.007   2.392  14.825  0.0101  0.2191  0.5794
  925MPD2    H713545   0.952   2.477  14.836  1.0074  0.8671  0.6275
  926MPD2     C13546   0.072   0.843  13.249 -0.0541 -0.4036  0.2434
  926MPD2    C113547   4.659   0.855  13.234 -0.0366 -0.1453  0.1668
  926MPD2    C213548   4.617   0.923  13.118 -0.0302  0.3174 -0.8615
  926MPD2    C313549   4.698   0.979  13.026 -0.1626 -0.3926 -0.1150
  926MPD2    C413550   0.110   0.964  13.040 -0.2983  0.1828 -0.4490
  926MPD2    C513551   0.163   0.896  13.153  0.5691  0.2626 -0.1531
  926MPD2     H13552   4.509   0.921  13.107 -0.5690 -0.4144  4.3137
  926MPD2    H113553   0.179   0.995  12.962 -1.1296  0.8843 -0.8991
  926MPD2    H213554   0.116   0.788  13.331  0.8587 -0.1833 -0.0991
  926MPD2    H313555   0.269   0.877  13.160  0.6740  0.7328 -0.4991
  926MPD2     N13556   4.648   1.056  12.913  0.2406 -0.0766 -0.2848
  926MPD2    H513557   4.716   1.108  12.860 -0.7633  0.0322 -1.4759
  926MPD2    N113558   4.559   0.807  13.323  0.4490 -0.4191  0.2650
  926MPD2    H713559   4.462   0.808  13.296  0.3136  0.7762  0.8135
  927MPD2     C13560   4.032   3.596   0.295 -0.7642  0.2336 -0.0511
  927MPD2    C113561   4.139   3.573   0.377 -0.4694 -0.1635  0.2178
  927MPD2    C213562   4.257   3.512   0.326  0.9674 -0.3051 -0.3333
  927MPD2    C313563   4.268   3.509   0.186 -0.0180 -0.3411 -0.5733
  927MPD2    C413564   4.164   3.533   0.103  0.2146 -0.0256 -0.1413
  927MPD2    C513565   4.046   3.574   0.162 -0.3954 -0.7470  0.7379
  927MPD2     H13566   4.337   3.471   0.386  0.4129 -0.3695  0.3629
  927MPD2    H113567   4.170   3.523  17.693  0.2184 -1.8952  0.0219
  927MPD2    H213568   3.935   3.630   0.329  1.1960  3.6203  2.0957
  927MPD2    H313569   3.963   3.607   0.100  2.3176  0.8780 -2.0582
  927MPD2     N13570   4.393   3.461   0.147 -0.6452 -0.0238 -0.3111
  927MPD2    H513571   4.459   3.461   0.224  1.5709  0.5783 -2.2259
  927MPD2    N113572   4.116   3.597   0.514 -0.1761 -0.7841 -0.4197
  927MPD2    H713573   4.024   3.623   0.547 -0.0178  0.7115 -1.1766
  928MPD2     C13574   2.452   1.892   1.728 -0.2068  0.6262 -0.1413
  928MPD2    C113575   2.552   1.986   1.737 -0.0346 -0.0701 -0.4713
  928MPD2    C213576   2.648   1.989   1.638 -0.3041 -0.0178 -0.4028
  928MPD2    C313577   2.646   1.903   1.530  0.4723  0.1154 -0.5258
  928MPD2    C413578   2.541   1.818   1.525 -0.6783  0.0498 -0.4908
  928MPD2    C513579   2.449   1.803   1.626 -0.2009  0.1731 -0.7509
  928MPD2     H13580   2.733   2.054   1.654  1.5415 -2.9172  1.6533
  928MPD2    H113581   2.524   1.742   1.450  1.6974  0.0117 -0.9632
  928MPD2    H213582   2.373   1.883   1.803 -1.3526  0.2480 -1.3915
  928MPD2    H313583   2.375   1.724   1.619 -1.4475  1.2506  0.1147
  928MPD2     N13584   2.737   1.909   1.425  0.2219 -0.3806  0.4685
  928MPD2    H513585   2.714   1.852   1.343  0.1906 -0.3631  0.4651
  928MPD2    N113586   2.542   2.086   1.841 -0.0895 -0.2270  0.3835
  928MPD2    H713587   2.452   2.104   1.884 -0.5617 -0.2434 -0.6077
  929MPD2     C13588   2.572   0.985  10.680  0.0221  0.0663 -0.1252
  929MPD2    C113589   2.447   0.936  10.656 -0.4680  0.4647  1.0660
  929MPD2    C213590   2.426   0.885  10.528 -0.1554 -0.0205 -0.5643
  929MPD2    C313591   2.511   0.909  10.419  0.2435 -0.5738  0.8598
  929MPD2    C413592   2.629   0.972  10.450 -0.3504 -0.4967  0.1185
  929MPD2    C513593   2.661   1.000  10.579  0.1290  0.4125  0.1260
  929MPD2     H13594   2.324   0.852  10.509 -0.6953  2.2646 -1.6373
  929MPD2    H113595   2.699   1.003  10.373 -1.8955  2.9307  0.0826
  929MPD2    H213596   2.601   1.030  10.774 -0.9315  4.0833 -1.7856
  929MPD2    H313597   2.749   1.060  10.601 -0.0421  0.7851 -0.1992
  929MPD2     N13598   2.467   0.905  10.287 -0.2982 -0.1579  0.2931
  929MPD2    H513599   2.527   0.938  10.213 -0.4896 -0.4879 -0.0114
  929MPD2    N113600   2.359   0.924  10.765 -0.4000 -0.3253 -0.1753
  929MPD2    H713601   2.395   0.974  10.846  0.5717 -0.1306 -0.7262
  930MPD2     C13602   4.095   3.548  14.666  0.6521  0.3645  0.6520
  930MPD2    C113603   4.218   3.534  14.609 -1.2792  0.0768  0.1121
  930MPD2    C213604   4.248   3.423  14.528 -0.6553 -0.8662  0.3220
  930MPD2    C313605   4.142   3.347  14.486 -0.1880 -0.1313 -0.1710
  930MPD2    C413606   4.024   3.357  14.553 -0.5272  0.0364 -0.4995
  930MPD2    C513607   3.995   3.460  14.636 -0.3914  0.2530  0.9630
  930MPD2     H13608   4.347   3.412  14.487  0.0535  4.2987  0.5917
  930MPD2    H113609   3.947   3.291  14.515  0.5788 -0.6309 -1.5925
  930MPD2    H213610   4.074   3.634  14.727  2.1491  0.0963  1.5386
  930MPD2    H313611   3.895   3.469  14.675 -0.6681  2.1043 -0.1374
  930MPD2     N13612   4.150   3.247  14.389 -0.5032  0.2622 -0.0098
  930MPD2    H513613   4.062   3.207  14.356 -0.9020  0.1094  1.2662
  930MPD2    N113614   4.305   3.644  14.633 -0.4455 -0.6449 -0.4831
  930MPD2    H713615   4.270   3.731  14.673 -2.5700 -1.2642 -0.9954
  931MPD2     C13616   4.417   3.228   1.139 -0.6087  0.3568 -0.6783
  931MPD2    C113617   4.314   3.305   1.171  0.1093  0.0323 -0.4923
  931MPD2    C213618   4.272   3.310   1.304 -0.4901 -0.2009 -0.4328
  931MPD2    C313619   4.343   3.261   1.408  0.2599 -0.6193  0.3810
  931MPD2    C413620   4.454   3.186   1.373  0.1540 -0.5913 -0.1349
  931MPD2    C513621   4.487   3.165   1.238 -0.3704  0.1357 -0.5471
  931MPD2     H13622   4.205   3.391   1.333 -0.8953 -1.1493  1.3221
  931MPD2    H113623   4.527   3.147   1.443  1.0691  2.7427  0.7887
  931MPD2    H213624   4.449   3.216   1.036  0.9886 -0.9609 -0.0420
  931MPD2    H313625   4.583   3.120   1.217 -1.3971 -2.0284 -0.6055
  931MPD2     N13626   4.314   3.263   1.544 -0.2662 -0.4086  0.1723
  931MPD2    H513627   4.380   3.240   1.617  2.4609  0.6108 -2.0000
  931MPD2    N113628   4.251   3.361   1.061 -0.4653  0.7656  0.3462
  931MPD2    H713629   4.280   3.326   0.970 -0.1064 -1.0234  1.1321
  932MPD2     C13630   1.091   1.974  11.088 -0.4462 -0.1600 -0.5508
  932MPD2    C113631   1.207   2.001  11.016 -0.3094 -0.4113 -0.4832
  932MPD2    C213632   1.293   1.902  10.977 -0.1746  0.6169 -1.1408
  932MPD2    C313633   1.264   1.765  11.004  0.2229  1.0666 -0.5255
  932MPD2    C413634   1.146   1.746  11.070  0.1671  0.2425 -0.7635
  932MPD2    C513635   1.064   1.845  11.104  1.0857 -0.8768  0.3464
  932MPD2     H13636   1.369   1.938  10.909  2.7527  1.9814  2.8672
  932MPD2    H113637   1.106   1.649  11.097  0.2575  0.6211  0.7445
  932MPD2    H213638   1.013   2.045  11.112  1.6181  1.2804  1.8648
  932MPD2    H313639   0.973   1.817  11.157 -0.9104  1.7284 -1.6780
  932MPD2     N13640   1.343   1.655  10.959 -0.7846  0.3994  0.0912
  932MPD2    H513641   1.319   1.564  10.998 -0.8862  1.3835  2.3109
  932MPD2    N113642   1.236   2.132  10.981 -0.4185  0.2779  0.3036
  932MPD2    H713643   1.318   2.145  10.923  0.1313 -4.6377  0.0016
  933MPD2     C13644   2.224   2.714   2.350 -0.6084  0.4293  0.7241
  933MPD2    C113645   2.255   2.667   2.225  0.1118 -0.3365 -0.3407
  933MPD2    C213646   2.184   2.728   2.123  0.4481  0.5434  0.0417
  933MPD2    C313647   2.079   2.824   2.146 -0.1161 -0.3731 -0.1577
  933MPD2    C413648   2.048   2.864   2.273 -0.4018 -0.5114 -0.0596
  933MPD2    C513649   2.126   2.808   2.372  0.1121  0.1823  0.5019
  933MPD2     H13650   2.223   2.717   2.022 -0.9348  0.7224 -0.5107
  933MPD2    H113651   1.970   2.933   2.304  0.0971 -0.6140  1.4537
  933MPD2    H213652   2.273   2.677   2.439 -0.0874  1.9813  1.0713
  933MPD2    H313653   2.125   2.845   2.474  0.3689  1.6370 -0.0244
  933MPD2     N13654   2.011   2.881   2.033  0.3469  0.2787 -0.3071
  933MPD2    H513655   2.029   2.843   1.941  0.0929  1.1246 -0.7089
  933MPD2    N113656   2.343   2.556   2.214 -0.7156 -0.0795  0.7849
  933MPD2    H713657   2.392   2.524   2.297 -0.3101  3.1952  1.8294
  934MPD2     C13658   2.416   4.669   2.022  0.2838 -0.2682 -0.0203
  934MPD2    C113659   2.536   4.632   1.966 -0.3300  0.2309  0.2698
  934MPD2    C213660   2.549   4.509   1.911  0.1693 -0.2658 -0.0552
  934MPD2    C313661   2.445   4.422   1.896  0.3517  0.4893 -0.2961
  934MPD2    C413662   2.328   4.463   1.953 -0.6032  0.0907  0.1443
  934MPD2    C513663   2.311   4.585   2.014 -0.3026  1.1971  0.1472
  934MPD2     H13664   2.650   4.483   1.882  1.3868  2.9601  1.2808
  934MPD2    H113665   2.239   4.402   1.937  0.3888 -0.9324 -1.5132
  934MPD2    H213666   2.384   0.044   2.052 -1.5954 -1.0562  0.5619
  934MPD2    H313667   2.211   4.612   2.046 -0.8025  0.5124 -0.8094
  934MPD2     N13668   2.458   4.290   1.852  0.2951 -0.2013  0.1843
  934MPD2    H513669   2.374   4.232   1.850  0.5539 -0.5297 -1.1632
  934MPD2    N113670   2.654   4.713   1.970  0.2437 -0.0558 -0.0538
  934MPD2    H713671   2.737   4.678   1.923 -0.3005  0.4716 -1.4226
  935MPD2     C13672   3.244   3.739   1.624  0.3350 -0.3668 -0.0562
  935MPD2    C113673   3.161   3.690   1.526 -0.2632 -0.0629 -0.2025
  935MPD2    C213674   3.035   3.740   1.528 -0.0059 -0.5704  0.0313
  935MPD2    C313675   3.003   3.836   1.621 -0.4873 -0.7868  0.1019
  935MPD2    C413676   3.091   3.889   1.711 -0.0570 -0.7313  0.5103
  935MPD2    C513677   3.209   3.838   1.716  0.7333 -0.0777  0.1464
  935MPD2     H13678   2.958   3.715   1.456  1.7165 -1.8882 -1.3695
  935MPD2    H113679   3.063   3.958   1.789  1.4212 -0.3766  0.7211
  935MPD2    H213680   3.348   3.714   1.637  0.6577  1.6584  1.2049
  935MPD2    H313681   3.286   3.879   1.781  1.3873  0.7184 -1.1317
  935MPD2     N13682   2.874   3.892   1.631  0.2996 -0.2074  0.2425
  935MPD2    H513683   2.857   3.951   1.712 -1.8792 -0.5511  0.0420
  935MPD2    N113684   3.213   3.600   1.427  0.2979  0.4212 -0.2672
  935MPD2    H713685   3.155   3.591   1.344  0.7455  1.0948 -0.6598
  936MPD2     C13686   2.503   0.286  12.677 -0.0447  0.7475  0.8511
  936MPD2    C113687   2.538   0.355  12.785 -0.1348  0.0027 -0.3912
  936MPD2    C213688   2.628   0.464  12.774 -0.3048  0.2644  0.0536
  936MPD2    C313689   2.681   0.498  12.646  0.6323 -0.1411 -0.8897
  936MPD2    C413690   2.640   0.423  12.535 -0.2830 -0.0837  0.0610
  936MPD2    C513691   2.560   0.315  12.548 -0.2797  0.3001  0.1576
  936MPD2     H13692   2.660   0.520  12.861 -1.2784  0.3111  0.3783
  936MPD2    H113693   2.675   0.449  12.435  0.0473 -0.8588 -0.0186
  936MPD2    H213694   2.437   0.201  12.687  0.5334 -0.1714 -2.9427
  936MPD2    H313695   2.529   0.253  12.464 -1.4431  0.8265  0.1983
  936MPD2     N13696   2.771   0.606  12.641  0.0173 -0.2217  0.5362
  936MPD2    H513697   2.786   0.645  12.733  0.0660  0.1925  0.3520
  936MPD2    N113698   2.462   0.329  12.900  0.1481 -0.2296 -0.3284
  936MPD2    H713699   2.394   0.255  12.908 -0.9699  0.6227 -1.9991
  937MPD2     C13700   4.267   1.685  11.741 -0.2713 -0.0866  0.5504
  937MPD2    C113701   4.297   1.815  11.755 -0.0365 -0.1775 -0.3508
  937MPD2    C213702   4.384   1.873  11.667  0.0632  0.2802 -0.1755
  937MPD2    C313703   4.457   1.803  11.581  0.2740  0.1377 -0.8203
  937MPD2    C413704   4.433   1.667  11.569 -0.0959 -1.0981 -0.3542
  937MPD2    C513705   4.349   1.609  11.664  0.1522 -0.0833  0.2027
  937MPD2     H13706   4.388   1.982  11.671 -1.2341  0.2538  2.0332
  937MPD2    H113707   4.490   1.605  11.500  1.4645  0.4940 -0.4745
  937MPD2    H213708   4.191   1.627  11.792  1.3503 -1.6217  1.2335
  937MPD2    H313709   4.338   1.502  11.655  4.7827 -0.5091 -0.5315
  937MPD2     N13710   4.558   1.872  11.510  0.4126 -0.1637 -0.2554
  937MPD2    H513711   4.571   1.969  11.537  0.9321 -0.6744  1.3173
  937MPD2    N113712   4.211   1.896  11.829  0.2871 -0.0020 -0.4318
  937MPD2    H713713   4.229   1.995  11.812 -3.4209  0.8153  0.3696
  938MPD2     C13714   2.666   3.095   1.200  0.1189  0.5903  0.4993
  938MPD2    C113715   2.569   3.183   1.144 -0.4799  0.5722  1.3287
  938MPD2    C213716   2.453   3.203   1.204  0.0415  0.2873 -0.4867
  938MPD2    C313717   2.427   3.141   1.326 -0.4505  0.0696 -0.0078
  938MPD2    C413718   2.515   3.053   1.377 -0.1687 -0.3546 -0.3274
  938MPD2    C513719   2.635   3.025   1.313  0.0621 -0.6022  0.3102
  938MPD2     H13720   2.378   3.269   1.162  0.7983 -0.1229 -2.5080
  938MPD2    H113721   2.499   3.000   1.470  1.9291 -1.1844 -0.4259
  938MPD2    H213722   2.756   3.080   1.142  0.4663  3.6849  0.2756
  938MPD2    H313723   2.703   2.959   1.364  2.3600  1.2648 -0.3364
  938MPD2     N13724   2.306   3.154   1.404 -0.4235  0.0726 -0.3889
  938MPD2    H513725   2.304   3.092   1.484 -0.4153  1.9265  1.0351
  938MPD2    N113726   2.587   3.263   1.025 -0.0930 -0.4414  0.1981
  938MPD2    H713727   2.520   3.337   1.007 -1.8166 -1.7310  1.2923
  939MPD2     C13728   3.830   0.010   1.471 -0.0926  1.1276 -0.5874
  939MPD2    C113729   3.718   0.008   1.390  0.5559  0.5636 -0.8692
  939MPD2    C213730   3.721   4.652   1.271 -0.3161 -0.6962 -1.0858
  939MPD2    C313731   3.840   4.586   1.229 -0.5830  0.3828 -0.1087
  939MPD2    C413732   3.936   4.580   1.324  0.3812 -0.3515  0.2339
  939MPD2    C513733   3.938   4.657   1.441 -0.1860  0.0232  0.5188
  939MPD2     H13734   3.636   4.664   1.205 -0.3684  0.4271 -0.8173
  939MPD2    H113735   4.031   4.529   1.311 -0.6020 -1.3613 -2.7627
  939MPD2    H213736   3.833   0.069   1.562 -1.7728 -1.1177  0.9466
  939MPD2    H313737   4.024   4.666   1.507 -1.1027 -0.3348  1.7630
  939MPD2     N13738   3.847   4.534   1.095 -0.4858  0.2214  0.6102
  939MPD2    H513739   3.770   4.560   1.035  1.7057 -0.5192 -2.5134
  939MPD2    N113740   3.615   0.091   1.429  0.3803 -0.1936 -0.0055
  939MPD2    H713741   3.636   0.133   1.519  2.0176  0.6462 -0.7885
  940MPD2     C13742   3.085   0.740  13.125 -0.3900  0.3176 -0.1119
  940MPD2    C113743   2.997   0.636  13.165 -1.1278 -0.0897  0.4211
  940MPD2    C213744   2.978   0.531  13.076 -0.4326 -0.0920  0.3222
  940MPD2    C313745   3.045   0.535  12.952 -0.3912  0.1088 -0.0770
  940MPD2    C413746   3.133   0.635  12.923 -0.2590 -0.7422  0.6688
  940MPD2    C513747   3.154   0.741  13.003  0.2233 -0.4848 -0.2554
  940MPD2     H13748   2.928   0.440  13.109 -0.0532  0.2032  1.6958
  940MPD2    H113749   3.196   0.631  12.835  0.6816  1.4383  1.2647
  940MPD2    H213750   3.101   0.826  13.188 -0.6961 -0.0565  0.4794
  940MPD2    H313751   3.220   0.822  12.976 -0.4917 -0.2888 -1.4502
  940MPD2     N13752   3.011   0.446  12.844 -0.0792 -0.3103  0.8447
  940MPD2    H513753   3.073   0.456  12.764 -0.5218  0.0075  0.5442
  940MPD2    N113754   2.922   0.656  13.283  0.0319 -1.0064  0.2434
  940MPD2    H713755   2.947   0.740  13.334 -1.7474  1.0239 -2.1733
  941MPD2     C13756   3.138   3.805   9.357  0.6648  0.4934  0.3288
  941MPD2    C113757   3.011   3.758   9.339  0.8023  0.6487  0.8238
  941MPD2    C213758   2.994   3.646   9.254  0.0304 -0.2704 -0.4581
  941MPD2    C313759   3.105   3.594   9.182 -0.0475  0.6440  0.1431
  941MPD2    C413760   3.227   3.654   9.196 -0.2913 -0.1782  0.3452
  941MPD2    C513761   3.245   3.755   9.290  0.3910 -0.3262  0.9272
  941MPD2     H13762   2.894   3.607   9.237 -0.1846 -0.1418  0.4923
  941MPD2    H113763   3.307   3.617   9.133  1.2335  1.0737  1.5665
  941MPD2    H213764   3.157   3.877   9.435 -2.5202  3.1417 -1.3473
  941MPD2    H313765   3.349   3.783   9.301 -0.3755  3.0186 -0.5236
  941MPD2     N13766   3.103   3.493   9.089  0.3609 -0.0324  0.2458
  941MPD2    H513767   3.185   3.472   9.033 -0.6700  0.6202 -1.5243
  941MPD2    N113768   2.897   3.814   9.400 -0.8722 -0.0424 -0.3695
  941MPD2    H713769   2.807   3.771   9.381 -0.1208 -1.1686 -1.3944
  942MPD2     C13770   1.540   1.182   9.833  0.7962 -0.2896  0.1815
  942MPD2    C113771   1.541   1.151   9.700 -0.3296 -0.1820  0.8364
  942MPD2    C213772   1.654   1.100   9.652  0.3264  0.1404 -0.4616
  942MPD2    C313773   1.763   1.068   9.727 -0.0380  0.2440 -0.2988
  942MPD2    C413774   1.754   1.084   9.860 -0.0187  0.1523 -0.5220
  942MPD2    C513775   1.643   1.134   9.915  0.3104  0.4457  0.1221
  942MPD2     H13776   1.666   1.076   9.547  0.0454  1.3138 -0.7528
  942MPD2    H113777   1.832   1.048   9.927  0.6941  0.2608 -1.2999
  942MPD2    H213778   1.452   1.232   9.872  0.6543 -1.6049  1.5217
  942MPD2    H313779   1.630   1.138  10.022  1.8897 -3.0573  0.4316
  942MPD2     N13780   1.883   1.007   9.684 -0.0832 -0.2705 -0.6545
  942MPD2    H513781   1.934   0.962   9.759  0.5272  1.7169  0.1272
  942MPD2    N113782   1.445   1.186   9.597 -0.9002 -0.3530 -0.2422
  942MPD2    H713783   1.468   1.172   9.499 -0.2689 -1.2934  0.0446
  943MPD2     C13784   4.467   2.942   9.856 -0.3137 -0.1104 -0.3501
  943MPD2    C113785   4.465   3.067   9.808  0.2330  0.3077 -0.0569
  943MPD2    C213786   4.405   3.090   9.681  0.6310 -0.1896 -0.6269
  943MPD2    C313787   4.336   2.990   9.610 -0.3968  0.1771 -0.5345
  943MPD2    C413788   4.334   2.864   9.667 -0.1978 -0.1002 -0.2173
  943MPD2    C513789   4.399   2.844   9.790  0.6225  0.0809  0.4172
  943MPD2     H13790   4.403   3.193   9.647  0.5565 -0.2334 -0.7555
  943MPD2    H113791   4.294   2.777   9.616  0.2666 -0.2158 -0.3907
  943MPD2    H213792   4.496   2.922   9.959 -0.3994  1.4798 -0.0152
  943MPD2    H313793   4.380   2.745   9.831 -0.5211  0.3914  0.6223
  943MPD2     N13794   4.261   3.013   9.491  1.0023  0.2610  0.2612
  943MPD2    H513795   4.209   2.934   9.454  2.0336 -0.1613 -0.2906
  943MPD2    N113796   4.517   3.166   9.895 -0.4114 -0.0777 -0.0947
  943MPD2    H713797   4.547   3.133   9.986  0.8098  2.6216  0.4748
  944MPD2     C13798   0.025   2.714  11.848  0.4723 -0.4604  0.5340
  944MPD2    C113799   0.015   2.801  11.742 -0.0730  0.3244  0.0061
  944MPD2    C213800   4.674   2.920  11.757  0.3398  0.0772  0.0611
  944MPD2    C313801   4.637   2.959  11.885 -0.5272  0.0493  0.3994
  944MPD2    C413802   4.660   2.877  11.995  0.6137  0.7952  0.1895
  944MPD2    C513803   4.723   2.751  11.975 -0.9872 -0.6212 -0.0532
  944MPD2     H13804   4.637   2.983  11.676 -4.4847 -0.4749  1.8278
  944MPD2    H113805   4.647   2.909  12.098 -3.3271 -0.3323  0.0557
  944MPD2    H213806   0.077   2.622  11.826  3.1838  1.1446  0.1672
  944MPD2    H313807   0.041   2.695  12.058  0.9655 -0.9355 -1.2612
  944MPD2     N13808   4.584   3.090  11.889 -0.3583 -0.1308  0.5159
  944MPD2    H513809   4.570   3.139  11.801 -0.5046 -2.2149 -0.6208
  944MPD2    N113810   0.069   2.760  11.620 -0.1192 -0.6353  0.1172
  944MPD2    H713811   0.115   2.670  11.611  3.0091  0.9159  0.5682
    1TCq1    O113812   3.300   4.337  14.420  0.3187  0.6227  0.3640
    1TCq1    C113813   3.375   4.446  14.453 -0.8091  0.0287  0.1621
    1TCq1    O213814   3.497   4.436  14.473  0.1499  0.5912  0.1913
    1TCq1    C213815   3.283   4.507  14.541 -0.1413  0.1775 -0.1740
    1TCq1    C313816   3.152   4.511  14.509  0.0106 -0.3378  0.6801
    1TCq1    C413817   3.071   4.584  14.592  0.1740  0.8924  0.5335
    1TCq1    C513818   3.125   4.647  14.699  0.8717  0.1003 -0.0282
    1TCq1    C613819   3.260   4.641  14.728 -0.1567  0.0255 -0.2822
    1TCq1    C713820   3.345   4.578  14.640  1.1796  0.2888 -0.9326
    1TCq1    C813821   3.322   0.010  14.821 -0.3808 -0.8858 -0.2246
    1TCq1    O413822   3.414   4.703  14.895  0.7278  0.4020  0.5470
    1TCq1    C913823   2.928   4.563  14.582  0.7271 -0.4412  0.7510
    1TCq1    O513824   2.853   4.608  14.675 -0.1225 -0.6325 -0.3543
    1TCq1    O613825   2.886   4.491  14.484 -0.3709  0.7648  0.3624
    1TCq1    H113826   3.206   4.334  14.449 -0.6669  1.3822 -2.7159
    1TCq1    H213827   3.106   4.463  14.423 -3.2128  0.9232  1.7223
    1TCq1    H313828   3.052   4.702  14.757  2.4592  0.8142  1.2727
    1TCq1    H413829   3.451   4.579  14.660  0.6840  0.7994  1.6839
    2MPD2     C13830   3.355   0.487  15.030  0.5355 -0.0787  0.2667
    2MPD2    C113831   3.276   0.487  14.911  0.9443 -0.0013  0.1131
    2MPD2    C213832   3.245   0.368  14.853 -0.2472 -1.2426 -0.4505
    2MPD2    C313833   3.298   0.245  14.890 -0.6470 -0.1740 -0.1132
    2MPD2    C413834   3.383   0.245  15.000 -0.0734  0.2244 -0.1266
    2MPD2    C513835   3.403   0.360  15.070 -0.4316  0.2169  0.3237
    2MPD2     H13836   3.180   0.374  14.766 -1.9878 -1.5729  0.8129
    2MPD2    H113837   3.429   0.155  15.040 -0.2751  0.4303  0.5670
    2MPD2    H213838   3.367   0.574  15.093  0.0655  1.0276 -1.1496
    2MPD2    H313839   3.456   0.349  15.164  0.4375 -1.4386 -0.3592
    2MPD2     N13840   3.264   0.134  14.810  0.4489  0.5448 -0.0697
    2MPD2    H513841   3.197   0.148  14.736  1.6227  0.9797 -1.0561
    2MPD2    N113842   3.229   0.616  14.862 -0.1593  0.6429  0.2748
    2MPD2    H713843   3.280   0.701  14.883  1.9328 -0.3640 -0.6222
    3TMC2    C113844   3.103   0.758  14.725 -0.5420 -0.0817 -0.2961
    3TMC2    C213845   3.219   0.829  14.696  0.3510  0.0914  0.9240
    3TMC2    C313846   3.215   0.932  14.613  0.2643 -0.3446  0.3601
    3TMC2    C413847   2.994   0.756  14.641 -0.3637  0.0707  0.2150
    3TMC2    C513848   3.001   0.858  14.544 -0.2541 -0.1504  0.4608
    3TMC2    C613849   3.105   0.949  14.535  0.1909 -0.2170 -0.2471
    3TMC2     C13850   3.113   0.632  14.792 -0.3420 -0.0904  0.0103
    3TMC2     O13851   3.025   0.549  14.778 -0.6641  0.3509  0.2892
    3TMC2     H13852   3.298   0.827  14.771 -1.2519 -0.0382  2.6206
    3TMC2    H113853   2.902   0.699  14.650 -0.7817  0.9233  1.3178
    3TMC2    H213854   3.108   1.035  14.469 -2.4735  0.8633  1.0341
    3TMC2    C713855   2.884   0.869  14.464 -0.7462 -0.1268 -0.5529
    3TMC2    C813856   3.336   1.013  14.584 -0.1909 -0.3458  0.7836
    3TMC2    O113857   2.781   0.807  14.483 -0.1707  0.4956  0.0888
    3TMC2    O213858   3.337   1.111  14.514 -0.0441  0.6603  0.2178
    3TMC2    O513859   3.446   0.937  14.594  0.0725  0.0453  0.5167
    3TMC2    H513860   3.435   0.847  14.631 -0.1903 -0.0294  0.2590
    4MPD2     C13861   2.549   1.465  13.229  0.3723 -0.3207  0.2301
    4MPD2    C113862   2.508   1.390  13.335  0.0509  0.2722  0.0553
    4MPD2    C213863   2.586   1.377  13.446 -0.5380 -0.5396 -0.2929
    4MPD2    C313864   2.720   1.411  13.433  0.4131 -0.0504  0.4182
    4MPD2    C413865   2.764   1.488  13.331 -0.5048  0.9706  0.4867
    4MPD2    C513866   2.672   1.524  13.229 -0.0956 -0.2995  0.3323
    4MPD2     H13867   2.548   1.322  13.531 -1.9265  3.0243  1.3910
    4MPD2    H113868   2.868   1.516  13.326 -1.0832  3.2956  1.3305
    4MPD2    H213869   2.484   1.493  13.147  2.6191 -0.2911 -1.5413
    4MPD2    H313870   2.704   1.595  13.154 -0.0246  0.5700  1.1852
    4MPD2     N13871   2.805   1.359  13.527  0.3139 -0.3308 -0.4279
    4MPD2    H513872   2.792   1.261  13.548  0.2645 -0.5332 -1.3780
    4MPD2    N113873   2.371   1.344  13.332  0.2182 -0.2532 -0.2986
    4MPD2    H713874   2.315   1.374  13.253 -0.4093 -2.4360 -0.6742
    5TCq2    C113875   2.923   1.430  13.572 -0.0510  0.0985 -0.4731
    5TCq2    O213876   2.955   1.543  13.543 -0.4035 -0.3366  0.3010
    5TCq2    C213877   3.021   1.339  13.629 -0.8173  0.5167 -0.1145
    5TCq2    C313878   3.157   1.379  13.625 -0.0457  0.0936  0.4644
    5TCq2    C413879   3.246   1.296  13.688 -0.1023  0.1153 -0.1748
    5TCq2    C513880   3.203   1.183  13.751 -0.4433  0.0376  0.3283
    5TCq2    C613881   3.065   1.160  13.766  1.1493  0.2372  0.6683
    5TCq2    C713882   2.972   1.237  13.700  0.3212 -0.3153 -0.4917
    5TCq2    C813883   3.031   1.078  13.879  0.9462 -0.2070 -0.2388
    5TCq2    O413884   3.124   1.043  13.952 -0.0535 -0.1107 -0.6246
    5TCq2    C913885   3.382   1.328  13.660  0.6720  0.0396 -0.0073
    5TCq2    O513886   3.412   1.418  13.573  0.1177  0.7421 -0.7489
    5TCq2    O613887   3.468   1.274  13.739 -0.4352  0.3983 -0.0166
    5TCq2    H213888   3.179   1.472  13.573 -0.2150  0.6336  1.3391
    5TCq2    H313889   3.278   1.130  13.809  0.4611 -0.4494 -1.3038
    5TCq2    H413890   2.868   1.208  13.705  0.7862 -2.3008 -2.3846
    6MPD1     C13891   2.118   0.664  11.743  0.0777 -0.1356  0.6188
    6MPD1    C113892   2.090   0.797  11.728 -0.3565 -0.1328 -0.5779
    6MPD1    C213893   2.130   0.877  11.836  0.1126 -0.2365 -0.2029
    6MPD1    C313894   2.175   0.824  11.949  0.5886  0.0408 -0.1378
    6MPD1    C413895   2.192   0.689  11.963  0.1450 -0.0526  0.8223
    6MPD1    C513896   2.168   0.605  11.858  0.0774  0.4448 -0.2648
    6MPD1     H13897   2.124   0.985  11.827  0.2854 -0.2214 -0.1332
    6MPD1    H113898   2.234   0.655  12.057  1.3956  0.7208  0.5360
    6MPD1    H213899   2.092   0.593  11.665 -0.0026 -2.3341  2.6498
    6MPD1    H313900   2.177   0.500  11.883  1.8735  0.4265 -0.9982
    6MPD1     N13901   2.217   0.905  12.059  0.6552  0.7704  0.2626
    6MPD1    H513902   2.262   0.855  12.135  1.0416  0.7285  0.0090
    6MPD1    N113903   2.061   0.855  11.609 -0.4958 -0.1433 -0.4643
    6MPD1    H613904   2.002   0.790  11.558 -0.2746  0.9836 -2.1505
    6MPD1    H713905   2.011   0.942  11.626  1.0718  1.0981 -2.2179
    7MPD2     C13906   2.136   1.560  12.662 -0.1759 -0.0319 -0.1382
    7MPD2    C113907   2.096   1.430  12.659 -0.0371 -0.4926  0.2329
    7MPD2    C213908   2.043   1.371  12.772 -0.1480  1.2172  0.8709
    7MPD2    C313909   2.035   1.441  12.896 -0.5883  0.8011 -0.1225
    7MPD2    C413910   2.075   1.574  12.899 -0.2184 -0.0506 -0.1882
    7MPD2    C513911   2.120   1.626  12.781  0.0137 -0.2751 -0.1882
    7MPD2     H13912   2.009   1.268  12.762  0.6679  0.9103  1.2666
    7MPD2    H113913   2.080   1.641  12.985  0.0104  1.0920 -1.0951
    7MPD2    H213914   2.175   1.603  12.570  1.8174 -2.2365 -0.3417
    7MPD2    H313915   2.142   1.731  12.801  0.4625 -0.5749  0.9065
    7MPD2     N13916   2.002   1.374  13.014  0.1027  0.0240  0.2201
    7MPD2    H513917   1.972   1.277  13.011  0.3431 -0.0262 -0.4960
    7MPD2    N113918   2.124   1.340  12.551 -0.2110  0.1481  0.4147
    7MPD2    H713919   2.109   1.242  12.573  2.6874 -0.3965 -0.0855
    8TMC3    C113920   2.006   1.313  13.244  0.1284  0.3202 -0.1101
    8TMC3    C213921   2.109   1.329  13.329 -0.3536  0.4351 -0.3881
    8TMC3    C313922   2.181   1.216  13.367 -0.2973  0.5968 -0.3408
    8TMC3    C413923   1.969   1.184  13.198  0.4325  0.8679 -0.3012
    8TMC3    C513924   2.054   1.073  13.224 -0.1761  0.0433  0.4881
    8TMC3    C613925   2.162   1.088  13.305  0.0709 -0.3649  0.4151
    8TMC3     C13926   2.004   1.428  13.143 -0.2055  0.0961 -1.0626
    8TMC3     O13927   2.034   1.535  13.184 -0.2303  0.3243  0.0209
    8TMC3     H13928   2.134   1.431  13.359 -0.5144  0.4220 -0.2101
    8TMC3    H113929   1.878   1.187  13.139 -2.0922  0.3111  3.6017
    8TMC3    H213930   2.235   1.011  13.325 -0.4006 -0.4761  1.6983
    8TMC3    C713931   2.092   1.027  13.092  1.0412  0.7041  0.5262
    8TMC3    C813932   2.316   1.242  13.407  0.2643 -0.4041  0.4437
    8TMC3    O113933   2.039   1.088  13.003 -0.1193 -0.1316  0.6351
    8TMC3    O213934   2.365   1.176  13.498 -0.2328  0.1660  0.1320
    9TMC3    C113935   2.254   1.091  12.199  0.2476  0.5269 -0.0755
    9TMC3    C213936   2.326   1.008  12.276 -0.9598  0.1082  0.2635
    9TMC3    C313937   2.345   1.050  12.404 -0.0509  0.1648 -1.0377
    9TMC3    C413938   2.203   1.219  12.237  0.0750  0.4720 -0.3909
    9TMC3    C513939   2.217   1.248  12.373 -0.1014 -0.4070 -0.1545
    9TMC3    C613940   2.287   1.164  12.458  0.4106 -0.1616  0.1202
    9TMC3     C13941   2.195   1.037  12.072 -0.0919  0.1259 -0.1601
    9TMC3     O13942   2.121   1.119  12.016 -0.9677 -0.0281 -0.0239
    9TMC3     H13943   2.374   0.914  12.253 -0.4360  0.2930  0.6146
    9TMC3    H113944   2.142   1.279  12.171 -2.4658 -1.6886 -0.0105
    9TMC3    H213945   2.318   1.204  12.554  0.6008  0.9327 -0.4032
    9TMC3    C713946   2.168   1.370  12.427  0.0353  0.8420 -0.8945
    9TMC3    C813947   2.372   0.949  12.504 -0.4329 -0.3336  0.2407
    9TMC3    O113948   2.152   1.472  12.358  0.2626 -0.3964 -0.0873
    9TMC3    O213949   2.435   0.852  12.465 -0.1705 -0.1258 -0.6972
   10MPD2     C13950   2.338   0.786  12.965 -0.5261 -0.5166 -0.5991
   10MPD2    C113951   2.244   0.889  12.957 -0.3318  0.1023 -0.0015
   10MPD2    C213952   2.229   0.953  12.835  0.3483 -1.2232  0.1945
   10MPD2    C313953   2.301   0.902  12.727  0.8803 -0.1137  0.5896
   10MPD2    C413954   2.396   0.800  12.746  0.2578 -0.2134 -0.2000
   10MPD2    C513955   2.405   0.731  12.865 -0.3551 -0.2224  0.5022
   10MPD2     H13956   2.152   1.028  12.823 -0.5694 -1.9946  1.1578
   10MPD2    H113957   2.452   0.763  12.660  0.2018 -2.8111  0.8694
   10MPD2    H213958   2.363   0.738  13.059 -0.5896 -2.5819 -1.6580
   10MPD2    H313959   2.486   0.661  12.886 -1.1223 -0.6039  2.1838
   10MPD2     N13960   2.290   0.971  12.613 -0.0649  0.0883  0.0570
   10MPD2    H513961   2.208   1.030  12.609 -0.2277 -0.2357 -1.6897
   10MPD2    N113962   2.182   0.927  13.080 -0.2349  0.5326 -0.0592
   10MPD2    H713963   2.185   0.867  13.162  1.1825  1.1529  0.3437
   11MPD2     C13964   2.710   0.905  14.228 -0.6639  0.3101  0.5076
   11MPD2    C113965   2.835   0.949  14.236  1.0585 -0.5414 -0.6892
   11MPD2    C213966   2.897   1.002  14.126 -0.1294 -0.7269  0.1754
   11MPD2    C313967   2.837   0.997  13.998  0.5370  0.4006  0.3411
   11MPD2    C413968   2.709   0.955  13.989 -0.6825 -0.0941 -0.6776
   11MPD2    C513969   2.649   0.912  14.107 -0.0330 -0.2385 -0.4696
   11MPD2     H13970   2.993   1.050  14.141 -0.5367  0.1734 -0.1246
   11MPD2    H113971   2.648   0.955  13.899 -0.4972 -0.2904 -0.8008
   11MPD2    H213972   2.652   0.873  14.314 -0.9406 -1.1709 -0.2236
   11MPD2    H313973   2.544   0.885  14.104 -0.3793  0.9551  1.4513
   11MPD2     N13974   2.901   1.047  13.884 -0.1705  0.0830  0.0059
   11MPD2    H513975   2.848   1.071  13.800 -1.4340  0.0208  0.7803
   11MPD2    N113976   2.909   0.942  14.354  0.5324  0.0081 -0.6889
   11MPD2    H713977   3.004   0.977  14.352  0.3693  0.5219  0.8163
    1MPD1     C13978   0.109   1.444   0.098  0.0774 -0.7201  0.3821
    1MPD1    C113979   0.142   1.546   0.176  0.4272  0.9756  0.2640
    1MPD1    C213980   0.201   1.655   0.121  0.1021  0.4738  0.4746
    1MPD1    C313981   0.223   1.665  17.681 -0.9828 -0.3771 -0.4976
    1MPD1    C413982   0.180   1.563  17.602  0.5166  0.2111  0.0406
    1MPD1    C513983   0.131   1.451  17.665 -0.6506 -0.2622  0.3764
    1MPD1     H13984   0.231   1.736   0.186  2.3123 -1.2635  1.6157
    1MPD1    H113985   0.197   1.564  17.495 -0.3200 -1.3093 -0.1178
    1MPD1    H213986   0.083   1.348   0.141  0.5784 -0.2541  1.6997
    1MPD1    H313987   0.090   1.379  17.595 -0.5281  1.2879 -1.3014
    1MPD1     N13988   0.303   1.772  17.625 -0.0480 -0.0556  0.1804
    1MPD1    H513989   0.314   1.778  17.524  1.0193 -1.2046  0.2199
    1MPD1    N113990   0.123   1.536   0.316 -0.1390 -0.5883  0.3527
    1MPD1    H613991   0.143   1.441   0.347 -2.4617 -1.8232 -1.8968
    1MPD1    H713992   0.173   1.608   0.367 -1.0363  0.1104  0.2648
    2MPD1     C13993   0.822   2.526   0.329 -0.0983 -0.2464 -0.1727
    2MPD1    C113994   0.826   2.396   0.378 -0.3522 -0.1468  0.2988
    2MPD1    C213995   0.810   2.292   0.290  0.8021  0.5648  0.3361
    2MPD1    C313996   0.764   2.315   0.158  0.6318 -0.2522  0.1763
    2MPD1    C413997   0.751   2.447   0.118 -0.1809  0.1221  0.2069
    2MPD1    C513998   0.783   2.550   0.203  0.2927 -0.2805 -0.6397
    2MPD1     H13999   0.829   2.190   0.319 -1.5180  0.4579  1.4950
    2MPD1    H114000   0.718   2.489   0.023 -0.2783 -2.1182 -0.7470
    2MPD1    H214001   0.858   2.608   0.391 -0.2906 -0.2499 -0.0529
    2MPD1    H314002   0.786   2.655   0.175  1.1369  0.4829  2.3443
    2MPD1     N14003   0.724   2.210   0.078 -0.2642 -1.1698 -0.1329
    2MPD1    H514004   0.722   2.119   0.123 -0.8853  0.8112  3.8842
    2MPD1    N114005   0.888   2.380   0.506 -0.5710 -0.1511  0.5737
    2MPD1    H614006   0.897   2.459   0.569 -0.2241 -0.5898  1.0675
    2MPD1    H714007   0.864   2.294   0.554 -0.5589 -1.5202 -1.8604
    3TMC3    C114008   0.640   2.089  17.596  0.4459 -0.0118  0.4293
    3TMC3    C214009   0.655   2.061  17.459 -0.1120 -1.1305  0.4113
    3TMC3    C314010   0.586   1.953  17.405  0.0222  0.9037 -0.6852
    3TMC3    C414011   0.543   2.023  17.672  0.7936  0.4674 -0.7544
    3TMC3    C514012   0.466   1.926  17.607  0.4420 -0.6422  0.2689
    3TMC3    C614013   0.488   1.889  17.479  0.1876  0.1631 -0.6678
    3TMC3     C14014   0.683   2.220  17.645  0.6809  0.0428  0.3081
    3TMC3     O14015   0.678   2.309  17.561 -0.3173  0.0338  0.0446
    3TMC3     H14016   0.720   2.117  17.393 -1.4565 -0.6819 -0.5337
    3TMC3    H114017   0.521   2.059   0.074 -0.0339 -0.2928 -0.6653
    3TMC3    H214018   0.444   1.800  17.436  0.0688  0.2545 -0.7334
    3TMC3    C714019   0.380   1.850   0.004  0.7512  0.6481 -0.1566
    3TMC3    C814020   0.578   1.940  17.256 -0.9896 -0.8134  0.5687
    3TMC3    O114021   0.388   1.877   0.125 -0.4287  0.1160  0.2211
    3TMC3    O214022   0.479   1.887  17.208 -0.1423  0.5819 -0.3922
    4MPD1     C14023   0.796   2.007  16.792  0.0575  0.7475  0.4938
    4MPD1    C114024   0.889   2.016  16.889 -0.2766 -0.4758 -0.6915
    4MPD1    C214025   0.857   2.008  17.021 -0.6075  0.2582  0.4128
    4MPD1    C314026   0.726   1.978  17.062  0.4729  0.4306  0.3053
    4MPD1    C414027   0.636   1.972  16.961 -0.2280  0.5123  0.1604
    4MPD1    C514028   0.670   1.984  16.828 -0.7074 -0.4153 -0.0944
    4MPD1     H14029   0.937   2.023  17.094  0.1621 -2.3433  0.1114
    4MPD1    H114030   0.530   1.956  16.977 -0.0891  0.2322  0.7908
    4MPD1    H214031   0.825   2.020  16.688  0.3471  0.6186  0.5595
    4MPD1    H314032   0.595   1.979  16.749 -1.1200  2.1401  0.1338
    4MPD1     N14033   0.691   1.981  17.197 -0.0219  0.0953  0.8276
    4MPD1    H514034   0.768   1.990  17.263  0.2502  1.6670  0.2908
    4MPD1    N114035   1.018   2.047  16.855  0.1130  0.3785 -0.0859
    4MPD1    H614036   1.032   2.000  16.765 -0.3348  0.1120 -0.0184
    4MPD1    H714037   1.078   2.011  16.929  2.5806  0.3665 -2.1173
    1TCq1    O114038   2.100   2.422  10.394  0.2729 -0.0289  0.2572
    1TCq1    C114039   2.111   2.430  10.529  0.8548  0.2773 -0.4607
    1TCq1    O214040   2.121   2.536  10.590 -0.3971 -0.1922  0.3452
    1TCq1    C214041   2.040   2.318  10.577  0.5120  0.4917 -0.6351
    1TCq1    C314042   1.927   2.332  10.651 -0.2856  0.2417  0.0759
    1TCq1    C414043   1.868   2.213  10.673 -0.2757 -0.5581  0.3233
    1TCq1    C514044   1.925   2.094  10.641 -0.1660  0.2223  0.1741
    1TCq1    C614045   2.031   2.085  10.558  0.0072  0.8995  0.1863
    1TCq1    C714046   2.089   2.204  10.518  0.8479 -0.1872  0.9643
    1TCq1    C814047   2.098   1.962  10.532 -1.0047  0.4153 -0.2539
    1TCq1    O414048   2.210   1.982  10.486 -0.5797  0.0770  0.5491
    1TCq1    C914049   1.790   2.204  10.794 -0.0735  0.5384  0.7386
    1TCq1    O514050   1.823   2.278  10.888  0.0352  0.3298 -0.2860
    1TCq1    O614051   1.728   2.093  10.807 -0.4594 -1.0611 -0.2855
    1TCq1    H114052   2.071   2.336  10.356  1.0537  0.3847 -1.2940
    1TCq1    H214053   1.910   2.425  10.704  2.1919 -0.2382  1.6952
    1TCq1    H314054   1.879   2.003  10.677 -1.7726 -0.3047 -3.2713
    1TCq1    H414055   2.184   2.214  10.467  0.9122 -1.4004  0.8305
    2MPD1     C14056   2.091   1.484  10.396 -0.4153  0.0195 -1.3124
    2MPD1    C114057   1.972   1.505  10.449 -0.1188 -0.8377  0.5499
    2MPD1    C214058   1.955   1.626  10.510 -0.5284 -0.9292  0.2158
    2MPD1    C314059   2.053   1.726  10.498 -0.2363  0.7914 -0.1921
    2MPD1    C414060   2.172   1.702  10.438 -0.2214 -0.0922 -0.5593
    2MPD1    C514061   2.193   1.575  10.390 -0.8105 -0.7786  0.1025
    2MPD1     H14062   1.859   1.644  10.559 -0.4180 -0.3973  0.2447
    2MPD1    H114063   2.254   1.773  10.440 -1.1180  0.9514 -1.0938
    2MPD1    H214064   2.113   1.389  10.348  1.3842 -0.6318  0.7681
    2MPD1    H314065   2.278   1.550  10.328 -0.3538  1.3494 -0.1302
    2MPD1     N14066   2.020   1.852  10.544 -0.4275  0.0745  0.1580
    2MPD1    H514067   1.928   1.865  10.585  0.0881  2.3360  0.5974
    2MPD1    N114068   1.881   1.401  10.467  0.2020  0.0396  0.4746
    2MPD1    H614069   1.878   1.352  10.378 -0.7434  0.1673  0.4326
    2MPD1    H714070   1.789   1.445  10.478 -0.0274 -0.5760  0.9813
    1TCq1    O114071   2.883   0.458   0.351  0.2808 -0.1378  0.1261
    1TCq1    C114072   2.923   0.520   0.467 -0.1630 -0.4912  0.0002
    1TCq1    O214073   2.861   0.603   0.528  0.4767  0.4554 -0.2730
    1TCq1    C214074   3.066   0.506   0.447 -0.8293  0.5678 -0.1042
    1TCq1    C314075   3.116   0.387   0.389 -1.3475 -0.0119 -0.1753
    1TCq1    C414076   3.256   0.378   0.372 -0.2164  0.5536  0.1201
    1TCq1    C514077   3.336   0.492   0.371  0.7208  0.3489 -0.1183
    1TCq1    C614078   3.277   0.607   0.427  0.1037 -0.4238 -0.3194
    1TCq1    C714079   3.149   0.614   0.472  0.4207 -0.5856 -0.0333
    1TCq1    C814080   3.355   0.731   0.428  0.0874  0.0514  0.0371
    1TCq1    O414081   3.472   0.733   0.388  0.1375 -0.6129 -0.3437
    1TCq1    C914082   3.301   0.270   0.291  0.3077  0.0057 -0.0856
    1TCq1    O514083   3.415   0.289   0.238 -0.4014  0.6716  0.7933
    1TCq1    O614084   3.218   0.182   0.260 -0.1512 -0.1339 -0.5511
    1TCq1    H114085   2.945   0.438   0.278  0.8982 -0.2534  0.6789
    1TCq1    H214086   3.055   0.298   0.377 -0.6221 -0.9794  3.2708
    1TCq1    H314087   3.434   0.495   0.327  1.2250  0.5806  1.0072
    1TCq1    H414088   3.097   0.696   0.520 -0.3914 -0.5023 -1.0532
    2MPD1     C14089   3.469   1.194   0.583  0.6698 -0.2304  0.0251
    2MPD1    C114090   3.376   1.136   0.671 -0.5963 -0.0277 -0.3537
    2MPD1    C214091   3.322   1.019   0.637 -0.1970  0.1283  0.1439
    2MPD1    C314092   3.356   0.950   0.528  0.4672 -0.1590  0.0000
    2MPD1    C414093   3.454   0.998   0.439  0.1762 -0.1202 -0.2207
    2MPD1    C514094   3.510   1.120   0.473 -0.1368  0.3047 -0.4051
    2MPD1     H14095   3.253   0.970   0.705 -0.0832 -0.7853 -0.4031
    2MPD1    H114096   3.484   0.947   0.349 -1.7955 -2.7169  0.5797
    2MPD1    H214097   3.532   1.275   0.619 -2.1016  2.2320 -0.5976
    2MPD1    H314098   3.601   1.147   0.421  1.5826  1.8240  3.3406
    2MPD1     N14099   3.300   0.823   0.508 -0.1662  0.5279  0.3892
    2MPD1    H514100   3.238   0.795   0.584 -1.0313 -0.3660 -0.6548
    2MPD1    N114101   3.342   1.197   0.791 -0.2495 -0.7229 -0.2295
    2MPD1    H614102   3.330   1.296   0.773  2.1471 -0.0216  1.9281
    2MPD1    H714103   3.256   1.163   0.832 -0.0030  2.8391  3.3028
    1MPD1     C14104   2.858   1.416  12.236 -0.0726 -0.0672 -0.4664
    1MPD1    C114105   2.888   1.541  12.280  0.3766  0.0270  0.5885
    1MPD1    C214106   3.000   1.601  12.229  0.0987  0.1471 -0.1705
    1MPD1    C314107   3.068   1.537  12.126  0.2530 -0.0579 -0.1138
    1MPD1    C414108   3.027   1.419  12.066 -0.1635 -0.0246  0.4036
    1MPD1    C514109   2.922   1.358  12.129 -0.3074  0.1328  0.2092
    1MPD1     H14110   3.048   1.687  12.274 -0.5924 -0.8936  2.5229
    1MPD1    H114111   3.075   1.365  11.985  0.1669  2.2627 -0.9024
    1MPD1    H214112   2.787   1.352  12.288 -0.4783  0.1723 -0.7293
    1MPD1    H314113   2.902   1.258  12.091  0.5806  0.4452 -1.0583
    1MPD1     N14114   3.194   1.594  12.084  0.0514  0.1884 -0.2142
    1MPD1    H514115   3.218   1.685  12.122 -0.6565  1.0969 -1.9546
    1MPD1    N114116   2.826   1.598  12.389  0.5566  0.2717  0.8820
    1MPD1    H614117   2.834   1.699  12.382 -1.6291  0.2397 -1.6766
    1MPD1    H714118   2.732   1.562  12.383  0.3054  0.9966  0.5324
    2MPD1     C14119   2.629   2.509  11.145 -0.3523 -0.1981  0.0017
    2MPD1    C114120   2.592   2.436  11.034 -0.1802 -0.3579  0.2883
    2MPD1    C214121   2.659   2.316  10.991 -0.4453 -0.1749  0.3004
    2MPD1    C314122   2.783   2.291  11.045 -0.3597  0.4650 -0.6691
    2MPD1    C414123   2.825   2.365  11.153 -1.1309  0.4748  0.4144
    2MPD1    C514124   2.743   2.469  11.200 -0.0583  0.5501  0.1829
    2MPD1     H14125   2.624   2.264  10.903  0.1240  1.3743 -0.8514
    2MPD1    H114126   2.920   2.351  11.203 -1.4998  0.5434  1.1357
    2MPD1    H214127   2.584   2.603  11.176  0.4817  0.2226 -0.0747
    2MPD1    H314128   2.785   2.537  11.273 -1.2927  1.1297  0.3551
    2MPD1     N14129   2.864   2.181  10.996  0.2516  0.1791  0.1198
    2MPD1    H514130   2.951   2.169  11.047 -0.7686  1.5646  2.1784
    2MPD1    N114131   2.499   2.500  10.953  0.1486 -0.4864  0.9711
    2MPD1    H614132   2.437   2.572  10.990  0.8967  0.8052 -0.2694
    2MPD1    H714133   2.460   2.436  10.884  2.8989  2.2978 -3.1880
    3MPD1     C14134   2.953   1.291  10.363 -0.2676 -0.6263 -0.0915
    3MPD1    C114135   3.058   1.378  10.347  0.3186 -0.1541  0.0184
    3MPD1    C214136   3.072   1.474  10.450 -0.3377 -0.1026  0.4166
    3MPD1    C314137   2.991   1.488  10.555  0.4943 -0.2494 -0.1973
    3MPD1    C414138   2.885   1.399  10.562  0.2624 -0.1851  0.3404
    3MPD1    C514139   2.870   1.304  10.474  0.1907  0.8162 -0.6826
    3MPD1     H14140   3.164   1.531  10.445 -0.2425 -0.3078 -0.1057
    3MPD1    H114141   2.818   1.391  10.647  1.5752 -0.9630  1.3002
    3MPD1    H214142   2.936   1.201  10.304  0.2905 -1.2186  0.6476
    3MPD1    H314143   2.798   1.224  10.487  3.0219 -1.6314 -0.1235
    3MPD1     N14144   3.018   1.591  10.653  0.5108 -0.0831  0.2171
    3MPD1    H514145   3.108   1.636  10.653  0.4945 -0.0504  0.2411
    3MPD1    N114146   3.155   1.358  10.247 -0.0550 -0.0540  0.5296
    3MPD1    H614147   3.098   1.328  10.168 -0.5826  2.8575 -0.1726
    3MPD1    H714148   3.207   1.440  10.219 -1.0090  0.2989 -0.2265
    4MPD2     C14149   3.610   2.176  11.867  0.2925  0.1773  0.1428
    4MPD2    C114150   3.669   2.052  11.843 -0.2465  0.5015  0.7338
    4MPD2    C214151   3.753   2.027  11.738  0.4941 -0.8206  0.4613
    4MPD2    C314152   3.782   2.128  11.645  0.4042 -0.4118 -0.8014
    4MPD2    C414153   3.723   2.250  11.666 -0.0453 -0.1982  0.8327
    4MPD2    C514154   3.639   2.270  11.774  0.3106  0.1010 -0.0473
    4MPD2     H14155   3.800   1.929  11.737  0.4945 -0.8166  0.0428
    4MPD2    H114156   3.742   2.333  11.599 -0.4315 -0.2688  0.6327
    4MPD2    H214157   3.559   2.206  11.958 -1.2505 -1.7272 -0.1123
    4MPD2    H314158   3.608   2.372  11.793  1.9212  0.5774  0.0797
    4MPD2     N14159   3.862   2.107  11.532 -0.0366 -0.3113  0.5404
    4MPD2    H514160   3.853   2.174  11.456  0.8244 -0.0894  0.6351
    4MPD2    N114161   3.651   1.949  11.932  0.2564 -0.3297  0.0643
    4MPD2    H714162   3.692   1.860  11.908 -1.1347 -1.1564  0.7286
    5TMC3    C114163   3.554   1.800  12.064  0.9338  0.1041 -0.0034
    5TMC3    C214164   3.426   1.738  12.052  0.0781  0.1050 -0.4358
    5TMC3    C314165   3.422   1.605  12.008  0.1397 -0.5440  0.0767
    5TMC3    C414166   3.668   1.731  12.037 -0.1102  0.3174  0.0675
    5TMC3    C514167   3.656   1.601  11.991 -0.4552 -0.0261  0.0197
    5TMC3    C614168   3.536   1.540  11.977  0.4599  0.2296 -0.4689
    5TMC3     C14169   3.563   1.938  12.033  0.5403 -0.0418 -0.4139
    5TMC3     O14170   3.481   2.020  12.070  0.1784  0.6470  0.8734
    5TMC3     H14171   3.337   1.800  12.046  1.5014  2.4671  3.0444
    5TMC3    H114172   3.761   1.784  12.048  0.2079 -0.1082 -0.5578
    5TMC3    H214173   3.531   1.449  11.917  1.7060 -1.1768  1.5909
    5TMC3    C714174   3.747   1.597  11.880  0.2455  0.3335 -0.1249
    5TMC3    C814175   3.296   1.530  12.020  0.2664  0.2018  0.5968
    5TMC3    O114176   3.786   1.708  11.846 -0.2289  0.2262  0.1728
    5TMC3    O214177   3.311   1.410  12.003 -0.7563 -0.2897 -0.4081
    6TMC3    C114178   2.936   1.980  10.877  0.3247 -0.4332  0.3834
    6TMC3    C214179   2.894   1.867  10.814 -0.0961 -1.0483 -0.7047
    6TMC3    C314180   2.970   1.757  10.815 -0.6226 -0.2143  0.4677
    6TMC3    C414181   3.061   1.982  10.942 -0.3653 -0.1772  0.3802
    6TMC3    C514182   3.136   1.867  10.930  0.0248 -0.8049 -1.3140
    6TMC3    C614183   3.091   1.749  10.873 -0.0605 -0.4230 -0.2919
    6TMC3     C14184   2.835   2.087  10.900 -0.3456 -0.1697 -0.2543
    6TMC3     O14185   2.738   2.082  10.821 -0.0519  0.2125 -0.1018
    6TMC3     H14186   2.795   1.860  10.771  0.0427  1.2725 -1.4261
    6TMC3    H114187   3.093   2.066  11.003  0.0113  1.0463 -1.5260
    6TMC3    H214188   3.159   1.666  10.862  0.8677  0.4950 -1.4896
    6TMC3    C714189   3.243   1.852  11.028 -0.3423  0.5680 -0.4328
    6TMC3    C814190   2.925   1.636  10.746  0.1171  0.1484 -0.1017
    6TMC3    O114191   3.301   1.954  11.055  0.3948  0.1190  0.2717
    6TMC3    O214192   2.809   1.608  10.756 -0.2794 -0.4176 -0.1657
    7MPD2     C14193   3.995   1.401  11.472 -0.7642 -0.4933 -1.0794
    7MPD2    C114194   3.969   1.530  11.516 -0.1561 -0.5261  0.0492
    7MPD2    C214195   3.894   1.555  11.627 -0.0626  0.7260 -0.2331
    7MPD2    C314196   3.841   1.454  11.706 -0.9073  0.1007  0.1323
    7MPD2    C414197   3.852   1.321  11.656  0.6083 -0.2978  0.6090
    7MPD2    C514198   3.941   1.292  11.547  0.5449 -0.8027 -0.1685
    7MPD2     H14199   3.876   1.658  11.653 -0.8627  0.4612  0.2829
    7MPD2    H114200   3.808   1.234  11.703 -1.1207 -0.0136 -0.4982
    7MPD2    H214201   4.066   1.375  11.394  0.5016  1.8417 -0.6871
    7MPD2    H314202   3.953   1.190  11.514 -2.1925 -0.8814 -0.9284
    7MPD2     N14203   3.767   1.474  11.822 -0.0012 -0.1351  0.1451
    7MPD2    H514204   3.720   1.396  11.866 -1.1185 -0.2312 -1.2152
    7MPD2    N114205   4.022   1.647  11.459 -0.2798 -0.3627 -0.3692
    7MPD2    H714206   4.013   1.731  11.515  2.5396 -0.6835  0.5493
    8TMC3    C114207   4.064   1.796  11.289  0.1671 -0.4022  0.5666
    8TMC3    C214208   3.976   1.811  11.189  0.5458 -0.5596  0.3709
    8TMC3    C314209   3.894   1.922  11.192 -0.1053 -0.3571  0.7354
    8TMC3    C414210   4.083   1.880  11.389  0.3443 -0.2538  0.2256
    8TMC3    C514211   3.998   1.985  11.395 -0.1005  0.3695 -0.5105
    8TMC3    C614212   3.906   2.003  11.296  0.0926  0.3034  0.0536
    8TMC3     C14213   4.067   1.655  11.331  0.0755 -1.0105 -0.2639
    8TMC3     O14214   4.063   1.568  11.245 -0.4436  0.3897  0.1075
    8TMC3     H14215   3.962   1.734  11.115 -0.6323  2.1155 -2.1580
    8TMC3    H114216   4.160   1.858  11.461  1.3589  0.7837 -0.5512
    8TMC3    H214217   3.823   2.072  11.305  0.5383  0.6540  1.5151
    8TMC3    C714218   3.943   2.004  11.525 -0.2010 -0.2190  0.8523
    8TMC3    C814219   3.757   1.898  11.167  0.1919 -0.1556  0.3262
    8TMC3    O114220   3.957   1.908  11.597  0.0878 -0.1104 -0.1501
    8TMC3    O214221   3.681   1.983  11.126 -0.0631  0.6034  0.2429
    9MPD2     C14222   3.604   1.574  11.250 -0.4536  0.3084  0.2312
    9MPD2    C114223   3.603   1.703  11.207  0.1771 -0.2760 -0.1052
    9MPD2    C214224   3.484   1.763  11.157 -0.2166  0.7795  0.0953
    9MPD2    C314225   3.374   1.684  11.152 -0.1501 -0.8730 -0.5164
    9MPD2    C414226   3.382   1.553  11.190  0.9905 -0.2826  0.5830
    9MPD2    C514227   3.491   1.499  11.247 -0.3579  0.2227 -0.7659
    9MPD2     H14228   3.500   1.861  11.113 -0.4578  0.8742  0.2198
    9MPD2    H114229   3.295   1.489  11.194 -1.7222  3.4400  1.3745
    9MPD2    H214230   3.690   1.521  11.289  0.7631  1.5053 -0.8438
    9MPD2    H314231   3.489   1.401  11.293  1.4267  0.2297 -0.6780
    9MPD2     N14232   3.262   1.728  11.071 -0.0757 -0.3318  0.2476
    9MPD2    H514233   3.194   1.654  11.055  0.7406 -0.8554 -0.8176
    9MPD2    N114234   3.729   1.769  11.210  0.3576 -0.2702 -0.3192
    9MPD2    H714235   3.805   1.717  11.254 -0.5224 -0.8900  0.4712
    1MPD1     C14236   3.461   2.253  15.989  0.1792 -0.6826 -0.1328
    1MPD1    C114237   3.522   2.152  15.906 -0.2598 -0.0309 -0.2707
    1MPD1    C214238   3.497   2.021  15.939 -0.4174  0.0039 -0.5085
    1MPD1    C314239   3.401   1.980  16.031 -0.1474  0.2311 -0.0755
    1MPD1    C414240   3.353   2.074  16.121  0.1652  0.0337 -0.3086
    1MPD1    C514241   3.388   2.205  16.095  0.7066 -0.0839 -1.1361
    1MPD1     H14242   3.551   1.948  15.880 -2.5863  0.4023 -2.9773
    1MPD1    H114243   3.287   2.047  16.202 -0.6411 -0.3021 -1.0759
    1MPD1    H214244   3.474   2.360  15.986  1.9513 -0.9119 -0.5392
    1MPD1    H314245   3.361   2.280  16.168  3.5813 -0.5377  0.3717
    1MPD1     N14246   3.348   1.852  16.041 -0.0988  0.6069 -0.1152
    1MPD1    H514247   3.295   1.830  16.125  0.8669 -1.1593  0.0412
    1MPD1    N114248   3.621   2.183  15.810  0.2047 -0.2757  0.7790
    1MPD1    H614249   3.619   2.270  15.757  0.1799 -0.0496  1.1480
    1MPD1    H714250   3.624   2.110  15.740  1.0853 -0.7532  1.3013
    2MPD1     C14251   3.291   0.786  15.712 -0.1984  0.7362 -0.2414
    2MPD1    C114252   3.302   0.790  15.852  0.3483  0.4220  0.2474
    2MPD1    C214253   3.315   0.921  15.900  0.9070  0.4189  0.0325
    2MPD1    C314254   3.324   1.037  15.825  0.2793 -0.5534  0.7098
    2MPD1    C414255   3.323   1.025  15.690 -0.5094  0.2052  0.1145
    2MPD1    C514256   3.311   0.901  15.634  0.5274  0.4861 -0.4061
    2MPD1     H14257   3.334   0.941  16.005  0.7735 -1.0066  0.3268
    2MPD1    H114258   3.325   1.114  15.629  1.9711 -1.4881 -2.2672
    2MPD1    H214259   3.264   0.690  15.668 -2.8231  0.4625  1.9890
    2MPD1    H314260   3.299   0.879  15.528 -0.0783  0.3097 -0.2993
    2MPD1     N14261   3.335   1.158  15.895  0.0393 -0.1009  0.1440
    2MPD1    H514262   3.348   1.153  15.996 -2.6508 -0.7812  0.4651
    2MPD1    N114263   3.269   0.684  15.935  0.0898 -0.0141 -0.2686
    2MPD1    H614264   3.330   0.675  16.016 -0.3092 -0.0848  0.0239
    2MPD1    H714265   3.277   0.592  15.891  0.5432 -0.2217  0.2388
    3TCq2    C114266   3.325   1.278  15.835 -0.3037 -0.1860 -0.0820
    3TCq2    O214267   3.326   1.308  15.717  0.1291 -0.2105 -0.3181
    3TCq2    C214268   3.313   1.388  15.933  0.2105  0.2187  0.6731
    3TCq2    C314269   3.277   1.368  16.069  0.1552 -0.7267 -0.2588
    3TCq2    C414270   3.269   1.473  16.150  0.1592 -0.2358 -0.7405
    3TCq2    C514271   3.312   1.598  16.111  0.3034 -0.5194  0.2922
    3TCq2    C614272   3.344   1.615  15.982  0.0043 -0.0684 -0.9076
    3TCq2    C714273   3.348   1.514  15.891 -1.1213  0.8139  0.1705
    3TCq2    C814274   3.364   1.758  15.939 -0.1330 -0.0551 -0.3015
    3TCq2    O414275   3.405   1.767  15.822  0.7738 -0.1519 -0.0918
    3TCq2    C914276   3.216   1.452  16.276 -0.1420  0.3313  0.7208
    3TCq2    O514277   3.157   1.546  16.323  0.0470  0.2189  0.1852
    3TCq2    O614278   3.233   1.335  16.322 -0.0450  0.4874 -0.1761
    3TCq2    H214279   3.237   1.274  16.106 -1.7375 -0.0856 -0.7021
    3TCq2    H314280   3.309   1.679  16.183  2.4287  0.2073 -0.4515
    3TCq2    H414281   3.387   1.520  15.790 -0.1876 -0.5662  0.4565
    1TCq1    O114282   1.326   4.279  13.556 -0.3344 -0.0948  0.5827
    1TCq1    C114283   1.367   4.194  13.460  0.2180 -0.4990  0.6864
    1TCq1    O214284   1.314   4.089  13.428 -0.2771  0.3463  0.0373
    1TCq1    C214285   1.495   4.245  13.397 -1.1564 -0.1074  0.5029
    1TCq1    C314286   1.580   4.141  13.369 -0.3756  0.0567 -0.3704
    1TCq1    C414287   1.702   4.175  13.327  0.5420 -0.4798  0.5196
    1TCq1    C514288   1.747   4.303  13.328 -0.4742  0.9260 -0.5561
    1TCq1    C614289   1.673   4.403  13.382 -0.7330  0.5020  0.1928
    1TCq1    C714290   1.538   4.375  13.406  0.2382  0.7131  0.7485
    1TCq1    C814291   1.729   4.529  13.428  0.6375  0.1121  0.9786
    1TCq1    O414292   1.652   4.624  13.423  0.7839  0.3374  0.1675
    1TCq1    C914293   1.793   4.066  13.303  0.3494  0.0705 -0.4894
    1TCq1    O514294   1.757   3.949  13.325 -0.0175 -0.4790 -0.4926
    1TCq1    O614295   1.878   4.092  13.214  0.2712 -0.4467  0.6783
    1TCq1    H114296   1.397   4.346  13.572 -1.6430  1.4078  0.1088
    1TCq1    H214297   1.550   4.037  13.376 -0.8921  0.2745  0.7882
    1TCq1    H314298   1.850   4.316  13.299 -0.0699  0.4890  0.6936
    1TCq1    H414299   1.468   4.450  13.442  1.2361  0.8961  2.2903
    2MPD2     C14300   1.897   0.007  13.562 -0.5863  0.1372  0.0676
    2MPD2    C114301   1.942   4.606  13.531  0.0422  0.0564  0.1317
    2MPD2    C214302   2.060   4.557  13.582 -0.9416 -0.2061 -0.3525
    2MPD2    C314303   2.128   4.616  13.686  1.1554 -0.1295 -0.4869
    2MPD2    C414304   2.080   0.019  13.720  0.3236  0.4039  0.5238
    2MPD2    C514305   1.976   0.075  13.648 -0.0673 -0.4316 -0.3711
    2MPD2     H14306   2.098   4.461  13.550 -0.5075 -0.9884  2.5048
    2MPD2    H114307   2.132   0.076  13.796 -2.1988  1.7574  1.2159
    2MPD2    H214308   1.808   0.051  13.520 -1.4284 -1.2606  0.3757
    2MPD2    H314309   1.941   0.171  13.682  1.4616  0.8785 -2.4390
    2MPD2     N14310   2.246   4.554  13.737  0.7821 -0.5546  0.5427
    2MPD2    H514311   2.296   4.485  13.683  0.6267 -0.1312 -0.1415
    2MPD2    N114312   1.860   4.511  13.472  0.2025 -0.5301 -0.2982
    2MPD2    H714313   1.897   4.418  13.453  2.0760  0.5294 -1.7854
    3TCq1    O114314   2.674   4.361  13.639 -0.0826  0.2426  0.0479
    3TCq1    C114315   2.722   4.429  13.746  0.1544 -0.2626  0.3409
    3TCq1    O214316   2.840   4.417  13.786  0.0225 -0.4091  0.1272
    3TCq1    C214317   2.613   4.418  13.837 -0.4781 -0.3174  0.2065
    3TCq1    C314318   2.641   4.391  13.968  0.2073 -0.4400  1.0265
    3TCq1    C414319   2.546   4.422  14.064 -0.2622 -0.1564  0.1341
    3TCq1    C514320   2.432   4.482  14.033  0.3259  0.0290  0.1390
    3TCq1    C614321   2.404   4.494  13.901  1.2021  0.9978 -0.2680
    3TCq1    C714322   2.495   4.471  13.803 -0.0030 -0.1509  0.1269
    3TCq1    C814323   2.292   4.578  13.864 -0.1521  0.1854 -0.7274
    3TCq1    O414324   2.239   4.650  13.945  0.3059  0.4494  0.0695
    3TCq1    C914325   2.579   4.395  14.203  0.1318  0.8629  0.1179
    3TCq1    O514326   2.508   4.443  14.294  0.3077  0.2755  0.3928
    3TCq1    O614327   2.695   4.356  14.231  0.0469  0.2283  0.5056
    3TCq1    H114328   2.588   4.321  13.664 -0.1325  0.4391  0.1913
    3TCq1    H214329   2.728   4.334  13.999  1.5674  0.5779 -0.9099
    3TCq1    H314330   2.359   4.492  14.113 -0.5045  0.1813 -0.6424
    3TCq1    H414331   2.483   4.496  13.698 -0.8920  1.2215  0.5457
    1MPD2     C14332   1.509   1.438  14.822  1.0609 -0.0438  0.3572
    1MPD2    C114333   1.427   1.411  14.924  0.3331 -0.3181  0.0353
    1MPD2    C214334   1.486   1.346  15.030 -0.0192 -0.2112 -0.1610
    1MPD2    C314335   1.618   1.309  15.033 -0.3020  0.0377  0.6011
    1MPD2    C414336   1.700   1.351  14.929 -0.2397 -0.0422  0.5189
    1MPD2    C514337   1.639   1.409  14.819 -0.7067  0.3866  0.5312
    1MPD2     H14338   1.420   1.317  15.110  0.9020 -2.2138 -0.1240
    1MPD2    H114339   1.806   1.332  14.935  0.1659  1.9221 -0.3515
    1MPD2    H214340   1.469   1.497  14.741  3.0567 -0.1002 -0.6764
    1MPD2    H314341   1.709   1.448  14.746  0.7278  1.1115  2.2942
    1MPD2     N14342   1.660   1.241  15.144 -0.1225  0.5886 -0.2139
    1MPD2    H514343   1.592   1.236  15.220 -0.6709  2.3495 -0.5861
    1MPD2    N114344   1.294   1.464  14.919 -0.2612  0.3120  0.9354
    1MPD2    H714345   1.268   1.511  14.833  1.2431  1.0777  0.9000
    2TMC3    C114346   1.057   1.454  14.954  0.4454 -0.8639 -0.0511
    2TMC3    C214347   0.968   1.401  15.038  0.5101 -0.0487 -0.1781
    2TMC3    C314348   0.877   1.319  14.984 -0.4425  0.2273  0.1484
    2TMC3    C414349   1.058   1.426  14.823 -0.0765 -0.4661  0.5324
    2TMC3    C514350   0.951   1.365  14.770 -0.0527 -0.2014 -0.4408
    2TMC3    C614351   0.856   1.309  14.848 -0.0748  0.0908 -0.0536
    2TMC3     C14352   1.194   1.441  15.011 -0.2273 -0.0473 -0.4719
    2TMC3     O14353   1.191   1.387  15.114 -0.1382 -0.1624 -0.1831
    2TMC3     H14354   0.972   1.423  15.144 -1.4190 -0.1801 -0.0818
    2TMC3    H114355   1.133   1.463  14.754  0.2315 -1.8179  0.1474
    2TMC3    H214356   0.778   1.254  14.797 -1.3745  3.6914 -1.9643
    2TMC3    C714357   0.908   1.406  14.638 -0.3693  0.2312  0.4210
    2TMC3    C814358   0.865   1.191  15.065 -0.3099 -0.0168 -0.3140
    2TMC3    O114359   0.789   1.406  14.612  0.1204 -0.9469 -0.2653
    2TMC3    O214360   0.763   1.120  15.062  0.2467  0.2682 -0.1542
    3TCq1    O114361   1.499   0.944  13.653  0.8651  0.0955  0.2224
    3TCq1    C114362   1.415   0.917  13.757  0.4928 -0.1303 -0.3692
    3TCq1    O214363   1.378   0.805  13.787  0.1691  0.4732 -0.3261
    3TCq1    C214364   1.423   1.028  13.842 -0.6053  1.3710 -0.1355
    3TCq1    C314365   1.549   1.067  13.879  0.9811 -0.3049  0.2733
    3TCq1    C414366   1.562   1.167  13.965 -0.0701  0.5397 -0.3185
    3TCq1    C514367   1.453   1.230  14.008  0.8738 -0.4383 -0.1640
    3TCq1    C614368   1.328   1.192  13.966  0.2551  0.0114  0.5495
    3TCq1    C714369   1.310   1.089  13.883  0.5056  0.8381 -0.3759
    3TCq1    C814370   1.210   1.265  13.999  0.5949  0.0748 -1.0247
    3TCq1    O414371   1.120   1.265  13.916  0.0700 -0.0209 -0.2822
    3TCq1    C914372   1.698   1.207  14.001  0.3587  0.2864 -0.1004
    3TCq1    O514373   1.797   1.133  13.984  0.0581  0.2706 -0.1486
    3TCq1    O614374   1.702   1.324  14.043 -0.4001 -0.2310 -0.3330
    3TCq1    H114375   1.519   1.040  13.647 -1.8393  0.5259 -1.9681
    3TCq1    H214376   1.634   1.001  13.866  1.8970  0.8223  0.5088
    3TCq1    H314377   1.467   1.307  14.083  1.2987  0.2875 -0.9913
    3TCq1    H414378   1.216   1.046  13.853 -0.1334 -0.7983  3.9613
    4MPD2     C14379   1.001   1.428  14.132 -0.5970  0.1235 -0.5004
    4MPD2    C114380   1.114   1.389  14.194  0.0994 -0.8260 -0.3212
    4MPD2    C214381   1.113   1.393  14.333 -0.2839  0.6182 -0.3604
    4MPD2    C314382   0.994   1.416  14.408  0.1133  0.1274 -0.3730
    4MPD2    C414383   0.874   1.454  14.343  0.0140  0.0174 -0.1915
    4MPD2    C514384   0.886   1.463  14.207 -0.6906 -0.7224  0.2125
    4MPD2     H14385   1.198   1.356  14.389  0.0752  1.8846 -0.0499
    4MPD2    H114386   0.783   1.485  14.394 -0.2506  0.9911 -1.2601
    4MPD2    H214387   0.998   1.439  14.024 -0.3006 -1.9045 -0.7157
    4MPD2    H314388   0.804   1.504  14.151 -0.7725 -1.3412 -0.1215
    4MPD2     N14389   1.011   1.403  14.548 -0.2186 -0.0689 -0.3083
    4MPD2    H514390   1.104   1.390  14.586  0.7288 -1.0271 -2.9899
    4MPD2    N114391   1.216   1.322  14.127  0.3400 -0.0236  0.4796
    4MPD2    H714392   1.300   1.301  14.180  0.7451  0.7802  0.1462
    5TMC2    C114393   1.589   0.883  15.322 -0.2145  0.6432 -0.0258
    5TMC2    C214394   1.679   0.780  15.313  0.2451  0.6182 -0.3452
    5TMC2    C314395   1.803   0.821  15.271  0.3880 -0.4205  0.3932
    5TMC2    C414396   1.624   1.010  15.286  0.1515 -0.0301 -0.1810
    5TMC2    C514397   1.746   1.051  15.247  0.9424  0.0565 -0.0126
    5TMC2    C614398   1.837   0.950  15.242  0.1879  0.1924 -0.7787
    5TMC2     C14399   1.449   0.846  15.327 -0.5554 -0.2430  0.7024
    5TMC2     O14400   1.416   0.746  15.386  0.1697  0.8716  0.4497
    5TMC2     H14401   1.646   0.679  15.335  1.3565  0.2541 -0.3055
    5TMC2    H114402   1.549   1.086  15.300 -0.1436 -0.2088 -0.7700
    5TMC2    H214403   1.939   0.972  15.211  0.1308 -0.0273 -1.1266
    5TMC2    C714404   1.765   1.154  15.145 -0.1366 -0.2879 -0.8437
    5TMC2    C814405   1.903   0.715  15.267  0.5458 -0.7196  0.5898
    5TMC2    O114406   1.855   1.132  15.059  0.1494  0.3460 -0.1204
    5TMC2    O214407   2.023   0.744  15.264  0.2487 -0.2840  0.1496
    5TMC2    O514408   1.844   0.600  15.235  0.2029  0.2187 -0.2051
    5TMC2    H514409   1.749   0.622  15.218  0.9980  2.1929 -2.0995
    6MPD2     C14410   0.946   0.946  15.236 -0.4509 -0.0206  0.0643
    6MPD2    C114411   1.025   1.051  15.190 -0.0584 -0.1760  0.3686
    6MPD2    C214412   1.163   1.047  15.214 -0.0182 -0.2218  0.0654
    6MPD2    C314413   1.230   0.940  15.275  0.8004  0.6683  0.7011
    6MPD2    C414414   1.150   0.834  15.308 -0.1117  0.0030 -0.6440
    6MPD2    C514415   1.015   0.836  15.281  0.4824  0.9419 -0.2891
    6MPD2     H14416   1.218   1.131  15.175 -1.8682  0.0779 -1.8794
    6MPD2    H114417   1.191   0.742  15.349 -1.0261 -0.0530  0.1609
    6MPD2    H214418   0.840   0.942  15.215 -0.6841 -2.0645  1.5281
    6MPD2    H314419   0.958   0.753  15.321  2.1881  0.1809  0.5722
    6MPD2     N14420   1.369   0.945  15.284  0.4254 -0.3765  0.3027
    6MPD2    H514421   1.411   1.033  15.256 -1.8037  1.6420  3.2714
    6MPD2    N114422   0.988   1.161  15.117  0.4835  0.0250  0.4113
    6MPD2    H714423   1.063   1.225  15.095  0.6947 -0.6818 -0.9235
  945NH4     N114424   4.032   4.077  13.291  0.5212 -0.4167  0.3781
  945NH4     H214425   3.979   4.002  13.339  2.4625 -2.2677 -0.3713
  945NH4     H314426   3.966   4.125  13.226  2.4188 -1.4134 -2.2903
  945NH4     H414427   4.109   4.030  13.238  0.9255 -1.1351  1.5877
  945NH4     H514428   4.071   4.141  13.363 -0.8983  1.8031 -0.8511
  946SOD     NA14429   2.434   3.468   9.609  0.1328  0.1795  0.1230
  947SOD     NA14430   0.633   4.697  10.591 -0.2700 -0.4999 -0.1533
  948SOD     NA14431   4.345   0.174  10.294  0.2078 -0.2535  0.2001
  949SOD     NA14432   0.586   4.477  15.589  0.6083 -0.0148 -0.2193
  950SOD     NA14433   2.299   0.940  17.590 -0.1002 -0.2215 -0.2403
  951SOD     NA14434   4.437   1.020  12.036  0.3430 -0.7018 -0.1515
  952SOD     NA14435   0.255   3.861  10.064 -0.0953  0.0337  0.0032
  953SOD     NA14436   1.907   3.886  11.312 -0.1548 -0.2343 -0.1882
  954SOD     NA14437   0.355   0.732  13.939  0.3573 -0.0347 -0.1973
  955SOD     NA14438   1.875   3.886  13.123 -0.0176  0.4361 -0.5826
  956SOD     NA14439   2.027   1.101  14.389  0.0418  0.3959  0.6422
  957SOD     NA14440   2.212   1.877  11.170 -0.1030  0.3691  0.2628
  958SOD     NA14441   2.576   4.488  17.283  0.3568 -0.1482  0.1819
  959SOD     NA14442   1.721   1.354  10.091  0.1225  0.3204  0.2530
  960SOD     NA14443   3.241   4.137  14.026  0.4594  0.0486 -0.4900
  961SOD     NA14444   1.694   1.400  12.486 -0.1878  0.0019  0.1453
  962SOD     NA14445   3.052   0.752  15.956 -0.2046 -0.3274 -0.0840
  963SOD     NA14446   0.674   2.777  16.206 -0.4979  0.5057  0.0042
  964SOD     NA14447   1.389   1.143  11.221 -0.2444  0.3221 -0.1996
  965SOD     NA14448   0.676   1.216   8.845 -0.0412 -0.0421 -0.0053
  966SOD     NA14449   4.385   2.319   9.462  0.0107 -0.1119 -0.3478
  967SOD     NA14450   3.431   2.828   4.171 -0.4555 -0.3510  0.0160
  968SOD     NA14451   4.204   1.792   2.465 -0.1864 -0.2802  0.1952
  969SOD     NA14452   2.134   4.322  11.777  0.4091  0.3489 -0.1149
  970SOD     NA14453   3.550   4.090   2.316 -0.0044  0.2594 -0.2033
  971SOD     NA14454   1.849   4.006  12.824  0.3944  0.4587 -0.0111
  972SOD     NA14455   2.824   2.250   7.127 -0.5555 -0.2160 -0.0714
  973SOD     NA14456   2.150   1.761   0.215 -0.2541  0.0758 -0.2229
  974SOD     NA14457   0.842   2.306  10.067 -0.1636 -0.0347  0.1515
  975SOD     NA14458   1.380   0.566  12.334  0.1065  0.2811  0.0698
  976SOD     NA14459   2.622   4.626  14.712 -0.0727 -0.0315  0.0219
  977SOD     NA14460   1.851   3.421  13.787 -0.0593  0.4637  0.2041
  978SOD     NA14461   3.313   0.983  14.068 -0.1314 -0.0664  0.2468
  979SOD     NA14462   4.663   1.804  10.099 -0.0467 -0.0409 -0.4720
  980SOD     NA14463   2.672   4.498  14.448 -0.1574  0.4491  0.1394
  981SOD     NA14464   3.952   0.870   8.273  0.3010 -0.3908  0.1925
  982SOD     NA14465   3.406   4.369   0.563  0.0178 -0.0546  0.2052
  983SOD     NA14466   2.398   1.112  13.712  0.2495  0.7314  0.0092
  984SOD     NA14467   1.490   2.430   2.759 -0.4532 -0.0555  0.3174
  985SOD     NA14468   2.389   0.925   3.334  0.3354  0.1258 -0.1805
  986SOD     NA14469   4.215   1.230  10.421 -0.0339 -0.0594 -0.1084
  987SOD     NA14470   3.523   1.389  15.319  0.0048  0.4978 -0.0550
  988SOD     NA14471   2.831   1.876  17.392  0.1494 -0.1028 -0.0102
  989SOD     NA14472   4.562   2.915   8.938  0.3480  0.1042  0.1474
  990SOD     NA14473   3.153   3.777  13.282 -0.4904 -0.4706 -0.1380
  991SOD     NA14474   1.971   4.194   3.549  0.0247  0.2790  0.3809
  992SOD     NA14475   0.411   3.616  12.929 -0.3123  0.1323 -0.6245
  993SOD     NA14476   3.179   3.123  14.276  0.3709 -0.3606  0.0681
  994SOD     NA14477   4.683   0.315  14.436  0.2971 -0.0880  0.1139
  995SOD     NA14478   4.634   3.049   1.831  0.2873 -0.0050 -0.4376
  996SOD     NA14479   0.151   3.535  14.264 -0.0865 -0.1846  0.1549
  997SOD     NA14480   0.673   3.577   2.380  0.3593  0.3623 -0.1639
  998SOD     NA14481   1.340   0.239  11.330 -0.2850 -0.4278  0.2721
  999SOD     NA14482   4.040   0.326   0.527 -0.2354  0.0485 -0.0453
 1000SOD     NA14483   1.700   1.528   3.267 -0.1279  0.1490  0.1907
 1001SOD     NA14484   2.656   0.603  14.997 -0.4079  0.4792 -0.1460
 1002SOD     NA14485   1.045   0.825  10.329  0.6985 -0.3722  0.0210
 1003SOD     NA14486   3.590   0.698   1.764 -0.5457  0.1606 -0.3777
 1004SOD     NA14487   2.560   1.212  16.380  0.3994  0.0752  0.6172
 1005SOD     NA14488   3.807   1.980  14.433 -0.3207  0.6581  0.2524
 1006SOD     NA14489   3.415   4.363   1.089 -0.0945 -0.7964 -0.5643
 1007SOD     NA14490   1.183   3.775   2.922  0.4481  0.9595 -0.1692
 1008SOD     NA14491   4.640   4.149   0.581 -0.1258  0.4630 -0.1095
 1009SOD     NA14492   2.911   0.697  11.081 -0.2507  0.0231  0.4937
 1010SOD     NA14493   3.961   3.326   1.333 -0.4278  0.0225 -0.1685
 1011SOL     OW14494   4.545   1.204   1.085  0.0753 -0.4393 -0.5427
 1011SOL    HW114495   4.525   1.276   1.145 -0.7863 -1.4139  0.3422
 1011SOL    HW214496   4.626   1.226   1.039  0.3786 -0.6387 -0.1104
 1012SOL     OW14497   3.036   0.256   8.156 -0.1959  0.1667 -0.6023
 1012SOL    HW114498   2.985   0.305   8.220 -0.1231  0.8597 -1.0893
 1012SOL    HW214499   2.962   0.206   8.122 -0.7910 -0.0980  1.0779
 1013SOL     OW14500   0.697   2.377   6.315  0.6127  0.0660  0.0897
 1013SOL    HW114501   0.631   2.309   6.320 -1.6094  2.1532 -1.0739
 1013SOL    HW214502   0.660   2.454   6.272 -0.9430 -0.7802 -0.0780
 1014SOL     OW14503   4.705   3.649   8.066  0.1245  0.6011  0.6560
 1014SOL    HW114504   4.690   3.731   8.113  1.3157  2.5718 -2.4280
 1014SOL    HW214505   4.702   3.689   7.979  1.0817 -2.2963 -0.7062
 1015SOL     OW14506   3.074   2.815   6.202 -0.0743 -0.6869 -0.1050
 1015SOL    HW114507   3.067   2.724   6.172  1.1746 -0.2962 -1.6221
 1015SOL    HW214508   3.069   2.788   6.294  4.0961  0.4025  0.4396
 1016SOL     OW14509   3.444   0.968   5.902 -0.2415  0.0099  0.6745
 1016SOL    HW114510   3.402   0.922   5.830 -0.8697  0.1209  0.9696
 1016SOL    HW214511   3.512   0.903   5.920  0.4791  0.6311  0.2019
 1017SOL     OW14512   4.660   4.499   7.823  0.4111 -0.0793 -0.0257
 1017SOL    HW114513   4.707   4.577   7.852  0.9670 -1.4574  2.8191
 1017SOL    HW214514   4.621   4.539   7.746  1.4022  2.0677  0.5869
 1018SOL     OW14515   0.755   0.061  10.748  0.7659 -0.0766 -0.3441
 1018SOL    HW114516   0.770   0.116  10.824  1.7158  0.6261 -1.0430
 1018SOL    HW214517   0.842   0.024  10.732  1.1552  0.6848  0.0584
 1019SOL     OW14518   0.083   0.044   6.164  0.0603 -0.2417 -0.2208
 1019SOL    HW114519   0.017   0.085   6.107 -0.3636  1.1326  1.2423
 1019SOL    HW214520   0.048   0.069   6.250  0.9391  0.6531 -0.1271
 1020SOL     OW14521   3.157   0.525  12.576  0.2703 -0.2004 -0.1044
 1020SOL    HW114522   3.181   0.529  12.484  2.6823 -0.7725  0.4874
 1020SOL    HW214523   3.242   0.528  12.621  0.2137 -2.1814  0.1219
 1021SOL     OW14524   0.119   1.480   8.139  0.5217 -0.1203  0.1958
 1021SOL    HW114525   0.170   1.546   8.186  1.3986  0.9583 -2.2520
 1021SOL    HW214526   0.185   1.426   8.095  2.7894  1.5703  1.5597
 1022SOL     OW14527   0.694   3.995  10.054  0.5112 -1.0333 -0.2057
 1022SOL    HW114528   0.611   4.041  10.052  2.2864  2.1655 -0.2420
 1022SOL    HW214529   0.674   3.911  10.012  3.4519 -1.7282 -0.2219
 1023SOL     OW14530   4.470   1.387   5.685  0.2214 -0.4112  0.4488
 1023SOL    HW114531   4.482   1.472   5.727  3.1257 -1.6881  2.2037
 1023SOL    HW214532   4.375   1.396   5.686  0.3706  1.5197 -3.5921
 1024SOL     OW14533   1.172   1.602  15.358 -0.0832 -0.5795 -0.0451
 1024SOL    HW114534   1.265   1.585  15.344  0.4076  0.8547  1.4524
 1024SOL    HW214535   1.156   1.510  15.379  0.9938 -0.5192  1.0783
 1025SOL     OW14536   4.477   2.749   4.905  0.4845  0.1851 -0.0068
 1025SOL    HW114537   4.452   2.826   4.955  2.8525  0.0118  1.4562
 1025SOL    HW214538   4.395   2.731   4.861  0.4910  1.1353 -0.3912
 1026SOL     OW14539   1.375   1.849   2.688  0.0632 -0.0917 -0.6976
 1026SOL    HW114540   1.433   1.916   2.652 -1.1470  0.9369 -0.7122
 1026SOL    HW214541   1.296   1.894   2.659  0.7080 -0.4397 -3.0335
 1027SOL     OW14542   4.643   0.588  11.944 -0.3930 -0.4632 -0.0180
 1027SOL    HW114543   4.572   0.542  11.989 -0.0709 -1.7605 -0.8409
 1027SOL    HW214544   4.620   0.561  11.855 -0.7794 -0.6030  0.1228
 1028SOL     OW14545   0.018   4.597   0.495  0.2932  0.1095 -0.1326
 1028SOL    HW114546   0.091   4.593   0.557  0.7978  0.1867 -0.7224
 1028SOL    HW214547   4.694   4.678   0.513 -2.9979 -1.7006 -0.7021
 1029SOL     OW14548   1.271   2.983  16.372  0.3320  0.8123  0.3639
 1029SOL    HW114549   1.213   3.029  16.311 -1.3111 -3.6390 -1.4356
 1029SOL    HW214550   1.340   2.944  16.318  1.1723  0.4441  1.7169
 1030SOL     OW14551   4.098   2.066   8.978  0.3538 -0.2410 -0.1006
 1030SOL    HW114552   4.186   2.102   8.967  0.3117 -0.1005  0.0197
 1030SOL    HW214553   4.114   1.978   8.945 -0.0147 -0.3499  0.0093
 1031SOL     OW14554   0.576   3.835   1.815 -0.0035 -0.0067  0.1476
 1031SOL    HW114555   0.500   3.783   1.844  0.1434 -1.2219 -1.6135
 1031SOL    HW214556   0.594   3.884   1.895 -1.2714  1.9582 -0.7651
 1032SOL     OW14557   1.573   3.749   6.885 -0.2339 -0.4937  0.1474
 1032SOL    HW114558   1.577   3.814   6.814  2.6473 -2.3440 -1.3906
 1032SOL    HW214559   1.627   3.800   6.945 -1.1775 -2.6319  2.8045
 1033SOL     OW14560   2.716   2.382   6.487  0.4099 -0.5320  0.5227
 1033SOL    HW114561   2.695   2.390   6.580 -2.3554  0.1557 -0.1374
 1033SOL    HW214562   2.630   2.356   6.453  0.9469 -0.4631 -0.8984
 1034SOL     OW14563   3.999   1.799   1.618 -0.0742  0.0714  0.3294
 1034SOL    HW114564   3.970   1.889   1.612  1.1657  0.3000 -2.3249
 1034SOL    HW214565   3.963   1.777   1.704 -2.2037  2.9633  0.1602
 1035SOL     OW14566   1.532   3.492  16.713 -0.1810  0.1008  0.2444
 1035SOL    HW114567   1.470   3.562  16.692 -1.2103 -0.6904  0.6905
 1035SOL    HW214568   1.558   3.510  16.803  0.2098  2.1644 -0.2766
 1036SOL     OW14569   3.988   2.335   5.915  0.1503  0.0669  0.1127
 1036SOL    HW114570   3.976   2.301   6.004 -0.6607 -2.2429 -0.8832
 1036SOL    HW214571   4.011   2.426   5.934 -1.4172  0.7587 -1.3253
 1037SOL     OW14572   0.708   2.604   6.494  0.9130 -0.0833 -0.0678
 1037SOL    HW114573   0.737   2.524   6.450 -0.7232  0.9713 -3.0686
 1037SOL    HW214574   0.793   2.640   6.522  1.2136 -0.2764 -0.7347
 1038SOL     OW14575   4.382   2.588   6.266  0.4628  0.3946 -0.1057
 1038SOL    HW114576   4.416   2.514   6.216  1.3038 -0.7006  2.1239
 1038SOL    HW214577   4.425   2.569   6.349  1.4371 -2.9385 -1.3688
 1039SOL     OW14578   0.414   2.970   6.016 -0.2938  0.5577  0.0971
 1039SOL    HW114579   0.411   3.057   6.056  1.2614  0.5174  0.2945
 1039SOL    HW214580   0.390   2.921   6.095  1.6519 -1.2874 -0.4502
 1040SOL     OW14581   3.516   2.242  12.237  0.4684  0.6254  0.0591
 1040SOL    HW114582   3.597   2.191  12.244  1.4774  2.1261 -0.6011
 1040SOL    HW214583   3.475   2.187  12.170  1.0017 -1.6268  1.6112
 1041SOL     OW14584   1.486   3.735   3.385  0.1056  0.1368  0.3346
 1041SOL    HW114585   1.427   3.698   3.449 -0.5434  1.6820  0.6073
 1041SOL    HW214586   1.434   3.811   3.359 -1.9409 -1.5823 -0.6541
 1042SOL     OW14587   0.778   3.559   0.834  0.1317 -0.1026  0.1193
 1042SOL    HW114588   0.828   3.586   0.912 -1.4884 -4.3437  2.6459
 1042SOL    HW214589   0.747   3.648   0.821  0.9024 -0.0458 -1.2955
 1043SOL     OW14590   2.443   2.807   5.344 -0.4334  0.0033  0.1637
 1043SOL    HW114591   2.463   2.798   5.251 -1.3202  0.6811 -0.0873
 1043SOL    HW214592   2.527   2.850   5.364 -0.7291  1.2002 -1.1741
 1044SOL     OW14593   0.009   0.789  12.561  0.4083 -0.3169  0.2673
 1044SOL    HW114594   0.009   0.874  12.604  0.8533 -0.7676  1.1866
 1044SOL    HW214595   0.026   0.809  12.469  3.6069 -0.1293  0.8823
 1045SOL     OW14596   3.553   2.651   0.012 -0.0764  0.3446  0.4073
 1045SOL    HW114597   3.511   2.725  17.666  0.3032 -0.2468 -0.9398
 1045SOL    HW214598   3.577   2.702   0.090  2.5280  0.0837 -0.2270
 1046SOL     OW14599   2.868   3.126   3.704 -0.5785 -0.6652 -0.1345
 1046SOL    HW114600   2.904   3.162   3.623  0.8883 -1.7433  0.0339
 1046SOL    HW214601   2.918   3.156   3.780  0.9184 -0.1228 -1.3187
 1047SOL     OW14602   3.860   3.852   5.184 -0.3072 -0.1165  0.3808
 1047SOL    HW114603   3.765   3.854   5.199 -0.1977 -1.5762  1.2316
 1047SOL    HW214604   3.892   3.824   5.270  1.2596  0.1098 -0.1280
 1048SOL     OW14605   2.094   1.215  16.843 -0.0220  0.6128 -0.2058
 1048SOL    HW114606   2.053   1.128  16.845  2.1323 -0.4387 -1.8085
 1048SOL    HW214607   2.171   1.206  16.898  0.2434  1.3879 -0.4590
 1049SOL     OW14608   2.261   1.535   5.346 -0.8051  0.1675 -0.3715
 1049SOL    HW114609   2.213   1.466   5.392 -1.5690  1.2075  0.3815
 1049SOL    HW214610   2.197   1.572   5.286 -1.3444  0.5896  0.4577
 1050SOL     OW14611   2.064   3.388  10.016 -0.6521  0.1469 -0.1846
 1050SOL    HW114612   2.059   3.482  10.000  0.0827 -0.1690 -2.3462
 1050SOL    HW214613   2.052   3.386  10.111 -0.0225 -0.7457 -0.1307
 1051SOL     OW14614   1.709   4.618   7.465 -0.1515 -0.3309 -0.1397
 1051SOL    HW114615   1.699   4.534   7.510 -2.1312 -0.6377 -1.1537
 1051SOL    HW214616   1.778   4.599   7.402 -0.6160  0.6493 -0.9506
 1052SOL     OW14617   4.392   4.434   7.977  0.0811 -0.2148  0.0137
 1052SOL    HW114618   4.460   4.465   7.917  0.5966 -0.6386  0.3766
 1052SOL    HW214619   4.334   4.509   7.989  0.9140  0.2763  0.9804
 1053SOL     OW14620   2.025   1.699  14.100  0.1511 -0.2622 -0.2542
 1053SOL    HW114621   2.085   1.717  14.173 -0.0892 -0.9274  0.1068
 1053SOL    HW214622   2.017   1.604  14.107 -0.7241 -0.0844  1.2089
 1054SOL     OW14623   3.508   2.067   6.803 -0.2980  0.1049 -0.5200
 1054SOL    HW114624   3.533   2.159   6.792 -0.6214  0.5646  2.4171
 1054SOL    HW214625   3.583   2.022   6.766 -0.4393  0.6784 -1.4960
 1055SOL     OW14626   1.497   1.868   0.854 -0.3700 -0.1691  0.2365
 1055SOL    HW114627   1.560   1.797   0.849 -1.7991 -1.3799 -0.4107
 1055SOL    HW214628   1.525   1.936   0.793  1.3000  2.3114  3.7491
 1056SOL     OW14629   1.489   4.201  10.278  0.4475  0.0413 -0.0601
 1056SOL    HW114630   1.515   4.113  10.304  2.5649  1.2692  1.9121
 1056SOL    HW214631   1.396   4.196  10.301  0.0681 -0.2595 -1.6808
 1057SOL     OW14632   1.019   1.123   3.280 -0.4553 -0.6171  0.1943
 1057SOL    HW114633   0.971   1.202   3.254  0.1307 -0.4174 -0.2727
 1057SOL    HW214634   1.107   1.150   3.254 -1.6431 -0.6835 -3.9140
 1058SOL     OW14635   4.600   1.721   8.997 -0.0574  0.1115  0.0481
 1058SOL    HW114636   4.609   1.744   9.090 -1.0128  4.3284 -0.9190
 1058SOL    HW214637   4.532   1.655   9.009  0.2141 -0.3353 -0.8949
 1059SOL     OW14638   2.129   3.530   2.312 -0.3053  0.7523  0.3165
 1059SOL    HW114639   2.058   3.466   2.317 -2.3739  2.9023 -1.8079
 1059SOL    HW214640   2.198   3.480   2.357 -0.3671  2.7601  2.6698
 1060SOL     OW14641   2.879   3.577  17.655  0.1683  0.3129 -0.1680
 1060SOL    HW114642   2.836   3.522  17.589  1.8807 -0.6374 -0.4906
 1060SOL    HW214643   2.902   3.517   0.029  0.2385 -0.1909 -0.6068
 1061SOL     OW14644   1.904   2.535   7.899  0.7825 -0.3080  0.0949
 1061SOL    HW114645   1.965   2.461   7.901  0.7305 -0.3397  0.4785
 1061SOL    HW214646   1.911   2.560   7.991  0.3676 -1.3390  0.4083
 1062SOL     OW14647   1.935   3.659   7.374  0.3859 -0.1652  0.1340
 1062SOL    HW114648   1.924   3.650   7.280  0.8692 -0.2749  0.0864
 1062SOL    HW214649   1.946   3.567   7.397  2.9660 -0.5969 -2.9420
 1063SOL     OW14650   2.074   4.511   2.523  0.1171 -0.0933 -0.0341
 1063SOL    HW114651   2.061   4.419   2.547 -1.1791 -0.3573 -1.7577
 1063SOL    HW214652   2.165   4.511   2.494 -0.4241 -3.8597 -1.6938
 1064SOL     OW14653   3.000   3.326  13.047 -0.2646 -0.0543  0.3216
 1064SOL    HW114654   3.084   3.330  13.001 -0.2976  0.3192  0.2994
 1064SOL    HW214655   3.020   3.267  13.120 -1.1036 -2.8578 -1.7185
 1065SOL     OW14656   0.140   3.990   2.854  0.1326  0.3956  0.6595
 1065SOL    HW114657   0.162   3.968   2.944  3.2658  1.0277  0.0678
 1065SOL    HW214658   0.076   4.061   2.860 -1.1108 -0.6822 -0.0026
 1066SOL     OW14659   3.507   2.226  14.350 -0.3434 -0.1612 -0.0559
 1066SOL    HW114660   3.538   2.143  14.384 -1.0059 -0.9760 -1.4285
 1066SOL    HW214661   3.571   2.295  14.367  1.2299 -1.5782 -0.2837
 1067SOL     OW14662   3.177   0.528   5.365  0.0025 -0.0907 -0.0582
 1067SOL    HW114663   3.222   0.528   5.281  1.2769  1.2853  0.6251
 1067SOL    HW214664   3.144   0.618   5.356 -1.3512 -0.6242 -0.4420
 1068SOL     OW14665   2.395   3.997   7.620  0.1260 -0.2855  0.0714
 1068SOL    HW114666   2.468   4.044   7.660  1.0982 -1.0785 -0.7864
 1068SOL    HW214667   2.446   3.934   7.570 -1.8198 -1.0697 -0.9332
 1069SOL     OW14668   1.216   3.774   2.675  0.1901 -0.7364 -0.1849
 1069SOL    HW114669   1.170   3.763   2.592  0.9482  1.0700 -0.8452
 1069SOL    HW214670   1.236   3.867   2.662  1.1503 -0.9305 -0.1188
 1070SOL     OW14671   4.708   1.132   8.537  0.0350  0.5345 -0.1279
 1070SOL    HW114672   4.704   1.228   8.537  1.0536  0.5765  0.4374
 1070SOL    HW214673   4.703   1.124   8.442 -0.7181 -1.5516  0.0809
 1071SOL     OW14674   3.801   3.818  11.802 -0.3443 -0.2758 -0.5477
 1071SOL    HW114675   3.726   3.766  11.829  0.1919 -0.7145  0.0695
 1071SOL    HW214676   3.760   3.872  11.734 -0.1244 -0.3541 -0.7423
 1072SOL     OW14677   4.204   0.179   4.013 -0.0213 -0.1398 -0.8128
 1072SOL    HW114678   4.278   0.153   4.068 -0.4439 -0.3136 -0.3302
 1072SOL    HW214679   4.128   0.154   4.065  1.2469 -0.9438  0.6251
 1073SOL     OW14680   1.889   2.409   9.960 -0.0141  0.4557  0.1825
 1073SOL    HW114681   1.935   2.353  10.022  0.1531 -1.1401 -1.3819
 1073SOL    HW214682   1.940   2.385   9.882 -0.5247 -0.5876  0.1600
 1074SOL     OW14683   1.615   0.462   9.362 -0.1621 -0.3030  1.0048
 1074SOL    HW114684   1.653   0.383   9.324 -0.4397  0.3789 -0.6771
 1074SOL    HW214685   1.680   0.533   9.367  0.5005 -0.7522 -1.6993
 1075SOL     OW14686   2.434   3.905  11.730  0.0912 -0.6119 -0.2027
 1075SOL    HW114687   2.359   3.876  11.678  0.6398  1.4028 -2.1479
 1075SOL    HW214688   2.401   3.938  11.814  0.2237 -1.8106  0.3230
 1076SOL     OW14689   4.489   0.824   2.559  0.0962 -0.7664  0.0115
 1076SOL    HW114690   4.448   0.806   2.643 -1.2087 -0.9475 -0.6668
 1076SOL    HW214691   4.570   0.859   2.596  0.6744 -2.3451  0.2569
 1077SOL     OW14692   1.544   1.197   8.407  0.0843  0.4768 -0.3443
 1077SOL    HW114693   1.470   1.212   8.466  1.0766  2.8124  0.3126
 1077SOL    HW214694   1.588   1.282   8.418  0.8267  0.1384 -0.6947
 1078SOL     OW14695   2.866   2.014   7.445 -0.2253 -0.1272  0.1972
 1078SOL    HW114696   2.870   2.021   7.540  0.5878 -0.6655  0.2006
 1078SOL    HW214697   2.815   1.933   7.440 -0.6483  0.1582 -0.1456
 1079SOL     OW14698   2.805   3.720   5.242  0.2889 -0.2117 -0.0300
 1079SOL    HW114699   2.786   3.638   5.288 -1.5686  0.4959  0.4311
 1079SOL    HW214700   2.747   3.778   5.292  1.8153  2.2942 -1.1634
 1080SOL     OW14701   0.581   1.013   3.795  0.4814  0.0838  0.6967
 1080SOL    HW114702   0.623   1.022   3.881  2.2139  1.5984 -0.3035
 1080SOL    HW214703   0.525   0.936   3.804  0.1886  0.1982 -0.1577
 1081SOL     OW14704   3.464   3.911   2.437  0.2884 -0.2509  0.3335
 1081SOL    HW114705   3.480   3.927   2.531  0.8888 -1.9086  0.5030
 1081SOL    HW214706   3.395   3.848   2.459 -0.6362 -0.2195 -2.5637
 1082SOL     OW14707   0.651   3.861  11.357  0.0684  0.8630 -0.6017
 1082SOL    HW114708   0.746   3.875  11.355  0.0980  0.6847 -0.5018
 1082SOL    HW214709   0.623   3.937  11.307  1.5986  0.6284 -1.8011
 1083SOL     OW14710   1.520   3.902  10.249 -0.4170  0.0467  0.1219
 1083SOL    HW114711   1.431   3.913  10.280 -1.2617 -0.7522 -2.0218
 1083SOL    HW214712   1.518   3.827  10.190 -0.1440  0.9956 -1.1151
 1084SOL     OW14713   1.209   3.951   5.707 -0.1303  0.0639 -0.1947
 1084SOL    HW114714   1.292   3.992   5.681 -0.8578  0.4200 -1.9547
 1084SOL    HW214715   1.176   4.011   5.775  0.7078  0.8186 -0.4493
 1085SOL     OW14716   2.445   0.855   5.032  0.6748 -0.7155  0.3348
 1085SOL    HW114717   2.463   0.798   4.957  0.9597  1.5689 -1.3536
 1085SOL    HW214718   2.349   0.853   5.030  0.6923 -1.7784  0.7729
 1086SOL     OW14719   2.277   1.762   2.282  0.2429  0.4147 -0.4510
 1086SOL    HW114720   2.270   1.846   2.236 -2.1598 -0.1324 -1.0589
 1086SOL    HW214721   2.198   1.722   2.246 -0.8246  0.6327  1.6856
 1087SOL     OW14722   2.226   3.882   8.009  0.2383 -0.8653  0.0997
 1087SOL    HW114723   2.143   3.849   8.045 -0.2734  1.3629  0.9125
 1087SOL    HW214724   2.281   3.899   8.085 -0.9852  2.3769  0.2286
 1088SOL     OW14725   1.715   3.451   6.497 -0.2836  1.2050  0.1335
 1088SOL    HW114726   1.782   3.441   6.565  0.9665  3.7336 -0.7366
 1088SOL    HW214727   1.638   3.409   6.535 -0.2008  1.2190  0.3166
 1089SOL     OW14728   4.582   2.368   5.801 -0.1988 -0.0903 -0.3735
 1089SOL    HW114729   4.497   2.337   5.769  0.0647 -1.1393 -0.0817
 1089SOL    HW214730   4.621   2.284   5.825 -0.3508 -0.2015 -0.5116
 1090SOL     OW14731   0.498   2.292   7.009  0.5549 -0.7287 -0.4368
 1090SOL    HW114732   0.438   2.269   6.939  0.8630  0.6520 -1.1535
 1090SOL    HW214733   0.526   2.380   6.985  0.1656 -0.3234  0.6022
 1091SOL     OW14734   0.962   1.014   5.950  0.3365 -0.1055 -0.1252
 1091SOL    HW114735   0.890   1.069   5.983 -1.7849 -2.3563 -1.0031
 1091SOL    HW214736   0.923   0.948   5.892 -0.9848 -0.1516  0.8085
 1092SOL     OW14737   3.413   3.088   8.276  0.2149  0.1064  0.4021
 1092SOL    HW114738   3.374   3.156   8.221 -0.9517 -0.5960  0.3585
 1092SOL    HW214739   3.506   3.072   8.256 -0.7207 -1.9223 -2.3733
 1093SOL     OW14740   3.010   2.894  17.102 -0.4685 -1.1736 -0.7106
 1093SOL    HW114741   2.960   2.813  17.092  0.5617 -1.7708 -1.0104
 1093SOL    HW214742   2.934   2.951  17.095 -1.0006 -1.7589  0.3976
 1094SOL     OW14743   1.220   3.958   6.606  0.7359  0.1258 -0.1423
 1094SOL    HW114744   1.243   3.872   6.571  3.6808  0.6726  0.3866
 1094SOL    HW214745   1.178   3.985   6.524  1.8709  1.6336 -0.2398
 1095SOL     OW14746   2.606   3.767   6.360 -0.1790  0.0646  0.4370
 1095SOL    HW114747   2.626   3.704   6.290  3.1957  0.1498  1.3271
 1095SOL    HW214748   2.536   3.818   6.319  1.3901 -0.1884 -2.5625
 1096SOL     OW14749   1.447   4.463  13.700  0.0270 -0.2412  0.6003
 1096SOL    HW114750   1.464   4.551  13.667  2.2514 -0.5585  0.8835
 1096SOL    HW214751   1.436   4.473  13.795 -0.1119 -1.7254  0.7486
 1097SOL     OW14752   4.196   0.086   3.032 -0.7697  0.5045 -0.3563
 1097SOL    HW114753   4.227   0.000   3.061 -1.0069  0.0504 -1.4347
 1097SOL    HW214754   4.175   0.081   2.938 -2.8057  0.3854  0.1029
 1098SOL     OW14755   1.909   4.197  10.450 -0.0081 -0.0690 -0.2215
 1098SOL    HW114756   1.895   4.157  10.365 -0.6456  0.5354 -0.4036
 1098SOL    HW214757   1.853   4.275  10.446  0.4684  0.2444 -0.7188
 1099SOL     OW14758   0.802   3.862  11.663 -0.2767  0.1044 -0.3254
 1099SOL    HW114759   0.763   3.775  11.654  1.7231 -0.5960 -2.1471
 1099SOL    HW214760   0.832   3.881  11.574 -2.5442  1.9675 -0.7188
 1100SOL     OW14761   3.565   3.954  10.798  0.0745  0.5526  0.1546
 1100SOL    HW114762   3.577   4.027  10.737 -0.2704  1.9552  1.7760
 1100SOL    HW214763   3.472   3.935  10.784  0.1903 -0.5976  0.9886
 1101SOL     OW14764   4.240   1.239   5.516  0.1876  0.3836 -0.2944
 1101SOL    HW114765   4.178   1.278   5.454 -1.3651  0.3138  1.2466
 1101SOL    HW214766   4.208   1.275   5.598  0.7299 -1.5528  0.7564
 1102SOL     OW14767   2.049   0.568   4.710  0.3742 -0.0609 -0.0045
 1102SOL    HW114768   2.026   0.476   4.700  2.3109 -0.4560 -0.8491
 1102SOL    HW214769   2.017   0.606   4.628  0.6247  1.4022  0.5785
 1103SOL     OW14770   0.276   3.765   8.627  0.2278  0.1112  0.7410
 1103SOL    HW114771   0.272   3.670   8.615 -0.3313  0.4268 -1.6238
 1103SOL    HW214772   0.210   3.799   8.567  1.7811  0.6730 -0.6488
 1104SOL     OW14773   1.799   3.161  12.944  0.5552  0.0090  0.1019
 1104SOL    HW114774   1.729   3.223  12.924 -0.0790  0.1355  2.6378
 1104SOL    HW214775   1.865   3.217  12.984  0.9651  0.9107 -1.8371
 1105SOL     OW14776   1.156   2.815   3.242  0.5194  0.0523  0.3197
 1105SOL    HW114777   1.064   2.835   3.226  0.9903  0.7047 -1.5654
 1105SOL    HW214778   1.192   2.871   3.173 -2.1013  3.1575  1.5110
 1106SOL     OW14779   4.230   0.789   2.730 -0.2699  0.0079 -0.6429
 1106SOL    HW114780   4.178   0.776   2.808 -0.0232 -4.1015 -1.1877
 1106SOL    HW214781   4.197   0.718   2.675 -0.2623 -0.8864  0.5108
 1107SOL     OW14782   0.554   0.772   4.174  0.1922  0.0724  0.3072
 1107SOL    HW114783   0.475   0.786   4.226  1.5853  0.1687  2.3995
 1107SOL    HW214784   0.592   0.690   4.207  0.7975  0.7723  1.3343
 1108SOL     OW14785   0.305   3.572   8.261  0.0108 -0.2924 -0.3032
 1108SOL    HW114786   0.290   3.576   8.166  0.5788  0.5391 -0.3605
 1108SOL    HW214787   0.399   3.587   8.269 -0.2720  1.7431 -0.7834
 1109SOL     OW14788   0.206   3.316   1.804  0.0279  0.4069  0.0143
 1109SOL    HW114789   0.268   3.329   1.876  1.8181  0.3151 -1.5199
 1109SOL    HW214790   0.125   3.354   1.838 -0.7724 -0.9889 -0.3375
 1110SOL     OW14791   4.489   2.426   8.905  0.3495  0.8941  0.1134
 1110SOL    HW114792   4.438   2.457   8.980 -0.5343  1.6933 -0.8085
 1110SOL    HW214793   4.496   2.331   8.916 -0.8214  0.6381 -1.4458
 1111SOL     OW14794   3.157   0.552   9.095 -0.2588  0.1978 -0.1193
 1111SOL    HW114795   3.182   0.542   9.003  0.0306  0.3910 -0.0626
 1111SOL    HW214796   3.079   0.496   9.101 -0.7429  0.8197 -0.5262
 1112SOL     OW14797   1.596   0.609   1.449 -0.3590 -0.0513  0.1046
 1112SOL    HW114798   1.587   0.539   1.384  1.1282 -1.5771  1.5452
 1112SOL    HW214799   1.573   0.559   1.527  0.3323  0.2954  0.5327
 1113SOL     OW14800   3.650   3.424   7.898 -0.0594  0.6890  0.5138
 1113SOL    HW114801   3.572   3.370   7.913 -0.3945  0.7607 -0.9385
 1113SOL    HW214802   3.603   3.505   7.880  1.7921  2.1494  2.3134
 1114SOL     OW14803   1.486   0.747  12.651  0.0752  0.4597  0.0065
 1114SOL    HW114804   1.488   0.665  12.603 -0.3438 -0.2345  1.1648
 1114SOL    HW214805   1.408   0.729  12.705 -1.5814  2.7261 -1.6036
 1115SOL     OW14806   3.872   3.718  10.693 -0.3720 -0.2169  0.4934
 1115SOL    HW114807   3.815   3.643  10.709  0.5870 -1.3591 -1.4505
 1115SOL    HW214808   3.924   3.702  10.772 -0.0108  3.2064  0.9375
 1116SOL     OW14809   2.159   3.353  17.196  0.2208  0.0578 -0.9780
 1116SOL    HW114810   2.090   3.290  17.218  0.4093  0.1649 -0.1002
 1116SOL    HW214811   2.180   3.395  17.278  0.2908  1.8304 -1.9129
 1117SOL     OW14812   3.152   1.870  12.147  0.1468  0.7838 -0.0203
 1117SOL    HW114813   3.172   1.962  12.163 -0.6058  0.8796  0.3581
 1117SOL    HW214814   3.075   1.889  12.094 -1.4896  0.3314  2.1892
 1118SOL     OW14815   1.145   3.601   5.907 -0.5654 -0.4345 -0.0235
 1118SOL    HW114816   1.065   3.560   5.940  0.2031 -2.3466 -0.5304
 1118SOL    HW214817   1.159   3.535   5.839 -0.4066 -0.4658  0.0418
 1119SOL     OW14818   4.187   4.353   4.135  0.0213  0.2146 -0.3370
 1119SOL    HW114819   4.116   4.291   4.121 -0.7484  0.9526  0.3392
 1119SOL    HW214820   4.149   4.440   4.123  1.7740  1.2581  1.6600
 1120SOL     OW14821   3.709   4.680  11.289 -0.1758 -0.1111 -0.2053
 1120SOL    HW114822   3.793   4.642  11.261  1.0803  2.8553 -0.4539
 1120SOL    HW214823   3.743   0.041  11.316  1.2169 -1.3685  2.0176
 1121SOL     OW14824   0.323   0.146   7.910 -0.2334  0.0806  0.0240
 1121SOL    HW114825   0.337   0.190   7.827 -2.5875 -0.0505 -0.4550
 1121SOL    HW214826   0.406   0.158   7.956 -0.2037 -0.7749  0.1985
 1122SOL     OW14827   3.741   0.342   5.651  0.0765  0.3981 -0.1559
 1122SOL    HW114828   3.761   0.436   5.651 -3.0507  1.0762  3.0773
 1122SOL    HW214829   3.672   0.347   5.718 -0.2893 -0.4585 -0.4695
 1123SOL     OW14830   1.212   0.614   4.807  0.1010 -0.4012 -0.2006
 1123SOL    HW114831   1.195   0.681   4.874  0.5909 -1.7768  1.3008
 1123SOL    HW214832   1.139   0.554   4.821  1.5483 -2.0825  0.1274
 1124SOL     OW14833   2.514   2.244  15.731 -0.0763 -0.0393  0.0241
 1124SOL    HW114834   2.545   2.258  15.641  0.4974  1.1966  0.4106
 1124SOL    HW214835   2.421   2.229  15.713 -0.2876  0.3445  0.7971
 1125SOL     OW14836   1.101   1.348  15.411  0.5839  0.1569  0.2234
 1125SOL    HW114837   1.165   1.322  15.477 -1.4086 -1.9953  1.2752
 1125SOL    HW214838   1.124   1.278  15.350 -1.2218 -0.3237  0.1051
 1126SOL     OW14839   1.595   0.374   7.949  0.4210  0.8551 -0.5880
 1126SOL    HW114840   1.648   0.446   7.916  2.5193 -0.5685 -0.3199
 1126SOL    HW214841   1.607   0.390   8.043  1.8140  1.2158 -0.8361
 1127SOL     OW14842   4.354   1.431   4.713 -0.1822  0.0494  0.0797
 1127SOL    HW114843   4.395   1.435   4.627 -0.1859  0.8989  0.1126
 1127SOL    HW214844   4.381   1.509   4.762  0.5383 -0.0971 -0.0856
 1128SOL     OW14845   3.527   3.907   5.072  0.6636 -0.1157 -0.7995
 1128SOL    HW114846   3.504   3.814   5.075  0.6652  0.1244  5.6832
 1128SOL    HW214847   3.579   3.911   5.152  1.5163 -1.9031 -1.2574
 1129SOL     OW14848   2.402   4.356  17.344  0.3225  0.2296  0.2959
 1129SOL    HW114849   2.386   4.372  17.437  0.0792 -2.0242  0.6287
 1129SOL    HW214850   2.344   4.283  17.323  0.4455  0.7505 -1.8465
 1130SOL     OW14851   2.220   4.538   1.671 -0.2716 -0.2341 -0.3808
 1130SOL    HW114852   2.185   4.567   1.587  1.2327  1.7629 -0.3294
 1130SOL    HW214853   2.291   4.484   1.635  0.3459  0.7875 -0.6864
 1131SOL     OW14854   2.909   1.466   5.388  0.3155  0.0258  0.4817
 1131SOL    HW114855   2.831   1.521   5.392 -0.6442 -1.0682 -3.7063
 1131SOL    HW214856   2.967   1.514   5.327 -1.7556 -1.3000 -2.5034
 1132SOL     OW14857   0.113   1.357  10.871  0.1371 -0.3028 -0.0225
 1132SOL    HW114858   0.032   1.377  10.917 -1.1749  0.1246 -2.5675
 1132SOL    HW214859   0.121   1.271  10.912  1.4352 -0.8348 -1.3703
 1133SOL     OW14860   4.668   4.499  14.718  0.1306  0.3857 -0.2548
 1133SOL    HW114861   4.572   4.498  14.720  0.1477 -0.8585  0.1304
 1133SOL    HW214862   4.702   4.501  14.807  2.0873  1.9979 -1.0365
 1134SOL     OW14863   1.056   0.043   9.140  0.1529 -0.5365 -0.4725
 1134SOL    HW114864   1.050   4.681   9.099  0.5957  0.3862 -2.4863
 1134SOL    HW214865   1.024   0.027   9.229  1.7076  0.4976  0.2583
 1135SOL     OW14866   1.271   3.047  15.939  0.1313 -0.1795 -0.3962
 1135SOL    HW114867   1.238   2.958  15.932 -0.7350  0.1071  0.0178
 1135SOL    HW214868   1.239   3.082  16.023  2.3947 -0.4356  0.5678
 1136SOL     OW14869   1.927   1.125   7.710  0.2996 -0.3126  0.1824
 1136SOL    HW114870   1.892   1.210   7.738 -0.1788 -0.4476 -0.0269
 1136SOL    HW214871   1.930   1.126   7.615 -0.1180 -0.3293  0.1725
 1137SOL     OW14872   2.122   3.823  14.409  0.2059 -0.3092 -0.2365
 1137SOL    HW114873   2.058   3.788  14.347  0.5671 -0.7587 -0.3577
 1137SOL    HW214874   2.153   3.905  14.370 -0.9868 -0.3113 -1.2071
 1138SOL     OW14875   0.122   4.717  14.124 -0.0856 -0.2426  0.6747
 1138SOL    HW114876   0.141   4.673  14.041 -0.8906  2.8271 -1.1572
 1138SOL    HW214877   0.195   0.055  14.126 -0.7432  0.5513  0.0595
 1139SOL     OW14878   2.183   2.042   2.174  0.1331 -0.2560  0.3560
 1139SOL    HW114879   2.228   2.056   2.090  1.2752 -1.1301  0.8160
 1139SOL    HW214880   2.223   2.107   2.231 -0.3249  1.6327 -1.4711
 1140SOL     OW14881   0.402   2.946   7.431 -0.2220  0.2044  0.0363
 1140SOL    HW114882   0.367   2.858   7.446 -0.8966  0.3175 -0.8451
 1140SOL    HW214883   0.403   2.980   7.520  1.6653 -0.5062  0.3058
 1141SOL     OW14884   3.694   0.824   0.520 -0.4051  0.0271 -0.0296
 1141SOL    HW114885   3.724   0.913   0.498 -0.3923  0.1885  0.6511
 1141SOL    HW214886   3.629   0.804   0.452  1.4561  2.3493 -2.4839
 1142SOL     OW14887   2.571   4.495   8.181  0.4871  0.3026 -0.1893
 1142SOL    HW114888   2.546   4.538   8.099  0.7773  0.1898 -0.3361
 1142SOL    HW214889   2.534   4.407   8.172  1.3453  0.0289 -1.0823
 1143SOL     OW14890   1.471   3.546   6.344 -0.2915  0.1557  0.3840
 1143SOL    HW114891   1.458   3.568   6.251 -0.3001 -0.3371  0.2655
 1143SOL    HW214892   1.559   3.574   6.369 -0.5827  0.9986  0.4792
 1144SOL     OW14893   3.752   2.761   3.473  0.1663 -0.1711 -0.5511
 1144SOL    HW114894   3.668   2.804   3.485  0.8795  1.3996 -1.1537
 1144SOL    HW214895   3.810   2.831   3.442  0.9188 -1.7690 -2.7784
 1145SOL     OW14896   2.259   2.519   3.507 -0.1513 -0.1735  0.3441
 1145SOL    HW114897   2.300   2.530   3.593  2.1632  0.8378 -0.8665
 1145SOL    HW214898   2.219   2.433   3.516 -0.2859 -0.0296  1.0969
 1146SOL     OW14899   4.344   2.425   9.266  0.3730 -0.1311 -0.3127
 1146SOL    HW114900   4.325   2.502   9.213 -0.5162  0.7480  1.3083
 1146SOL    HW214901   4.270   2.367   9.247 -1.5796  1.1428  3.5706
 1147SOL     OW14902   4.506   3.644   9.271 -0.4422 -0.9733  0.2435
 1147SOL    HW114903   4.513   3.552   9.296 -0.1620 -0.9924  0.1013
 1147SOL    HW214904   4.487   3.675   9.359  1.9318  1.1572  0.0119
 1148SOL     OW14905   2.345   3.406   9.834 -0.5204  0.3350  0.1209
 1148SOL    HW114906   2.307   3.459   9.905 -0.3108  0.6524 -0.0018
 1148SOL    HW214907   2.333   3.315   9.858 -1.9394  0.5687  0.3408
 1149SOL     OW14908   0.918   4.198   4.610  0.3795 -0.5437 -0.1521
 1149SOL    HW114909   0.854   4.255   4.652 -1.3496 -1.1838 -1.9255
 1149SOL    HW214910   0.864   4.120   4.594 -0.3941  0.4322 -2.2685
 1150SOL     OW14911   1.738   2.486   2.752 -0.3100  0.0667 -0.4497
 1150SOL    HW114912   1.790   2.554   2.795  1.0420 -0.0020 -1.9391
 1150SOL    HW214913   1.772   2.493   2.662  1.1216  0.9248  0.1593
 1151SOL     OW14914   0.818   4.009   5.872 -0.4059  0.4004  0.1106
 1151SOL    HW114915   0.876   4.080   5.899  0.7882 -0.7621  0.6171
 1151SOL    HW214916   0.882   3.943   5.845 -0.0899  1.0697 -0.7769
 1152SOL     OW14917   0.883   3.012   9.221 -0.1316 -0.3313 -0.3810
 1152SOL    HW114918   0.905   2.998   9.129 -1.1638 -0.6243 -0.5860
 1152SOL    HW214919   0.969   3.004   9.262 -0.3927 -0.8011  0.0767
 1153SOL     OW14920   2.609   3.181   2.709 -0.3689  0.4897  0.8408
 1153SOL    HW114921   2.618   3.264   2.661 -2.1651  0.6695  0.7985
 1153SOL    HW214922   2.697   3.145   2.708 -0.3959  0.4621 -0.5409
 1154SOL     OW14923   2.756   1.475   5.746 -0.8501 -0.3818  0.1138
 1154SOL    HW114924   2.672   1.464   5.702 -0.9373  0.9778 -0.0740
 1154SOL    HW214925   2.745   1.566   5.775 -0.4056  0.8776 -3.7679
 1155SOL     OW14926   4.398   0.276   4.360  0.1909 -0.1284  0.3233
 1155SOL    HW114927   4.372   0.290   4.451 -0.1099  0.0926  0.2020
 1155SOL    HW214928   4.397   0.367   4.331  1.8023 -0.2202  0.0115
 1156SOL     OW14929   4.244   1.735   1.952  0.1820 -0.0278  0.0622
 1156SOL    HW114930   4.185   1.660   1.964 -0.2605  0.0041 -1.9116
 1156SOL    HW214931   4.180   1.801   1.977 -1.1316 -1.8468  1.5420
 1157SOL     OW14932   1.337   2.342   0.685  0.2090 -0.0274  0.4725
 1157SOL    HW114933   1.408   2.352   0.621 -0.6252  0.4654 -0.3731
 1157SOL    HW214934   1.366   2.268   0.739  0.8322  0.5289  0.8954
 1158SOL     OW14935   0.467   3.412   6.209 -0.2071  0.2023  0.1099
 1158SOL    HW114936   0.457   3.485   6.148 -2.7102 -0.3465 -0.1346
 1158SOL    HW214937   0.450   3.460   6.290  1.6512  1.0974 -0.0104
 1159SOL     OW14938   1.664   1.247   1.005 -0.4125 -0.4690 -0.3964
 1159SOL    HW114939   1.664   1.246   1.101 -0.1569  0.8450 -0.3764
 1159SOL    HW214940   1.717   1.168   0.995  0.6241  0.0641  0.9945
 1160SOL     OW14941   0.508   1.537   7.139 -0.7985 -0.0100  0.4976
 1160SOL    HW114942   0.492   1.631   7.133  1.5792  0.1962 -2.5458
 1160SOL    HW214943   0.536   1.535   7.230  1.6531  0.9102 -0.2343
 1161SOL     OW14944   1.171   3.497   4.351 -0.1182  0.1582  0.5260
 1161SOL    HW114945   1.243   3.444   4.316 -2.1231 -2.2373  0.0044
 1161SOL    HW214946   1.117   3.438   4.404 -0.4928  2.4295  2.6349
 1162SOL     OW14947   0.577   3.120   8.938  0.5479  0.0481 -0.5594
 1162SOL    HW114948   0.593   3.031   8.907 -1.6651  0.0393 -1.7030
 1162SOL    HW214949   0.662   3.163   8.936 -0.2432  1.5886 -0.7246
 1163SOL     OW14950   0.818   4.042   8.138 -0.2126  0.1136  0.2291
 1163SOL    HW114951   0.808   4.132   8.105  2.3140 -0.6908 -2.8086
 1163SOL    HW214952   0.750   3.998   8.087  1.6990  0.2482 -2.4588
 1164SOL     OW14953   3.019   1.763  13.669  0.1785  0.1696 -0.1503
 1164SOL    HW114954   3.110   1.738  13.657 -0.2381 -0.9229 -1.0229
 1164SOL    HW214955   2.980   1.691  13.618  1.4541 -0.1033 -0.7388
 1165SOL     OW14956   2.110   3.804   7.740  0.0973  0.4609  0.0705
 1165SOL    HW114957   2.173   3.876   7.746 -1.3924  1.7878 -0.2894
 1165SOL    HW214958   2.033   3.861   7.736 -1.0471 -1.1080 -0.1671
 1166SOL     OW14959   0.166   1.301  12.998 -0.3164 -0.5142  0.2031
 1166SOL    HW114960   0.126   1.261  13.075 -1.3399 -0.4379 -0.2917
 1166SOL    HW214961   0.255   1.269  13.014  0.4100  1.8424  0.7664
 1167SOL     OW14962   2.659   1.454   4.721 -0.1237  0.0308 -0.6324
 1167SOL    HW114963   2.732   1.501   4.680  0.3992  1.7218  2.2254
 1167SOL    HW214964   2.705   1.399   4.785 -1.6043  2.3688  2.4380
 1168SOL     OW14965   0.322   2.461  11.735 -0.0907  0.0844  0.3728
 1168SOL    HW114966   0.226   2.456  11.728 -0.0671  0.4037 -0.2296
 1168SOL    HW214967   0.338   2.368  11.721  3.7158  0.3597  3.0179
 1169SOL     OW14968   2.295   3.930   5.275 -0.1424 -0.6644 -0.1616
 1169SOL    HW114969   2.356   3.880   5.329 -0.2678 -2.7039 -1.9065
 1169SOL    HW214970   2.221   3.954   5.330  0.1871  1.1695 -0.5166
 1170SOL     OW14971   2.374   4.407  11.098  0.2116  0.2936  0.1229
 1170SOL    HW114972   2.286   4.439  11.077  0.6800  2.8229  2.0159
 1170SOL    HW214973   2.362   4.312  11.099  0.0886  0.3083  0.0922
 1171SOL     OW14974   0.352   3.502  11.413 -0.5631  0.2079 -0.8297
 1171SOL    HW114975   0.321   3.414  11.395  0.4960  0.1924 -2.5793
 1171SOL    HW214976   0.388   3.524  11.327  1.6466 -0.8276 -0.1640
 1172SOL     OW14977   1.193   4.028   4.627 -0.4129  0.2798 -0.1305
 1172SOL    HW114978   1.119   4.087   4.645 -0.6933 -0.8844  2.5736
 1172SOL    HW214979   1.157   3.958   4.573 -0.8321  0.9251 -0.6961
 1173SOL     OW14980   0.946   0.170   9.577 -0.3959  0.0679 -0.4218
 1173SOL    HW114981   0.907   0.098   9.528  0.3600  0.3772 -1.4830
 1173SOL    HW214982   0.988   0.218   9.506 -3.3371  1.2957 -1.3415
 1174SOL     OW14983   4.482   0.395  15.414 -0.6811  0.0058 -0.0165
 1174SOL    HW114984   4.508   0.413  15.323 -1.6410  3.2037  0.3457
 1174SOL    HW214985   4.392   0.427  15.419 -0.4142  0.4467  1.8259
 1175SOL     OW14986   3.626   2.318   1.914 -0.3752 -0.4475 -0.1862
 1175SOL    HW114987   3.586   2.234   1.935 -0.6004 -0.2799  0.0489
 1175SOL    HW214988   3.568   2.383   1.954 -0.1237 -2.0080  2.6567
 1176SOL     OW14989   3.792   1.459   8.594 -0.7412  0.2895 -0.1934
 1176SOL    HW114990   3.871   1.454   8.647  0.7922 -0.2066 -2.5153
 1176SOL    HW214991   3.829   1.507   8.520  0.2171  0.9114  0.6981
 1177SOL     OW14992   1.219   4.266   4.050  0.3432  0.6592  0.4793
 1177SOL    HW114993   1.201   4.321   4.126 -1.5231 -0.2712  0.7155
 1177SOL    HW214994   1.136   4.267   4.002  1.1874 -0.1070 -0.9807
 1178SOL     OW14995   1.933   2.166   7.691 -0.2519 -0.3980  0.1291
 1178SOL    HW114996   1.926   2.075   7.721 -1.4104 -0.6210 -0.8176
 1178SOL    HW214997   1.974   2.207   7.766  0.7919 -4.2557  1.6797
 1179SOL     OW14998   0.899   0.841   5.761  0.0541  0.3981 -0.0890
 1179SOL    HW114999   0.833   0.779   5.729 -1.6103  1.6725  0.8939
 1179SOL    HW215000   0.921   0.886   5.680  1.4209  1.2157  0.7511
 1180SOL     OW15001   4.644   3.122   3.797 -0.0114 -0.8579  0.3963
 1180SOL    HW115002   4.615   3.212   3.805  0.0399 -0.7152 -1.0969
 1180SOL    HW215003   4.611   3.093   3.712  0.3870  2.7813 -0.9833
 1181SOL     OW15004   3.680   2.017   6.485  0.3013  0.1183 -0.1134
 1181SOL    HW115005   3.761   2.053   6.449 -0.5109  0.3754 -1.6654
 1181SOL    HW215006   3.699   2.021   6.579  1.3318 -0.5442 -0.2825
 1182SOL     OW15007   3.263   0.911   8.805 -0.5505 -0.5229 -0.3098
 1182SOL    HW115008   3.330   0.884   8.867  0.6496  1.3485 -0.7793
 1182SOL    HW215009   3.261   0.838   8.744  2.0052 -0.8626  0.0067
 1183SOL     OW15010   0.510   1.181   0.005 -0.0369 -0.1497 -0.1299
 1183SOL    HW115011   0.510   1.085  17.696  0.0160 -0.2379  1.1227
 1183SOL    HW215012   0.604   1.191   0.022 -0.3068 -1.1986  1.9867
 1184SOL     OW15013   0.898   3.603   3.908  0.3737 -0.0033  0.5583
 1184SOL    HW115014   0.950   3.537   3.862  2.9161  2.9677 -0.8477
 1184SOL    HW215015   0.895   3.556   3.991  0.0440  1.5407  1.4187
 1185SOL     OW15016   2.010   3.166   9.137 -0.0787 -0.5218  0.3820
 1185SOL    HW115017   1.947   3.168   9.064  0.1314  1.4585  0.2726
 1185SOL    HW215018   1.952   3.173   9.213  1.6064 -1.5320  1.7404
 1186SOL     OW15019   0.851   0.670   8.415 -0.2773 -0.1487  0.1968
 1186SOL    HW115020   0.876   0.697   8.326  1.8904  2.1979  1.5234
 1186SOL    HW215021   0.936   0.663   8.459 -0.0777  2.3530  0.1911
 1187SOL     OW15022   3.811   0.293   3.419 -0.0646  0.6750 -0.4524
 1187SOL    HW115023   3.887   0.305   3.475  0.6737  0.1666 -1.3568
 1187SOL    HW215024   3.843   0.284   3.330 -1.8966 -0.8445 -0.9652
 1188SOL     OW15025   0.116   2.497  10.113  0.3375  0.0610  0.0844
 1188SOL    HW115026   0.176   2.539  10.175 -1.0847  2.3589 -0.1257
 1188SOL    HW215027   0.036   2.527  10.155 -0.7503  1.2082 -2.8153
 1189SOL     OW15028   0.585   2.130   3.804 -0.4282  0.6432 -0.0617
 1189SOL    HW115029   0.536   2.164   3.730 -0.8294  0.8666  0.3120
 1189SOL    HW215030   0.621   2.052   3.762 -2.5697 -0.9468  1.0597
 1190SOL     OW15031   0.287   4.639   6.078 -0.1864 -0.7023 -0.0959
 1190SOL    HW115032   0.206   4.687   6.095 -0.6519 -1.7333  0.5939
 1190SOL    HW215033   0.249   4.575   6.017 -0.4229 -0.6547 -0.0007
 1191SOL     OW15034   0.224   4.197   5.529 -0.2339 -0.9409 -0.2448
 1191SOL    HW115035   0.251   4.124   5.472 -0.9096 -2.0063  0.7921
 1191SOL    HW215036   0.308   4.241   5.542 -1.1719  1.3559 -2.0368
 1192SOL     OW15037   3.737   0.930   8.870 -0.2110  0.1556  0.0639
 1192SOL    HW115038   3.816   0.969   8.832 -1.0033 -0.0197 -1.7303
 1192SOL    HW215039   3.773   0.845   8.894 -0.3200  0.2916  0.7025
 1193SOL     OW15040   1.073   3.904  10.172 -0.4636 -0.1492 -0.6043
 1193SOL    HW115041   1.023   3.968  10.120 -2.4141 -0.8638  0.3781
 1193SOL    HW215042   1.010   3.835  10.189 -0.9229  0.7342  1.3461
 1194SOL     OW15043   1.157   3.649   7.499  0.5481 -0.0672  0.1624
 1194SOL    HW115044   1.128   3.566   7.461  0.4953  1.2834 -2.7349
 1194SOL    HW215045   1.080   3.671   7.551  0.2096  0.5646 -0.6167
 1195SOL     OW15046   4.122   3.476   5.254 -0.4024 -0.2502 -0.2698
 1195SOL    HW115047   4.032   3.505   5.242 -0.2980  0.7892  1.4139
 1195SOL    HW215048   4.175   3.536   5.202  0.8099 -0.6807  0.4652
 1196SOL     OW15049   0.268   2.812   4.916  0.1770 -0.1405  0.0112
 1196SOL    HW115050   0.256   2.859   4.834 -0.3188 -1.6407 -0.7892
 1196SOL    HW215051   0.180   2.794   4.951  1.2356 -2.4408  1.5720
 1197SOL     OW15052   0.601   3.547  10.620 -0.2499 -0.2761  0.4097
 1197SOL    HW115053   0.536   3.548  10.691 -0.8049 -0.5391 -0.0905
 1197SOL    HW215054   0.675   3.596  10.656  0.3009 -0.7779 -0.0479
 1198SOL     OW15055   1.048   3.718   6.432 -0.7996  0.5159  0.3503
 1198SOL    HW115056   1.100   3.775   6.375 -0.2386 -0.8498 -0.4831
 1198SOL    HW215057   1.055   3.627   6.405 -0.9631  0.4926  0.3853
 1199SOL     OW15058   3.323   1.362   1.127  0.0662  0.1643  0.3035
 1199SOL    HW115059   3.343   1.312   1.048  2.9403  0.7733  0.6301
 1199SOL    HW215060   3.392   1.322   1.179  0.2168  1.1123  0.8434
 1200SOL     OW15061   2.153   3.029   6.173 -0.3811 -0.1717 -0.0587
 1200SOL    HW115062   2.190   3.117   6.174 -0.0474 -0.3176  0.9221
 1200SOL    HW215063   2.164   3.020   6.268  1.4441  0.9595 -0.1536
 1201SOL     OW15064   2.002   0.960   8.584  0.3503 -0.2425 -0.4203
 1201SOL    HW115065   2.048   1.025   8.636 -0.4721 -2.4060  2.9956
 1201SOL    HW215066   1.923   1.007   8.556 -0.7041 -2.0545 -0.5186
 1202SOL     OW15067   1.989   3.946   6.940 -0.2882  0.5522  0.3653
 1202SOL    HW115068   1.927   3.874   6.937 -0.6729  0.8178  1.7648
 1202SOL    HW215069   2.018   3.946   7.032  0.4681 -1.7780  0.1308
 1203SOL     OW15070   4.457   1.505   7.472 -0.1673  0.0815 -0.3546
 1203SOL    HW115071   4.489   1.434   7.528  2.3025  2.6526  1.5344
 1203SOL    HW215072   4.384   1.534   7.526 -0.4002  1.7201 -1.5435
 1204SOL     OW15073   3.900   0.270   2.885 -0.1712 -0.5749  0.0108
 1204SOL    HW115074   3.907   0.343   2.823 -0.0454 -1.3109 -0.8292
 1204SOL    HW215075   3.866   0.200   2.830  0.5500  0.0556 -1.2383
 1205SOL     OW15076   3.366   1.972   2.865 -0.3911 -0.2409  0.1406
 1205SOL    HW115077   3.359   1.887   2.822  1.4015  0.1556 -0.9444
 1205SOL    HW215078   3.369   2.027   2.787 -0.3697 -0.9087 -0.3238
 1206SOL     OW15079   2.072   0.360   4.137 -0.4325  0.4592 -0.0761
 1206SOL    HW115080   2.077   0.442   4.186 -2.4340 -1.2485  2.9231
 1206SOL    HW215081   2.019   0.389   4.062 -0.1855  2.2845  0.4563
 1207SOL     OW15082   1.025   1.061   7.482  0.4437  0.2253  0.0009
 1207SOL    HW115083   1.074   1.078   7.562 -1.3710 -0.6732  1.3046
 1207SOL    HW215084   1.052   0.970   7.474  0.6966  0.5031 -2.2531
 1208SOL     OW15085   3.537   0.024   0.712  0.0090  0.3254 -0.6593
 1208SOL    HW115086   3.512   4.656   0.714  0.6600  0.1639  0.0223
 1208SOL    HW215087   3.455   0.058   0.749 -0.0269 -0.8161  0.3222
 1209SOL     OW15088   2.620   3.655  16.492 -0.0841  0.5163  0.5962
 1209SOL    HW115089   2.629   3.562  16.475 -1.5754  0.0098  2.6131
 1209SOL    HW215090   2.527   3.669  16.473 -0.2162  1.7426  2.1875
 1210SOL     OW15091   2.386   3.321  12.487  0.0210  0.1948 -0.2103
 1210SOL    HW115092   2.359   3.296  12.399  0.6873  0.2838 -0.4433
 1210SOL    HW215093   2.478   3.338  12.465  0.6251 -1.1732  1.2572
 1211SOL     OW15094   0.752   3.258   1.882  0.5242  0.2882 -0.0985
 1211SOL    HW115095   0.668   3.226   1.848  0.2112  0.5193  0.4535
 1211SOL    HW215096   0.715   3.308   1.955 -1.6007  1.5346 -1.9849
 1212SOL     OW15097   1.574   2.002   5.653  0.0559  0.0532  0.5563
 1212SOL    HW115098   1.666   1.978   5.644  0.8436  2.9785  0.7369
 1212SOL    HW215099   1.588   2.088   5.693  1.3422  0.2190 -0.2371
 1213SOL     OW15100   4.113   1.790   3.661  0.8817 -0.1207 -0.1718
 1213SOL    HW115101   4.095   1.875   3.702  1.8972  0.1564 -0.2949
 1213SOL    HW215102   4.205   1.779   3.686  1.2138  0.7051 -1.0449
 1214SOL     OW15103   0.542   0.486   9.733 -0.1769  0.2742  0.5124
 1214SOL    HW115104   0.450   0.474   9.708  0.3206 -1.3103 -0.5795
 1214SOL    HW215105   0.585   0.414   9.687 -2.2360 -1.1828  0.8707
 1215SOL     OW15106   2.727   1.408   3.995 -0.4451  0.2087 -0.3351
 1215SOL    HW115107   2.776   1.337   3.954  0.7145 -0.4085  2.0900
 1215SOL    HW215108   2.801   1.446   4.042 -1.0402 -1.9816  2.3752
 1216SOL     OW15109   3.977   1.319   0.147 -0.4137 -0.1219  0.5819
 1216SOL    HW115110   4.014   1.365   0.072  0.0184  1.5280  1.8172
 1216SOL    HW215111   3.943   1.246   0.095 -1.7653  2.0205 -1.5281
 1217SOL     OW15112   0.669   3.285   8.259  0.6168  0.4341 -0.1916
 1217SOL    HW115113   0.714   3.359   8.299 -1.7368  1.3383  0.8124
 1217SOL    HW215114   0.610   3.255   8.328 -0.0751  3.4244  0.5338
 1218SOL     OW15115   1.191   2.389   6.967 -0.4991 -0.0583  0.2326
 1218SOL    HW115116   1.169   2.469   6.920  3.2165  1.4627  1.1057
 1218SOL    HW215117   1.117   2.382   7.028 -0.2539 -0.3318  0.4983
 1219SOL     OW15118   1.874   3.578   4.849 -0.1447  0.1574 -0.5093
 1219SOL    HW115119   1.902   3.530   4.927 -0.7821 -0.7359 -0.8248
 1219SOL    HW215120   1.837   3.660   4.881 -2.5621 -1.2051  0.2684
 1220SOL     OW15121   2.644   1.165   0.160  0.3553  0.1721  0.3204
 1220SOL    HW115122   2.652   1.175   0.065  0.1774  1.4401  0.4395
 1220SOL    HW215123   2.637   1.072   0.179 -0.4710  0.2013  0.1625
 1221SOL     OW15124   1.155   1.262   4.858 -0.0161  0.3489  0.3478
 1221SOL    HW115125   1.075   1.262   4.912 -1.1421 -0.9353 -1.3190
 1221SOL    HW215126   1.108   1.275   4.776  0.3921 -3.7946 -0.5471
 1222SOL     OW15127   3.929   4.403  17.061  0.1324  0.6166 -0.1185
 1222SOL    HW115128   3.975   4.384  17.143 -1.6744 -3.5152 -0.0737
 1222SOL    HW215129   3.953   4.323  17.013  2.2374  0.4056  1.2790
 1223SOL     OW15130   0.040   1.480   0.624  0.1462 -0.2628  0.6209
 1223SOL    HW115131   0.124   1.436   0.635  0.9499  0.9143 -0.7218
 1223SOL    HW215132   0.070   1.568   0.601  2.0630 -1.0352  0.1820
 1224SOL     OW15133   2.156   0.114   4.516 -0.4433  0.2577  0.3833
 1224SOL    HW115134   2.198   0.088   4.434 -0.3902 -1.4908  0.9629
 1224SOL    HW215135   2.196   0.061   4.586  0.7361  1.2966  0.4780
 1225SOL     OW15136   4.456   0.417   6.006  0.0972  0.4248  0.7537
 1225SOL    HW115137   4.388   0.409   6.073  0.7781 -0.0850  1.3797
 1225SOL    HW215138   4.516   0.478   6.047 -1.8340 -0.8842  5.5021
 1226SOL     OW15139   0.689   2.523   2.090 -0.2262  0.1741 -0.7956
 1226SOL    HW115140   0.611   2.505   2.142  0.4629 -0.4506  0.0327
 1226SOL    HW215141   0.689   2.452   2.026  1.1839 -1.0418  0.5235
 1227SOL     OW15142   1.813   4.659   5.240 -0.3294 -0.5842 -0.1065
 1227SOL    HW115143   1.855   4.641   5.155  2.5665  3.3210  0.5013
 1227SOL    HW215144   1.813   4.567   5.264  1.3703 -0.9727 -1.5979
 1228SOL     OW15145   0.860   4.023   5.274  0.5707  0.4526 -0.2178
 1228SOL    HW115146   0.813   4.003   5.192 -1.8727  0.2140  1.2393
 1228SOL    HW215147   0.866   3.935   5.311  1.6279  0.5071 -0.2537
 1229SOL     OW15148   1.996   4.242  13.515  0.0954 -0.6275 -0.3194
 1229SOL    HW115149   2.002   4.189  13.594 -2.8838  0.2478  0.4888
 1229SOL    HW215150   2.071   4.204  13.468  1.5935 -1.0575  2.4285
 1230SOL     OW15151   4.580   1.814   2.589  0.1564 -0.2766 -0.2959
 1230SOL    HW115152   4.597   1.729   2.548  1.6481 -0.6219  1.0363
 1230SOL    HW215153   4.485   1.827   2.593  0.2713  0.8628 -1.2730
 1231SOL     OW15154   1.453   3.340  17.247  0.6401  0.2727  0.1928
 1231SOL    HW115155   1.538   3.382  17.256  1.5036 -1.2489 -0.8138
 1231SOL    HW215156   1.438   3.356  17.153 -1.3223 -0.9587  0.3043
 1232SOL     OW15157   3.897   0.663   0.657 -0.0408  0.6300  0.1645
 1232SOL    HW115158   3.931   0.632   0.572 -0.4517 -2.0430  0.9775
 1232SOL    HW215159   3.822   0.712   0.623  1.0434  1.3487 -1.2161
 1233SOL     OW15160   2.096   0.595  17.335 -0.2254  0.2111  0.4308
 1233SOL    HW115161   2.035   0.660  17.302 -0.6788 -0.9666 -1.0558
 1233SOL    HW215162   2.127   0.541  17.262 -1.0504 -0.6672  0.7324
 1234SOL     OW15163   3.538   1.544   8.655  0.5247 -0.5273 -0.1734
 1234SOL    HW115164   3.493   1.511   8.578  0.1898  0.1885 -0.2829
 1234SOL    HW215165   3.625   1.507   8.641  1.5268  1.6937  0.0179
 1235SOL     OW15166   0.061   1.202  14.319 -0.7664  0.0222  0.4948
 1235SOL    HW115167   0.086   1.114  14.346 -0.2452 -0.4243 -1.4008
 1235SOL    HW215168   4.710   1.179  14.264 -0.4247 -0.7048  0.3355
 1236SOL     OW15169   2.126   4.555  11.717 -0.3545 -0.2332 -0.3898
 1236SOL    HW115170   2.049   4.602  11.750  0.9204  0.4740  1.5484
 1236SOL    HW215171   2.166   4.632  11.676 -0.9932 -0.5802 -1.6801
 1237SOL     OW15172   1.538   1.199   8.070  0.0653  0.8931  0.0988
 1237SOL    HW115173   1.485   1.167   8.143 -1.9777  1.9815 -0.8809
 1237SOL    HW215174   1.492   1.283   8.059  1.1269  1.5125  0.4133
 1238SOL     OW15175   0.045   1.462   2.644 -0.5992  0.4115  0.1476
 1238SOL    HW115176   0.014   1.377   2.674 -1.3385  1.5433  2.6103
 1238SOL    HW215177   0.124   1.474   2.696  1.0757 -2.6244 -1.7127
 1239SOL     OW15178   4.399   1.102   8.276  0.3961  0.3638 -0.6353
 1239SOL    HW115179   4.383   1.009   8.256 -2.1596  0.8559 -0.8327
 1239SOL    HW215180   4.340   1.147   8.216 -1.5606 -2.0650 -0.5524
 1240SOL     OW15181   4.608   1.664   3.215 -0.0300 -0.6648  0.1112
 1240SOL    HW115182   4.638   1.586   3.261  2.6954  0.3002  0.0125
 1240SOL    HW215183   4.590   1.629   3.128 -2.5032  0.2123  0.2799
 1241SOL     OW15184   4.651   1.854   5.965  0.5154 -0.4160 -0.4942
 1241SOL    HW115185   4.723   1.793   5.978 -1.2967 -2.6806 -1.0731
 1241SOL    HW215186   4.583   1.807   6.013  1.6196 -2.1590 -0.6621
 1242SOL     OW15187   3.111   2.292   5.028 -0.3548  0.1496  0.0615
 1242SOL    HW115188   3.088   2.201   5.048  1.3208 -0.3687 -0.3173
 1242SOL    HW215189   3.206   2.286   5.020 -0.7125 -2.3473 -2.4666
 1243SOL     OW15190   2.839   2.246  15.441 -0.2362  0.2282  0.1129
 1243SOL    HW115191   2.818   2.173  15.499  2.2613  0.7887  1.7504
 1243SOL    HW215192   2.813   2.314  15.503 -1.6708 -0.7807  0.6026
 1244SOL     OW15193   3.566   4.447  12.493 -0.3359 -0.2189  0.2289
 1244SOL    HW115194   3.506   4.378  12.466  0.2796  0.2362 -2.2656
 1244SOL    HW215195   3.536   4.475  12.580  2.9256  1.7279  0.7395
 1245SOL     OW15196   0.102   1.317  17.358 -0.1312 -0.0481  0.1265
 1245SOL    HW115197   0.111   1.301  17.265 -1.4889  4.0448 -0.7283
 1245SOL    HW215198   0.162   1.252  17.394  2.5780  0.8607 -2.7939
 1246SOL     OW15199   0.100   0.408  14.292 -0.1152  0.2981  0.0928
 1246SOL    HW115200   0.052   0.468  14.235  0.5877  0.8592  0.0908
 1246SOL    HW215201   0.183   0.455  14.287 -0.7727  1.4575  0.1882
 1247SOL     OW15202   2.361   1.302   7.715  0.0087 -0.6767  0.3379
 1247SOL    HW115203   2.270   1.306   7.687  0.5112  0.1201 -1.1899
 1247SOL    HW215204   2.382   1.229   7.657 -0.0185 -0.6864  0.3401
 1248SOL     OW15205   0.403   0.268   5.051 -0.1054 -0.5342  0.5359
 1248SOL    HW115206   0.385   0.338   5.113  1.1321  0.3485 -0.1030
 1248SOL    HW215207   0.488   0.236   5.083  1.3629  2.8660 -0.0152
 1249SOL     OW15208   2.104   3.656   9.350  0.0851 -0.3492  0.2005
 1249SOL    HW115209   2.182   3.699   9.316  0.4969 -1.5811 -0.3858
 1249SOL    HW215210   2.036   3.703   9.301 -1.5114 -0.0212  2.6836
 1250SOL     OW15211   2.668   4.081  14.309 -0.1873  0.6573  0.0813
 1250SOL    HW115212   2.701   4.125  14.387  0.3923  0.5754 -0.1196
 1250SOL    HW215213   2.652   4.164  14.264 -3.8665  0.1287  0.3762
 1251SOL     OW15214   1.339   3.517   8.118 -0.1383  0.3333  0.1602
 1251SOL    HW115215   1.382   3.433   8.103  0.7236  1.5120 -4.0650
 1251SOL    HW215216   1.414   3.572   8.141  1.6455 -2.2499  0.5569
 1252SOL     OW15217   2.702   2.964  10.414  0.4677  0.2365  0.1563
 1252SOL    HW115218   2.619   2.934  10.452  0.3712  2.1843  1.4578
 1252SOL    HW215219   2.703   2.922  10.328 -0.2010 -0.8658  0.6747
 1253SOL     OW15220   1.218   4.359   0.652  0.1908 -0.0135 -0.3054
 1253SOL    HW115221   1.285   4.313   0.602  0.2237 -0.3006  0.0014
 1253SOL    HW215222   1.165   4.372   0.573  0.4055  0.3393 -0.3913
 1254SOL     OW15223   2.073   4.451  10.312  0.0791 -0.5740 -0.1460
 1254SOL    HW115224   1.996   4.402  10.281 -0.3258 -0.8820  1.3360
 1254SOL    HW215225   2.037   4.538  10.328  2.8861  0.4860  0.2464
 1255SOL     OW15226   3.983   2.812  13.375  0.6718 -1.1930 -0.2792
 1255SOL    HW115227   4.003   2.822  13.282 -1.3659 -0.3038 -0.6139
 1255SOL    HW215228   4.033   2.886  13.409 -0.6737  0.3610 -1.7575
 1256SOL     OW15229   2.959   1.023   8.019 -0.0662  0.3430  0.9878
 1256SOL    HW115230   2.975   0.937   7.979 -0.4707  0.8093 -0.1621
 1256SOL    HW215231   2.883   1.054   7.971  1.1833  1.9290  0.0236
 1257SOL     OW15232   2.515   2.038   9.997 -0.1562 -0.2016  0.3453
 1257SOL    HW115233   2.433   2.008  10.036 -0.3454 -0.0905  0.0327
 1257SOL    HW215234   2.499   2.025   9.904  2.3657  0.2336 -0.1470
 1258SOL     OW15235   1.744   3.828  13.547 -0.2212 -0.2668  0.1692
 1258SOL    HW115236   1.743   3.883  13.469  2.1079  0.0356  0.3615
 1258SOL    HW215237   1.817   3.769  13.529  0.5060  0.3712  1.0645
 1259SOL     OW15238   2.650   1.795   7.791  0.3783 -0.2869 -0.1913
 1259SOL    HW115239   2.645   1.835   7.878  1.4276 -2.3490  0.8156
 1259SOL    HW215240   2.584   1.728   7.805  1.1556 -0.7246  1.4209
 1260SOL     OW15241   2.223   2.449   1.222 -0.1030 -0.0722 -0.1768
 1260SOL    HW115242   2.265   2.377   1.176  0.1965 -0.4277  0.6668
 1260SOL    HW215243   2.234   2.420   1.312  1.8989  1.9858  0.2427
 1261SOL     OW15244   1.533   3.144  10.548  0.0463  0.2690  0.5860
 1261SOL    HW115245   1.515   3.222  10.601  1.4181  1.4318 -0.6680
 1261SOL    HW215246   1.452   3.139  10.498  1.2277 -0.8878 -1.2140
 1262SOL     OW15247   2.575   0.775  15.781  0.2012 -0.3986  0.8462
 1262SOL    HW115248   2.568   0.856  15.832 -2.1391  1.4469 -2.3872
 1262SOL    HW215249   2.624   0.813  15.707  1.2080  1.1265  2.2938
 1263SOL     OW15250   4.120   3.914   5.873  0.0309  0.1012  0.1590
 1263SOL    HW115251   4.087   4.003   5.868 -0.2080  0.0678  1.1669
 1263SOL    HW215252   4.049   3.858   5.903  0.5997 -0.8474 -0.2405
 1264SOL     OW15253   2.442   0.929  16.575  0.5422  0.0325 -0.3943
 1264SOL    HW115254   2.396   0.849  16.598 -0.6626  0.7103 -0.4355
 1264SOL    HW215255   2.413   0.947  16.485 -2.7990  1.1845  0.8977
 1265SOL     OW15256   1.635   4.562   1.540 -0.3296  0.2631  0.2715
 1265SOL    HW115257   1.637   4.513   1.622 -2.1662 -1.7643 -0.8920
 1265SOL    HW215258   1.596   4.497   1.481 -2.7007  1.4083  0.5514
 1266SOL     OW15259   0.414   0.977  12.696  0.3267 -0.3417  0.6016
 1266SOL    HW115260   0.473   0.978  12.621 -2.6112 -2.9894 -1.7501
 1266SOL    HW215261   0.410   1.071  12.713 -4.4523 -0.4165 -0.0310
 1267SOL     OW15262   2.737   4.138   4.568 -0.0940 -0.0821 -0.3151
 1267SOL    HW115263   2.674   4.180   4.628 -0.7520  1.0951 -1.8426
 1267SOL    HW215264   2.747   4.060   4.622 -3.5693  0.4425  1.0888
 1268SOL     OW15265   3.209   4.383   4.061  0.1611  0.0828  0.4485
 1268SOL    HW115266   3.139   4.318   4.048  0.0423  0.5232 -1.1289
 1268SOL    HW215267   3.232   4.374   4.154 -0.2003 -1.1832  0.4199
 1269SOL     OW15268   0.254   1.760   6.963 -0.3468  0.2114  0.0815
 1269SOL    HW115269   0.211   1.839   6.997  0.0572  0.2204  0.5805
 1269SOL    HW215270   0.329   1.762   7.023 -0.5975 -1.3267  0.4299
 1270SOL     OW15271   1.261   3.637  10.446  0.3122 -0.2366  0.0187
 1270SOL    HW115272   1.299   3.719  10.476  1.2857 -0.8263  0.3721
 1270SOL    HW215273   1.333   3.593  10.401  0.2829 -0.6414  0.3675
 1271SOL     OW15274   2.982   1.970   3.018 -0.1228  0.2000  0.1963
 1271SOL    HW115275   3.004   1.925   2.937  1.8148 -0.1734  0.9208
 1271SOL    HW215276   3.070   1.991   3.049 -0.2262  1.2506 -0.2425
 1272SOL     OW15277   4.011   1.513  14.006 -0.8451 -0.0939  0.5465
 1272SOL    HW115278   4.091   1.466  14.029 -1.0840 -1.1852 -0.8945
 1272SOL    HW215279   3.944   1.445  14.009  0.4163 -1.2462  2.6324
 1273SOL     OW15280   3.121   0.834  16.169 -0.3742 -0.1069 -0.9113
 1273SOL    HW115281   3.169   0.807  16.248 -0.2350 -1.2375 -1.3894
 1273SOL    HW215282   3.099   0.926  16.184 -1.3431 -0.5123  0.2073
 1274SOL     OW15283   3.040   1.781   3.446  0.5004 -0.5420  0.3327
 1274SOL    HW115284   3.116   1.769   3.389 -1.3577 -0.7637 -2.1500
 1274SOL    HW215285   3.028   1.697   3.490 -1.2285  0.3215  1.5141
 1275SOL     OW15286   1.192   3.293   6.794 -0.2091 -0.1027  0.4109
 1275SOL    HW115287   1.217   3.344   6.872  2.1268  1.0349 -1.0851
 1275SOL    HW215288   1.097   3.306   6.796 -0.2408 -0.2224 -0.7095
 1276SOL     OW15289   3.740   3.654   8.094 -0.2563 -0.4049 -0.5398
 1276SOL    HW115290   3.699   3.674   8.010 -0.6369  1.6511  0.1275
 1276SOL    HW215291   3.675   3.595   8.132 -1.2839  0.9282 -0.2214
 1277SOL     OW15292   3.891   4.476  13.345  0.4000  0.6606 -0.1849
 1277SOL    HW115293   3.798   4.463  13.360  0.3551  1.0082 -0.1608
 1277SOL    HW215294   3.910   4.401  13.288 -1.5816  1.5625 -2.0177
 1278SOL     OW15295   3.456   1.000   0.010 -1.2737  0.4442  0.0929
 1278SOL    HW115296   3.396   1.032   0.077 -2.2568 -1.8932  0.3337
 1278SOL    HW215297   3.432   1.051  17.631 -1.0462  1.6975  0.8498
 1279SOL     OW15298   1.755   0.519   7.375 -0.7688  0.3498  0.3004
 1279SOL    HW115299   1.663   0.541   7.386 -0.9247  0.3881 -1.0642
 1279SOL    HW215300   1.769   0.489   7.465 -0.8904  0.7985  0.4668
 1280SOL     OW15301   2.811   2.018   6.095  0.0963  0.4769  0.0458
 1280SOL    HW115302   2.758   1.942   6.070 -0.2327  1.4521 -2.1815
 1280SOL    HW215303   2.897   1.977   6.109  0.3814  0.3415 -2.0266
 1281SOL     OW15304   0.528   0.291   8.459  0.4591 -0.6698 -0.0855
 1281SOL    HW115305   0.558   0.200   8.459 -0.1462 -0.8596 -2.0887
 1281SOL    HW215306   0.544   0.314   8.551  0.7682 -0.1443 -0.2784
 1282SOL     OW15307   1.229   1.688   2.223  0.0798 -0.0281  0.2311
 1282SOL    HW115308   1.319   1.705   2.252 -0.2338  1.9036  0.0591
 1282SOL    HW215309   1.192   1.776   2.229  3.0181  1.4531 -3.4390
 1283SOL     OW15310   1.623   1.698  13.727 -0.2363  0.2833 -0.1363
 1283SOL    HW115311   1.691   1.704  13.793 -0.1329 -1.4318 -0.0913
 1283SOL    HW215312   1.672   1.742  13.657  1.3944 -0.6917  0.3804
 1284SOL     OW15313   3.576   1.652   4.210  0.3637 -0.0518  0.3191
 1284SOL    HW115314   3.591   1.563   4.178 -3.0173  0.3436 -2.3705
 1284SOL    HW215315   3.568   1.692   4.124  1.7864  0.4676  0.4356
 1285SOL     OW15316   1.685   0.147   4.941 -0.3644 -0.1068  0.4578
 1285SOL    HW115317   1.664   0.062   4.901 -1.1650  0.0626  0.5225
 1285SOL    HW215318   1.702   0.203   4.865  0.6963 -2.6060 -1.1666
 1286SOL     OW15319   2.668   3.810   4.028 -0.8029  0.1764 -0.5311
 1286SOL    HW115320   2.591   3.771   4.069  1.4656 -1.4237  2.1598
 1286SOL    HW215321   2.629   3.889   3.990  3.9016  2.0258 -1.5300
 1287SOL     OW15322   3.684   3.192   7.535  0.2267  0.3279  0.0121
 1287SOL    HW115323   3.692   3.201   7.630  0.2792 -2.7571  0.2744
 1287SOL    HW215324   3.666   3.099   7.525  0.5205  0.4219 -1.3540
 1288SOL     OW15325   1.075   4.254   2.517 -0.1514  0.0211  0.2150
 1288SOL    HW115326   1.076   4.337   2.470  2.1764  0.6514  1.3636
 1288SOL    HW215327   1.134   4.212   2.454 -0.9607  0.6958 -0.9904
 1289SOL     OW15328   3.585   0.147   6.628 -0.0593 -0.2802  0.1811
 1289SOL    HW115329   3.609   0.236   6.602  1.4192 -1.4802 -2.5369
 1289SOL    HW215330   3.662   0.098   6.599  0.1270  0.0972  0.0401
 1290SOL     OW15331   1.376   0.419   4.265  0.1851  0.6883 -0.4411
 1290SOL    HW115332   1.396   0.328   4.242  3.2675  1.1128  0.5105
 1290SOL    HW215333   1.292   0.403   4.307  1.3339 -0.0647  1.5961
 1291SOL     OW15334   0.975   2.301   1.933 -0.3422 -0.2255  0.0990
 1291SOL    HW115335   0.980   2.209   1.906  0.4793 -0.0422 -0.3810
 1291SOL    HW215336   1.060   2.312   1.975  0.1314 -0.7339 -0.7157
 1292SOL     OW15337   3.542   3.723  14.170  0.1529 -0.1764  0.1991
 1292SOL    HW115338   3.575   3.633  14.159  1.7113  0.0068  3.3711
 1292SOL    HW215339   3.579   3.751  14.087  3.0946  0.3173  1.6516
 1293SOL     OW15340   3.828   1.223   0.635 -0.2235 -0.0989  0.3257
 1293SOL    HW115341   3.915   1.257   0.653  0.6460 -1.4126 -1.3872
 1293SOL    HW215342   3.825   1.250   0.544  2.8314  0.9304  0.5479
 1294SOL     OW15343   0.066   3.167   5.177  0.4938  0.0936 -0.0769
 1294SOL    HW115344   4.709   3.203   5.212 -0.4168 -1.9128 -0.1433
 1294SOL    HW215345   0.102   3.241   5.127  1.0260 -2.3715 -3.3583
 1295SOL     OW15346   3.093   3.402  13.587 -0.2498 -0.2995 -0.4037
 1295SOL    HW115347   3.076   3.309  13.574  0.1078 -0.5260  0.7143
 1295SOL    HW215348   3.013   3.420  13.636  1.3880  2.3010  1.3497
 1296SOL     OW15349   3.698   0.874  17.062 -0.2198  0.0889 -0.2284
 1296SOL    HW115350   3.669   0.893  16.973 -0.4681  0.6081 -0.0309
 1296SOL    HW215351   3.623   0.842  17.112  0.2103  0.8374  0.8849
 1297SOL     OW15352   3.444   4.676   3.264 -0.0294  0.7280 -0.2994
 1297SOL    HW115353   3.525   4.679   3.315 -0.0777  0.4019 -0.2043
 1297SOL    HW215354   3.395   4.612   3.315  0.2972  0.7198 -0.0012
 1298SOL     OW15355   4.320   3.854  10.962 -0.0121  0.3620 -0.0107
 1298SOL    HW115356   4.335   3.942  10.996  0.7585 -0.0873  0.8107
 1298SOL    HW215357   4.239   3.863  10.913  0.6912 -0.4480 -1.3160
 1299SOL     OW15358   3.602   0.624   0.169  0.4417  0.0605 -0.0389
 1299SOL    HW115359   3.561   0.645   0.253 -0.7449 -1.3122 -0.2774
 1299SOL    HW215360   3.694   0.643   0.185  0.7477 -0.2605 -1.4716
 1300SOL     OW15361   3.241   3.017   6.429 -0.1755  0.2949  0.4505
 1300SOL    HW115362   3.197   3.089   6.384 -1.1801  0.4805  1.7369
 1300SOL    HW215363   3.181   2.948   6.403  0.6134 -1.2107  2.5764
 1301SOL     OW15364   1.635   2.951  12.908  0.3211 -0.5080  0.6318
 1301SOL    HW115365   1.689   3.024  12.877  0.5493 -1.7327 -1.8948
 1301SOL    HW215366   1.661   2.950  13.000 -1.0954  1.2112  1.0256
 1302SOL     OW15367   4.281   2.058   9.983 -0.0103 -0.0572  0.5207
 1302SOL    HW115368   4.262   2.001   9.909 -2.4109 -0.3849  1.3750
 1302SOL    HW215369   4.255   2.140   9.941 -0.0466 -0.6397 -0.5891
 1303SOL     OW15370   3.617   2.553   7.781 -0.0746  0.5339  0.5429
 1303SOL    HW115371   3.563   2.564   7.703 -1.1621 -0.0686  1.2139
 1303SOL    HW215372   3.703   2.541   7.740  0.4511 -1.6359  2.2837
 1304SOL     OW15373   2.992   2.762   7.807  0.3236  0.0028  0.0796
 1304SOL    HW115374   2.903   2.768   7.774  0.2230 -1.7423  0.0105
 1304SOL    HW215375   3.034   2.824   7.748 -0.8365 -0.1662 -0.9193
 1305SOL     OW15376   1.635   3.482  10.895  0.0887 -0.4207  0.1326
 1305SOL    HW115377   1.709   3.454  10.949  0.7015 -0.0446 -0.5085
 1305SOL    HW215378   1.664   3.430  10.820  1.2410  1.4596 -0.7312
 1306SOL     OW15379   0.213   2.737   9.838  0.6090 -0.7142  0.3995
 1306SOL    HW115380   0.264   2.816   9.821  0.9589 -1.3100 -1.2848
 1306SOL    HW215381   0.173   2.759   9.923 -1.8218  0.9270 -1.1548
 1307SOL     OW15382   4.112   3.346  15.387 -0.2887 -0.2560 -0.2056
 1307SOL    HW115383   4.130   3.252  15.390 -1.8373 -0.5595 -0.0912
 1307SOL    HW215384   4.105   3.363  15.293  1.0853  2.3036  0.1644
 1308SOL     OW15385   1.850   4.496   7.712 -0.1406  0.1476  0.0824
 1308SOL    HW115386   1.785   4.505   7.781  0.3144  1.2114  0.3717
 1308SOL    HW215387   1.800   4.438   7.654  0.4017 -0.2562  0.0155
 1309SOL     OW15388   2.688   0.165   0.286 -0.4498 -0.5441  0.1312
 1309SOL    HW115389   2.619   0.179   0.222  0.9709  0.3258 -1.2281
 1309SOL    HW215390   2.767   0.166   0.232  0.0098 -0.2912  0.7980
 1310SOL     OW15391   2.729   3.279  11.519 -0.3922  0.8696  0.3075
 1310SOL    HW115392   2.649   3.328  11.539 -1.0757 -0.8422  1.7585
 1310SOL    HW215393   2.787   3.355  11.510 -1.2356  1.7974  2.7283
 1311SOL     OW15394   1.818   2.693   7.461  0.1565  0.0763 -0.8989
 1311SOL    HW115395   1.779   2.614   7.499  0.2688 -0.1021 -1.1572
 1311SOL    HW215396   1.856   2.650   7.384 -4.0679 -1.0607 -2.3594
 1312SOL     OW15397   2.531   3.957   1.233  0.0982 -0.0784  0.0796
 1312SOL    HW115398   2.480   3.958   1.152 -0.0845 -0.3226  0.1931
 1312SOL    HW215399   2.462   3.933   1.294 -0.6760 -1.8034 -1.4608
 1313SOL     OW15400   0.480   3.994   5.122 -0.1708  0.0813 -0.3307
 1313SOL    HW115401   0.570   3.963   5.110  0.0443  0.6250 -0.0855
 1313SOL    HW215402   0.504   4.087   5.116  3.6021 -0.7122  2.2452
 1314SOL     OW15403   0.758   4.086  17.463  0.1241  0.2202 -0.0380
 1314SOL    HW115404   0.852   4.089  17.448  0.6443 -0.8904  3.0319
 1314SOL    HW215405   0.733   4.138  17.386  1.1742  1.0881  0.2049
 1315SOL     OW15406   4.133   0.323   0.318  0.0142 -0.1351 -0.0635
 1315SOL    HW115407   4.222   0.288   0.325  0.1719 -0.1502 -2.0789
 1315SOL    HW215408   4.104   0.307   0.228  0.3454  1.0797 -0.3866
 1316SOL     OW15409   2.833   0.477   3.407 -0.2344  0.1322  0.2447
 1316SOL    HW115410   2.792   0.537   3.345  2.8397  0.5635 -1.4117
 1316SOL    HW215411   2.771   0.404   3.409  1.3947 -1.2422  1.2112
 1317SOL     OW15412   0.710   4.250   9.596  0.3370  0.1112  0.6115
 1317SOL    HW115413   0.701   4.289   9.509  1.0856 -2.2965 -0.5329
 1317SOL    HW215414   0.763   4.320   9.635  1.3515 -1.2572  1.6824
 1318SOL     OW15415   2.780   3.267  15.038 -0.4372 -0.2733 -0.2623
 1318SOL    HW115416   2.711   3.326  15.070  1.5856  0.5066  2.6793
 1318SOL    HW215417   2.729   3.190  15.016  0.1141 -0.3824 -1.1716
 1319SOL     OW15418   4.135   0.176  13.021 -0.1060  0.3056 -0.1916
 1319SOL    HW115419   4.078   0.178  13.098 -1.5088  0.8955 -1.2621
 1319SOL    HW215420   4.103   0.252  12.974 -0.9786  1.2532  1.9364
 1320SOL     OW15421   2.180   3.785  11.012  0.0715  0.7612  0.5771
 1320SOL    HW115422   2.178   3.868  11.059 -0.6948  1.4090 -0.6077
 1320SOL    HW215423   2.266   3.786  10.970  1.3792 -0.4924  3.2161
 1321SOL     OW15424   3.875   4.644   3.977  0.1542  0.2902  0.3314
 1321SOL    HW115425   3.873   4.602   3.891 -0.0959  2.7687 -0.8637
 1321SOL    HW215426   3.797   4.604   4.015 -1.5754 -0.0369 -3.5569
 1322SOL     OW15427   1.368   0.479   7.833 -0.5538 -0.2941  0.2734
 1322SOL    HW115428   1.427   0.408   7.859 -0.3500 -0.6141 -1.0609
 1322SOL    HW215429   1.283   0.445   7.862 -0.5253  0.9167  1.7310
 1323SOL     OW15430   4.616   2.461  16.000 -0.1620  0.0864  0.6248
 1323SOL    HW115431   4.638   2.414  16.081  0.3111  1.2366  1.1562
 1323SOL    HW215432   4.688   2.439  15.940 -1.1861 -1.6310  0.0088
 1324SOL     OW15433   3.841   3.684   1.228 -0.0970 -0.2967 -0.2863
 1324SOL    HW115434   3.803   3.597   1.223  0.3205 -0.5760  1.4119
 1324SOL    HW215435   3.933   3.672   1.253  0.1782 -0.2232 -1.2650
 1325SOL     OW15436   0.201   3.256   0.049 -0.9487  0.3089  0.2624
 1325SOL    HW115437   0.218   3.305  17.666 -0.8841  1.6343  1.0777
 1325SOL    HW215438   0.279   3.282   0.097 -0.1009  1.5845 -1.8100
 1326SOL     OW15439   0.295   2.620   8.705 -0.0074  0.4685  0.2503
 1326SOL    HW115440   0.388   2.642   8.708 -0.0553  0.4301  1.6564
 1326SOL    HW215441   0.263   2.683   8.768  0.5216 -1.3882  2.3778
 1327SOL     OW15442   3.932   3.067   3.626  0.2612  0.5603 -0.1556
 1327SOL    HW115443   3.926   3.071   3.722  2.2621  0.0567 -0.0048
 1327SOL    HW215444   4.008   3.009   3.618 -0.0895  0.1440 -0.4785
 1328SOL     OW15445   0.820   2.794   1.067  0.4167  0.2357 -0.2737
 1328SOL    HW115446   0.818   2.886   1.040  0.4381  0.7365  1.3629
 1328SOL    HW215447   0.914   2.777   1.069  0.4124  0.2921  0.5524
 1329SOL     OW15448   2.144   0.971   7.245  0.3098  0.4023 -0.5200
 1329SOL    HW115449   2.095   0.992   7.165  1.3117  0.4643 -1.1205
 1329SOL    HW215450   2.093   1.034   7.297 -2.1451  0.6515 -3.1726
 1330SOL     OW15451   2.036   0.902   3.889 -0.1090 -0.6972  0.0208
 1330SOL    HW115452   1.996   0.890   3.975  2.0536 -0.7042  1.0315
 1330SOL    HW215453   2.005   0.827   3.838  0.2397  1.0819 -2.7800
 1331SOL     OW15454   1.801   3.354   8.139  0.0059  0.2408  0.4578
 1331SOL    HW115455   1.764   3.418   8.078 -0.3384  0.0775  0.4950
 1331SOL    HW215456   1.894   3.371   8.126 -0.1693  1.4271  0.7340
 1332SOL     OW15457   1.074   1.039   4.628  0.1492  0.5606 -0.4234
 1332SOL    HW115458   1.154   0.987   4.618 -0.1123 -0.4182  2.5045
 1332SOL    HW215459   1.040   1.013   4.714 -1.0584 -0.4014 -1.1923
 1333SOL     OW15460   3.464   2.511  13.672 -0.2319 -0.4151  0.5180
 1333SOL    HW115461   3.482   2.590  13.621 -0.5569 -0.6774 -0.0096
 1333SOL    HW215462   3.545   2.467  13.647 -1.0509 -0.1117 -2.7164
 1334SOL     OW15463   1.755   3.828  12.027 -0.5803 -0.3537  0.2875
 1334SOL    HW115464   1.801   3.901  11.986 -0.9157 -0.4103 -0.1812
 1334SOL    HW215465   1.715   3.866  12.105 -1.1822  1.5061 -0.9248
 1335SOL     OW15466   2.057   4.088   9.961 -0.3507  0.2051  0.5214
 1335SOL    HW115467   2.034   4.166   9.911 -2.0440 -1.6932 -1.6505
 1335SOL    HW215468   2.096   4.034   9.892  2.5640 -0.2300  2.5287
 1336SOL     OW15469   2.421   1.513   6.676 -0.3859 -0.0803  0.3563
 1336SOL    HW115470   2.473   1.446   6.632  1.3973  1.6302 -0.1558
 1336SOL    HW215471   2.334   1.481   6.653 -1.2287  2.0482  0.6069
 1337SOL     OW15472   4.600   3.847   4.254  0.0871 -0.3244 -0.2557
 1337SOL    HW115473   4.561   3.784   4.194 -1.6348 -0.2035  0.7298
 1337SOL    HW215474   4.571   3.934   4.225  0.9769  0.4348  1.1332
 1338SOL     OW15475   2.863   1.017  16.765  0.3132  0.4053  0.0177
 1338SOL    HW115476   2.879   1.111  16.776 -1.1544  0.2547  3.3830
 1338SOL    HW215477   2.873   1.003  16.671  1.0686 -1.4899  0.3934
 1339SOL     OW15478   3.074   1.546   3.625  0.2301  0.1586 -0.6823
 1339SOL    HW115479   3.054   1.566   3.716 -0.6788 -0.1256 -0.8206
 1339SOL    HW215480   3.131   1.470   3.637 -1.0501 -1.0300 -2.1854
 1340SOL     OW15481   1.252   0.771   2.553  1.4479 -0.5540 -0.4013
 1340SOL    HW115482   1.276   0.727   2.635 -1.2230 -4.2124 -1.5883
 1340SOL    HW215483   1.238   0.706   2.483 -1.5855 -0.7114  0.3650
 1341SOL     OW15484   1.861   3.690   6.214 -0.5046  0.8821  0.4704
 1341SOL    HW115485   1.818   3.761   6.263 -0.6261  0.3146  1.1783
 1341SOL    HW215486   1.947   3.679   6.255 -0.4218 -2.0481 -0.5116
 1342SOL     OW15487   3.845   2.667   2.778 -0.2308  0.2612 -0.1873
 1342SOL    HW115488   3.846   2.687   2.871 -2.0075 -0.4198 -0.0240
 1342SOL    HW215489   3.918   2.715   2.739 -0.5337  0.3003 -0.7138
 1343SOL     OW15490   0.356   3.925  13.057 -0.4432  0.3263 -0.0775
 1343SOL    HW115491   0.438   3.926  13.106 -0.3799 -0.0472 -0.1778
 1343SOL    HW215492   0.318   3.837  13.062  1.3664 -0.3066  2.1604
 1344SOL     OW15493   2.036   1.582   3.833  0.0058  0.5616 -0.4044
 1344SOL    HW115494   2.102   1.586   3.902  0.6032  1.8933 -1.0403
 1344SOL    HW215495   2.092   1.601   3.757  0.3527 -1.2458 -0.5902
 1345SOL     OW15496   2.079   1.698  13.384 -0.1413 -0.3886 -0.5037
 1345SOL    HW115497   2.064   1.649  13.303  3.2336 -0.0122 -1.3586
 1345SOL    HW215498   2.174   1.685  13.385  0.0996  1.4466  1.7189
 1346SOL     OW15499   0.802   3.251  11.107  0.1458  0.2189  0.4068
 1346SOL    HW115500   0.730   3.227  11.166  0.6735  0.6447  1.2203
 1346SOL    HW215501   0.796   3.170  11.056  2.5553  0.0372  0.4281
 1347SOL     OW15502   2.111   1.710  17.682  0.0698  0.1406  0.2731
 1347SOL    HW115503   2.133   1.648  17.612  0.2217 -1.2929  1.6003
 1347SOL    HW215504   2.081   1.783  17.628  0.5684 -1.3417 -1.9907
 1348SOL     OW15505   0.890   1.556  15.350 -0.7694  1.1063  0.0785
 1348SOL    HW115506   0.983   1.538  15.333 -1.7223 -1.9813 -1.8956
 1348SOL    HW215507   0.882   1.552  15.446 -1.2081 -0.3801 -0.0118
 1349SOL     OW15508   1.412   0.888   7.241  0.2811 -0.7379  0.0984
 1349SOL    HW115509   1.493   0.912   7.287 -0.0966  0.2711  0.2398
 1349SOL    HW215510   1.389   0.965   7.189 -0.5238 -2.5466 -2.2046
 1350SOL     OW15511   2.014   4.697   6.481 -0.2995 -0.1344  0.0732
 1350SOL    HW115512   2.017   4.618   6.535  2.4663 -0.3675 -0.4131
 1350SOL    HW215513   2.106   4.700   6.452  0.4526  1.9073  2.7124
 1351SOL     OW15514   2.776   3.551  17.219 -0.7099 -0.3591 -0.0831
 1351SOL    HW115515   2.701   3.503  17.185 -0.5610 -1.7104  1.5217
 1351SOL    HW215516   2.847   3.498  17.183 -1.8411 -1.3237 -0.8863
 1352SOL     OW15517   3.663   3.526   9.208  0.5868 -0.0320 -0.0875
 1352SOL    HW115518   3.607   3.509   9.284  0.6663 -1.8763 -0.4423
 1352SOL    HW215519   3.628   3.457   9.152 -0.1042 -0.0328  0.3371
 1353SOL     OW15520   3.825   2.430   6.319 -0.0457  0.1824 -0.4871
 1353SOL    HW115521   3.748   2.377   6.336 -1.0962  1.9840  0.3973
 1353SOL    HW215522   3.905   2.383   6.343 -1.0099 -1.1804 -0.0264
 1354SOL     OW15523   1.549   2.248   9.572  0.1046  0.9302  0.4217
 1354SOL    HW115524   1.550   2.153   9.580 -1.1266  0.7912 -1.1460
 1354SOL    HW215525   1.459   2.275   9.588  0.2861  1.1607  1.0216
 1355SOL     OW15526   3.524   4.363   6.099 -0.0344  0.0107  0.1411
 1355SOL    HW115527   3.529   4.448   6.055 -0.5869 -0.1875 -0.3068
 1355SOL    HW215528   3.513   4.305   6.024  1.5125 -0.1986  0.0569
 1356SOL     OW15529   2.085   0.648  15.892 -0.5312  0.1264 -0.0978
 1356SOL    HW115530   2.069   0.724  15.837  1.6786  1.3126  0.9243
 1356SOL    HW215531   2.180   0.644  15.898 -0.5102  0.4435 -0.2130
 1357SOL     OW15532   4.558   1.288   7.621 -0.3277  0.2846  0.2224
 1357SOL    HW115533   4.477   1.251   7.656  1.0340 -1.6007  1.4016
 1357SOL    HW215534   4.605   1.208   7.598  1.2540  1.2505  0.0811
 1358SOL     OW15535   3.861   0.218   3.917 -0.7639  0.0351  0.6652
 1358SOL    HW115536   3.816   0.183   3.841  1.4971 -0.3560 -0.5101
 1358SOL    HW215537   3.881   0.131   3.951  2.5776  0.5516  0.0468
 1359SOL     OW15538   0.066   3.425   7.655  0.0653  0.3612  0.2119
 1359SOL    HW115539   0.003   3.354   7.645  0.3805  0.1245 -0.1011
 1359SOL    HW215540   0.093   3.418   7.747 -1.8231  0.0082  0.7267
 1360SOL     OW15541   1.946   4.403   6.912 -0.0344  0.2506 -0.0339
 1360SOL    HW115542   1.930   4.319   6.870 -0.7627 -0.3302  1.4027
 1360SOL    HW215543   1.929   4.385   7.005  2.8473 -0.0118  0.4453
 1361SOL     OW15544   3.781   2.380   4.837  0.2484 -0.1494 -0.0964
 1361SOL    HW115545   3.858   2.405   4.786  0.0956 -1.0581 -0.7604
 1361SOL    HW215546   3.813   2.297   4.872 -2.0488 -0.5475  1.0466
 1362SOL     OW15547   1.657   3.982  13.784 -0.6944  0.2644  0.1407
 1362SOL    HW115548   1.644   3.938  13.700  0.4868  1.0928 -0.4821
 1362SOL    HW215549   1.655   4.071  13.749 -0.3294 -0.6919 -2.2811
 1363SOL     OW15550   0.686   2.999  11.032 -0.1684 -0.4874  0.0979
 1363SOL    HW115551   0.731   2.979  10.950 -0.4086  0.4712 -0.2681
 1363SOL    HW215552   0.595   2.990  11.004 -0.7937  0.5876  1.8251
 1364SOL     OW15553   3.132   3.355   5.059  0.7791 -0.5577  0.2561
 1364SOL    HW115554   3.118   3.444   5.025  0.9200 -0.4195  0.5673
 1364SOL    HW215555   3.083   3.359   5.141 -1.3465  1.9788 -1.1081
 1365SOL     OW15556   2.975   2.227  11.967 -0.4327  0.2236 -0.4182
 1365SOL    HW115557   2.935   2.142  11.986  1.5597 -1.4399 -3.6229
 1365SOL    HW215558   3.053   2.233  12.022 -0.3753  2.5732 -0.7561
 1366SOL     OW15559   0.028   0.583  14.082 -0.3783 -0.2333  0.3815
 1366SOL    HW115560   0.106   0.567  14.028 -0.9189  1.6044 -0.9467
 1366SOL    HW215561   4.693   0.566  14.009  0.3067 -0.9982 -0.0041
 1367SOL     OW15562   2.715   3.189  12.813 -0.1900  0.3445 -0.0190
 1367SOL    HW115563   2.648   3.250  12.783  0.7990  1.6518  0.4159
 1367SOL    HW215564   2.708   3.214  12.905  1.7340  0.5152  0.0833
 1368SOL     OW15565   0.547   4.381  17.053 -0.7525 -0.2740  0.2521
 1368SOL    HW115566   0.464   4.379  17.101 -1.9066  0.9073 -1.6879
 1368SOL    HW215567   0.505   4.391  16.967  0.5280  1.2686 -0.1882
 1369SOL     OW15568   0.777   1.515   1.158  0.2228  0.1016  0.0792
 1369SOL    HW115569   0.801   1.576   1.227  2.5197 -1.2685  0.4963
 1369SOL    HW215570   0.718   1.456   1.205  0.1077  0.4183  0.3255
 1370SOL     OW15571   0.748   0.371   7.715  0.3524 -0.0790  0.0906
 1370SOL    HW115572   0.675   0.433   7.714  0.8434  0.4670 -2.1294
 1370SOL    HW215573   0.701   0.298   7.675 -0.9642  1.2608 -0.7981
 1371SOL     OW15574   0.358   3.733   5.461  0.0309  0.5132 -0.3435
 1371SOL    HW115575   0.294   3.667   5.488  0.4438  0.1524 -0.2514
 1371SOL    HW215576   0.404   3.743   5.544 -0.5637 -0.7520  0.1255
 1372SOL     OW15577   3.926   2.853   5.061 -0.4600 -0.0242 -0.1779
 1372SOL    HW115578   3.897   2.787   4.998 -1.7809  0.6331 -0.2438
 1372SOL    HW215579   3.910   2.806   5.143 -0.3548 -4.1713 -2.4949
 1373SOL     OW15580   3.340   0.905   4.560  0.5021 -0.1291  0.3021
 1373SOL    HW115581   3.269   0.961   4.528  0.6861 -0.0595  0.0115
 1373SOL    HW215582   3.344   0.908   4.655  0.1416  0.4428  0.2999
 1374SOL     OW15583   0.873   2.083  11.768 -0.2117 -0.3155  0.4374
 1374SOL    HW115584   0.968   2.091  11.779 -0.1969  0.1530 -0.0451
 1374SOL    HW215585   0.845   2.114  11.854 -0.5537  1.9627 -0.5066
 1375SOL     OW15586   0.748   0.736  10.717 -0.2993  0.2289 -0.0415
 1375SOL    HW115587   0.798   0.664  10.678  1.0988 -0.3566  2.7819
 1375SOL    HW215588   0.694   0.683  10.777  0.0019  1.0760  0.9844
 1376SOL     OW15589   3.588   1.234   1.504 -0.4355 -0.1538  0.1043
 1376SOL    HW115590   3.532   1.232   1.581  1.6322  0.0278  1.6129
 1376SOL    HW215591   3.642   1.156   1.516 -0.1790 -0.1425 -0.9317
 1377SOL     OW15592   1.719   0.873   7.737  0.0368  0.4701 -0.0286
 1377SOL    HW115593   1.650   0.808   7.744  1.7539 -1.3001  0.3300
 1377SOL    HW215594   1.741   0.878   7.644  0.4139 -2.3536 -0.0725
 1378SOL     OW15595   3.921   1.046   7.827  0.1405  0.0511  0.1806
 1378SOL    HW115596   3.948   0.962   7.790 -0.0968  0.5734 -1.1524
 1378SOL    HW215597   3.867   1.086   7.760 -1.8956 -1.1463  1.0952
 1379SOL     OW15598   2.633   2.576   3.816 -0.4528  0.1916 -0.3357
 1379SOL    HW115599   2.655   2.486   3.841 -3.1347 -0.4882 -0.3930
 1379SOL    HW215600   2.616   2.621   3.899  0.4628 -1.2173  0.6239
 1380SOL     OW15601   4.709   2.332  12.501 -0.1516  0.1249 -0.0371
 1380SOL    HW115602   4.671   2.419  12.516 -0.3613 -0.2499  1.5933
 1380SOL    HW215603   4.646   2.278  12.548  1.9810 -3.7792 -1.7007
 1381SOL     OW15604   1.574   4.592   2.426 -0.0076 -0.0121 -0.1822
 1381SOL    HW115605   1.625   4.515   2.450 -1.4448 -0.7663  0.5002
 1381SOL    HW215606   1.490   4.549   2.444  0.1205 -1.0358 -2.0528
 1382SOL     OW15607   2.029   2.770   4.040  0.9825 -0.1453  0.1987
 1382SOL    HW115608   1.935   2.766   4.021  0.5321 -1.9146  2.7827
 1382SOL    HW215609   2.058   2.692   3.994 -1.4034 -0.7196 -0.3490
 1383SOL     OW15610   2.097   3.400  12.268 -0.5744  0.2879 -0.0535
 1383SOL    HW115611   2.166   3.335  12.260 -0.7923  0.0440  0.0388
 1383SOL    HW215612   2.031   3.357  12.214  0.5363 -0.7136 -0.6131
 1384SOL     OW15613   2.920   4.555   7.864  0.4184  0.1228 -0.0401
 1384SOL    HW115614   3.014   4.557   7.880  0.4465  1.4982 -0.3857
 1384SOL    HW215615   2.889   4.486   7.923  0.6481 -0.5779 -0.7410
 1385SOL     OW15616   4.472   3.107   0.002  0.1005 -0.2657  0.7985
 1385SOL    HW115617   4.548   3.119   0.058 -0.0197 -0.3577  0.9841
 1385SOL    HW215618   4.451   3.015   0.020 -1.0852  0.2855  2.2034
 1386SOL     OW15619   3.976   1.247   2.031 -0.5279  0.1608  0.4097
 1386SOL    HW115620   3.897   1.245   2.084 -2.4751  0.2164 -2.5159
 1386SOL    HW215621   3.951   1.178   1.970  0.1357  0.7732 -0.5728
 1387SOL     OW15622   4.668   4.127  15.858  0.1448 -0.4726 -0.3117
 1387SOL    HW115623   4.615   4.152  15.782 -0.5241  0.2760  0.4009
 1387SOL    HW215624   4.714   4.047  15.832  1.3010  0.0741  0.0261
 1388SOL     OW15625   0.349   2.681  15.874  0.4684  0.3007 -0.1005
 1388SOL    HW115626   0.277   2.720  15.923  0.5039  0.9356 -0.5517
 1388SOL    HW215627   0.323   2.698  15.783  1.9443  0.8483 -0.4269
 1389SOL     OW15628   2.895   1.916   1.883  0.6747  0.3079 -0.0722
 1389SOL    HW115629   2.977   1.945   1.841  0.6585  2.7062  1.5365
 1389SOL    HW215630   2.840   1.994   1.874  0.0314  0.0507  1.6781
 1390SOL     OW15631   0.217   0.125   6.904  0.1089  0.3566  0.1419
 1390SOL    HW115632   0.187   0.106   6.993 -2.3859 -0.8452 -0.9598
 1390SOL    HW215633   0.150   0.185   6.873  1.4936  2.3711  1.0017
 1391SOL     OW15634   1.625   4.525   3.013  0.1814  0.1580  0.0924
 1391SOL    HW115635   1.682   4.452   2.991  1.4891  1.6227 -1.3393
 1391SOL    HW215636   1.547   4.480   3.046  0.7203  0.8911  2.3437
 1392SOL     OW15637   2.547   1.070   5.969  0.3615 -0.2814  0.4044
 1392SOL    HW115638   2.579   1.032   5.888 -1.0373  0.5437 -0.5397
 1392SOL    HW215639   2.459   1.096   5.941  0.9924  0.9772 -0.4101
 1393SOL     OW15640   1.236   1.510   6.396  0.1941  0.3082  0.1983
 1393SOL    HW115641   1.293   1.434   6.402  2.4501  1.9910 -0.1740
 1393SOL    HW215642   1.204   1.514   6.486 -0.1223 -0.8129  0.1438
 1394SOL     OW15643   3.828   3.493   7.674 -0.3953 -0.3361 -0.6952
 1394SOL    HW115644   3.776   3.564   7.636  0.5978  0.5076 -0.4677
 1394SOL    HW215645   3.772   3.457   7.743 -1.8278  1.4699 -0.9106
 1395SOL     OW15646   0.914   0.487   3.370  0.1991  0.2661  0.3267
 1395SOL    HW115647   0.959   0.570   3.358  0.4454  0.4313  2.3566
 1395SOL    HW215648   0.829   0.497   3.327  0.2157  1.5603  0.6128
 1396SOL     OW15649   1.897   1.399   2.840 -0.0730 -0.9202 -0.3018
 1396SOL    HW115650   1.878   1.490   2.814 -1.2218 -1.3059 -0.8544
 1396SOL    HW215651   1.988   1.398   2.811 -0.1457  1.6342 -0.6398
 1397SOL     OW15652   0.060   0.426   7.895  0.1035  0.1243  0.3763
 1397SOL    HW115653   0.076   0.397   7.985 -2.4534 -0.3979  0.6701
 1397SOL    HW215654   0.002   0.500   7.915 -1.3800 -1.1115  0.6896
 1398SOL     OW15655   4.062   0.946   3.336 -0.4378  0.3017  0.0161
 1398SOL    HW115656   3.990   0.942   3.273 -1.1815 -1.5031  0.9730
 1398SOL    HW215657   4.124   0.886   3.293  0.9970  0.9490  1.2010
 1399SOL     OW15658   2.265   0.067  11.569 -0.5870  0.0854  0.0520
 1399SOL    HW115659   2.237   0.038  11.483 -0.0008 -1.9366  0.5637
 1399SOL    HW215660   2.352   0.028  11.571  0.1416  1.6454 -0.7343
 1400SOL     OW15661   3.855   0.369   4.728 -0.3134 -0.0599 -0.7334
 1400SOL    HW115662   3.868   0.429   4.654  1.3320 -2.5172 -2.4181
 1400SOL    HW215663   3.845   0.290   4.675  0.2801 -0.5601 -0.0884
 1401SOL     OW15664   0.690   1.200   2.424 -0.4263 -0.4499  0.4775
 1401SOL    HW115665   0.621   1.173   2.364 -2.0644  1.1477  1.6198
 1401SOL    HW215666   0.749   1.249   2.367 -1.4689  1.3982  0.9745
 1402SOL     OW15667   3.960   4.195   6.305  0.1246 -0.0837  0.0567
 1402SOL    HW115668   3.907   4.254   6.252 -0.9682  2.5569  4.1507
 1402SOL    HW215669   3.962   4.113   6.256 -2.4080 -0.1905  0.1587
 1403SOL     OW15670   2.645   1.813  14.131  0.0902  0.3885 -0.1589
 1403SOL    HW115671   2.639   1.895  14.179  1.3352 -1.5143  3.2652
 1403SOL    HW215672   2.738   1.808  14.109  0.4705  1.1478  1.3085
 1404SOL     OW15673   2.704   3.570   0.262 -0.0915 -0.1703  0.3144
 1404SOL    HW115674   2.632   3.528   0.308 -0.4881 -0.5269 -0.6292
 1404SOL    HW215675   2.774   3.504   0.257  0.7516  0.9515 -2.7083
 1405SOL     OW15676   2.669   4.471  16.836  0.0712 -0.5039  0.5420
 1405SOL    HW115677   2.725   4.417  16.892 -0.0661  1.7183  2.7951
 1405SOL    HW215678   2.621   4.513  16.908  0.0167 -2.9343  1.9180
 1406SOL     OW15679   2.893   3.036   6.464  0.3260 -0.5120  0.0069
 1406SOL    HW115680   2.944   3.057   6.386 -0.2618 -2.2845 -0.8559
 1406SOL    HW215681   2.826   2.985   6.419  1.8972 -1.9135 -0.7848
 1407SOL     OW15682   4.653   4.505  17.454 -0.2918 -0.4631 -0.1104
 1407SOL    HW115683   4.699   4.443  17.511 -0.2499 -0.4806 -0.1628
 1407SOL    HW215684   4.582   4.541  17.506 -1.6719 -1.9455 -0.9534
 1408SOL     OW15685   0.524   0.335   7.109  0.3266  0.2062 -0.3195
 1408SOL    HW115686   0.609   0.360   7.073 -0.2807 -0.7118 -2.3695
 1408SOL    HW215687   0.471   0.401   7.064 -0.1471 -0.5536 -0.8555
 1409SOL     OW15688   2.022   2.837   9.071 -0.3151 -0.5209  0.4533
 1409SOL    HW115689   2.116   2.828   9.056 -0.2224 -0.3960  0.9415
 1409SOL    HW215690   2.039   2.877   9.156  2.6438  1.3501 -1.0406
 1410SOL     OW15691   1.028   3.846   8.201  0.0616  0.1489 -0.3646
 1410SOL    HW115692   0.949   3.792   8.194 -0.7046  0.8416  2.7146
 1410SOL    HW215693   0.995   3.922   8.153 -0.1442 -1.1744 -2.3115
 1411SOL     OW15694   1.075   1.717   7.424  0.0880  0.0445 -0.4134
 1411SOL    HW115695   1.109   1.796   7.382  1.0463 -0.8888 -1.3821
 1411SOL    HW215696   1.064   1.742   7.516 -0.2957 -0.1047 -0.4206
 1412SOL     OW15697   1.885   1.483   1.600 -0.1238  0.0180 -0.2378
 1412SOL    HW115698   1.824   1.412   1.581 -0.9995  1.5178 -3.1082
 1412SOL    HW215699   1.839   1.565   1.581  2.0182  1.2628 -0.0357
 1413SOL     OW15700   0.011   4.121   3.352 -0.2651 -0.2937 -0.1585
 1413SOL    HW115701   4.674   4.192   3.372 -0.8202  0.4710 -4.5113
 1413SOL    HW215702   0.050   4.152   3.270  0.6368 -0.3358  0.2588
 1414SOL     OW15703   2.855   1.479   8.406 -0.2188  0.3009 -0.4392
 1414SOL    HW115704   2.895   1.426   8.337 -0.6492 -1.6444  0.7935
 1414SOL    HW215705   2.908   1.559   8.401  2.0009 -0.9719  2.2573
 1415SOL     OW15706   0.258   4.659   4.941 -0.2724  0.1351  0.3328
 1415SOL    HW115707   0.216   4.719   5.003 -0.4684 -1.1481  1.4262
 1415SOL    HW215708   0.326   4.627   5.001  0.8220  0.0076 -0.9795
 1416SOL     OW15709   0.596   1.739  14.183  0.4463 -0.0823 -0.2212
 1416SOL    HW115710   0.552   1.822  14.164  1.2229  0.2746 -0.4401
 1416SOL    HW215711   0.548   1.671  14.135 -2.0562  1.4060  0.1404
 1417SOL     OW15712   4.516   2.870   0.179  0.3766  0.2150 -1.4004
 1417SOL    HW115713   4.480   2.789   0.215 -2.3810  1.1677 -2.0376
 1417SOL    HW215714   4.569   2.830   0.109  0.1499  0.4036 -1.6797
 1418SOL     OW15715   3.825   4.402   7.710 -0.3617 -0.1006  0.4816
 1418SOL    HW115716   3.788   4.347   7.780  0.2150 -0.9494  0.1294
 1418SOL    HW215717   3.915   4.405   7.743 -1.1574 -1.0668  2.8078
 1419SOL     OW15718   1.819   3.110   7.911  0.2986  0.5235 -0.0139
 1419SOL    HW115719   1.735   3.072   7.887  0.1555  0.8496 -0.0193
 1419SOL    HW215720   1.789   3.193   7.947 -0.1420  0.3417  0.0420
 1420SOL     OW15721   1.572   4.692   2.786 -0.2395 -0.2685 -0.1151
 1420SOL    HW115722   1.573   4.649   2.872  2.2243  0.9076  0.4238
 1420SOL    HW215723   1.539   4.623   2.728 -0.1579 -2.3794  2.3279
 1421SOL     OW15724   4.056   2.477   7.945  0.7742 -0.1102 -0.1881
 1421SOL    HW115725   4.032   2.548   8.004  1.0122 -0.5049  0.3719
 1421SOL    HW215726   4.000   2.404   7.970  1.5450 -0.7467 -0.3338
 1422SOL     OW15727   2.151   3.432  14.910  0.0545 -0.0878 -0.4624
 1422SOL    HW115728   2.156   3.527  14.923  1.7715  0.3349 -4.2499
 1422SOL    HW215729   2.063   3.430  14.872 -0.8894  0.1801  1.6727
 1423SOL     OW15730   2.566   1.597   8.682 -0.3424 -0.3835  0.1746
 1423SOL    HW115731   2.474   1.607   8.706 -0.1131  1.3991  0.2824
 1423SOL    HW215732   2.604   1.674   8.722 -0.2846  0.7492 -2.0409
 1424SOL     OW15733   3.498   0.137   2.686  0.4060 -0.2831  0.2150
 1424SOL    HW115734   3.503   0.213   2.627  0.0174 -0.5516 -0.1600
 1424SOL    HW215735   3.554   0.158   2.761  0.0438  1.5580 -0.0240
 1425SOL     OW15736   0.607   3.040   9.547  0.0705  0.0733 -0.5344
 1425SOL    HW115737   0.597   3.032   9.642  1.6471  0.0835 -0.3704
 1425SOL    HW215738   0.517   3.026   9.517 -1.0606 -0.2397  2.9457
 1426SOL     OW15739   3.234   1.081   8.381  0.2654  0.2640  0.6062
 1426SOL    HW115740   3.159   1.028   8.408  0.6158 -1.4169 -1.7145
 1426SOL    HW215741   3.234   1.054   8.289  0.4900  2.8481 -0.1647
 1427SOL     OW15742   0.121   1.664  10.133 -0.0759 -0.5732  0.0874
 1427SOL    HW115743   0.122   1.613  10.213 -0.9541 -1.9344 -0.7740
 1427SOL    HW215744   0.170   1.601  10.080 -0.5216 -0.9747  0.1546
 1428SOL     OW15745   3.018   4.172   4.109 -0.0821  0.5123  0.1547
 1428SOL    HW115746   2.996   4.149   4.199  3.2358 -0.1287  0.7882
 1428SOL    HW215747   3.035   4.086   4.072  0.1878  0.3581  0.6505
 1429SOL     OW15748   3.231   1.996   5.580 -0.1227 -0.0022 -0.1353
 1429SOL    HW115749   3.157   2.049   5.552 -0.6101 -0.6712 -0.1103
 1429SOL    HW215750   3.263   1.960   5.497 -0.7227  2.0477 -1.2492
 1430SOL     OW15751   0.716   0.505   5.268 -0.5162 -0.0006 -0.2142
 1430SOL    HW115752   0.652   0.560   5.223 -1.7416 -0.5158  0.9047
 1430SOL    HW215753   0.793   0.562   5.274 -0.4478 -0.3743  2.5825
 1431SOL     OW15754   3.801   1.316   4.387 -0.1571 -0.6289 -0.1022
 1431SOL    HW115755   3.770   1.263   4.462  1.5006 -1.3577  0.0588
 1431SOL    HW215756   3.833   1.395   4.431 -0.7820 -0.6437  0.3942
 1432SOL     OW15757   1.767   1.327   9.417 -0.3861 -0.1518 -0.3614
 1432SOL    HW115758   1.821   1.404   9.432 -3.3239  1.5598  1.5178
 1432SOL    HW215759   1.825   1.257   9.447  1.1512  0.6924 -1.3596
 1433SOL     OW15760   3.731   1.845   6.268  0.3391 -0.4106  0.1745
 1433SOL    HW115761   3.705   1.888   6.349  0.6455 -0.8556  0.5128
 1433SOL    HW215762   3.679   1.765   6.267  2.0721 -1.5641  2.4511
 1434SOL     OW15763   0.073   3.612   6.212  0.4365  0.4613  0.2639
 1434SOL    HW115764   0.001   3.650   6.263  2.2287  2.2953  1.4093
 1434SOL    HW215765   0.113   3.552   6.276 -1.3112  0.8891  1.7486
 1435SOL     OW15766   4.382   0.825  11.651 -0.2812 -0.0275 -0.5586
 1435SOL    HW115767   4.320   0.821  11.577  0.0763  1.3491 -0.9372
 1435SOL    HW215768   4.364   0.741  11.692 -2.5055  1.3675  1.3429
 1436SOL     OW15769   3.062   2.291   4.282  0.0073  0.5448  0.6259
 1436SOL    HW115770   2.995   2.232   4.249 -0.1537  1.3262 -0.4556
 1436SOL    HW215771   3.105   2.230   4.342 -1.7100  0.5433  1.8614
 1437SOL     OW15772   2.478   3.390   5.773 -0.1675 -0.0979 -0.1016
 1437SOL    HW115773   2.473   3.328   5.847  1.2699 -0.0435  0.0434
 1437SOL    HW215774   2.457   3.335   5.697  1.4128 -1.6356  0.5683
 1438SOL     OW15775   3.367   1.788   8.457 -0.3204 -0.2815 -0.1609
 1438SOL    HW115776   3.287   1.774   8.508 -0.5765 -0.3303 -0.5704
 1438SOL    HW215777   3.356   1.881   8.437 -1.4605 -0.3860 -0.0558
 1439SOL     OW15778   4.213   1.190   8.925  0.0296 -0.0275 -0.5726
 1439SOL    HW115779   4.257   1.123   8.873 -1.0438 -0.6418 -0.7024
 1439SOL    HW215780   4.157   1.132   8.977 -3.2677  0.1325 -3.9399
 1440SOL     OW15781   1.183   0.123   2.329 -0.7337 -0.6921 -0.0262
 1440SOL    HW115782   1.098   0.083   2.312  0.5126 -2.4816 -2.1084
 1440SOL    HW215783   1.249   0.058   2.304  0.9458  0.6853  0.8352
 1441SOL     OW15784   3.811   4.132   2.542 -0.3470 -0.2577  0.1556
 1441SOL    HW115785   3.806   4.060   2.605 -1.7094 -1.1842 -1.0045
 1441SOL    HW215786   3.794   4.206   2.600 -2.5700 -1.3582  0.9266
 1442SOL     OW15787   1.452   0.034   1.228  0.1926  0.1141  1.3814
 1442SOL    HW115788   1.396   0.112   1.220 -1.0298 -0.9147 -0.3236
 1442SOL    HW215789   1.393   4.691   1.264  0.8022 -0.7698  0.7406
 1443SOL     OW15790   4.624   3.116   4.603 -0.2249  0.7382 -0.0136
 1443SOL    HW115791   4.595   3.149   4.688 -3.3848  1.4141 -1.3692
 1443SOL    HW215792   4.715   3.146   4.600 -0.0180 -0.0007 -1.0701
 1444SOL     OW15793   3.595   0.380   4.351  0.0799 -0.5665 -0.4696
 1444SOL    HW115794   3.568   0.472   4.345 -2.1846 -1.2368 -0.5687
 1444SOL    HW215795   3.616   0.376   4.258 -3.6252 -3.7113 -1.1775
 1445SOL     OW15796   0.262   0.068  14.939 -0.2381  0.1460 -0.1392
 1445SOL    HW115797   0.211   0.016  15.002  3.0520 -1.1771  1.4245
 1445SOL    HW215798   0.263   0.006  14.865 -1.6982  0.6831 -0.6047
 1446SOL     OW15799   2.750   0.208   5.462  0.2792  0.1644 -0.2345
 1446SOL    HW115800   2.793   0.234   5.544  0.7934 -1.6169  0.0527
 1446SOL    HW215801   2.782   0.119   5.446 -0.6955 -0.0615 -0.9047
 1447SOL     OW15802   0.316   3.536  11.079  0.4664  0.4728 -0.0074
 1447SOL    HW115803   0.392   3.536  11.137 -1.0881  0.6628  2.0622
 1447SOL    HW215804   0.327   3.614  11.025  1.8542 -0.0786 -0.5254
 1448SOL     OW15805   1.197   1.349  10.346  0.4790  0.6435  0.0357
 1448SOL    HW115806   1.274   1.349  10.402  0.7854  0.0371 -0.3837
 1448SOL    HW215807   1.236   1.389  10.269  0.8039 -1.0802 -0.6922
 1449SOL     OW15808   4.333   4.482   1.015 -0.1738  0.1319 -0.3405
 1449SOL    HW115809   4.318   4.547   1.084 -0.6334 -1.9740  1.5475
 1449SOL    HW215810   4.251   4.432   1.023  0.2296 -0.8428 -2.1843
 1450SOL     OW15811   4.087   2.999  12.818 -0.5756  0.1004  0.2831
 1450SOL    HW115812   4.031   2.927  12.789 -2.1940  1.2177  0.6283
 1450SOL    HW215813   4.166   3.004  12.765  0.1451  0.2281  1.3707
 1451SOL     OW15814   1.679   3.714  10.356 -0.6994  0.3382 -0.5389
 1451SOL    HW115815   1.621   3.788  10.342 -1.1117  0.1567  0.2293
 1451SOL    HW215816   1.761   3.764  10.360 -1.1200  1.0029 -0.3392
 1452SOL     OW15817   0.579   1.942  10.045  0.0324 -0.5564  0.2447
 1452SOL    HW115818   0.633   1.972  10.118  0.6976 -0.1677 -0.4045
 1452SOL    HW215819   0.631   1.969   9.969 -0.0801  2.5491  1.2838
 1453SOL     OW15820   0.732   2.850  10.018 -0.4039  0.1883  0.1612
 1453SOL    HW115821   0.686   2.781  10.067 -1.5246  1.2628  0.6174
 1453SOL    HW215822   0.813   2.863  10.067  1.2233 -0.8996 -2.2527
 1454SOL     OW15823   4.027   4.705  10.545 -0.0331  0.4678  0.2399
 1454SOL    HW115824   3.969   4.643  10.500 -3.1780  2.8708  0.9556
 1454SOL    HW215825   4.067   0.021  10.468 -2.4066  1.7750 -0.3232
 1455SOL     OW15826   2.366   1.619   2.947 -0.4608 -0.1639  0.1378
 1455SOL    HW115827   2.418   1.654   3.019 -2.4787 -0.2319  1.6206
 1455SOL    HW215828   2.319   1.697   2.918  1.1503  1.1002  0.9671
 1456SOL     OW15829   3.634   0.382   0.734  0.1838  0.6028 -0.3428
 1456SOL    HW115830   3.599   0.333   0.659 -0.1149  3.3893 -2.0729
 1456SOL    HW215831   3.562   0.384   0.797 -1.1449  0.5346 -1.8267
 1457SOL     OW15832   3.774   4.522  13.069  0.0382  0.3038 -0.1765
 1457SOL    HW115833   3.745   4.535  12.979 -0.3612 -1.8312 -0.3457
 1457SOL    HW215834   3.867   4.544  13.058 -0.2277  1.4874 -0.0708
 1458SOL     OW15835   0.562   0.087   5.636  0.4658  0.6710 -0.1335
 1458SOL    HW115836   0.591   0.148   5.569  0.6355  0.6199 -0.1072
 1458SOL    HW215837   0.477   0.130   5.646 -1.2695 -2.8617  0.2678
 1459SOL     OW15838   4.301   2.463   8.676 -0.7194 -0.7565  0.1330
 1459SOL    HW115839   4.320   2.556   8.663 -0.9514 -0.7635 -0.2694
 1459SOL    HW215840   4.280   2.473   8.769 -1.4879 -0.8388 -0.0283
 1460SOL     OW15841   2.886   1.150   7.413  0.3306 -0.3214  0.1037
 1460SOL    HW115842   2.881   1.188   7.500 -0.2777 -1.1850  0.4414
 1460SOL    HW215843   2.844   1.217   7.358 -0.8791 -0.9847  0.2279
 1461SOL     OW15844   4.067   4.311   2.671 -0.1625  0.4765 -0.3099
 1461SOL    HW115845   3.979   4.345   2.686  0.9878  2.1917  2.6723
 1461SOL    HW215846   4.081   4.341   2.581 -1.3013  0.0035 -0.6345
 1462SOL     OW15847   3.439   1.732  15.246 -0.1159 -0.6960 -0.4836
 1462SOL    HW115848   3.504   1.724  15.176  0.0295  0.8888 -0.5213
 1462SOL    HW215849   3.475   1.674  15.314  0.3066  0.0820 -0.0377
 1463SOL     OW15850   0.036   4.406   5.504 -0.2435 -0.0502  0.6325
 1463SOL    HW115851   0.098   4.336   5.523  2.1850  1.8716 -0.0805
 1463SOL    HW215852   0.081   4.465   5.565  1.8894 -1.7139  0.6795
 1464SOL     OW15853   0.688   1.837   0.573  0.6135 -0.5845  0.8195
 1464SOL    HW115854   0.612   1.808   0.623 -1.7138  0.3199 -2.1854
 1464SOL    HW215855   0.754   1.813   0.638  2.0153 -0.7981 -0.6806
 1465SOL     OW15856   1.151   1.930   8.349  0.2015  0.0443 -0.2120
 1465SOL    HW115857   1.224   1.869   8.344 -0.1510 -0.2517 -1.7325
 1465SOL    HW215858   1.136   1.936   8.444  1.9513 -1.9987  0.1845
 1466SOL     OW15859   2.795   2.358  10.714  0.7424  0.0943  0.1197
 1466SOL    HW115860   2.779   2.312  10.797  0.6053  1.8785  1.0877
 1466SOL    HW215861   2.780   2.451  10.734  1.5437 -0.1521  1.8953
 1467SOL     OW15862   3.252   3.002   5.434 -0.1964  0.0909  0.3537
 1467SOL    HW115863   3.337   3.038   5.407 -0.3622 -0.3474 -0.7298
 1467SOL    HW215864   3.240   2.950   5.355  1.2348  0.6130 -0.2080
 1468SOL     OW15865   0.367   0.853  11.278  0.2695  0.1399  0.4888
 1468SOL    HW115866   0.437   0.834  11.341  1.0085  1.1173 -0.0494
 1468SOL    HW215867   0.346   0.933  11.325  1.2134  0.0343  1.0960
 1469SOL     OW15868   1.241   2.667   7.811 -0.4762 -0.0336  0.2938
 1469SOL    HW115869   1.330   2.650   7.841 -0.9911 -0.2614  1.6946
 1469SOL    HW215870   1.208   2.705   7.891  0.2646  0.9402  0.1285
 1470SOL     OW15871   4.368   2.434   7.862  0.1082  0.0877  0.0882
 1470SOL    HW115872   4.274   2.447   7.875  0.1358  0.0631  0.3102
 1470SOL    HW215873   4.374   2.355   7.808  0.8758  0.1936  0.0101
 1471SOL     OW15874   3.835   2.569   7.115 -0.4299 -0.2333  0.1359
 1471SOL    HW115875   3.742   2.571   7.094 -0.1715  0.1848 -0.9731
 1471SOL    HW215876   3.876   2.568   7.028 -0.4063 -0.6953  0.1505
 1472SOL     OW15877   2.595   3.892  10.085 -0.2331  0.4721  0.1562
 1472SOL    HW115878   2.624   3.804  10.061  0.7600  0.4332  1.4905
 1472SOL    HW215879   2.592   3.888  10.181  0.3920 -0.5893  0.1399
 1473SOL     OW15880   1.081   3.846   3.186 -0.7381  0.0782 -0.4047
 1473SOL    HW115881   0.988   3.868   3.182 -1.4762 -2.5606  1.6671
 1473SOL    HW215882   1.090   3.825   3.279 -0.0250 -1.4467 -0.8238
 1474SOL     OW15883   2.867   4.285   7.601 -0.3794 -0.7608  0.3430
 1474SOL    HW115884   2.881   4.311   7.510 -0.6601 -3.1961 -0.3837
 1474SOL    HW215885   2.877   4.373   7.638 -1.2898 -0.6320  0.2839
 1475SOL     OW15886   0.334   0.549  10.404  0.3685 -0.5866  0.4515
 1475SOL    HW115887   0.416   0.593  10.427  0.5299  0.3764 -1.9962
 1475SOL    HW215888   0.354   0.524  10.314  0.7387 -0.8979  0.6189
 1476SOL     OW15889   0.969   1.219  13.692 -0.6796 -0.2477  0.0798
 1476SOL    HW115890   1.006   1.239  13.778 -0.2533  3.0161 -0.8606
 1476SOL    HW215891   0.924   1.304  13.687  1.1259  0.6616 -0.6563
 1477SOL     OW15892   0.225   4.628  14.738  0.2198  0.2386  0.1232
 1477SOL    HW115893   0.166   4.630  14.663  0.0983 -1.0064  0.1781
 1477SOL    HW215894   0.234   4.536  14.762 -2.5205  0.0021  0.2662
 1478SOL     OW15895   0.040   3.861   3.661 -0.0720 -0.2750 -0.6487
 1478SOL    HW115896   0.135   3.870   3.651  0.3505  0.2423  3.5683
 1478SOL    HW215897   0.028   3.801   3.735  3.1627 -0.0284  0.0854
 1479SOL     OW15898   0.998   0.291   5.171  0.6072 -0.4937 -0.1528
 1479SOL    HW115899   1.042   0.207   5.183  2.3169  0.1157 -2.2611
 1479SOL    HW215900   1.001   0.325   5.261 -1.7024  0.0651 -0.2705
 1480SOL     OW15901   3.364   3.769  13.576 -0.4197  0.0509 -0.4426
 1480SOL    HW115902   3.449   3.724  13.568  1.0048  2.5320  0.7154
 1480SOL    HW215903   3.309   3.705  13.531  1.3147 -0.7215 -1.4942
 1481SOL     OW15904   1.100   1.885  11.998  0.3111 -0.2447  0.5370
 1481SOL    HW115905   1.103   1.917  12.088  0.3194  1.4562 -0.0651
 1481SOL    HW215906   1.137   1.960  11.952 -0.5980 -0.5550 -0.6832
 1482SOL     OW15907   3.953   1.639   4.095 -0.9177  0.4148  0.0734
 1482SOL    HW115908   3.876   1.631   4.038  0.4327 -1.3585 -1.4528
 1482SOL    HW215909   4.007   1.701   4.047 -1.8052  0.8134 -0.4128
 1483SOL     OW15910   2.955   3.975  17.276 -0.1680 -0.1857  0.5014
 1483SOL    HW115911   2.892   4.034  17.318  0.2102  2.8003 -3.1060
 1483SOL    HW215912   2.960   3.901  17.337  0.6591 -1.4147 -1.0734
 1484SOL     OW15913   2.662   0.594   2.098 -0.6082  0.4644  0.5671
 1484SOL    HW115914   2.743   0.599   2.046 -1.2984 -1.9989 -0.7210
 1484SOL    HW215915   2.587   0.597   2.039  1.4326 -0.0326 -2.0771
 1485SOL     OW15916   1.771   2.866   3.988 -0.4769 -0.0203 -0.3310
 1485SOL    HW115917   1.695   2.810   4.002 -0.7655  0.6779  0.8777
 1485SOL    HW215918   1.748   2.943   4.040 -1.2782  1.8840 -3.5027
 1486SOL     OW15919   1.861   2.243   4.799  0.0340 -0.2119  0.1043
 1486SOL    HW115920   1.849   2.216   4.890 -1.3283 -0.1285 -0.0502
 1486SOL    HW215921   1.898   2.331   4.802  1.3335 -0.7472 -0.1688
 1487SOL     OW15922   3.116   0.169   7.868  0.2483  0.0158 -0.4128
 1487SOL    HW115923   3.047   0.202   7.811  1.4399  0.4409 -1.6101
 1487SOL    HW215924   3.074   0.203   7.947 -1.4517  0.1859 -1.3968
 1488SOL     OW15925   3.969   2.610   4.159  0.2900  0.4349 -0.2147
 1488SOL    HW115926   3.935   2.696   4.183  1.5035  0.8091  0.1647
 1488SOL    HW215927   4.052   2.616   4.205  0.0623 -1.9080  0.5042
 1489SOL     OW15928   1.914   4.290   9.819 -0.0698  0.4629  0.0564
 1489SOL    HW115929   1.870   4.338   9.889 -0.9034  0.2372 -0.3166
 1489SOL    HW215930   1.910   4.349   9.743  1.7604 -1.1824 -1.3354
 1490SOL     OW15931   1.241   4.486   3.590 -0.8921 -0.1132 -0.2965
 1490SOL    HW115932   1.258   4.566   3.639  1.3372 -0.6872 -0.1009
 1490SOL    HW215933   1.206   4.516   3.506  0.3207 -0.1560 -0.8261
 1491SOL     OW15934   0.568   4.489   6.459  0.4886  0.6966  0.1319
 1491SOL    HW115935   0.511   4.412   6.451 -0.1981  1.1971  0.2569
 1491SOL    HW215936   0.522   4.550   6.402  1.0277 -0.9953 -2.1050
 1492SOL     OW15937   2.240   0.356   7.573 -0.2574  0.3161 -0.5119
 1492SOL    HW115938   2.219   0.430   7.630 -2.2503 -0.0539 -0.7641
 1492SOL    HW215939   2.218   0.280   7.626  0.7348  0.9442  0.8212
 1493SOL     OW15940   1.614   2.484  11.246  1.1865 -0.0027  0.0249
 1493SOL    HW115941   1.594   2.391  11.261 -0.6069  0.2599 -0.7035
 1493SOL    HW215942   1.632   2.493  11.152  0.7914  2.4961  0.1859
 1494SOL     OW15943   3.142   3.929  12.409 -0.4471  0.3836 -0.6466
 1494SOL    HW115944   3.052   3.950  12.435 -0.0449  1.0340  0.2328
 1494SOL    HW215945   3.177   3.907  12.495  1.4555  2.5211 -0.8771
 1495SOL     OW15946   1.897   0.103  10.436 -0.0809 -0.9803 -0.1325
 1495SOL    HW115947   1.943   0.088  10.354  1.6417 -0.3640  0.7179
 1495SOL    HW215948   1.842   0.026  10.450  1.4675 -1.6129  2.5224
 1496SOL     OW15949   0.257   1.188   6.179  0.0208 -0.2067 -0.2200
 1496SOL    HW115950   0.316   1.215   6.109 -0.2288 -0.3806 -0.4968
 1496SOL    HW215951   0.324   1.163   6.243 -0.0883 -2.8599 -1.1163
 1497SOL     OW15952   3.927   4.503   8.689  0.1247 -0.2865  0.4823
 1497SOL    HW115953   3.923   4.492   8.784 -1.4916 -0.3932  0.3975
 1497SOL    HW215954   3.839   4.535   8.672 -0.3111 -2.7688 -1.9509
 1498SOL     OW15955   3.577   1.947  10.652 -0.6844  0.2167  0.1271
 1498SOL    HW115956   3.579   2.018  10.588  0.0844 -1.2211 -1.4444
 1498SOL    HW215957   3.523   1.988  10.720 -0.2253 -0.7268  1.0744
 1499SOL     OW15958   0.354   4.259   2.675 -0.3712 -0.6489  0.0959
 1499SOL    HW115959   0.365   4.307   2.757 -1.0263  2.1924 -1.4636
 1499SOL    HW215960   0.372   4.332   2.615 -2.4724 -0.4568 -0.3057
 1500SOL     OW15961   0.207   2.026   8.883  0.6954  0.2858  0.4263
 1500SOL    HW115962   0.141   1.960   8.905  0.0497  0.4619 -1.0004
 1500SOL    HW215963   0.150   2.093   8.845 -2.4417 -2.0191  1.0516
 1501SOL     OW15964   3.108   1.737  12.550  0.5132  0.2397 -0.3555
 1501SOL    HW115965   3.058   1.759  12.471 -0.4492  0.0157  0.2057
 1501SOL    HW215966   3.127   1.643  12.548  0.1542  0.1555  0.7350
 1502SOL     OW15967   1.906   4.240   5.488 -1.0934 -0.3543 -0.0036
 1502SOL    HW115968   1.998   4.250   5.514 -1.7157  0.5483  1.8642
 1502SOL    HW215969   1.890   4.328   5.453  3.6708  0.9505  1.0731
 1503SOL     OW15970   4.220   0.808  11.431 -0.2991  0.5862 -0.3402
 1503SOL    HW115971   4.181   0.720  11.427 -0.4110  0.6487 -0.5808
 1503SOL    HW215972   4.291   0.799  11.368 -0.9526  0.0283 -0.9944
 1504SOL     OW15973   4.677   0.138  14.284 -0.0489  0.0157 -0.2327
 1504SOL    HW115974   0.006   0.111  14.209  0.3070  0.0728  0.0019
 1504SOL    HW215975   4.669   0.057  14.334 -0.7503  0.7301  0.8129
 1505SOL     OW15976   1.857   0.062   5.744 -0.0957 -0.4354 -0.8081
 1505SOL    HW115977   1.912   4.709   5.750 -0.2946 -0.6195 -1.2803
 1505SOL    HW215978   1.910   0.125   5.793 -0.8723 -0.9681  0.7018
 1506SOL     OW15979   2.685   1.889  15.782  0.4495  0.4166  0.0495
 1506SOL    HW115980   2.678   1.903  15.877 -0.7218 -0.3064  0.0573
 1506SOL    HW215981   2.602   1.854  15.751  1.5582 -3.0041  1.0244
 1507SOL     OW15982   4.592   2.968  13.257 -0.4761 -0.2684  0.0282
 1507SOL    HW115983   4.629   3.029  13.194 -1.0950 -0.0461 -0.1215
 1507SOL    HW215984   4.594   2.883  13.212  0.6411  0.5287 -1.4161
 1508SOL     OW15985   4.550   4.599   2.484  0.6000 -0.0616 -0.4473
 1508SOL    HW115986   4.632   4.569   2.526  0.8934 -1.0280 -1.7234
 1508SOL    HW215987   4.579   4.674   2.431  0.7182  0.4414  0.3241
 1509SOL     OW15988   0.392   3.529   5.099  0.2487  0.1764 -0.1120
 1509SOL    HW115989   0.481   3.563   5.104 -0.0993  1.0209  0.4527
 1509SOL    HW215990   0.340   3.604   5.129 -0.9919 -0.7457  0.0311
 1510SOL     OW15991   0.650   0.238   6.123  0.4377 -0.1709 -0.5139
 1510SOL    HW115992   0.598   0.314   6.148 -0.3113  0.4096 -3.7873
 1510SOL    HW215993   0.596   0.191   6.060 -1.1836  3.4915 -1.8985
 1511SOL     OW15994   1.519   0.918  14.328  0.1060 -0.1292 -0.0102
 1511SOL    HW115995   1.600   0.907  14.279 -0.0854 -1.3135 -0.0828
 1511SOL    HW215996   1.541   0.860  14.401 -0.5791  0.5919  0.7661
 1512SOL     OW15997   3.774   4.550  14.759  0.6635 -0.0563 -0.1072
 1512SOL    HW115998   3.746   4.527  14.848 -2.8053 -1.1062 -1.4450
 1512SOL    HW215999   3.837   4.621  14.765 -0.0241  0.5586 -0.2067
 1513SOL     OW16000   1.218   1.420   4.515  0.4727 -0.2650 -0.1746
 1513SOL    HW116001   1.283   1.465   4.460 -2.0358  3.0544 -0.4387
 1513SOL    HW216002   1.239   1.330   4.489  3.2120  0.2637  0.1819
 1514SOL     OW16003   1.089   0.883   2.789  0.1348  0.7096 -0.7789
 1514SOL    HW116004   1.152   0.931   2.735  0.4178  1.9142  0.5971
 1514SOL    HW216005   1.093   0.796   2.751 -1.5462 -0.5804  1.9979
 1515SOL     OW16006   3.777   0.938   4.725 -0.5263 -0.1153  0.0265
 1515SOL    HW116007   3.841   0.925   4.795  0.3483  1.5792 -0.4497
 1515SOL    HW216008   3.736   1.024   4.742 -0.4567 -0.4418  1.8992
 1516SOL     OW16009   0.632   1.103   4.487  0.3994 -0.5071  0.3245
 1516SOL    HW116010   0.623   1.141   4.400 -1.5910 -2.2944 -0.2634
 1516SOL    HW216011   0.648   1.185   4.534 -1.7951  2.8076 -4.6649
 1517SOL     OW16012   4.635   4.239   4.795  0.6234  0.0909  0.2706
 1517SOL    HW116013   4.716   4.288   4.783 -0.9506  2.0639 -2.1929
 1517SOL    HW216014   4.596   4.290   4.866  1.2392  0.2283  0.5107
 1518SOL     OW16015   0.631   2.813   7.668  0.3652 -0.1770 -0.3915
 1518SOL    HW116016   0.588   2.898   7.672 -0.6368 -0.6479 -1.3393
 1518SOL    HW216017   0.569   2.759   7.619  0.5020  0.1741 -0.9500
 1519SOL     OW16018   2.423   3.739   2.319  0.3660 -0.2206 -0.6829
 1519SOL    HW116019   2.352   3.690   2.361  1.5462 -1.6603 -0.3798
 1519SOL    HW216020   2.437   3.697   2.235  1.5892 -0.1102 -0.5293
 1520SOL     OW16021   3.050   2.033   4.726  0.4183 -0.5473 -0.2343
 1520SOL    HW116022   3.090   1.953   4.692  0.6419 -0.9970  1.1084
 1520SOL    HW216023   3.013   1.995   4.805  1.3257 -1.9637 -0.4883
 1521SOL     OW16024   0.416   3.232   2.778  0.0175 -0.1185  0.4250
 1521SOL    HW116025   0.407   3.288   2.855 -1.3124 -0.4019  0.4657
 1521SOL    HW216026   0.323   3.210   2.778  0.4071 -1.7734 -0.3328
 1522SOL     OW16027   3.182   1.524   4.549  0.0529 -0.2238 -0.6412
 1522SOL    HW116028   3.208   1.454   4.608 -0.6664  0.8938  1.0056
 1522SOL    HW216029   3.266   1.528   4.502  0.3229  0.2465 -0.1160
 1523SOL     OW16030   2.308   3.398   2.811 -0.1770  0.4047 -0.7149
 1523SOL    HW116031   2.225   3.398   2.858  0.2492 -3.0339 -0.0114
 1523SOL    HW216032   2.373   3.386   2.879  0.2727 -1.3508 -1.4611
 1524SOL     OW16033   0.201   3.527   2.211  0.6621 -0.2356 -0.1088
 1524SOL    HW116034   0.120   3.476   2.204  1.2477 -1.4474  2.0063
 1524SOL    HW216035   0.165   3.596   2.266 -0.5824 -0.7271 -0.3125
 1525SOL     OW16036   2.006   0.773   8.933  0.7811  0.3804 -0.1701
 1525SOL    HW116037   2.056   0.705   8.978  0.0941 -0.5819 -0.8615
 1525SOL    HW216038   2.018   0.848   8.991  0.3907  1.2647 -1.2247
 1526SOL     OW16039   2.278   4.537  14.349 -0.2164 -0.4054 -0.3748
 1526SOL    HW116040   2.367   4.504  14.340  0.5074  2.0793 -2.3117
 1526SOL    HW216041   2.298   4.630  14.351  2.2332 -0.9460  0.7225
 1527SOL     OW16042   4.024   0.172   5.191  0.2882  0.0559 -0.3503
 1527SOL    HW116043   4.013   0.231   5.116 -1.6965  0.6908  0.4210
 1527SOL    HW216044   4.004   0.096   5.137 -2.6987 -0.2715  1.2012
 1528SOL     OW16045   3.316   0.476   6.792  0.0631 -0.1695 -0.1069
 1528SOL    HW116046   3.392   0.436   6.835  1.3418  2.3757  0.0177
 1528SOL    HW216047   3.315   0.567   6.823 -0.0658  0.0428 -0.7410
 1529SOL     OW16048   0.654   0.245   5.448  0.2961  0.1713  0.2803
 1529SOL    HW116049   0.561   0.257   5.430 -0.0052 -0.6884  1.3160
 1529SOL    HW216050   0.687   0.335   5.449  2.9854 -0.8068  1.8862
 1530SOL     OW16051   1.113   0.594   4.489 -0.6629 -0.4068  1.0013
 1530SOL    HW116052   1.078   0.616   4.576  0.8176  4.0936  0.4578
 1530SOL    HW216053   1.087   0.502   4.488  1.0671 -0.8765 -1.1761
 1531SOL     OW16054   4.442   2.116   4.028 -0.3289  0.6495  0.2792
 1531SOL    HW116055   4.461   2.168   4.107 -3.5726  2.3006 -0.0591
 1531SOL    HW216056   4.471   2.030   4.058  0.8441  1.6246  1.9665
 1532SOL     OW16057   1.362   1.586   2.745  0.3757  0.0903 -0.7992
 1532SOL    HW116058   1.456   1.575   2.728  0.6837  0.8383  0.4745
 1532SOL    HW216059   1.351   1.680   2.730 -0.3774  0.2338  0.6156
 1533SOL     OW16060   2.263   2.852   4.119  0.0182 -0.4335 -0.1219
 1533SOL    HW116061   2.171   2.847   4.091  0.4750 -0.2619 -1.6495
 1533SOL    HW216062   2.284   2.768   4.079 -3.1173 -0.4332 -1.7514
 1534SOL     OW16063   3.406   0.162   5.586 -0.4196 -0.0949 -0.1993
 1534SOL    HW116064   3.432   0.085   5.635  0.7353  1.6207  1.8869
 1534SOL    HW216065   3.482   0.192   5.535 -1.1501  3.0926  0.5769
 1535SOL     OW16066   0.122   2.418   3.657 -0.5428 -0.0734  0.9703
 1535SOL    HW116067   0.094   2.407   3.566  0.2968 -1.7033  0.9160
 1535SOL    HW216068   0.177   2.494   3.638  0.4115 -1.1345 -0.4844
 1536SOL     OW16069   2.427   3.222  16.140 -0.0782  0.1061 -0.4834
 1536SOL    HW116070   2.428   3.215  16.235 -2.7589 -1.4728 -0.5572
 1536SOL    HW216071   2.396   3.139  16.104  0.6481 -0.8709  1.1432
 1537SOL     OW16072   3.629   4.693   3.691 -0.1967 -0.1248  0.1971
 1537SOL    HW116073   3.625   4.598   3.687  1.7853 -0.2154  0.0056
 1537SOL    HW216074   3.724   4.708   3.692 -0.2189 -0.0299  1.2275
 1538SOL     OW16075   2.996   0.956  13.460 -0.5359  0.5663  0.2434
 1538SOL    HW116076   3.012   1.038  13.413 -1.6155  1.0407  0.7187
 1538SOL    HW216077   3.084   0.917  13.459 -1.0552 -0.5763 -0.2831
 1539SOL     OW16078   2.450   4.177  13.670 -0.0182  0.5861 -0.6200
 1539SOL    HW116079   2.478   4.085  13.665  2.2803  1.3178 -1.4319
 1539SOL    HW216080   2.363   4.175  13.709 -0.0510  0.6414 -0.6900
 1540SOL     OW16081   2.415   0.101   5.712  0.1619  0.1665  0.0890
 1540SOL    HW116082   2.466   0.073   5.787 -0.6183 -1.1620  0.1349
 1540SOL    HW216083   2.436   0.195   5.711  2.1590 -0.2933 -0.4697
 1541SOL     OW16084   3.535   3.423   7.441 -0.6966 -0.2393  0.1444
 1541SOL    HW116085   3.471   3.401   7.509 -1.6221  0.1422 -0.6008
 1541SOL    HW216086   3.604   3.361   7.466 -0.7778 -0.9941 -1.5072
 1542SOL     OW16087   4.247   2.398   1.472  0.5438  0.1366  0.6867
 1542SOL    HW116088   4.291   2.476   1.438  0.9106 -0.8700 -1.1537
 1542SOL    HW216089   4.322   2.340   1.487 -0.5408 -1.6015 -0.6990
 1543SOL     OW16090   0.393   4.564  15.667 -0.2899  0.1524  0.0051
 1543SOL    HW116091   0.346   4.638  15.629  1.6403  1.4143  0.1134
 1543SOL    HW216092   0.350   4.562  15.752  1.7635 -1.1082  1.0058
 1544SOL     OW16093   3.546   4.556  12.788 -0.3742  0.1831  0.0780
 1544SOL    HW116094   3.526   4.591  12.875 -0.4001  2.2950 -0.7838
 1544SOL    HW216095   3.625   4.608  12.773 -0.3997 -0.0651 -0.9020
 1545SOL     OW16096   2.257   0.166   0.557 -0.1686 -0.2092 -0.6006
 1545SOL    HW116097   2.345   0.184   0.521  0.1888  0.1353  0.4438
 1545SOL    HW216098   2.235   0.256   0.582 -3.3940 -0.3118 -3.1422
 1546SOL     OW16099   1.594   4.369   9.629  0.7516 -0.4876  0.5559
 1546SOL    HW116100   1.580   4.296   9.690  0.6579  0.0909  1.2319
 1546SOL    HW216101   1.597   4.440   9.693  1.2191  2.1054 -2.3493
 1547SOL     OW16102   3.649   3.107   4.065  0.1931 -0.0553  0.2585
 1547SOL    HW116103   3.717   3.135   4.003 -0.0596  0.2222  0.1057
 1547SOL    HW216104   3.645   3.012   4.060  0.8287 -0.1995  2.8183
 1548SOL     OW16105   3.805   0.574  16.564 -0.4134  0.3002  0.6193
 1548SOL    HW116106   3.873   0.527  16.516  1.8984  1.7394  2.4879
 1548SOL    HW216107   3.784   0.517  16.638 -0.0997 -1.0379 -0.3267
 1549SOL     OW16108   0.231   4.331   1.973  0.3383  0.3246 -0.4865
 1549SOL    HW116109   0.285   4.326   1.894 -0.3305 -2.2989 -0.7786
 1549SOL    HW216110   0.206   4.240   1.961  2.5031 -0.1890 -1.1495
 1550SOL     OW16111   2.893   3.704  14.000  0.1926 -0.1376 -0.2053
 1550SOL    HW116112   2.886   3.610  14.014  0.2912 -0.2033 -0.5910
 1550SOL    HW216113   2.813   3.741  14.039  0.4846  1.2530 -0.9199
 1551SOL     OW16114   1.053   3.679  10.684 -0.3964  0.3458 -0.5273
 1551SOL    HW116115   1.062   3.637  10.598  0.2953 -0.5088 -0.0321
 1551SOL    HW216116   1.144   3.675  10.713 -0.8063 -2.2450  0.4010
 1552SOL     OW16117   0.113   0.352   5.731 -0.2495 -0.5720  0.0599
 1552SOL    HW116118   0.135   0.428   5.786  2.9454 -0.3890 -1.4601
 1552SOL    HW216119   0.053   0.398   5.673  0.2890 -0.4828 -0.4258
 1553SOL     OW16120   0.192   1.789  12.349  0.0316 -0.0207 -0.3440
 1553SOL    HW116121   0.237   1.721  12.398 -0.6029  0.2449  0.6003
 1553SOL    HW216122   0.239   1.869  12.375  1.2443  0.1772 -3.1102
 1554SOL     OW16123   2.909   4.159   1.453  0.0895 -0.5321  0.6445
 1554SOL    HW116124   2.975   4.219   1.418  0.2620 -0.1060  1.7147
 1554SOL    HW216125   2.910   4.195   1.541  0.0383 -0.6654  0.6986
 1555SOL     OW16126   4.119   2.000   2.429 -0.1565 -0.1219 -0.1036
 1555SOL    HW116127   4.126   2.072   2.492 -2.0580 -0.7376  0.8006
 1555SOL    HW216128   4.047   2.023   2.370  0.1077 -0.3608 -0.5217
 1556SOL     OW16129   1.166   4.615  17.187  0.1799 -0.2526  0.2626
 1556SOL    HW116130   1.157   4.564  17.106 -1.2208  0.5186 -0.0726
 1556SOL    HW216131   1.123   4.547  17.239 -0.6223 -0.2722 -0.4154
 1557SOL     OW16132   2.342   4.656   8.742 -0.2260  0.2817 -0.6009
 1557SOL    HW116133   2.432   4.630   8.727 -0.2215 -0.0307 -0.0292
 1557SOL    HW216134   2.335   0.018   8.700 -0.9410  0.5930  0.1464
 1558SOL     OW16135   0.269   1.695   8.247  0.6892 -0.0388  0.2294
 1558SOL    HW116136   0.332   1.655   8.187  0.9316  1.4922 -0.5541
 1558SOL    HW216137   0.301   1.785   8.256 -0.0976  0.4171 -1.6236
 1559SOL     OW16138   3.014   2.413   7.513  0.0233 -0.1059  0.1337
 1559SOL    HW116139   2.958   2.381   7.584 -0.7782 -0.6450 -0.7468
 1559SOL    HW216140   2.965   2.386   7.436  1.7669  1.5014 -1.5399
 1560SOL     OW16141   1.718   3.310   4.937 -0.9286 -0.3570 -0.2320
 1560SOL    HW116142   1.808   3.297   4.965 -1.1503 -0.7669  0.2949
 1560SOL    HW216143   1.662   3.274   5.006 -0.5708 -0.2951  0.0835
 1561SOL     OW16144   0.735   0.322  10.644 -0.3155  0.1377 -0.8067
 1561SOL    HW116145   0.653   0.310  10.595 -1.0053  0.8963  0.1591
 1561SOL    HW216146   0.751   0.234  10.676  0.7134  0.7306  0.3124
 1562SOL     OW16147   2.643   2.196  11.694  0.2189 -0.1257 -0.7118
 1562SOL    HW116148   2.689   2.115  11.672 -0.1335 -0.9022  1.4133
 1562SOL    HW216149   2.719   2.252  11.710  1.3848 -2.0903  0.7351
 1563SOL     OW16150   0.057   1.426   3.690  0.3125  0.6413  0.1017
 1563SOL    HW116151   0.074   1.496   3.753  0.0808  1.1334 -0.3807
 1563SOL    HW216152   0.053   1.357   3.755 -0.5833  0.2548 -0.3559
 1564SOL     OW16153   0.373   0.722   7.454  0.3433 -0.2280 -0.3603
 1564SOL    HW116154   0.387   0.714   7.359 -0.7068 -0.1419 -0.5285
 1564SOL    HW216155   0.277   0.721   7.451  0.2982 -0.2297  1.6006
 1565SOL     OW16156   2.805   2.096  10.553  0.2597  0.2791 -0.0443
 1565SOL    HW116157   2.794   2.083  10.647 -0.4486 -1.0225 -0.3188
 1565SOL    HW216158   2.782   2.190  10.555  0.0523  0.2104  0.5657
 1566SOL     OW16159   4.522   0.373  13.417 -0.7066 -0.6693 -0.6239
 1566SOL    HW116160   4.506   0.367  13.511 -4.1275  1.6855 -1.0712
 1566SOL    HW216161   4.435   0.357  13.381 -2.0748  0.7568  2.0915
 1567SOL     OW16162   4.220   2.476   1.998  0.0717  0.4110  0.1890
 1567SOL    HW116163   4.219   2.457   1.904 -0.7454 -1.7084  0.6377
 1567SOL    HW216164   4.305   2.521   1.999  0.4671 -0.2709 -1.9193
 1568SOL     OW16165   1.020   0.939   7.981 -0.2715 -0.3454  0.0192
 1568SOL    HW116166   1.011   0.876   7.909 -1.8102  1.6633 -1.5442
 1568SOL    HW216167   1.116   0.939   7.986 -0.2020 -2.5264 -1.3971
 1569SOL     OW16168   1.758   3.365  17.156  0.4377  0.0085 -0.3236
 1569SOL    HW116169   1.741   3.305  17.228  0.8460  0.5129  0.2039
 1569SOL    HW216170   1.851   3.377  17.176 -0.1509  1.4388  1.5982
 1570SOL     OW16171   3.632   1.519   7.470 -0.2522  0.4582  0.3205
 1570SOL    HW116172   3.704   1.477   7.519 -0.8516  2.1267  2.6144
 1570SOL    HW216173   3.607   1.593   7.525 -0.3300 -1.7247  3.2381
 1571SOL     OW16174   2.100   0.413   0.579 -0.2891  0.1203 -0.4095
 1571SOL    HW116175   2.018   0.449   0.547 -1.5891 -0.6176  2.1228
 1571SOL    HW216176   2.115   0.467   0.656  2.3063  2.5989 -2.6471
 1572SOL     OW16177   1.643   0.222   1.455 -0.4413 -0.0017  0.2732
 1572SOL    HW116178   1.650   0.136   1.414  1.3196 -0.2856  1.1339
 1572SOL    HW216179   1.710   0.217   1.524 -1.0481  1.9428  0.9918
 1573SOL     OW16180   1.126   0.107   6.140 -0.1017  0.3518  0.1765
 1573SOL    HW116181   1.177   0.098   6.059 -0.4991 -0.5164  0.0198
 1573SOL    HW216182   1.189   0.153   6.194  1.2725  0.6025 -1.6578
 1574SOL     OW16183   2.005   2.419   5.832  0.2946 -0.4062  0.0778
 1574SOL    HW116184   2.063   2.489   5.802  2.0163 -1.1921  1.5479
 1574SOL    HW216185   1.924   2.460   5.804  0.9065 -1.3698 -3.0337
 1575SOL     OW16186   1.791   3.195   4.311  0.1381  0.2505 -0.8203
 1575SOL    HW116187   1.807   3.192   4.216  0.2723 -0.3556 -0.7727
 1575SOL    HW216188   1.798   3.288   4.333  2.6763  0.0582 -0.8266
 1576SOL     OW16189   2.819   1.909   4.414 -0.1345 -0.3955 -0.3418
 1576SOL    HW116190   2.871   1.883   4.338 -0.6519 -2.7866  0.0932
 1576SOL    HW216191   2.730   1.911   4.378  0.5463  1.0226 -1.9091
 1577SOL     OW16192   1.205   0.245   1.668 -0.1597 -0.6949  0.0349
 1577SOL    HW116193   1.283   0.285   1.707  1.2814 -2.4301 -1.0674
 1577SOL    HW216194   1.142   0.316   1.666  1.5849  0.8817  0.9429
 1578SOL     OW16195   2.088   0.821   5.307  0.1184  0.0786  0.6851
 1578SOL    HW116196   2.060   0.734   5.335  1.4127 -0.4975  0.2139
 1578SOL    HW216197   2.141   0.843   5.383  2.2934 -0.8182 -0.5589
 1579SOL     OW16198   1.579   1.899   8.147  0.1251 -0.7646 -0.1365
 1579SOL    HW116199   1.606   1.952   8.222  0.4148  1.3661 -1.7678
 1579SOL    HW216200   1.577   1.954   8.069  0.9167  0.3994  0.6690
 1580SOL     OW16201   4.452   1.498   8.013 -0.0204  0.4320  0.0115
 1580SOL    HW116202   4.367   1.541   8.014 -0.9949 -1.5592  2.1833
 1580SOL    HW216203   4.493   1.560   7.951 -3.2493  0.7902 -1.7521
 1581SOL     OW16204   3.118   3.492  11.156  0.0281 -0.2136  0.0660
 1581SOL    HW116205   3.118   3.442  11.074  1.5133 -0.9719  0.5237
 1581SOL    HW216206   3.203   3.535  11.147  0.3417 -0.5836  1.2948
 1582SOL     OW16207   2.140   1.307   5.447  0.4187 -0.1194  0.3956
 1582SOL    HW116208   2.067   1.251   5.473 -0.4174 -0.4344 -2.5576
 1582SOL    HW216209   2.209   1.244   5.471  0.8364  0.3971  0.5403
 1583SOL     OW16210   3.105   0.706   9.525  0.0739 -0.2443  0.3022
 1583SOL    HW116211   3.102   0.800   9.544 -3.7424 -0.4768  0.9590
 1583SOL    HW216212   3.058   0.719   9.443  0.5942  0.2800  0.0859
 1584SOL     OW16213   3.963   1.587   9.218  0.0818  0.2516 -0.2577
 1584SOL    HW116214   3.908   1.527   9.168  1.5139 -2.2891  1.2648
 1584SOL    HW216215   4.039   1.596   9.160  0.7448  1.4653  0.7904
 1585SOL     OW16216   0.235   1.480  13.720  0.3441 -0.1835 -0.0062
 1585SOL    HW116217   0.325   1.451  13.701 -0.0114  0.5351 -2.9195
 1585SOL    HW216218   0.207   1.534  13.646 -1.4255 -0.0565  0.7820
 1586SOL     OW16219   1.514   0.283  15.892  0.1241 -0.1610 -0.2631
 1586SOL    HW116220   1.451   0.309  15.824  0.6129  0.1306 -0.6082
 1586SOL    HW216221   1.544   0.366  15.928  0.0450 -0.7147  1.0780
 1587SOL     OW16222   0.408   0.315   7.704 -1.2902  0.5354  0.1899
 1587SOL    HW116223   0.456   0.380   7.755  1.1285  0.2425 -1.7357
 1587SOL    HW216224   0.456   0.341   7.625 -0.9306 -1.1964 -0.1627
 1588SOL     OW16225   2.215   2.757   6.607  0.3647  0.3652 -0.6121
 1588SOL    HW116226   2.285   2.709   6.652 -1.3265  0.0803  1.7063
 1588SOL    HW216227   2.159   2.683   6.582  0.6153  0.0833 -0.3419
 1589SOL     OW16228   1.030   3.357   2.902  0.4176 -0.3428  0.1438
 1589SOL    HW116229   1.075   3.273   2.915 -0.3133 -0.5866  1.0575
 1589SOL    HW216230   1.003   3.352   2.810 -1.2112  1.1558  0.5485
 1590SOL     OW16231   1.849   3.348  11.604  0.3917  0.2856  0.1586
 1590SOL    HW116232   1.936   3.350  11.565  1.8206 -0.2590  3.3943
 1590SOL    HW216233   1.835   3.439  11.630  0.9635  0.0827  1.1617
 1591SOL     OW16234   4.212   0.724   0.444  0.6104  0.3003 -0.4083
 1591SOL    HW116235   4.198   0.816   0.422 -1.6749 -0.3048 -1.4490
 1591SOL    HW216236   4.291   0.705   0.392 -0.0655 -1.2546 -0.8640
 1592SOL     OW16237   2.574   2.413  12.715  0.6608 -0.2405 -0.4080
 1592SOL    HW116238   2.511   2.413  12.643  0.7620  0.9202 -0.4989
 1592SOL    HW216239   2.573   2.318  12.725  1.5072 -0.1759  0.2754
 1593SOL     OW16240   4.413   0.030   1.478 -0.4038 -0.3051  0.0645
 1593SOL    HW116241   4.382   0.081   1.404 -2.6455  0.5885  1.5866
 1593SOL    HW216242   4.503   0.008   1.455  0.4381  2.4312  0.7383
 1594SOL     OW16243   4.208   4.294   8.634 -0.4060  0.0641 -0.3494
 1594SOL    HW116244   4.215   4.263   8.724  2.9322  2.3927  0.2005
 1594SOL    HW216245   4.228   4.387   8.644 -1.1615 -0.3013  4.2721
 1595SOL     OW16246   3.264   0.610   4.648  0.2518 -0.1155  0.5141
 1595SOL    HW116247   3.265   0.691   4.700 -0.0831 -0.7893  1.5520
 1595SOL    HW216248   3.191   0.631   4.590  1.6090 -0.1709 -1.2216
 1596SOL     OW16249   3.501   3.476   9.443 -0.0342  0.1585 -0.2204
 1596SOL    HW116250   3.408   3.491   9.461  0.4228  1.7102  0.8216
 1596SOL    HW216251   3.509   3.403   9.505 -1.1545  0.5750  0.4154
 1597SOL     OW16252   3.499   0.920   9.635 -1.0575 -0.4020  0.2777
 1597SOL    HW116253   3.519   1.013   9.640  1.2383 -0.9200  0.5800
 1597SOL    HW216254   3.528   0.879   9.717 -0.0509 -0.6268 -0.1985
 1598SOL     OW16255   3.605   2.258  15.168  0.1188  0.6736 -0.2032
 1598SOL    HW116256   3.649   2.179  15.199 -0.6371  0.9013  1.4694
 1598SOL    HW216257   3.665   2.292  15.102  2.7937 -0.1854  1.7848
 1599SOL     OW16258   1.344   3.722   1.940 -0.0451 -0.1469  0.2131
 1599SOL    HW116259   1.435   3.709   1.966  0.8168  0.9999 -2.1670
 1599SOL    HW216260   1.316   3.637   1.906 -1.6135 -0.9117  3.4624
 1600SOL     OW16261   4.709   2.149   6.357 -0.1638 -0.0075  0.2234
 1600SOL    HW116262   4.705   2.237   6.396  3.1589  0.1326  0.2270
 1600SOL    HW216263   4.614   2.134   6.360 -0.6396  2.5331 -1.8986
 1601SOL     OW16264   4.069   1.216  16.431  0.4537  0.3059  0.6564
 1601SOL    HW116265   4.003   1.207  16.362  0.6589  1.4042  0.3134
 1601SOL    HW216266   4.047   1.302  16.466 -3.2013 -0.4224  0.0845
 1602SOL     OW16267   1.690   2.987   6.518 -0.2356  0.3411  0.2323
 1602SOL    HW116268   1.737   3.003   6.600 -0.6870 -0.8295  0.7228
 1602SOL    HW216269   1.747   3.023   6.450 -0.9409  1.5099  0.2564
 1603SOL     OW16270   2.287   3.199   0.332  0.1450 -0.0821  0.1955
 1603SOL    HW116271   2.359   3.216   0.393 -1.6244  1.9138  1.7400
 1603SOL    HW216272   2.335   3.224   0.253  0.4899  1.7540  0.9761
 1604SOL     OW16273   4.626   2.839   1.089 -0.2146 -0.7690  0.5929
 1604SOL    HW116274   4.658   2.889   1.163 -1.9984  1.8108 -0.3746
 1604SOL    HW216275   4.560   2.782   1.127 -2.2182 -0.1238 -1.9405
 1605SOL     OW16276   2.147   4.026   5.054  0.0984 -0.2740  0.5630
 1605SOL    HW116277   2.171   4.059   4.967 -0.8102 -0.2665  0.3116
 1605SOL    HW216278   2.228   3.981   5.076 -1.6915 -3.8910 -0.2289
 1606SOL     OW16279   4.215   1.769   1.219  0.6498  0.4728 -0.3473
 1606SOL    HW116280   4.287   1.721   1.260 -0.1752 -0.4252  0.0374
 1606SOL    HW216281   4.254   1.855   1.237 -0.0558  0.6863  0.1398
 1607SOL     OW16282   3.008   2.948   4.384 -0.2474 -0.2226  0.2075
 1607SOL    HW116283   3.098   2.940   4.352 -0.6825 -0.4919 -0.9404
 1607SOL    HW216284   2.998   2.853   4.394  1.3212 -0.4187 -0.0813
 1608SOL     OW16285   2.275   4.361   8.435 -0.3457  0.6633 -0.0329
 1608SOL    HW116286   2.276   4.456   8.447  0.2913  0.4742  1.4074
 1608SOL    HW216287   2.269   4.334   8.526  1.2892  1.4781  0.3209
 1609SOL     OW16288   0.593   4.585   3.683  0.1250 -0.0900 -0.1962
 1609SOL    HW116289   0.594   4.499   3.642 -0.0315 -0.5014  0.6614
 1609SOL    HW216290   0.587   4.655   3.619  2.6371  1.4098  1.2240
 1610SOL     OW16291   3.487   0.844   1.087 -0.3740 -0.2210 -0.3361
 1610SOL    HW116292   3.503   0.929   1.045 -0.2412 -0.4540 -0.7616
 1610SOL    HW216293   3.552   0.792   1.040  0.6356  0.3608  0.3977
 1611SOL     OW16294   1.207   2.784   9.304  0.3528  0.0058  0.1966
 1611SOL    HW116295   1.278   2.764   9.365  2.5351  2.3618 -1.5267
 1611SOL    HW216296   1.133   2.743   9.348  0.2121 -1.3973 -1.3344
 1612SOL     OW16297   0.330   0.272  12.906  0.6179  0.2496  0.5989
 1612SOL    HW116298   0.393   0.337  12.934  0.4412  0.7544 -0.1595
 1612SOL    HW216299   0.267   0.258  12.977  2.0903 -0.2357  1.7857
 1613SOL     OW16300   0.884   2.357   7.004  0.5453  0.6189  0.0644
 1613SOL    HW116301   0.932   2.369   7.087  3.0811 -0.8601 -1.2015
 1613SOL    HW216302   0.850   2.446   6.994 -0.3676  0.1042 -1.3932
 1614SOL     OW16303   1.058   1.018   7.192  0.1189  0.0259 -0.0699
 1614SOL    HW116304   0.981   1.052   7.147  1.0434  0.6558 -1.1831
 1614SOL    HW216305   1.037   1.030   7.285  0.0898  2.1758 -0.3563
 1615SOL     OW16306   4.527   2.326   4.186  0.2605 -0.1312  0.2056
 1615SOL    HW116307   4.560   2.415   4.182 -1.1078  0.3332 -0.6858
 1615SOL    HW216308   4.603   2.273   4.212 -0.1091 -0.0290  1.4914
 1616SOL     OW16309   2.031   4.055  12.678 -0.1540 -0.6036  0.7096
 1616SOL    HW116310   2.088   3.982  12.700  1.3112 -0.2670 -1.9416
 1616SOL    HW216311   2.074   4.087  12.598  1.5544  0.5264  2.0826
 1617SOL     OW16312   4.654   3.202   4.909  0.1002 -0.2427 -0.3524
 1617SOL    HW116313   4.673   3.293   4.887  0.9775 -0.7099 -1.5738
 1617SOL    HW216314   4.713   3.195   4.984 -0.1763  0.4851 -0.0661
 1618SOL     OW16315   1.302   2.088   5.621 -0.2504 -0.5908 -0.2673
 1618SOL    HW116316   1.387   2.045   5.608  0.4804  1.3465 -2.0251
 1618SOL    HW216317   1.285   2.115   5.531  0.1008  0.2284 -0.0894
 1619SOL     OW16318   1.303   2.521   1.599 -0.0277 -0.0087 -0.5411
 1619SOL    HW116319   1.294   2.426   1.606  0.2335 -0.1655 -2.3174
 1619SOL    HW216320   1.214   2.551   1.615 -0.2011  0.1722 -1.8309
 1620SOL     OW16321   3.795   0.451   7.378  0.6218  0.0929  0.7337
 1620SOL    HW116322   3.729   0.421   7.441  3.2986 -2.3000  2.3672
 1620SOL    HW216323   3.758   0.419   7.295 -1.6701  4.5439  0.0316
 1621SOL     OW16324   1.144   0.834   0.816 -0.1829 -0.4238 -0.2224
 1621SOL    HW116325   1.185   0.790   0.742  1.0433 -0.8005  0.6995
 1621SOL    HW216326   1.168   0.778   0.889 -0.5425 -0.3646 -0.0587
 1622SOL     OW16327   4.149   1.727   0.478 -0.3800  0.3516  0.3925
 1622SOL    HW116328   4.085   1.659   0.497 -2.3121  2.1525  0.3812
 1622SOL    HW216329   4.123   1.780   0.554  0.3147  1.1979  0.0514
 1623SOL     OW16330   3.425   2.019   6.142  0.4931  0.5453  0.1996
 1623SOL    HW116331   3.354   1.972   6.187  0.9139  0.4383  0.7506
 1623SOL    HW216332   3.378   2.094   6.106 -0.1857 -1.0575 -2.2185
 1624SOL     OW16333   4.242   0.313   1.856  0.1625  0.5193  0.2589
 1624SOL    HW116334   4.268   0.366   1.781  0.8081  0.5975  0.5339
 1624SOL    HW216335   4.200   0.237   1.817 -0.3275  0.3541  1.1110
 1625SOL     OW16336   0.616   3.821   0.822 -0.2940  0.1736 -0.1796
 1625SOL    HW116337   0.602   3.771   0.741  4.2563  4.2225 -3.4747
 1625SOL    HW216338   0.615   3.910   0.786  4.0131 -0.0346 -0.8445
 1626SOL     OW16339   2.115   0.140   6.906  1.1568 -0.1226 -0.1351
 1626SOL    HW116340   2.028   0.118   6.873  1.6128 -2.9788  0.5446
 1626SOL    HW216341   2.164   0.160   6.827  1.6031 -1.4701 -0.2081
 1627SOL     OW16342   4.209   0.470   3.998  0.4945 -0.0068 -0.3500
 1627SOL    HW116343   4.298   0.440   4.017  1.0764  0.9169 -1.5548
 1627SOL    HW216344   4.156   0.391   4.010  0.1610  0.4095  0.8708
 1628SOL     OW16345   0.715   3.811   5.670  0.0441 -0.5031  0.1635
 1628SOL    HW116346   0.800   3.788   5.708  1.4152  2.4364 -1.1505
 1628SOL    HW216347   0.736   3.836   5.580  0.5064  4.5133  1.6492
 1629SOL     OW16348   0.261   4.136   8.527  0.5726  0.1979 -0.3148
 1629SOL    HW116349   0.228   4.047   8.510 -0.4415  0.0059  2.5311
 1629SOL    HW216350   0.307   4.158   8.446 -0.1287 -1.5489 -1.2117
 1630SOL     OW16351   0.690   4.106   1.934  0.3290 -0.0046 -0.8419
 1630SOL    HW116352   0.645   4.146   2.009  0.9385 -1.8869  0.5126
 1630SOL    HW216353   0.628   4.134   1.866  0.2831 -0.2642 -0.9075
 1631SOL     OW16354   3.740   4.231   6.562  0.1001  0.2609 -0.2465
 1631SOL    HW116355   3.775   4.143   6.549  0.1553  0.1039  1.0141
 1631SOL    HW216356   3.686   4.249   6.485 -0.5658 -0.3430  0.0801
 1632SOL     OW16357   2.488   1.284   2.681  0.0494  0.4345  0.0236
 1632SOL    HW116358   2.564   1.240   2.642 -1.0622 -0.8313 -0.6941
 1632SOL    HW216359   2.505   1.268   2.774  0.3747 -2.7706 -0.6161
 1633SOL     OW16360   2.581   3.350   7.702 -0.2453 -0.3995  0.0934
 1633SOL    HW116361   2.501   3.396   7.677 -0.4397 -0.3294  0.8495
 1633SOL    HW216362   2.648   3.403   7.658 -0.7048  0.9788  1.0314
 1634SOL     OW16363   1.134   3.606   4.958 -0.2632  0.0157  0.1820
 1634SOL    HW116364   1.161   3.548   5.028  1.7696 -0.5391 -1.0574
 1634SOL    HW216365   1.225   3.612   4.928  0.4355 -1.6402  2.0578
 1635SOL     OW16366   2.945   1.941   4.952 -0.1491 -0.2170  0.5467
 1635SOL    HW116367   2.955   1.962   5.045 -0.2026 -0.4604  0.6061
 1635SOL    HW216368   2.926   1.848   4.964  2.0501 -0.6515  0.4964
 1636SOL     OW16369   2.394   3.831  15.178 -0.2336  0.1173 -0.5927
 1636SOL    HW116370   2.335   3.835  15.253 -0.4810 -0.3009 -0.7650
 1636SOL    HW216371   2.348   3.766  15.125  1.0858 -2.5982  1.5770
 1637SOL     OW16372   3.769   2.870   1.502 -0.0372 -0.0578  0.0024
 1637SOL    HW116373   3.732   2.823   1.576 -2.3369  1.8611  0.0825
 1637SOL    HW216374   3.830   2.810   1.460 -0.9871 -1.7649  1.0633
 1638SOL     OW16375   0.757   1.361   7.783 -0.0117  0.5549  0.0927
 1638SOL    HW116376   0.842   1.360   7.738 -1.4967  2.0327 -2.7316
 1638SOL    HW216377   0.749   1.268   7.804  0.2386  0.6418  0.5780
 1639SOL     OW16378   4.093   1.440   6.508 -0.2604  0.7321  0.0566
 1639SOL    HW116379   4.115   1.469   6.419  2.2105 -0.0377  0.4218
 1639SOL    HW216380   4.097   1.525   6.551  0.4253  0.6818  0.0946
 1640SOL     OW16381   2.943   2.888   5.728  0.5261 -0.9429 -0.0252
 1640SOL    HW116382   2.943   2.798   5.761  0.8428 -0.5289  1.1345
 1640SOL    HW216383   2.982   2.941   5.798 -0.4420 -0.3991  0.0932
 1641SOL     OW16384   0.489   2.994   2.047 -0.0121  0.1865  0.1106
 1641SOL    HW116385   0.490   3.043   1.965 -0.1374  1.0063  0.5973
 1641SOL    HW216386   0.512   3.063   2.108 -1.0793  1.7252 -1.2326
 1642SOL     OW16387   3.520   4.085   6.754  0.7129  0.0606 -0.2135
 1642SOL    HW116388   3.594   4.133   6.717  1.0534 -0.8355 -0.6977
 1642SOL    HW216389   3.562   4.001   6.771  1.6590  0.4420 -0.6581
 1643SOL     OW16390   2.294   4.336  16.205  0.6112  0.6226  0.1246
 1643SOL    HW116391   2.270   4.424  16.234 -0.9800  0.5041 -0.8220
 1643SOL    HW216392   2.292   4.355  16.111 -1.4373  0.5207  0.1357
 1644SOL     OW16393   4.155   1.887   0.252  0.3988  0.0746  0.0650
 1644SOL    HW116394   4.100   1.831   0.197  0.0679  0.1041  0.3714
 1644SOL    HW216395   4.161   1.829   0.328 -0.2347  1.1699  0.9462
 1645SOL     OW16396   0.768   3.665   0.399 -0.0916  0.1634  0.1936
 1645SOL    HW116397   0.833   3.661   0.330  1.7334 -0.1967  1.9313
 1645SOL    HW216398   0.699   3.709   0.349 -0.8646 -1.6904 -0.3768
 1646SOL     OW16399   1.828   2.770   5.626 -0.3772  0.7612  0.2812
 1646SOL    HW116400   1.905   2.813   5.588  2.1409 -0.9886  3.3768
 1646SOL    HW216401   1.754   2.798   5.572  0.5637 -0.2142 -1.5080
 1647SOL     OW16402   0.027   4.063   5.365  0.2031  0.1489 -0.2463
 1647SOL    HW116403   0.108   4.012   5.362 -0.3402 -0.7298  0.2050
 1647SOL    HW216404   0.058   4.121   5.435 -1.8332  1.0498 -0.0927
 1648SOL     OW16405   1.062   3.425   3.777  0.1428  0.3129  0.3896
 1648SOL    HW116406   1.008   3.397   3.703  1.9422 -1.6771 -0.1748
 1648SOL    HW216407   1.097   3.342   3.810 -1.8554 -0.7416 -0.0977
 1649SOL     OW16408   4.695   0.399   8.666 -0.1624 -0.6847 -0.1310
 1649SOL    HW116409   0.015   0.361   8.742  0.9906  0.2581 -0.3259
 1649SOL    HW216410   4.603   0.376   8.678 -0.1618 -0.4349  0.3692
 1650SOL     OW16411   2.852   4.592   1.812 -0.1137 -0.5804  0.2009
 1650SOL    HW116412   2.908   4.519   1.786  0.7337 -0.2599  1.1361
 1650SOL    HW216413   2.805   4.612   1.730 -2.1456  1.0049  1.7535
 1651SOL     OW16414   4.713   0.843  16.986 -0.1676  0.3815  0.1129
 1651SOL    HW116415   4.694   0.755  16.953 -0.4019  0.1653  0.8250
 1651SOL    HW216416   0.082   0.832  17.004 -0.3832 -1.7674 -0.1256
 1652SOL     OW16417   0.706   0.034   7.238 -0.0926  0.3037  0.3586
 1652SOL    HW116418   0.742   0.069   7.157 -2.7100  1.5020 -0.2554
 1652SOL    HW216419   0.615   0.033   7.209 -0.1659  0.5997  0.5711
 1653SOL     OW16420   0.421   1.057   8.072  0.4225 -0.2733 -0.3066
 1653SOL    HW116421   0.375   1.058   8.156 -0.7223  1.1543 -0.9472
 1653SOL    HW216422   0.511   1.036   8.098  1.1322  3.0717 -0.0913
 1654SOL     OW16423   3.630   3.561   5.757  0.2057 -0.0007  0.1814
 1654SOL    HW116424   3.684   3.498   5.709 -1.2424 -1.9049  1.0513
 1654SOL    HW216425   3.679   3.569   5.838 -2.3416 -1.3619  1.8437
 1655SOL     OW16426   0.871   1.267   6.600 -0.2379  0.4289 -0.1146
 1655SOL    HW116427   0.884   1.223   6.516 -0.0723 -1.3383  0.8357
 1655SOL    HW216428   0.942   1.224   6.647  1.1862  2.1649 -0.6848
 1656SOL     OW16429   3.898   2.477   7.708  0.5180 -0.3121 -0.1708
 1656SOL    HW116430   3.960   2.515   7.770  1.7869 -1.5217 -0.7165
 1656SOL    HW216431   3.921   2.526   7.629  0.8776 -0.4232 -0.1339
 1657SOL     OW16432   0.020   3.277  15.897 -0.3558 -0.5055  0.1000
 1657SOL    HW116433   0.081   3.204  15.905 -0.8295 -0.8912  0.2307
 1657SOL    HW216434   0.044   3.314  15.812 -0.2462 -2.3359 -0.6750
 1658SOL     OW16435   4.167   0.635   7.593  0.2659 -0.0880  0.2796
 1658SOL    HW116436   4.108   0.594   7.656  0.6286  0.0848  0.7306
 1658SOL    HW216437   4.133   0.612   7.506  0.5442 -0.5428  0.2926
 1659SOL     OW16438   1.872   4.528   5.019 -0.4373  0.1876 -0.1252
 1659SOL    HW116439   1.956   4.484   5.033 -1.6684 -1.7509  1.2748
 1659SOL    HW216440   1.838   4.501   4.934  0.3559 -0.6452 -0.1690
 1660SOL     OW16441   3.737   1.475   7.151 -1.0419 -0.2581  0.2488
 1660SOL    HW116442   3.719   1.532   7.225 -1.1867  2.0997 -1.5814
 1660SOL    HW216443   3.718   1.389   7.187  0.6905  0.0485  1.8562
 1661SOL     OW16444   4.202   3.933   7.892  0.0874  0.3182 -0.2769
 1661SOL    HW116445   4.278   3.896   7.936 -0.9349 -0.6214  0.7118
 1661SOL    HW216446   4.185   3.877   7.816 -0.3007 -0.8170  0.6447
 1662SOL     OW16447   0.432   2.769   6.759 -0.2098  0.2605 -0.3632
 1662SOL    HW116448   0.356   2.726   6.720 -0.1946 -0.0470 -0.0551
 1662SOL    HW216449   0.387   2.826   6.821  1.7265 -1.0490  2.2608
 1663SOL     OW16450   0.913   2.015   9.354 -0.2044 -0.3258 -0.2116
 1663SOL    HW116451   0.934   1.934   9.402  3.0191 -0.3329 -1.6353
 1663SOL    HW216452   0.844   1.984   9.295  1.2636  1.0976 -2.7035
 1664SOL     OW16453   1.115   2.454   6.362  0.5108  0.5458 -0.4644
 1664SOL    HW116454   1.191   2.445   6.420  1.1203 -1.9229 -1.6381
 1664SOL    HW216455   1.128   2.546   6.336 -1.3456  0.1551 -2.7677
 1665SOL     OW16456   2.246   0.876  14.139 -0.3778  0.1963  0.1730
 1665SOL    HW116457   2.192   0.918  14.205 -0.7889 -0.1525  0.0509
 1665SOL    HW216458   2.285   0.800  14.181  1.8764  0.8774 -0.6437
 1666SOL     OW16459   4.469   0.263   8.242 -0.1052  0.3407 -0.1222
 1666SOL    HW116460   4.386   0.270   8.289  0.9832  0.5524  1.7631
 1666SOL    HW216461   4.478   0.169   8.230  0.0054  0.1762  1.2567
 1667SOL     OW16462   4.457   0.564   2.508 -0.5508 -0.0117  0.4666
 1667SOL    HW116463   4.496   0.525   2.430  0.0612  0.5065  0.5190
 1667SOL    HW216464   4.461   0.658   2.490  0.2052  0.0040  0.7388
 1668SOL     OW16465   2.332   4.013  14.050 -0.3422 -0.0980  0.3629
 1668SOL    HW116466   2.311   4.074  14.120  0.3744 -1.6712  1.9383
 1668SOL    HW216467   2.248   3.968  14.043 -0.8730  0.9813 -0.2488
 1669SOL     OW16468   0.066   2.922  15.747  0.3286  0.2455  0.6785
 1669SOL    HW116469   0.094   2.832  15.732  0.5595 -0.1216  3.3941
 1669SOL    HW216470   4.705   2.913  15.791  0.0395  2.7779  0.6595
 1670SOL     OW16471   0.867   3.401   6.972  0.4879 -0.0065 -0.0825
 1670SOL    HW116472   0.872   3.485   7.018 -0.8500 -1.4772  2.7175
 1670SOL    HW216473   0.939   3.359   7.019  0.0974  0.1013  0.6151
 1671SOL     OW16474   2.747   0.895  15.602  0.4030  0.2811  0.7949
 1671SOL    HW116475   2.779   0.827  15.543 -1.2456 -1.1000  1.4915
 1671SOL    HW216476   2.828   0.940  15.625  1.5902 -0.6543 -1.5515
 1672SOL     OW16477   4.383   1.129   5.304  0.2163  0.3353  0.5636
 1672SOL    HW116478   4.429   1.207   5.274 -0.0658  0.5012  0.5650
 1672SOL    HW216479   4.313   1.165   5.358  0.1437  1.4145 -0.2563
 1673SOL     OW16480   0.801   4.298  16.869 -0.2153 -0.8042  0.3310
 1673SOL    HW116481   0.866   4.337  16.927 -1.7009 -0.5338  1.8115
 1673SOL    HW216482   0.751   4.375  16.841 -0.1734 -0.6885  0.5730
 1674SOL     OW16483   3.977   1.220   6.592 -0.0287  0.0290  0.2748
 1674SOL    HW116484   3.894   1.266   6.602 -0.3568 -0.6166  0.4670
 1674SOL    HW216485   4.029   1.299   6.574 -1.4547  1.2351  1.4460
 1675SOL     OW16486   2.035   4.424   9.318 -0.2505  0.3670  0.3692
 1675SOL    HW116487   2.097   4.440   9.389 -0.0668  2.0721 -0.1719
 1675SOL    HW216488   2.091   4.374   9.258  1.5134  0.5773  1.8497
 1676SOL     OW16489   2.462   1.519   3.376 -0.0634  0.2877 -1.1458
 1676SOL    HW116490   2.386   1.464   3.356  1.7913 -2.9206  0.5386
 1676SOL    HW216491   2.448   1.552   3.465  1.8098 -1.4921 -0.1727
 1677SOL     OW16492   1.746   4.456  14.631  0.2030 -0.1974  0.2772
 1677SOL    HW116493   1.798   4.381  14.659  0.3456  0.0037  0.5475
 1677SOL    HW216494   1.711   4.475  14.719  0.9033  1.4260  0.2001
 1678SOL     OW16495   1.281   1.011   9.945 -0.2977 -0.3813  0.4340
 1678SOL    HW116496   1.216   1.081   9.950 -0.1498 -0.3025  1.1910
 1678SOL    HW216497   1.328   1.029  10.026 -0.7492  0.1856  0.5713
 1679SOL     OW16498   3.930   0.277  16.850  0.0629  0.2416  0.4147
 1679SOL    HW116499   3.885   0.199  16.883 -1.2860  1.1830  0.8200
 1679SOL    HW216500   3.850   0.318  16.816  0.1370 -1.1206 -1.3951
 1680SOL     OW16501   2.490   0.414  16.107  0.1100 -0.3270 -0.6733
 1680SOL    HW116502   2.450   0.461  16.181 -0.8531 -1.5246 -0.4358
 1680SOL    HW216503   2.537   0.482  16.059  1.8230 -1.4552 -0.5926
 1681SOL     OW16504   2.377   2.009   4.126  0.1408 -0.4538 -0.0478
 1681SOL    HW116505   2.364   1.941   4.193 -0.1111 -0.2004  0.1594
 1681SOL    HW216506   2.448   2.061   4.163 -0.7985 -0.2575  1.5128
 1682SOL     OW16507   2.472   3.148   8.841 -0.3861 -0.0848 -0.1953
 1682SOL    HW116508   2.564   3.122   8.852 -0.5467 -0.5072  0.1367
 1682SOL    HW216509   2.467   3.157   8.746 -2.3758 -0.5372 -0.1342
 1683SOL     OW16510   2.746   0.237  13.198  0.5466 -0.4492  0.6636
 1683SOL    HW116511   2.729   0.315  13.250 -1.0512  0.1586 -0.7592
 1683SOL    HW216512   2.730   0.264  13.107  2.0177  0.6139  0.7351
 1684SOL     OW16513   1.643   2.641   1.872 -0.2850  0.0044  0.4251
 1684SOL    HW116514   1.681   2.630   1.785  0.2050  3.0197  0.2567
 1684SOL    HW216515   1.557   2.600   1.870 -0.0060 -0.6044  0.8557
 1685SOL     OW16516   0.902   1.092   4.164  0.0246 -0.7911  0.1705
 1685SOL    HW116517   0.960   1.046   4.224  1.4970  1.7330  0.7115
 1685SOL    HW216518   0.914   1.181   4.198  1.9149 -0.1183 -2.2996
 1686SOL     OW16519   3.505   2.373   5.948  0.7559 -0.3992  0.0645
 1686SOL    HW116520   3.518   2.431   5.873 -1.6658  0.6512  0.4573
 1686SOL    HW216521   3.596   2.361   5.974  1.3976  0.2692 -1.9042
 1687SOL     OW16522   2.985   3.844   6.255 -0.1280 -0.6582 -0.1438
 1687SOL    HW116523   3.034   3.785   6.198 -1.2834 -1.5254 -0.2485
 1687SOL    HW216524   3.031   3.843   6.338 -0.4725 -1.0159  0.0448
 1688SOL     OW16525   4.412   3.788  10.092 -0.0895 -0.2123 -0.1297
 1688SOL    HW116526   4.394   3.872  10.050 -0.0980  0.4666  1.2204
 1688SOL    HW216527   4.489   3.812  10.143 -0.8467  0.1787  0.8362
 1689SOL     OW16528   4.433   4.606   4.644 -0.4950  0.3690 -0.0186
 1689SOL    HW116529   4.476   4.541   4.588 -1.1122 -0.5064  0.5275
 1689SOL    HW216530   4.359   4.552   4.671  1.8102 -1.4737  2.5818
 1690SOL     OW16531   0.698   3.595   7.322 -0.0577  0.7468  0.0216
 1690SOL    HW116532   0.750   3.619   7.244 -1.4267 -0.8425 -1.3735
 1690SOL    HW216533   0.656   3.520   7.281 -0.8219  0.5939  1.0967
 1691SOL     OW16534   3.874   4.320   8.217  0.0085 -0.0339  0.3793
 1691SOL    HW116535   3.793   4.272   8.232 -0.3215  0.4333  0.1119
 1691SOL    HW216536   3.929   4.306   8.294 -0.0834  2.1712  0.8486
 1692SOL     OW16537   0.719   0.643   5.828 -0.0119 -0.4064  0.0348
 1692SOL    HW116538   0.655   0.576   5.847  0.2202 -0.6921 -0.1887
 1692SOL    HW216539   0.724   0.689   5.912  0.1979  0.2380 -0.3255
 1693SOL     OW16540   2.050   1.770   1.273  0.0905 -0.1947 -0.0269
 1693SOL    HW116541   2.013   1.729   1.351 -1.1020  2.2298  0.6794
 1693SOL    HW216542   1.990   1.844   1.264  1.2604  0.7042 -0.3966
 1694SOL     OW16543   2.635   0.467   9.154  0.0648  0.6656  0.4314
 1694SOL    HW116544   2.576   0.512   9.093  1.4742  0.5014 -1.0580
 1694SOL    HW216545   2.594   0.467   9.240 -2.9350 -0.2254 -1.0040
 1695SOL     OW16546   0.210   1.636   9.412  0.0700  0.4044  0.4575
 1695SOL    HW116547   0.194   1.601   9.500 -1.5339  0.9788  0.3781
 1695SOL    HW216548   0.279   1.574   9.387 -1.6233 -1.3647  0.2417
 1696SOL     OW16549   3.784   1.356  12.145 -0.1436 -0.1265 -0.1965
 1696SOL    HW116550   3.787   1.317  12.232  2.3863  0.5383  0.0170
 1696SOL    HW216551   3.873   1.336  12.115 -0.6867 -2.3085 -0.3580
 1697SOL     OW16552   3.549   1.144  12.461  0.0788 -0.2296  0.2355
 1697SOL    HW116553   3.522   1.164  12.371  0.5603 -0.3404  0.0660
 1697SOL    HW216554   3.490   1.203  12.509 -1.2281  0.0284 -1.6936
 1698SOL     OW16555   3.178   2.406  15.843  0.2863  0.0035 -0.0142
 1698SOL    HW116556   3.218   2.487  15.811 -0.7921  1.3947  2.1518
 1698SOL    HW216557   3.179   2.430  15.936 -0.8289 -2.0028  0.5249
 1699SOL     OW16558   1.970   3.676  15.308 -0.0821  0.2188 -0.1814
 1699SOL    HW116559   1.882   3.711  15.291  0.5097  1.5125 -0.5702
 1699SOL    HW216560   1.954   3.633  15.392  0.1386 -1.1258 -0.8339
 1700SOL     OW16561   1.068   0.639  14.467  0.0832  0.0653 -0.1782
 1700SOL    HW116562   1.160   0.660  14.482 -0.6877  3.5522 -0.3187
 1700SOL    HW216563   1.076   0.546  14.448  3.5274  0.3703 -0.2385
 1701SOL     OW16564   3.314   1.898   4.214  0.1968 -0.2323 -0.0440
 1701SOL    HW116565   3.273   1.947   4.143 -1.0525 -0.3196  0.6118
 1701SOL    HW216566   3.315   1.956   4.290  0.2872  0.1946 -0.3706
 1702SOL     OW16567   0.973   0.294   7.484  0.4029  0.5467  0.0264
 1702SOL    HW116568   0.903   0.334   7.433  1.2022 -0.4900 -1.8959
 1702SOL    HW216569   0.945   0.203   7.491  1.4527  0.2276  0.1564
 1703SOL     OW16570   0.116   1.144  11.454  0.3365  0.0845  0.1657
 1703SOL    HW116571   0.201   1.135  11.411 -1.2664 -1.2178 -2.7282
 1703SOL    HW216572   0.096   1.058  11.493 -0.0673 -0.3976 -1.1101
 1704SOL     OW16573   2.111   3.623   9.623 -0.5861  0.1054  0.0163
 1704SOL    HW116574   2.109   3.625   9.528  0.3989  2.1683  0.0480
 1704SOL    HW216575   2.193   3.670   9.634 -0.8019  0.2577  0.9848
 1705SOL     OW16576   1.352   3.349   4.163  0.6881  0.2058  0.2164
 1705SOL    HW116577   1.319   3.277   4.109  1.5503  0.3758 -0.5353
 1705SOL    HW216578   1.446   3.343   4.146  0.7928  0.1774  0.7889
 1706SOL     OW16579   3.610   3.807   3.479 -0.2347  0.1032 -0.3961
 1706SOL    HW116580   3.555   3.846   3.411  1.5008  0.6819 -1.4728
 1706SOL    HW216581   3.698   3.829   3.446 -0.4467 -0.0258 -1.0448
 1707SOL     OW16582   3.420   3.832   8.890 -0.0908 -0.0120  0.0251
 1707SOL    HW116583   3.345   3.880   8.926 -0.8913 -0.8211 -0.5905
 1707SOL    HW216584   3.395   3.744   8.918  1.3405 -0.5242 -0.3282
 1708SOL     OW16585   1.844   3.632   3.532  0.2445 -0.0904  0.2655
 1708SOL    HW116586   1.791   3.701   3.572  1.7437  0.5476  1.1773
 1708SOL    HW216587   1.888   3.597   3.609  0.8027 -0.8408 -0.3921
 1709SOL     OW16588   1.223   2.231   1.524  0.1742  0.0000 -0.0970
 1709SOL    HW116589   1.242   2.250   1.432  0.8490  0.2186  0.0874
 1709SOL    HW216590   1.138   2.189   1.515  0.5931 -0.9113  0.2146
 1710SOL     OW16591   0.653   1.694   6.242  0.0317  0.2046 -0.2407
 1710SOL    HW116592   0.700   1.614   6.265 -0.5637 -0.1648 -0.3163
 1710SOL    HW216593   0.591   1.714   6.311 -1.7410 -0.5585 -1.5967
 1711SOL     OW16594   3.817   1.673   4.327  0.3312 -0.2366 -0.7280
 1711SOL    HW116595   3.854   1.665   4.239 -0.1773  0.7554 -1.0313
 1711SOL    HW216596   3.724   1.656   4.311  0.7503 -1.1069 -2.2217
 1712SOL     OW16597   3.794   3.385   5.633 -0.1065 -0.4509 -0.2981
 1712SOL    HW116598   3.843   3.367   5.553  1.1194 -1.8368  0.7611
 1712SOL    HW216599   3.860   3.423   5.691  0.4746 -2.0481  0.0687
 1713SOL     OW16600   3.805   1.090   1.545 -0.4285 -0.1892  0.4033
 1713SOL    HW116601   3.855   1.009   1.556 -1.9053 -1.2478 -0.7041
 1713SOL    HW216602   3.833   1.115   1.457  0.6519  1.5718  1.2532
 1714SOL     OW16603   4.176   2.829   4.930 -0.1054 -0.2936  0.2963
 1714SOL    HW116604   4.088   2.827   4.968 -0.3547  1.1791 -0.2327
 1714SOL    HW216605   4.229   2.787   4.998  0.6761 -2.1802 -1.4521
 1715SOL     OW16606   1.271   1.857   5.013  0.4168  0.2604 -1.3701
 1715SOL    HW116607   1.289   1.869   5.106 -1.4087 -1.2895 -0.8297
 1715SOL    HW216608   1.293   1.766   4.993  0.3693  0.0449 -0.4485
 1716SOL     OW16609   2.440   3.771   5.485 -0.0740 -0.0525 -0.2806
 1716SOL    HW116610   2.457   3.768   5.579  1.3611 -0.4779 -0.5659
 1716SOL    HW216611   2.429   3.677   5.472 -1.7863  0.2117 -0.7506
 1717SOL     OW16612   0.379   1.044  14.313 -0.1705 -0.1379  0.0277
 1717SOL    HW116613   0.388   1.122  14.259  0.6185 -0.0890  0.2329
 1717SOL    HW216614   0.470   1.023  14.333 -0.0460 -0.8538 -1.2402
 1718SOL     OW16615   4.699   4.572  14.977 -0.2289  0.3555 -0.1575
 1718SOL    HW116616   4.689   4.634  15.049  1.3737 -0.4217  0.7077
 1718SOL    HW216617   0.057   4.528  15.000 -0.8992 -1.3566 -0.9774
 1719SOL     OW16618   1.292   2.038   8.589  0.2783  0.3557 -0.4773
 1719SOL    HW116619   1.242   2.114   8.620 -0.7051 -0.0927 -0.9564
 1719SOL    HW216620   1.286   1.978   8.663  1.5159  1.7334  0.7220
 1720SOL     OW16621   1.746   2.743   7.748  0.0002 -0.0764  0.1679
 1720SOL    HW116622   1.815   2.687   7.783 -1.8941 -1.4847  1.6222
 1720SOL    HW216623   1.786   2.753   7.661 -0.6348 -0.4331 -0.1702
 1721SOL     OW16624   1.382   2.771   3.381 -0.0596  0.2261 -0.4310
 1721SOL    HW116625   1.432   2.816   3.314 -0.5105  1.3880  0.0087
 1721SOL    HW216626   1.298   2.760   3.335 -1.2192  0.9974  1.4852
 1722SOL     OW16627   1.924   0.876   4.159 -0.8543  0.6481  0.2159
 1722SOL    HW116628   1.834   0.907   4.164 -1.1198  0.0942 -1.0441
 1722SOL    HW216629   1.959   0.910   4.241 -1.3461  0.1111  0.6461
 1723SOL     OW16630   4.555   2.871   8.718  0.0739  0.4166  0.4856
 1723SOL    HW116631   4.616   2.803   8.744  0.8373  1.0861  0.4397
 1723SOL    HW216632   4.574   2.881   8.625 -1.6171 -0.7077  0.0247
 1724SOL     OW16633   2.008   3.098  14.994  0.3057 -0.0627  0.1325
 1724SOL    HW116634   2.018   3.073  15.086  0.1120  2.8228  0.9575
 1724SOL    HW216635   2.096   3.135  14.986  0.4034 -0.7818 -1.9307
 1725SOL     OW16636   0.584   1.746   6.744 -0.1118 -1.0344 -0.2590
 1725SOL    HW116637   0.566   1.665   6.792 -1.3660  0.5626  2.0002
 1725SOL    HW216638   0.669   1.720   6.709  1.2214 -0.4389  2.5040
 1726SOL     OW16639   0.648   1.609   3.823 -0.0951  0.1229 -0.0723
 1726SOL    HW116640   0.722   1.563   3.784 -0.1407  0.5593 -0.6632
 1726SOL    HW216641   0.567   1.557   3.817  0.7219 -0.7582 -3.1437
 1727SOL     OW16642   0.274   1.478   8.708  0.0525  0.0132 -0.1199
 1727SOL    HW116643   0.236   1.542   8.648  0.6555 -1.8376 -2.5155
 1727SOL    HW216644   0.203   1.441   8.760  1.1719 -1.8282  0.0846
 1728SOL     OW16645   2.281   3.008   5.259  0.1102  0.4738  0.2244
 1728SOL    HW116646   2.218   2.944   5.226 -2.0438  2.2306  0.9620
 1728SOL    HW216647   2.335   2.953   5.315  3.3083  2.4428 -0.9423
 1729SOL     OW16648   1.531   3.707  10.032  1.1190 -0.9811 -0.0091
 1729SOL    HW116649   1.475   3.630  10.034 -0.1697 -0.0401  0.2959
 1729SOL    HW216650   1.544   3.715   9.938 -3.6985  2.8709 -0.3303
 1730SOL     OW16651   3.517   3.784   3.121  0.0774 -0.1593 -0.3132
 1730SOL    HW116652   3.465   3.729   3.063  2.7196 -0.2357 -2.6361
 1730SOL    HW216653   3.468   3.784   3.203  1.7882 -1.4432  0.7189
 1731SOL     OW16654   2.248   4.389  15.938  0.1913 -0.4014 -0.3711
 1731SOL    HW116655   2.258   4.484  15.930 -1.1160 -0.1395  1.2146
 1731SOL    HW216656   2.312   4.363  15.871  1.4159  3.6421 -0.8016
 1732SOL     OW16657   0.566   3.586   8.029 -0.2858  0.6771 -0.2180
 1732SOL    HW116658   0.628   3.529   7.983 -0.8520 -1.2902  1.4533
 1732SOL    HW216659   0.488   3.559   7.980  1.1605 -1.8520 -1.1506
 1733SOL     OW16660   4.139   3.679   2.895 -0.5396 -0.0961  0.0889
 1733SOL    HW116661   4.075   3.750   2.890 -2.2633 -1.3817  3.8787
 1733SOL    HW216662   4.101   3.616   2.956 -1.3270 -1.3097 -1.6517
 1734SOL     OW16663   2.197   0.521   1.536  0.1857 -0.5630  0.1029
 1734SOL    HW116664   2.130   0.492   1.598 -0.2278 -0.2920 -0.2167
 1734SOL    HW216665   2.275   0.525   1.591 -0.6149 -0.2177  1.2166
 1735SOL     OW16666   3.574   2.674  12.403  0.3843 -0.2053 -0.0999
 1735SOL    HW116667   3.578   2.620  12.324 -0.7088 -1.3371  0.6199
 1735SOL    HW216668   3.651   2.729  12.388 -0.6776  1.3815  0.3529
 1736SOL     OW16669   2.201   4.276   3.512  0.1859  0.0750 -0.3787
 1736SOL    HW116670   2.279   4.221   3.501  1.1907  2.0283 -3.0184
 1736SOL    HW216671   2.208   4.330   3.433  0.4198  0.4827 -0.0813
 1737SOL     OW16672   0.333   3.856   2.353  0.4701 -0.0607 -0.3710
 1737SOL    HW116673   0.285   3.787   2.398  0.0271  0.5307  0.0757
 1737SOL    HW216674   0.261   3.918   2.338  1.0162  0.9136  1.0084
 1738SOL     OW16675   0.269   2.269   5.804  0.1234  0.5827  0.7441
 1738SOL    HW116676   0.349   2.227   5.772 -0.7212  0.7159 -1.5748
 1738SOL    HW216677   0.198   2.242   5.746  1.7282  0.5404 -1.2105
 1739SOL     OW16678   0.384   0.966   0.730  0.0380 -0.8594  0.4476
 1739SOL    HW116679   0.461   0.991   0.679 -1.7657 -0.5422 -2.1410
 1739SOL    HW216680   0.395   0.871   0.737  2.7187 -0.8134 -3.2723
 1740SOL     OW16681   1.771   1.221   1.937  1.0421  0.1721 -0.2259
 1740SOL    HW116682   1.761   1.263   2.023 -1.6921  2.0001 -1.4056
 1740SOL    HW216683   1.693   1.167   1.925  0.1429  1.6522 -1.0627
 1741SOL     OW16684   3.043   4.034   3.784 -0.2596  0.2365  0.4992
 1741SOL    HW116685   3.058   3.973   3.857 -0.6935 -0.9358 -0.3927
 1741SOL    HW216686   3.006   3.986   3.710  0.2098  0.8073 -0.1081
 1742SOL     OW16687   0.761   2.578  12.288 -0.1295  0.1793 -0.4610
 1742SOL    HW116688   0.841   2.566  12.340 -0.3571  2.3486  0.3691
 1742SOL    HW216689   0.697   2.566  12.359  0.9758 -1.1372  0.3216
 1743SOL     OW16690   1.712   4.395   2.591  0.0438  0.2260  0.1129
 1743SOL    HW116691   1.686   4.310   2.556  1.8707 -0.1234 -0.3950
 1743SOL    HW216692   1.789   4.375   2.643  0.0279 -2.5080 -0.9254
 1744SOL     OW16693   4.438   3.809   7.982 -0.0485  0.0371  0.1066
 1744SOL    HW116694   4.383   3.736   7.957  0.2304 -0.2763  0.4131
 1744SOL    HW216695   4.517   3.812   7.929  1.7384 -0.1389  2.7266
 1745SOL     OW16696   0.515   1.932   9.507 -0.3657 -0.7096 -0.1003
 1745SOL    HW116697   0.594   1.941   9.562  0.5841 -2.4973 -1.1804
 1745SOL    HW216698   0.562   1.938   9.424  1.0336 -1.7784  0.6046
 1746SOL     OW16699   1.287   0.386   6.634 -0.7751 -0.1145 -0.1902
 1746SOL    HW116700   1.357   0.356   6.692 -0.3660  2.8572  0.8529
 1746SOL    HW216701   1.298   0.322   6.564 -1.8339 -0.6213  0.1026
 1747SOL     OW16702   2.514   0.642   6.366 -0.4122 -0.0942 -0.0942
 1747SOL    HW116703   2.561   0.724   6.349  0.2035 -0.3777  0.2467
 1747SOL    HW216704   2.531   0.632   6.459  0.3129 -0.4814 -0.2674
 1748SOL     OW16705   3.378   4.589   4.404  0.3019 -0.1432 -0.8540
 1748SOL    HW116706   3.370   4.662   4.343 -0.4982 -0.5054 -1.1814
 1748SOL    HW216707   3.324   4.625   4.475  0.4923 -1.1477 -0.2035
 1749SOL     OW16708   2.097   0.727   1.753 -0.1642 -0.1002  0.5599
 1749SOL    HW116709   2.116   0.735   1.846 -1.5634  0.1359  0.8201
 1749SOL    HW216710   2.056   0.641   1.741 -0.6386  0.0479  1.1300
 1750SOL     OW16711   1.102   2.850   5.022  0.0142  0.6262  1.1598
 1750SOL    HW116712   1.058   2.935   5.030 -1.4198 -0.0848  0.6284
 1750SOL    HW216713   1.030   2.787   5.026 -0.0611  0.7152  1.2101
 1751SOL     OW16714   2.804   1.421   8.819 -0.1122 -0.4114 -0.3531
 1751SOL    HW116715   2.788   1.376   8.902  0.2780 -0.6324 -0.4001
 1751SOL    HW216716   2.717   1.426   8.781 -0.1541  0.0546 -0.1994
 1752SOL     OW16717   1.835   3.725   0.725  0.0852 -0.0158 -0.1941
 1752SOL    HW116718   1.753   3.740   0.773 -0.6472 -1.3357 -1.0211
 1752SOL    HW216719   1.897   3.722   0.797 -1.8378  0.5196  1.5022
 1753SOL     OW16720   0.829   4.423   6.521  0.4219 -0.8120 -0.9729
 1753SOL    HW116721   0.794   4.354   6.463 -0.5362 -0.4360 -0.8384
 1753SOL    HW216722   0.747   4.471   6.511  0.1159 -0.8775  1.3990
 1754SOL     OW16723   0.352   0.487   5.211 -0.2177  0.7241  0.5046
 1754SOL    HW116724   0.276   0.526   5.254  0.4305  0.5880  1.7860
 1754SOL    HW216725   0.393   0.568   5.179  0.4218  1.1740  2.4647
 1755SOL     OW16726   0.760   3.075   6.725  0.2116  0.1176  0.2637
 1755SOL    HW116727   0.696   3.118   6.782  0.6880 -0.3800  1.1756
 1755SOL    HW216728   0.706   3.036   6.657  1.2831  0.0275 -0.5325
 1756SOL     OW16729   3.126   3.538   2.654  0.0868 -0.0240 -0.1387
 1756SOL    HW116730   3.166   3.455   2.626  1.4289  1.1318 -1.6350
 1756SOL    HW216731   3.149   3.536   2.747  1.1489  1.9119 -0.3662
 1757SOL     OW16732   2.154   2.778   5.190  0.7123 -0.2440  0.2455
 1757SOL    HW116733   2.148   2.750   5.098 -0.4692 -0.9736  0.5499
 1757SOL    HW216734   2.225   2.724   5.224  1.7429  0.4076 -0.8611
 1758SOL     OW16735   3.437   1.487   1.716  0.6327  0.0141 -0.2710
 1758SOL    HW116736   3.494   1.545   1.666 -0.6852 -0.4737 -2.3521
 1758SOL    HW216737   3.493   1.421   1.755  1.1841  1.0174  0.6108
 1759SOL     OW16738   3.024   0.905  12.236  0.3188  0.0407 -0.6651
 1759SOL    HW116739   3.039   0.989  12.192 -0.1727  0.5439  0.1301
 1759SOL    HW216740   2.941   0.886  12.192 -0.8501 -0.9717  1.9656
 1760SOL     OW16741   2.572   1.488  17.146 -0.1531 -0.3407  0.3191
 1760SOL    HW116742   2.485   1.483  17.186  0.9810  0.7548  2.9416
 1760SOL    HW216743   2.613   1.405  17.169  1.5726  0.6399  0.7204
 1761SOL     OW16744   1.265   0.862   1.648 -0.6176  0.7782  0.2448
 1761SOL    HW116745   1.212   0.838   1.573  1.0779 -0.6838 -0.4962
 1761SOL    HW216746   1.347   0.872   1.600 -2.0515  0.4998 -2.2528
 1762SOL     OW16747   2.208   1.462   1.264  0.4977 -0.2515 -0.6714
 1762SOL    HW116748   2.201   1.504   1.178 -0.8794 -0.2485 -0.5582
 1762SOL    HW216749   2.159   1.386   1.233  0.5943 -0.9588  0.9139
 1763SOL     OW16750   2.239   1.085   1.356  0.0924 -0.5240  0.9773
 1763SOL    HW116751   2.236   1.159   1.417 -1.6137  0.1486  0.0717
 1763SOL    HW216752   2.197   1.017   1.410 -2.4773  1.8805  1.9904
 1764SOL     OW16753   1.852   2.130   3.202 -0.1301 -0.2388  0.6514
 1764SOL    HW116754   1.876   2.122   3.110 -1.6887 -1.0685  0.3113
 1764SOL    HW216755   1.924   2.163   3.256  1.0494  0.0292 -1.1089
 1765SOL     OW16756   1.871   3.144   8.860 -0.1492 -0.0094  0.2409
 1765SOL    HW116757   1.839   3.054   8.872  0.2075 -0.4091 -1.7779
 1765SOL    HW216758   1.958   3.126   8.825 -0.2205  0.1485 -0.0191
 1766SOL     OW16759   2.870   1.899   2.637 -0.0705  0.1398 -0.1557
 1766SOL    HW116760   2.840   1.842   2.566  1.2701  0.0236 -0.6278
 1766SOL    HW216761   2.957   1.862   2.653 -0.2987 -0.4850 -0.3538
 1767SOL     OW16762   0.595   2.813   3.160 -0.2459  0.1514  0.0373
 1767SOL    HW116763   0.534   2.888   3.159 -2.8252 -1.9394 -0.0414
 1767SOL    HW216764   0.559   2.765   3.234 -1.4713 -0.2977 -0.8288
 1768SOL     OW16765   4.468   2.425   3.015  0.2399  0.2861 -0.0245
 1768SOL    HW116766   4.389   2.451   3.061 -1.2886  0.4237 -2.7348
 1768SOL    HW216767   4.525   2.502   3.013 -0.5188  0.8378 -0.1127
 1769SOL     OW16768   1.960   4.129   8.469 -0.1636  0.5218  0.0652
 1769SOL    HW116769   1.893   4.191   8.498  0.0758  0.0007  1.7439
 1769SOL    HW216770   1.993   4.093   8.552  0.1513  0.5329 -0.0543
 1770SOL     OW16771   2.200   3.486   5.184  0.0453 -0.4034  0.2346
 1770SOL    HW116772   2.228   3.399   5.212 -1.0097 -1.0520 -0.7340
 1770SOL    HW216773   2.286   3.526   5.175 -0.0531 -0.3904 -0.6043
 1771SOL     OW16774   3.284   0.133   5.989  0.3726  0.6478 -0.1449
 1771SOL    HW116775   3.258   0.041   5.985  1.4953  0.3334 -0.1418
 1771SOL    HW216776   3.260   0.163   6.077 -3.9965 -2.5058 -0.2635
 1772SOL     OW16777   3.166   1.118  17.612 -0.1762  0.7855  0.1367
 1772SOL    HW116778   3.192   1.119   0.006 -1.9563  0.8297  0.6351
 1772SOL    HW216779   3.225   1.182  17.572  1.0205 -0.9208 -0.8247
 1773SOL     OW16780   4.141   1.591   4.887 -0.5069  0.2304 -0.8537
 1773SOL    HW116781   4.176   1.558   4.804  1.0491  1.9984 -0.8862
 1773SOL    HW216782   4.048   1.589   4.865 -0.5285  0.9658 -0.8217
 1774SOL     OW16783   2.897   1.483   3.268  0.1868  0.3223  0.1571
 1774SOL    HW116784   2.991   1.489   3.257  0.3888 -0.7572  1.1993
 1774SOL    HW216785   2.865   1.488   3.178  1.4569 -0.6265 -0.3419
 1775SOL     OW16786   4.621   2.607   9.824  0.0211 -0.1722  0.3955
 1775SOL    HW116787   4.644   2.662   9.899  0.2155  0.9886 -0.5176
 1775SOL    HW216788   4.623   2.518   9.859 -1.5837  0.2790  1.6355
 1776SOL     OW16789   4.523   1.636   5.440 -0.5391  0.2294 -0.2129
 1776SOL    HW116790   4.602   1.641   5.494  0.1626 -1.0480 -1.1051
 1776SOL    HW216791   4.537   1.701   5.371  0.2576  1.1523  0.8113
 1777SOL     OW16792   2.048   4.000   5.744  0.1833  0.5224 -0.6082
 1777SOL    HW116793   2.077   3.923   5.697  0.0175 -0.0427  0.2126
 1777SOL    HW216794   2.126   4.034   5.789 -0.3430  2.3131 -1.0448
 1778SOL     OW16795   4.238   3.624   8.563  0.4582 -0.8625  0.1572
 1778SOL    HW116796   4.195   3.705   8.592 -0.4500 -0.3161 -2.6647
 1778SOL    HW216797   4.265   3.581   8.644  1.1544 -0.0103  0.3848
 1779SOL     OW16798   3.891   1.015   2.954  0.3459 -0.1606  0.2135
 1779SOL    HW116799   3.920   0.937   3.002 -0.3125 -0.8538 -0.5130
 1779SOL    HW216800   3.799   0.992   2.938  0.2438  1.0128 -0.8638
 1780SOL     OW16801   3.770   1.032   7.395 -0.0810 -0.1009  0.1901
 1780SOL    HW116802   3.845   0.972   7.387  1.8493  2.2576  0.6902
 1780SOL    HW216803   3.707   0.970   7.431 -0.4551  0.1824  0.0234
 1781SOL     OW16804   0.174   2.117   1.060  0.1895  0.1821 -0.0199
 1781SOL    HW116805   0.161   2.038   1.008  0.2906  0.7726 -0.9427
 1781SOL    HW216806   0.206   2.093   1.147 -1.9975  2.4253  1.4068
 1782SOL     OW16807   3.694   2.455   0.250  0.9062  0.6427  0.1071
 1782SOL    HW116808   3.615   2.401   0.256  0.4640  1.2911  0.1734
 1782SOL    HW216809   3.713   2.452   0.156 -1.9070 -0.7701 -0.4398
 1783SOL     OW16810   2.583   3.649   2.847  0.2783 -0.6643  0.2107
 1783SOL    HW116811   2.545   3.592   2.781 -1.2638 -0.9198  1.3234
 1783SOL    HW216812   2.507   3.652   2.905 -0.8220  0.2335 -1.2895
 1784SOL     OW16813   0.270   4.560  11.345  0.1048 -0.3819  0.4261
 1784SOL    HW116814   0.323   4.546  11.267  1.9582  1.8221  1.2766
 1784SOL    HW216815   0.273   4.655  11.353 -0.3765 -0.4779  1.7415
 1785SOL     OW16816   1.691   1.194  12.975 -0.0299  0.3966 -0.3704
 1785SOL    HW116817   1.598   1.204  12.997  0.1003  1.0310 -0.1155
 1785SOL    HW216818   1.712   1.284  12.950  3.2684  0.2391  1.9672
 1786SOL     OW16819   2.182   2.918  17.006  0.2414 -0.3846  0.1805
 1786SOL    HW116820   2.181   2.958  17.093  1.0998  1.4930 -0.6902
 1786SOL    HW216821   2.096   2.947  16.975  0.4102 -2.0547 -1.8563
 1787SOL     OW16822   4.127   3.022   8.307  0.5491 -0.4575 -0.4538
 1787SOL    HW116823   4.213   3.022   8.349  1.0385 -3.5564 -1.4455
 1787SOL    HW216824   4.090   3.108   8.330  0.2018 -0.3608 -1.3888
 1788SOL     OW16825   4.202   0.277   4.591  0.2472 -0.3905  0.4865
 1788SOL    HW116826   4.197   0.356   4.537  1.6350 -0.3175  0.4756
 1788SOL    HW216827   4.147   0.214   4.546  1.4208 -1.2557  0.2683
 1789SOL     OW16828   4.366   2.186  17.112 -0.3621 -0.0230 -0.1519
 1789SOL    HW116829   4.275   2.204  17.089 -0.1189  3.2526  1.4120
 1789SOL    HW216830   4.380   2.224  17.199  1.4877  0.1618 -0.5234
 1790SOL     OW16831   4.045   1.498  16.515  0.0783  0.3665  0.5433
 1790SOL    HW116832   3.986   1.574  16.513 -1.8467 -1.1525 -0.3361
 1790SOL    HW216833   4.114   1.530  16.456  0.4803 -2.3395 -0.4577
 1791SOL     OW16834   4.396   1.991   1.299 -0.2518  0.1073 -0.1697
 1791SOL    HW116835   4.316   2.036   1.271  0.4230  1.0571 -0.5776
 1791SOL    HW216836   4.369   1.968   1.388  0.3885 -0.0090 -0.0061
 1792SOL     OW16837   4.635   0.638   6.070  0.5124  0.0622  0.3497
 1792SOL    HW116838   4.583   0.679   6.139 -2.9027 -2.2083 -0.8396
 1792SOL    HW216839   4.715   0.685   6.095  1.1457 -0.3269 -0.9597
 1793SOL     OW16840   1.461   4.703   5.516 -0.0977  0.2650  0.3769
 1793SOL    HW116841   1.368   4.682   5.521  0.1343 -0.8522 -0.0761
 1793SOL    HW216842   1.475   4.716   5.422  0.3513 -2.0162  0.1446
 1794SOL     OW16843   4.609   1.922   2.858 -0.1463  0.3600 -0.3743
 1794SOL    HW116844   4.574   1.892   2.774 -1.1180  2.5825 -0.7619
 1794SOL    HW216845   4.664   1.993   2.825 -1.3768  1.4184 -0.1406
 1795SOL     OW16846   4.559   4.020   9.193  0.6469 -0.5522  0.0749
 1795SOL    HW116847   4.614   3.954   9.236  3.4586  0.7698 -1.5377
 1795SOL    HW216848   4.524   3.972   9.118 -2.0560  1.9905 -0.2939
 1796SOL     OW16849   4.005   2.902  13.085 -0.0044 -0.1060 -0.1976
 1796SOL    HW116850   4.021   2.962  13.012  0.2673  0.6824  0.5204
 1796SOL    HW216851   3.911   2.891  13.072 -0.2636  0.6599  0.9994
 1797SOL     OW16852   2.944   0.394   7.341 -0.0465  0.2583  0.0084
 1797SOL    HW116853   2.930   0.480   7.379  1.5200  0.3910  0.2783
 1797SOL    HW216854   2.866   0.392   7.285 -0.2207 -0.4587  0.2701
 1798SOL     OW16855   1.865   4.465   8.876 -0.6460  0.3823  0.0488
 1798SOL    HW116856   1.796   4.472   8.942 -0.8203 -0.7824 -0.0141
 1798SOL    HW216857   1.920   4.400   8.919 -1.0364 -1.1564 -1.7875
 1799SOL     OW16858   4.081   1.435   9.422 -0.1334 -0.1871  0.9854
 1799SOL    HW116859   4.042   1.499   9.362 -0.3167 -0.4124  0.8651
 1799SOL    HW216860   4.022   1.362   9.407 -0.2748 -0.1001  1.1120
 1800SOL     OW16861   0.754   3.148   4.521  0.5206  0.0425 -0.3544
 1800SOL    HW116862   0.700   3.158   4.443 -1.2145  1.1394  1.0112
 1800SOL    HW216863   0.824   3.213   4.511 -0.9942  1.4155 -1.8348
 1801SOL     OW16864   2.777   0.341   8.945 -0.1819  0.5127  0.2484
 1801SOL    HW116865   2.852   0.320   9.000 -0.9192  0.0822  1.0841
 1801SOL    HW216866   2.721   0.393   9.002  0.5084  1.4613  0.0652
 1802SOL     OW16867   0.945   4.068   9.969  0.0838  0.2555  0.0671
 1802SOL    HW116868   0.964   4.154  10.007 -0.0498 -0.2937  1.3665
 1802SOL    HW216869   0.858   4.047  10.003 -0.0710  0.6751 -0.0696
 1803SOL     OW16870   0.402   1.796   2.725 -0.1684 -0.0341 -0.2903
 1803SOL    HW116871   0.464   1.859   2.686 -1.6618  0.1791 -2.3482
 1803SOL    HW216872   0.318   1.838   2.705 -0.4317 -0.3021  0.2925
 1804SOL     OW16873   3.762   4.563   8.326 -0.3302 -0.2004  0.3806
 1804SOL    HW116874   3.809   4.480   8.321 -1.0236 -0.5703  0.0259
 1804SOL    HW216875   3.672   4.545   8.301 -0.0561 -1.3434  0.2182
 1805SOL     OW16876   2.859   0.482  11.031 -0.6717  0.6292 -0.5942
 1805SOL    HW116877   2.911   0.403  11.037 -0.7159  0.5912 -0.7206
 1805SOL    HW216878   2.789   0.440  10.980 -0.8917 -3.1934  2.8723
 1806SOL     OW16879   0.743   2.212   3.418  0.2952 -0.4856  0.6423
 1806SOL    HW116880   0.803   2.270   3.371  1.6302 -1.2791  1.3838
 1806SOL    HW216881   0.661   2.262   3.419 -0.3411 -1.4764 -0.5745
 1807SOL     OW16882   4.509   4.333   5.419 -0.3759  0.1030 -0.2281
 1807SOL    HW116883   4.595   4.353   5.457  0.3532 -0.5320 -1.5755
 1807SOL    HW216884   4.524   4.320   5.326 -0.5478 -1.3754 -0.0379
 1808SOL     OW16885   0.374   0.384   4.298 -0.0690 -0.4865  0.0700
 1808SOL    HW116886   0.315   0.324   4.253 -0.0738  1.8449 -3.0306
 1808SOL    HW216887   0.444   0.326   4.326 -0.3308 -0.5403  0.6198
 1809SOL     OW16888   0.149   4.577   9.040 -0.0255 -0.2802 -0.4339
 1809SOL    HW116889   0.108   4.535   9.116 -1.0143  0.9246 -0.2990
 1809SOL    HW216890   0.195   4.497   9.013  0.1607 -0.5644  0.7480
 1810SOL     OW16891   0.458   2.417   7.245 -0.5030 -0.5237  0.0151
 1810SOL    HW116892   0.417   2.362   7.310 -0.9783 -0.7591 -0.4835
 1810SOL    HW216893   0.460   2.350   7.176  0.6984 -1.5960  1.0906
 1811SOL     OW16894   3.026   0.389   6.723  0.1158 -1.3271 -0.0201
 1811SOL    HW116895   3.108   0.379   6.773  0.8853  0.6049 -0.8924
 1811SOL    HW216896   3.064   0.436   6.649  1.0202  1.2727  2.1113
 1812SOL     OW16897   2.831   2.662  10.578 -0.2741 -0.1676  0.6318
 1812SOL    HW116898   2.764   2.661  10.646  1.1867  2.6185  2.0883
 1812SOL    HW216899   2.819   2.746  10.535  3.3239 -0.8037 -1.5733
 1813SOL     OW16900   0.574   0.379   6.691  0.7576  0.1404  0.3073
 1813SOL    HW116901   0.595   0.303   6.637  1.0652  1.3949 -1.3283
 1813SOL    HW216902   0.531   0.336   6.765 -0.2063 -0.0244 -0.3413
 1814SOL     OW16903   4.530   4.311   2.036 -0.0501 -0.2829  0.7046
 1814SOL    HW116904   4.552   4.240   1.976  0.7583 -1.3574  2.2668
 1814SOL    HW216905   4.445   4.272   2.054  0.1152 -2.1968 -2.5179
 1815SOL     OW16906   4.609   1.868   8.358  0.4498 -0.2418  0.2530
 1815SOL    HW116907   4.541   1.930   8.382  1.7583  1.2156  0.1713
 1815SOL    HW216908   4.641   1.834   8.442  0.9624  0.3061  0.2784
 1816SOL     OW16909   0.361   2.355   1.568 -0.2940  0.0933  0.3253
 1816SOL    HW116910   0.403   2.311   1.494  0.1343  0.9492  0.0635
 1816SOL    HW216911   0.394   2.296   1.637 -2.6580 -0.3743  1.0393
 1817SOL     OW16912   3.900   3.663   3.655  0.2381 -0.1363  0.4939
 1817SOL    HW116913   3.855   3.747   3.646 -1.0252 -1.0153 -1.4280
 1817SOL    HW216914   3.914   3.648   3.562  0.0694  1.4363  0.2124
 1818SOL     OW16915   0.331   2.943   4.631 -0.0582  0.0713 -0.0604
 1818SOL    HW116916   0.357   2.870   4.576  0.7805 -0.8686  1.5745
 1818SOL    HW216917   0.240   2.948   4.602 -0.4581 -0.6893  1.0611
 1819SOL     OW16918   0.407   3.547  11.711  0.5471 -0.2267  0.3656
 1819SOL    HW116919   0.402   3.486  11.638 -0.6761 -0.2836  0.4863
 1819SOL    HW216920   0.340   3.506  11.766  0.2616  1.5862  1.3717
 1820SOL     OW16921   1.556   3.544  13.082  0.4447 -0.2845  0.2150
 1820SOL    HW116922   1.556   3.627  13.035  1.8283 -0.1115  0.5233
 1820SOL    HW216923   1.597   3.582  13.160 -0.8082  1.2428  0.1448
 1821SOL     OW16924   1.583   1.308   6.235  0.5067  0.4290  0.2232
 1821SOL    HW116925   1.612   1.398   6.247  0.7484  0.2919  0.6589
 1821SOL    HW216926   1.510   1.293   6.294  1.1271  1.1025  1.1481
 1822SOL     OW16927   3.379   1.149  16.437 -0.4589  0.0358 -0.4653
 1822SOL    HW116928   3.323   1.225  16.429  0.8975  0.9680 -1.0733
 1822SOL    HW216929   3.392   1.126  16.345 -0.3628 -2.8073  0.2371
 1823SOL     OW16930   1.554   0.010   5.806  0.1337 -0.0120  0.6560
 1823SOL    HW116931   1.605   4.691   5.737  1.0068  0.6187  0.8968
 1823SOL    HW216932   1.618   0.014   5.877 -0.6335 -0.4365  1.3626
 1824SOL     OW16933   3.420   0.320   8.960  0.5835 -0.4643  0.8724
 1824SOL    HW116934   3.337   0.360   8.984 -0.3498 -1.1350 -1.2123
 1824SOL    HW216935   3.444   0.357   8.875  1.3094  2.9106  2.5512
 1825SOL     OW16936   1.386   3.095   7.327  0.0587 -0.1190 -0.2917
 1825SOL    HW116937   1.463   3.040   7.340 -1.2290 -1.8531 -0.0050
 1825SOL    HW216938   1.385   3.171   7.385  2.8446 -0.7504  0.5706
 1826SOL     OW16939   0.934   4.183   9.202 -0.3504 -0.2797  0.5522
 1826SOL    HW116940   0.916   4.143   9.287 -1.4066 -0.7431  0.1049
 1826SOL    HW216941   0.854   4.235   9.195 -0.6473 -1.0949 -1.9474
 1827SOL     OW16942   4.459   1.484   8.963 -0.1634  0.4107 -0.1070
 1827SOL    HW116943   4.465   1.442   8.877 -0.0419  0.3005 -0.0424
 1827SOL    HW216944   4.365   1.477   8.981  0.0912  0.4350  1.2100
 1828SOL     OW16945   2.586   0.274   6.561  0.9857 -0.0059  0.4260
 1828SOL    HW116946   2.546   0.302   6.478 -2.3625  1.4494  2.5320
 1828SOL    HW216947   2.515   0.214   6.584  1.7467 -0.5985  1.2298
 1829SOL     OW16948   0.992   4.035   1.971  0.0895  0.3683  0.1108
 1829SOL    HW116949   0.903   4.057   1.944 -0.3970 -0.1141  1.3064
 1829SOL    HW216950   0.985   3.957   2.026  0.6518  0.3698  0.1830
 1830SOL     OW16951   2.097   2.319   7.889  0.7650 -0.4209  1.0742
 1830SOL    HW116952   2.116   2.230   7.919  1.1003 -0.3877  0.9672
 1830SOL    HW216953   2.185   2.357   7.890  0.2635  0.6992  2.1391
 1831SOL     OW16954   1.334   4.011   8.781 -0.0720  0.1089  0.9629
 1831SOL    HW116955   1.246   4.047   8.766  0.1975 -0.5293 -2.2288
 1831SOL    HW216956   1.387   4.062   8.720 -0.2550  1.0120  1.5584
 1832SOL     OW16957   2.676   3.846  14.070  0.6573 -0.3471 -0.3436
 1832SOL    HW116958   2.616   3.834  14.143 -1.8458  1.0775 -2.1618
 1832SOL    HW216959   2.646   3.926  14.026  0.5882  1.0529  2.2377
 1833SOL     OW16960   3.177   2.265  11.129  0.6249  0.2227 -0.3556
 1833SOL    HW116961   3.138   2.328  11.068 -0.2965  0.2582  0.2707
 1833SOL    HW216962   3.269   2.262  11.104  0.4014 -1.8708 -0.9334
 1834SOL     OW16963   2.332   4.339   3.753  0.1973  0.1575  0.3213
 1834SOL    HW116964   2.313   4.432   3.752  2.2401  0.5685 -1.5756
 1834SOL    HW216965   2.274   4.298   3.689 -1.3261  2.4514  0.2419
 1835SOL     OW16966   1.024   0.591  17.448  0.1840  0.2571  0.4410
 1835SOL    HW116967   1.056   0.508  17.414  1.9309  1.1403 -0.0612
 1835SOL    HW216968   1.084   0.656  17.410 -1.5166 -0.2506 -3.1246
 1836SOL     OW16969   3.183   2.889   0.842 -0.1217 -0.2674  0.5454
 1836SOL    HW116970   3.192   2.801   0.806 -1.1725 -0.7800  1.5426
 1836SOL    HW216971   3.103   2.922   0.801 -0.1116 -1.2018 -0.2135
 1837SOL     OW16972   0.966   2.976   6.979 -0.5529 -0.3487 -0.5713
 1837SOL    HW116973   0.889   3.013   7.022  0.4274 -3.6331  4.0688
 1837SOL    HW216974   0.925   2.966   6.893  1.1987 -2.3136 -1.2006
 1838SOL     OW16975   2.275   3.932   3.284  0.0773  0.3293  0.3256
 1838SOL    HW116976   2.282   3.902   3.193  0.1657 -0.2169  0.5143
 1838SOL    HW216977   2.343   3.875   3.321  0.1882 -0.1091 -0.5424
 1839SOL     OW16978   3.330   1.542   2.351  0.2103  0.0398  0.4250
 1839SOL    HW116979   3.381   1.481   2.298 -0.3279  0.1125 -0.1708
 1839SOL    HW216980   3.248   1.554   2.304  1.5522  1.2055 -1.6169
 1840SOL     OW16981   0.282   2.101   2.535  0.5932 -0.2411 -0.2613
 1840SOL    HW116982   0.205   2.154   2.512  0.5714 -1.6316 -3.4731
 1840SOL    HW216983   0.268   2.018   2.488 -1.4476  0.1490 -0.3620
 1841SOL     OW16984   2.298   0.019   7.311 -0.4328  0.0447  0.2318
 1841SOL    HW116985   2.363   0.083   7.340  0.2412  0.7390 -2.7994
 1841SOL    HW216986   2.230   0.079   7.280 -1.2508 -1.1169 -0.1883
 1842SOL     OW16987   0.651   4.232  17.270 -0.1898 -0.2253  0.5952
 1842SOL    HW116988   0.615   4.306  17.319 -0.5102 -0.6617  1.0212
 1842SOL    HW216989   0.641   4.271  17.183  0.8503  0.8345  0.9475
 1843SOL     OW16990   2.001   1.248  17.689  0.4393  0.3450 -0.3686
 1843SOL    HW116991   1.991   1.174   0.052  0.1917  1.6585  1.1742
 1843SOL    HW216992   1.993   1.208  17.602 -2.2165 -1.2715  0.5876
 1844SOL     OW16993   2.585   2.983   6.060  0.3428 -0.3177 -0.0096
 1844SOL    HW116994   2.575   3.049   5.991 -1.6535 -0.0332  0.5531
 1844SOL    HW216995   2.601   3.040   6.135 -0.4644 -0.2788  0.1277
 1845SOL     OW16996   0.512   1.534   4.072  0.2899  0.3716  0.1229
 1845SOL    HW116997   0.553   1.552   3.988 -0.6158  0.5269 -0.2794
 1845SOL    HW216998   0.420   1.554   4.054 -0.1422  0.1766  2.0508
 1846SOL     OW16999   4.301   3.595   7.856 -0.1986 -0.1514  0.2583
 1846SOL    HW117000   4.248   3.523   7.822  0.2170 -0.9556  1.3327
 1846SOL    HW217001   4.387   3.557   7.838  0.6399  0.7699  2.2769
 1847SOL     OW17002   3.462   1.766   7.290  0.1098  0.0840 -0.1274
 1847SOL    HW117003   3.440   1.691   7.234 -0.2928 -0.4976  0.8127
 1847SOL    HW217004   3.396   1.765   7.359  0.9523  0.1115  0.6788
 1848SOL     OW17005   3.855   0.095   5.669 -0.0516 -0.1860 -0.1645
 1848SOL    HW117006   3.877   0.108   5.577 -0.5188 -1.4227 -0.4537
 1848SOL    HW217007   3.808   0.178   5.680  1.0533  0.3537  0.4445
 1849SOL     OW17008   1.972   0.812   1.498 -0.0050 -0.1222  0.0734
 1849SOL    HW117009   1.919   0.732   1.501 -1.2769  0.8025  2.3875
 1849SOL    HW217010   2.023   0.797   1.577  1.3930 -0.4357 -0.8851
 1850SOL     OW17011   2.039   2.286  14.507  0.5882 -0.3416 -0.1273
 1850SOL    HW117012   2.044   2.321  14.417  0.1215 -1.4874 -0.5894
 1850SOL    HW217013   2.100   2.341  14.557 -2.3812  1.7820  1.1455
 1851SOL     OW17014   4.242   2.398   4.227 -0.2743 -0.0053 -0.0328
 1851SOL    HW117015   4.215   2.383   4.137  2.2307 -1.6778 -0.5153
 1851SOL    HW217016   4.336   2.380   4.228 -0.4173 -0.7658 -1.0956
 1852SOL     OW17017   4.446   1.416   1.435  0.2258  0.4173 -0.1711
 1852SOL    HW117018   4.533   1.395   1.403  0.5988  0.9867  0.4563
 1852SOL    HW217019   4.384   1.405   1.362  0.5501  0.0397 -0.3880
 1853SOL     OW17020   0.305   3.849   7.178 -0.5404  0.0621 -0.1450
 1853SOL    HW117021   0.386   3.844   7.127 -0.1634  2.7105  0.1669
 1853SOL    HW217022   0.341   3.817   7.260 -0.8656  1.3994  0.5145
 1854SOL     OW17023   3.474   1.902   3.606  0.3624 -0.2011 -0.1153
 1854SOL    HW117024   3.559   1.905   3.562 -1.6156  0.4693 -3.9227
 1854SOL    HW217025   3.441   1.812   3.603 -0.8421  0.2214  0.5823
 1855SOL     OW17026   3.756   4.157   5.174 -0.1136 -0.3825 -0.1190
 1855SOL    HW117027   3.826   4.194   5.227  3.0519 -2.8987 -2.4877
 1855SOL    HW217028   3.693   4.124   5.237 -1.1633  0.4980 -0.7098
 1856SOL     OW17029   3.592   0.822   1.354  0.4007 -0.0922  0.2778
 1856SOL    HW117030   3.659   0.873   1.309  1.0154 -1.2142 -0.0664
 1856SOL    HW217031   3.516   0.847   1.301  1.6406  0.3828 -1.2697
 1857SOL     OW17032   0.350   2.256  10.261  0.0835  0.7413  0.1118
 1857SOL    HW117033   0.383   2.247  10.350  0.8739  2.6189 -0.0061
 1857SOL    HW217034   0.262   2.278  10.292  0.1681  0.7980  0.3102
 1858SOL     OW17035   1.905   4.661  11.469  0.3000  0.5203 -0.3049
 1858SOL    HW117036   1.948   4.580  11.444 -0.4279  0.3835 -1.1013
 1858SOL    HW217037   1.958   4.688  11.545  1.1191  1.3813 -1.1847
 1859SOL     OW17038   3.595   0.006  13.046 -0.2840 -0.3074 -0.1380
 1859SOL    HW117039   3.665   4.665  13.045 -0.1513 -0.1888  2.3610
 1859SOL    HW217040   3.524   4.678  13.084 -1.2450 -0.0324 -1.5567
 1860SOL     OW17041   1.585   4.492   6.735 -0.1040  0.2157 -0.0395
 1860SOL    HW117042   1.583   4.523   6.826 -0.3658 -0.8829  0.3243
 1860SOL    HW217043   1.654   4.546   6.698  1.3649 -1.0713  0.8154
 1861SOL     OW17044   3.512   4.124   5.351 -0.0167  0.1643  0.0038
 1861SOL    HW117045   3.458   4.055   5.312 -0.7752 -1.9950  4.8839
 1861SOL    HW217046   3.486   4.128   5.443 -2.3828  0.7992 -0.6763
 1862SOL     OW17047   2.372   0.878   1.572  0.3653  0.0944 -0.0290
 1862SOL    HW117048   2.397   0.841   1.657  0.7110  1.1592  0.3388
 1862SOL    HW217049   2.371   0.974   1.582 -0.9285  0.3041 -2.2087
 1863SOL     OW17050   1.821   1.488   0.953  0.9979 -0.3065 -0.7558
 1863SOL    HW117051   1.752   1.422   0.954  2.0632 -1.4079  0.9736
 1863SOL    HW217052   1.886   1.428   0.917  2.8777  0.2088  1.8008
 1864SOL     OW17053   2.821   2.528   4.939 -0.8241  0.5920 -0.3759
 1864SOL    HW117054   2.804   2.552   5.030 -0.8462 -2.5318  0.4431
 1864SOL    HW217055   2.830   2.616   4.903 -0.0697  0.5647 -0.2614
 1865SOL     OW17056   2.887   1.864  12.353 -0.5192  0.3431 -0.0088
 1865SOL    HW117057   2.796   1.893  12.345 -0.6216  0.5401  1.9577
 1865SOL    HW217058   2.936   1.898  12.279 -0.4347 -0.8610 -0.5024
 1866SOL     OW17059   2.106   3.277   4.149 -0.2009  0.4825 -0.1023
 1866SOL    HW117060   2.116   3.225   4.069 -0.0016  1.1210 -0.4912
 1866SOL    HW217061   2.097   3.363   4.108  0.7474  1.2264  1.2363
 1867SOL     OW17062   2.990   2.446   0.681 -0.1981  0.5567  0.2686
 1867SOL    HW117063   3.080   2.479   0.677  0.1440 -0.1691  2.1620
 1867SOL    HW217064   2.956   2.467   0.594  3.1750 -2.2096 -1.7006
 1868SOL     OW17065   4.092   2.407  12.265 -0.1663  0.1092  0.1754
 1868SOL    HW117066   4.027   2.421  12.196  1.0601 -1.1417 -1.2149
 1868SOL    HW217067   4.030   2.373  12.330 -2.3740  1.0313 -1.4766
 1869SOL     OW17068   4.585   1.563   2.974 -0.3301  0.1943 -0.6386
 1869SOL    HW117069   4.665   1.509   2.980  0.6460  1.6673 -0.3907
 1869SOL    HW217070   4.522   1.495   2.950 -1.5446  0.7229  1.1052
 1870SOL     OW17071   3.804   0.551   7.037 -0.1949  0.6382  0.0213
 1870SOL    HW117072   3.764   0.559   6.950  2.0431 -0.2405 -1.0809
 1870SOL    HW217073   3.782   0.461   7.060 -3.8591  1.5886  0.3312
 1871SOL     OW17074   3.710   1.468   5.881 -0.5306 -0.2712  0.8778
 1871SOL    HW117075   3.780   1.521   5.843 -0.5608  0.7142  2.1902
 1871SOL    HW217076   3.762   1.427   5.950 -1.0975 -1.0227  0.8585
 1872SOL     OW17077   0.431   4.723   7.429 -0.0729  0.0789  0.3471
 1872SOL    HW117078   0.338   0.008   7.452 -0.1280  0.9166 -0.2059
 1872SOL    HW217079   0.430   0.033   7.340 -1.8798 -2.1580 -0.4644
 1873SOL     OW17080   1.717   4.198   0.441  0.5850 -0.1929  0.0768
 1873SOL    HW117081   1.796   4.155   0.406 -0.8448 -0.6368 -2.5919
 1873SOL    HW217082   1.751   4.285   0.422 -1.5996  0.4720 -0.6784
 1874SOL     OW17083   2.698   0.281   6.893  0.1791  0.3450 -0.3204
 1874SOL    HW117084   2.604   0.300   6.886  0.0429 -0.9060 -1.9830
 1874SOL    HW217085   2.703   0.194   6.853  3.4622  0.6813 -0.6166
 1875SOL     OW17086   3.149   4.317   5.830  0.1200  0.0021  0.2318
 1875SOL    HW117087   3.140   4.367   5.911  0.6138 -0.4004  0.5382
 1875SOL    HW217088   3.229   4.354   5.792  0.6166 -0.6815  0.6242
 1876SOL     OW17089   2.196   1.269   4.026 -0.2362 -0.3162 -0.2191
 1876SOL    HW117090   2.182   1.205   3.956 -0.4647  0.4766 -0.8927
 1876SOL    HW217091   2.289   1.290   4.032 -0.1620 -1.1433  1.5840
 1877SOL     OW17092   3.095   1.767   6.738  0.8270  0.3532  0.2498
 1877SOL    HW117093   3.105   1.861   6.726 -0.1097  0.6400  1.7566
 1877SOL    HW217094   3.003   1.743   6.749  1.1690 -0.7092  0.8726
 1878SOL     OW17095   0.300   0.549  16.048 -0.5118 -0.1663 -0.1698
 1878SOL    HW117096   0.260   0.490  15.984  2.9192  0.7269 -3.1276
 1878SOL    HW217097   0.231   0.540  16.114 -1.7952  0.9130 -1.3751
 1879SOL     OW17098   4.125   2.504   8.914 -0.2096 -0.1401 -0.5327
 1879SOL    HW117099   4.082   2.563   8.852 -1.7473 -0.3651  0.3144
 1879SOL    HW217100   4.057   2.438   8.928 -1.2834  1.0157 -0.2209
 1880SOL     OW17101   2.356   0.618  15.861 -1.0131 -0.2859 -0.2984
 1880SOL    HW117102   2.387   0.578  15.942  0.5057  3.4081  0.9602
 1880SOL    HW217103   2.428   0.678  15.842 -1.7238  0.6859  0.0885
 1881SOL     OW17104   0.217   4.179   3.682 -0.0768 -0.2234 -0.4374
 1881SOL    HW117105   0.149   4.156   3.745 -0.5182  1.9613 -0.1238
 1881SOL    HW217106   0.175   4.250   3.633 -1.2844  0.7251  1.9769
 1882SOL     OW17107   1.237   1.890   4.053  0.0944  0.1201 -0.0341
 1882SOL    HW117108   1.304   1.914   3.989  2.0669  0.2736  2.0926
 1882SOL    HW217109   1.159   1.933   4.019  0.8171  1.1630 -0.3884
 1883SOL     OW17110   2.001   2.747   6.078 -0.6977 -0.2397 -0.3403
 1883SOL    HW117111   1.945   2.719   6.151 -0.9370 -0.5302 -0.6354
 1883SOL    HW217112   2.090   2.739   6.111 -0.1352  0.4913 -1.6625
 1884SOL     OW17113   1.402   2.426   9.093  0.4901  0.3721  0.1882
 1884SOL    HW117114   1.337   2.394   9.031  0.9142  1.8374 -1.0033
 1884SOL    HW217115   1.467   2.461   9.033  1.2186  0.1862  0.8613
 1885SOL     OW17116   1.511   1.435   7.799 -0.1770 -0.3973  0.2214
 1885SOL    HW117117   1.572   1.506   7.817 -0.4262 -0.6257  1.9387
 1885SOL    HW217118   1.474   1.475   7.720 -2.0690 -1.3756  0.6134
 1886SOL     OW17119   1.780   1.333   8.142 -0.3199  0.0630 -0.1434
 1886SOL    HW117120   1.817   1.285   8.216  1.8560  3.2509  0.8342
 1886SOL    HW217121   1.700   1.280   8.134 -1.6084  1.9383  0.4341
 1887SOL     OW17122   2.702   0.403   4.970  0.4517 -0.5200  0.2262
 1887SOL    HW117123   2.671   0.427   4.882 -2.3189  0.4336  1.4488
 1887SOL    HW217124   2.794   0.429   4.969  0.2613  0.1388 -0.2665
 1888SOL     OW17125   3.666   2.221   1.240 -0.3039 -0.0855 -0.4827
 1888SOL    HW117126   3.719   2.243   1.316  0.3526  1.3909 -1.3779
 1888SOL    HW217127   3.574   2.234   1.263 -0.1823 -0.4057  0.2058
 1889SOL     OW17128   2.057   1.777   0.849 -0.2865  0.2805  0.1609
 1889SOL    HW117129   2.139   1.810   0.810  0.0789  0.6637  1.2625
 1889SOL    HW217130   2.092   1.713   0.910 -1.8133 -4.2111 -3.6694
 1890SOL     OW17131   2.888   0.181  13.690 -0.2232 -0.3297 -0.5681
 1890SOL    HW117132   2.858   0.265  13.726 -3.0710 -2.3891  1.9613
 1890SOL    HW217133   2.828   0.123  13.737  1.6500 -0.0655  2.1444
 1891SOL     OW17134   1.741   4.283   4.008  0.2370 -0.4726  0.1271
 1891SOL    HW117135   1.687   4.223   3.956 -1.4450  1.2628 -0.1413
 1891SOL    HW217136   1.665   4.336   4.031 -0.0195 -1.5069  1.6171
 1892SOL     OW17137   2.763   3.935   4.726  0.3161 -0.8473 -0.0403
 1892SOL    HW117138   2.743   3.978   4.809 -0.0435 -2.1012  0.5335
 1892SOL    HW217139   2.821   3.861   4.744  0.1924 -1.0152 -0.3296
 1893SOL     OW17140   0.177   2.085  14.551 -0.3762 -0.1865  0.3233
 1893SOL    HW117141   0.182   1.991  14.568  2.1922  0.0342  0.7415
 1893SOL    HW217142   0.113   2.094  14.481 -1.3786  0.2568  1.2932
 1894SOL     OW17143   4.441   0.092   2.624 -0.4431  0.7402  0.5463
 1894SOL    HW117144   4.476   0.003   2.624 -0.7117  0.6312  2.3872
 1894SOL    HW217145   4.461   0.120   2.535 -2.0856  1.6537  0.4528
 1895SOL     OW17146   1.759   3.955   4.674 -0.0054  0.2194 -0.4081
 1895SOL    HW117147   1.769   3.930   4.766  3.6067 -0.2096 -0.9174
 1895SOL    HW217148   1.685   3.901   4.645  1.0487 -2.1624  1.3022
 1896SOL     OW17149   3.857   2.277   1.793  0.0316 -0.2581 -0.5120
 1896SOL    HW117150   3.775   2.276   1.842  0.9503  0.1628  1.0262
 1896SOL    HW217151   3.872   2.372   1.786  1.1914 -0.3537  0.6897
 1897SOL     OW17152   0.578   3.016   5.281 -0.0589  0.0802 -0.0367
 1897SOL    HW117153   0.543   2.961   5.211 -0.2247  0.1112  0.0239
 1897SOL    HW217154   0.578   3.105   5.245 -0.1764 -0.1985 -0.7186
 1898SOL     OW17155   2.859   2.793  11.123 -0.0084  0.0004 -0.3834
 1898SOL    HW117156   2.921   2.863  11.105  1.2648 -1.1939 -0.6192
 1898SOL    HW217157   2.909   2.711  11.123  1.2686  0.8008 -0.6411
 1899SOL     OW17158   1.303   0.028   6.817  0.0401 -0.7309  0.0293
 1899SOL    HW117159   1.256   4.672   6.838 -1.2301 -0.0882 -0.3234
 1899SOL    HW217160   1.354   0.033   6.897  3.0013  2.0330 -2.0141
 1900SOL     OW17161   1.491   0.747  12.212  0.5182 -0.0367 -0.0453
 1900SOL    HW117162   1.470   0.746  12.118  1.7653  1.3516 -0.3346
 1900SOL    HW217163   1.494   0.841  12.230  0.6570 -0.3254  1.4338
 1901SOL     OW17164   2.150   3.786   8.599 -0.5649 -0.2921  0.4219
 1901SOL    HW117165   2.135   3.697   8.631 -2.3661  0.0241  0.4612
 1901SOL    HW217166   2.172   3.821   8.685  0.8985 -1.8533  0.6801
 1902SOL     OW17167   2.836   1.826  13.346  0.0210 -0.1546 -0.0146
 1902SOL    HW117168   2.885   1.745  13.352 -1.1285 -0.8577 -0.0820
 1902SOL    HW217169   2.908   1.883  13.319  0.3263 -0.3858  0.3280
 1903SOL     OW17170   3.323   3.858   6.298  0.4663 -0.4372  0.0187
 1903SOL    HW117171   3.275   3.775   6.300  1.1571 -0.8139  0.6053
 1903SOL    HW217172   3.268   3.918   6.348  1.9805 -0.7521  2.0388
 1904SOL     OW17173   2.825   0.074   4.986 -0.1308  0.5520  0.2614
 1904SOL    HW117174   2.805   0.046   5.075 -0.5311  0.9379  0.2910
 1904SOL    HW217175   2.736   0.078   4.952 -0.5960  0.1400  1.4314
 1905SOL     OW17176   1.165   2.507  12.225  0.1590 -0.1364 -0.0479
 1905SOL    HW117177   1.112   2.537  12.152 -0.3086 -2.6888 -0.7478
 1905SOL    HW217178   1.194   2.421  12.195  1.1512 -0.4095  1.7013
 1906SOL     OW17179   1.148   4.112   5.909  0.1784 -0.3211  0.0269
 1906SOL    HW117180   1.161   4.087   6.000 -1.9382  0.4086  0.5529
 1906SOL    HW217181   1.211   4.182   5.889  0.6521 -1.0392 -0.9936
 1907SOL     OW17182   2.825   4.115  11.756 -0.4475 -0.0835  0.0511
 1907SOL    HW117183   2.869   4.052  11.813 -1.1125 -1.7940 -1.3251
 1907SOL    HW217184   2.902   4.163  11.725 -0.3515 -0.4683 -0.3018
 1908SOL     OW17185   2.445   0.644   7.770 -0.3042 -0.3237  0.1394
 1908SOL    HW117186   2.462   0.660   7.677  1.3256  0.7101  0.6132
 1908SOL    HW217187   2.350   0.641   7.757 -0.3819 -0.4997  0.7188
 1909SOL     OW17188   3.812   1.339   6.160 -0.1893  0.4199  0.3999
 1909SOL    HW117189   3.808   1.256   6.112 -0.3711  0.4762  0.3173
 1909SOL    HW217190   3.889   1.321   6.213  1.1801  1.4724 -1.2462
 1910SOL     OW17191   2.427   2.444   8.176  0.1237  0.1126  0.1930
 1910SOL    HW117192   2.425   2.534   8.144 -3.1027  0.9042  2.5051
 1910SOL    HW217193   2.414   2.457   8.270 -1.3693 -2.1296  0.3168
 1911SOL     OW17194   0.853   0.485   7.310 -0.4987 -0.8095  0.3806
 1911SOL    HW117195   0.938   0.529   7.313 -0.9935  0.1291  0.8005
 1911SOL    HW217196   0.794   0.560   7.321 -1.4303 -1.9777  3.2596
 1912SOL     OW17197   0.138   0.300   7.634  0.1281  0.0054 -0.1495
 1912SOL    HW117198   0.088   0.298   7.715  1.2823 -1.4203  0.5281
 1912SOL    HW217199   0.227   0.321   7.663 -0.9169  0.3273  2.8683
 1913SOL     OW17200   4.298   2.563   0.922 -0.0282 -0.1761 -0.0582
 1913SOL    HW117201   4.334   2.519   0.999  0.6696 -2.1483 -1.5137
 1913SOL    HW217202   4.251   2.488   0.886  0.4075 -0.0053 -0.9694
 1914SOL     OW17203   2.623   0.979   2.271 -0.1331  0.0689 -0.0822
 1914SOL    HW117204   2.531   1.004   2.259  0.1302  0.3621 -1.5512
 1914SOL    HW217205   2.650   1.019   2.188  0.8749 -1.0132 -0.2799
 1915SOL     OW17206   3.289   0.504   7.966 -0.0112 -0.0699  0.0588
 1915SOL    HW117207   3.227   0.505   8.039 -1.7741  1.0536 -1.4477
 1915SOL    HW217208   3.285   0.597   7.942  0.7060  0.5114  2.2126
 1916SOL     OW17209   0.408   2.994   7.712 -0.2429  0.3661 -0.1231
 1916SOL    HW117210   0.371   2.949   7.788 -1.1852  0.3017 -0.6271
 1916SOL    HW217211   0.409   3.085   7.744  0.3793  0.9475 -1.7883
 1917SOL     OW17212   2.590   0.088   4.856  0.7915 -0.5189  0.4132
 1917SOL    HW117213   2.573   0.089   4.762  0.2019  0.8943  0.5269
 1917SOL    HW217214   2.546   0.170   4.880 -2.1478 -2.4955  1.8014
 1918SOL     OW17215   3.992   3.281   5.381  0.0422 -0.5624  0.0299
 1918SOL    HW117216   4.005   3.230   5.301  0.6083 -1.0260  0.4085
 1918SOL    HW217217   4.033   3.366   5.368 -0.0922 -0.4492  0.3362
 1919SOL     OW17218   1.753   4.634   1.964 -0.1130  0.0473 -0.3421
 1919SOL    HW117219   1.685   4.697   1.987 -0.4665 -1.9639  4.0029
 1919SOL    HW217220   1.832   4.671   2.003  1.0258 -0.4321 -2.1730
 1920SOL     OW17221   2.839   3.125   8.383  0.1412 -0.3901  0.1464
 1920SOL    HW117222   2.928   3.089   8.380  1.4664  2.7475  1.5175
 1920SOL    HW217223   2.808   3.045   8.425  0.3133 -1.3377 -1.5267
 1921SOL     OW17224   3.119   3.291   2.524 -0.4449 -0.2487  0.0467
 1921SOL    HW117225   3.049   3.249   2.475  0.0629 -3.5453  2.1437
 1921SOL    HW217226   3.201   3.253   2.491  0.5487  1.5777  0.4123
 1922SOL     OW17227   4.521   4.049  15.642  0.3195  0.1428  0.1880
 1922SOL    HW117228   4.596   4.035  15.584  0.0637  0.6518 -0.2596
 1922SOL    HW217229   4.467   3.973  15.622 -0.0491  0.4792 -0.0904
 1923SOL     OW17230   4.632   2.450   6.825  0.1500  0.7455 -0.5679
 1923SOL    HW117231   4.651   2.425   6.735 -1.2397  1.4611 -1.0650
 1923SOL    HW217232   4.658   2.370   6.871  0.6507  0.8606 -0.6575
 1924SOL     OW17233   1.344   2.814  10.695  0.3693 -0.0302 -0.1416
 1924SOL    HW117234   1.285   2.885  10.721 -0.4084 -1.0447  0.8851
 1924SOL    HW217235   1.325   2.808  10.601  2.7919 -3.0301 -0.4195
 1925SOL     OW17236   1.126   0.764  11.680 -0.2809 -0.5122  0.1518
 1925SOL    HW117237   1.035   0.795  11.680 -1.2932 -3.4416  1.3292
 1925SOL    HW217238   1.180   0.819  11.736  0.6058  0.7668 -1.9967
 1926SOL     OW17239   2.617   0.293   3.309 -0.5002 -0.4649 -0.3651
 1926SOL    HW117240   2.605   0.198   3.307  2.4523 -0.8700  0.3797
 1926SOL    HW217241   2.608   0.321   3.218 -0.3918  1.2562  0.1478
 1927SOL     OW17242   3.419   2.905  14.032 -0.2802  0.3286  0.1445
 1927SOL    HW117243   3.407   2.992  13.996  0.4278  1.0900  1.7504
 1927SOL    HW217244   3.448   2.850  13.959  2.9585  1.7972  0.3130
 1928SOL     OW17245   3.743   0.998  11.792  0.2471 -0.6181  0.4708
 1928SOL    HW117246   3.678   1.031  11.730  0.2674  1.3295  1.5038
 1928SOL    HW217247   3.763   0.911  11.756 -0.4909 -1.3490  1.8011
 1929SOL     OW17248   3.338   2.358   5.584 -0.0223  0.2921 -0.3567
 1929SOL    HW117249   3.313   2.408   5.662  1.2789 -0.6591  0.6775
 1929SOL    HW217250   3.396   2.288   5.615 -0.0427  0.3408 -0.2061
 1930SOL     OW17251   0.799   2.944   5.454 -0.6094 -0.3629 -0.6658
 1930SOL    HW117252   0.713   2.967   5.418 -0.1625  2.1308 -0.1715
 1930SOL    HW217253   0.847   3.022   5.425 -1.6939  1.1792  1.6908
 1931SOL     OW17254   3.039   1.317  16.497  0.0614  0.1653  0.5976
 1931SOL    HW117255   3.041   1.409  16.521  1.9296  0.3762 -0.3868
 1931SOL    HW217256   3.113   1.327  16.437  1.7226 -3.1730  2.0636
 1932SOL     OW17257   3.849   0.581   4.563  0.3659  0.1528  0.0090
 1932SOL    HW117258   3.928   0.636   4.558  1.2794 -1.2165 -0.8185
 1932SOL    HW217259   3.773   0.638   4.573  1.3072  1.2813  0.7547
 1933SOL     OW17260   4.166   3.716   5.682 -0.1670  0.0036 -0.3773
 1933SOL    HW117261   4.184   3.747   5.770  0.9621 -0.4269 -0.4562
 1933SOL    HW217262   4.157   3.623   5.703 -1.5650  0.1171 -0.5166
 1934SOL     OW17263   0.883   3.069   4.783 -0.1469 -0.1687 -0.3218
 1934SOL    HW117264   0.831   3.099   4.709 -0.1415 -2.3969 -1.2124
 1934SOL    HW217265   0.914   2.987   4.745  1.6297  1.0470 -1.4866
 1935SOL     OW17266   1.020   3.575   9.678  0.2471 -0.2258 -0.7442
 1935SOL    HW117267   0.956   3.625   9.728  0.3550 -0.2849 -0.5475
 1935SOL    HW217268   0.960   3.533   9.617 -1.2626  0.3370  0.3722
 1936SOL     OW17269   3.334   2.565  11.104 -0.5509  0.3891  0.3257
 1936SOL    HW117270   3.373   2.483  11.074 -2.6795  0.4263 -2.6053
 1936SOL    HW217271   3.319   2.610  11.021  2.5315 -0.8489 -0.9042
 1937SOL     OW17272   1.808   1.663  14.306 -0.2416  0.4240  0.0008
 1937SOL    HW117273   1.894   1.658  14.348 -0.9774  0.8122  1.5318
 1937SOL    HW217274   1.819   1.659  14.211 -0.3913  0.1580 -0.0066
 1938SOL     OW17275   4.258   3.250   2.868  0.1975  0.4733 -0.2521
 1938SOL    HW117276   4.276   3.334   2.826  0.2933  0.4382 -0.2821
 1938SOL    HW217277   4.271   3.194   2.791 -0.2135 -0.3486  0.2831
 1939SOL     OW17278   2.964   0.002   8.493  0.5563 -0.0887 -0.1377
 1939SOL    HW117279   2.958   4.644   8.542 -0.1929 -0.6729 -1.2205
 1939SOL    HW217280   2.965   0.070   8.560  0.3722 -0.0927 -0.1330
 1940SOL     OW17281   4.604   0.163   6.009  0.4122  0.1489  0.5012
 1940SOL    HW117282   4.528   0.106   6.013 -0.0419  0.7040 -0.2335
 1940SOL    HW217283   4.554   0.242   5.986  3.3147  1.6372 -0.7196
 1941SOL     OW17284   1.157   2.305  16.632 -0.5480 -0.3397  0.6451
 1941SOL    HW117285   1.151   2.285  16.539 -3.1474  1.1921  0.4942
 1941SOL    HW217286   1.158   2.400  16.624 -2.2325 -0.4738 -1.2210
 1942SOL     OW17287   1.040   3.963   4.066  0.3834 -0.2283 -0.1562
 1942SOL    HW117288   1.096   4.017   4.122  1.8534 -3.1284  1.1999
 1942SOL    HW217289   1.077   3.880   4.098  1.3797  0.6571  0.9666
 1943SOL     OW17290   1.172   1.942   5.853  0.8874  0.0870  0.3540
 1943SOL    HW117291   1.254   1.936   5.901  0.9999 -1.3883 -0.0055
 1943SOL    HW217292   1.213   1.967   5.770 -0.6183  1.0903 -0.0807
 1944SOL     OW17293   0.839   3.659   4.526 -0.4477 -0.1436 -0.2935
 1944SOL    HW117294   0.816   3.752   4.528  0.2154 -0.0281  2.0472
 1944SOL    HW217295   0.752   3.623   4.544 -0.6247 -0.3574 -1.5463
 1945SOL     OW17296   4.563   1.635  10.216 -0.3279  0.2866  0.2121
 1945SOL    HW117297   4.528   1.633  10.305 -0.0565 -2.5680  0.2633
 1945SOL    HW217298   4.602   1.548  10.210 -0.4750  0.2845 -0.6643
 1946SOL     OW17299   3.989   0.222  13.563 -0.7965  0.1118 -0.2334
 1946SOL    HW117300   4.045   0.160  13.516 -1.2633 -2.0146  1.9867
 1946SOL    HW217301   4.047   0.296  13.579  0.9307 -1.5579  1.2627
 1947SOL     OW17302   0.784   0.589   1.845 -0.5185 -0.8238 -0.6375
 1947SOL    HW117303   0.833   0.640   1.780 -0.6867  1.4015  0.9696
 1947SOL    HW217304   0.721   0.541   1.791  0.6372 -0.2317 -2.5154
 1948SOL     OW17305   2.399   1.282  14.798  0.3084 -0.7088  0.1452
 1948SOL    HW117306   2.360   1.204  14.836 -0.8219 -0.4297 -0.4604
 1948SOL    HW217307   2.495   1.277  14.809  0.3937  1.2413  0.3371
 1949SOL     OW17308   3.220   0.973   9.592  0.3854 -0.3242  0.1005
 1949SOL    HW117309   3.229   1.041   9.658  1.4544 -0.4537  0.0914
 1949SOL    HW217310   3.305   0.930   9.600  0.0707 -0.9560  0.1151
 1950SOL     OW17311   0.695   4.050   0.039  0.6787 -0.3423 -0.5794
 1950SOL    HW117312   0.735   4.067  17.652  1.5220  0.9398  0.0837
 1950SOL    HW217313   0.763   3.994   0.077 -0.8574 -1.8228  0.0315
 1951SOL     OW17314   1.564   2.978   7.801  0.4391 -0.1000 -0.0522
 1951SOL    HW117315   1.487   2.958   7.746  1.1582 -1.0935 -0.7084
 1951SOL    HW217316   1.626   2.908   7.784  0.6924 -0.1639  1.1393
 1952SOL     OW17317   1.483   4.592   4.541  0.0931 -0.3517 -0.1333
 1952SOL    HW117318   1.548   4.635   4.486 -1.6367  1.1927 -0.9718
 1952SOL    HW217319   1.405   4.616   4.491  2.8144 -1.2634 -4.8788
 1953SOL     OW17320   0.915   0.631   9.931  0.2532  0.1503 -0.0637
 1953SOL    HW117321   1.003   0.607   9.962  0.3240 -1.7963 -1.7874
 1953SOL    HW217322   0.926   0.619   9.837  0.2717 -2.2517  0.2314
 1954SOL     OW17323   3.999   4.056   7.269  0.2163  0.5752 -0.5579
 1954SOL    HW117324   4.011   4.149   7.252 -0.6331  1.1523  2.1785
 1954SOL    HW217325   3.978   4.046   7.361  0.8906 -0.9417 -0.5633
 1955SOL     OW17326   0.981   3.210   4.093  0.1577  0.5495 -0.4237
 1955SOL    HW117327   1.004   3.224   4.002  0.3939 -0.1476 -0.4691
 1955SOL    HW217328   0.993   3.118   4.117 -1.8359  0.1120 -1.0979
 1956SOL     OW17329   0.476   4.540  12.293 -0.3653  0.3134 -0.0350
 1956SOL    HW117330   0.564   4.504  12.306  0.4348  2.2521 -0.1525
 1956SOL    HW217331   0.476   4.622  12.342  0.7990  0.0481  0.4259
 1957SOL     OW17332   3.654   3.297   4.984 -0.1867 -0.0871  0.1421
 1957SOL    HW117333   3.694   3.211   4.993  1.2808  0.7417  1.5923
 1957SOL    HW217334   3.701   3.325   4.906 -1.2840  1.0661 -0.1173
 1958SOL     OW17335   4.478   1.248  11.597  0.2562  1.0264  0.0389
 1958SOL    HW117336   4.412   1.306  11.560 -0.3910  1.1192  1.3495
 1958SOL    HW217337   4.557   1.299  11.580  2.8089 -2.1449  2.2081
 1959SOL     OW17338   2.565   0.710  10.975  0.2584 -0.1726  0.3009
 1959SOL    HW117339   2.611   0.767  10.914  0.6996  0.4524  1.2249
 1959SOL    HW217340   2.621   0.722  11.051  1.9355  1.5032 -1.2190
 1960SOL     OW17341   3.357   0.449   1.920  0.5248  0.0404  0.2671
 1960SOL    HW117342   3.264   0.472   1.923  1.1966  2.7095  0.7259
 1960SOL    HW217343   3.387   0.494   1.841 -0.4085  0.7943  0.3348
 1961SOL     OW17344   3.538   2.487  11.483 -0.2225  0.5549  0.0321
 1961SOL    HW117345   3.585   2.559  11.526  2.8846 -1.0211 -0.7230
 1961SOL    HW217346   3.492   2.526  11.408 -0.1577 -1.8602 -1.2727
 1962SOL     OW17347   1.400   3.616   8.692 -0.1691  0.2826  0.2264
 1962SOL    HW117348   1.311   3.632   8.724  0.6259  1.6210  1.7926
 1962SOL    HW217349   1.421   3.678   8.623  1.1714  1.1400  1.4176
 1963SOL     OW17350   4.249   1.086   2.663  0.0311 -0.4348  0.4525
 1963SOL    HW117351   4.278   1.083   2.754 -3.9642 -2.2037  1.6280
 1963SOL    HW217352   4.198   1.005   2.660 -1.9641  0.8298  0.5319
 1964SOL     OW17353   1.102   0.091   1.195  0.7177 -0.0874  0.4463
 1964SOL    HW117354   1.052   0.073   1.115 -2.4441 -0.0988  2.4108
 1964SOL    HW217355   1.158   0.014   1.199  3.1445  1.6288 -0.8184
 1965SOL     OW17356   4.677   4.592   1.140  0.1802 -0.5768  0.0394
 1965SOL    HW117357   4.682   4.521   1.076  2.2236 -0.7460  0.3869
 1965SOL    HW217358   4.717   4.657   1.083  1.5103 -2.2156 -0.8986
 1966SOL     OW17359   1.591   3.076   5.628 -0.1967 -0.6110  0.1223
 1966SOL    HW117360   1.680   3.069   5.661  0.1689 -2.6303 -1.2750
 1966SOL    HW217361   1.598   3.032   5.544  0.1107  2.7255 -1.5778
 1967SOL     OW17362   0.845   1.331  16.850  0.0124 -0.3027 -0.5023
 1967SOL    HW117363   0.878   1.311  16.763  0.2305 -0.1296 -0.4604
 1967SOL    HW217364   0.753   1.339  16.826 -0.6482 -0.5449  1.8913
 1968SOL     OW17365   1.872   1.854   1.729 -0.2542  0.0264  0.1619
 1968SOL    HW117366   1.814   1.804   1.671  0.1964 -1.5973  1.1205
 1968SOL    HW217367   1.861   1.943   1.696 -1.0577 -0.9671 -2.2359
 1969SOL     OW17368   4.599   1.616   2.279  0.0282 -0.5450  0.0241
 1969SOL    HW117369   4.523   1.557   2.283 -0.4337 -0.0468 -1.4133
 1969SOL    HW217370   4.599   1.650   2.190 -2.0955  0.4265  0.3893
 1970SOL     OW17371   1.099   0.234   3.427  0.4855 -0.1542 -0.0901
 1970SOL    HW117372   1.176   0.288   3.446 -1.1406  2.5382 -1.1515
 1970SOL    HW217373   1.044   0.302   3.390 -0.3374 -0.2001  1.0613
 1971SOL     OW17374   0.650   0.538   3.798  0.4581 -0.3074 -0.0861
 1971SOL    HW117375   0.731   0.500   3.832  0.6913 -0.4884 -0.8371
 1971SOL    HW217376   0.660   0.531   3.703 -4.7366 -0.8030 -0.5801
 1972SOL     OW17377   0.395   0.671   3.574 -0.2220  0.1238 -0.0529
 1972SOL    HW117378   0.395   0.750   3.627  3.2917 -0.1961  0.3645
 1972SOL    HW217379   0.485   0.659   3.546  0.4795  1.7818  1.5338
 1973SOL     OW17380   4.085   1.937   0.978 -0.3109  0.2054  0.4918
 1973SOL    HW117381   3.995   1.937   1.010 -0.7131  2.8039 -0.5910
 1973SOL    HW217382   4.138   2.001   1.027  1.0042 -0.0250 -0.6434
 1974SOL     OW17383   4.476   0.847   4.625 -0.3647 -0.1099 -0.4076
 1974SOL    HW117384   4.561   0.884   4.648 -1.6533  1.8536  1.2110
 1974SOL    HW217385   4.467   0.794   4.704 -2.0719 -0.9244 -1.1452
 1975SOL     OW17386   3.287   1.907  17.176  0.1669 -0.0770 -0.1537
 1975SOL    HW117387   3.315   1.890  17.086 -1.0093 -0.0548 -0.5229
 1975SOL    HW217388   3.315   1.998  17.187  0.0355 -0.1463  0.7573
 1976SOL     OW17389   4.562   3.796   2.473  0.0444  0.1663  0.3807
 1976SOL    HW117390   4.528   3.877   2.513  0.0132  0.2893  0.1061
 1976SOL    HW217391   4.473   3.762   2.462 -0.0444  0.5032  0.0304
 1977SOL     OW17392   3.382   4.033   5.583  0.8991 -0.6551  0.2536
 1977SOL    HW117393   3.393   3.956   5.639 -2.5976  0.5355  2.6175
 1977SOL    HW217394   3.360   3.993   5.499  0.5661 -0.0202  0.0322
 1978SOL     OW17395   0.812   1.137   8.015 -0.3546 -0.2119 -0.3357
 1978SOL    HW117396   0.765   1.091   8.084  1.3005  1.4930  1.9491
 1978SOL    HW217397   0.901   1.101   8.012 -0.1410  0.2521  0.4513
 1979SOL     OW17398   1.568   4.647   3.983 -0.3145 -0.4175  0.1375
 1979SOL    HW117399   1.544   4.568   4.031 -0.6905 -0.5935 -0.3409
 1979SOL    HW217400   1.549   4.720   4.042  1.7641  0.4449 -0.2427
 1980SOL     OW17401   0.087   0.978   3.012  0.0135  0.0269  0.3161
 1980SOL    HW117402   0.181   0.984   2.997  0.2624 -3.9517  0.3581
 1980SOL    HW217403   0.092   1.044   3.081  0.1869  1.3878 -1.0169
 1981SOL     OW17404   3.255   1.389  12.839 -0.3146  0.2493 -0.6930
 1981SOL    HW117405   3.285   1.351  12.922 -0.8231  1.1038 -0.1103
 1981SOL    HW217406   3.334   1.441  12.823 -0.5148  1.1010  0.9749
 1982SOL     OW17407   1.944   3.459   5.092  0.4383 -0.8506  0.1638
 1982SOL    HW117408   2.029   3.501   5.108 -0.4161  1.5027 -1.6744
 1982SOL    HW217409   1.967   3.366   5.096 -0.6977 -1.1452 -0.3809
 1983SOL     OW17410   4.504   0.629  12.577 -0.2581  0.0923 -0.8714
 1983SOL    HW117411   4.581   0.686  12.580 -1.7537  2.2802 -3.7660
 1983SOL    HW217412   4.464   0.632  12.664  1.0921  4.1279 -0.4124
 1984SOL     OW17413   3.102   3.086   7.838  0.5517  0.3065  0.1861
 1984SOL    HW117414   3.162   3.077   7.764  0.5055 -0.1033  0.1950
 1984SOL    HW217415   3.030   3.136   7.802 -0.9307 -1.5911  0.5186
 1985SOL     OW17416   3.397   3.715   6.872  0.1035 -0.3621  0.2241
 1985SOL    HW117417   3.375   3.783   6.936 -1.4208  0.6682 -1.3722
 1985SOL    HW217418   3.468   3.673   6.920  2.3242 -0.0302 -2.8245
 1986SOL     OW17419   0.529   0.565   4.456  0.0422  0.2901  0.2463
 1986SOL    HW117420   0.487   0.479   4.453  0.6489  0.0333 -0.6985
 1986SOL    HW217421   0.567   0.580   4.370 -1.4039  0.7755 -0.3203
 1987SOL     OW17422   0.069   4.389   8.221  0.1801 -0.1013  0.5638
 1987SOL    HW117423   0.091   4.470   8.174  1.4625 -1.4580 -1.1685
 1987SOL    HW217424   4.702   4.386   8.191  0.1253 -1.1001  0.8511
 1988SOL     OW17425   1.692   3.411   3.396  0.0426 -0.1788  0.4148
 1988SOL    HW117426   1.750   3.452   3.460  0.2506  0.5020 -0.2117
 1988SOL    HW217427   1.759   3.393   3.330 -1.5214 -2.4959 -0.5668
 1989SOL     OW17428   2.572   4.555   8.634  0.3218  0.2010 -0.4445
 1989SOL    HW117429   2.574   4.487   8.567  1.7675  0.2584 -0.4478
 1989SOL    HW217430   2.569   4.634   8.580  0.9112  0.0976 -0.6186
 1990SOL     OW17431   0.018   4.187   5.787  0.1257 -0.4903 -0.5118
 1990SOL    HW117432   0.037   4.281   5.784  0.5116 -0.4456  2.9341
 1990SOL    HW217433   0.050   4.153   5.704 -1.2345 -1.4286 -0.6516
 1991SOL     OW17434   0.636   4.413   3.364 -0.2870  0.5426 -0.5880
 1991SOL    HW117435   0.718   4.462   3.362  1.1945 -1.9189  1.2261
 1991SOL    HW217436   0.627   4.407   3.269  0.8387 -0.3579 -0.6423
 1992SOL     OW17437   0.897   0.860   3.053 -0.2608 -0.2732  0.1129
 1992SOL    HW117438   0.917   0.818   3.137  3.1723  1.0967 -0.0157
 1992SOL    HW217439   0.909   0.781   3.000 -1.5415 -0.4826  0.1417
 1993SOL     OW17440   4.452   0.438   6.387 -0.2102 -0.4180 -0.0546
 1993SOL    HW117441   4.358   0.445   6.404 -0.0774 -1.2906  1.0182
 1993SOL    HW217442   4.464   0.515   6.332 -1.7301  0.4666  0.8300
 1994SOL     OW17443   2.860   1.804   8.572  0.2245 -0.1445 -0.7991
 1994SOL    HW117444   2.774   1.844   8.573  0.4234  0.1882  2.7908
 1994SOL    HW217445   2.868   1.795   8.477 -0.2952 -0.9917 -0.7617
 1995SOL     OW17446   1.574   2.109   4.662  0.3850  0.5023  0.0644
 1995SOL    HW117447   1.483   2.101   4.691  0.2509  0.0568 -0.4696
 1995SOL    HW217448   1.598   2.187   4.713  0.7924 -0.0836  0.7688
 1996SOL     OW17449   0.111   3.076   1.700  0.2179  0.0977 -0.3877
 1996SOL    HW117450   0.190   3.031   1.670  2.1406  3.0240  0.2504
 1996SOL    HW217451   0.139   3.157   1.741  2.0009 -1.4681  1.4773
 1997SOL     OW17452   2.439   1.054   3.725  0.3377 -0.0606  0.1804
 1997SOL    HW117453   2.394   1.077   3.807 -0.1271  1.6398 -0.5440
 1997SOL    HW217454   2.476   1.136   3.695 -0.0032 -0.7396 -2.0857
 1998SOL     OW17455   4.316   0.278  17.027 -0.0813 -0.3207  0.3073
 1998SOL    HW117456   4.378   0.330  17.077  1.0849 -0.6463 -0.7913
 1998SOL    HW217457   4.277   0.343  16.969  1.9826  1.9168  1.4471
 1999SOL     OW17458   0.538   0.909   2.938  0.1414  0.3898 -0.1639
 1999SOL    HW117459   0.552   0.829   2.887 -0.7868  0.5326 -0.6258
 1999SOL    HW217460   0.480   0.947   2.872  0.9609 -1.9800 -2.2679
 2000SOL     OW17461   2.574   0.570   6.601 -0.4889  0.1129  0.7079
 2000SOL    HW117462   2.663   0.539   6.619 -0.5740 -0.7949 -0.4053
 2000SOL    HW217463   2.535   0.483   6.607  0.6340 -0.3528  1.1220
 2001SOL     OW17464   3.029   4.405   6.364 -0.1766 -0.4349  0.2196
 2001SOL    HW117465   3.017   4.365   6.450  1.1441  0.5881  0.8788
 2001SOL    HW217466   3.124   4.410   6.361 -0.0992 -0.5544  2.6410
 2002SOL     OW17467   0.833   1.885   3.323 -0.1083 -0.0691  0.1667
 2002SOL    HW117468   0.829   1.952   3.391  0.2453 -0.7815  0.8896
 2002SOL    HW217469   0.864   1.936   3.247  1.1943  0.6130  1.1587
 2003SOL     OW17470   0.570   3.008   9.804  0.1483 -0.3575  0.4201
 2003SOL    HW117471   0.547   3.074   9.870  1.6175  0.4506  0.1108
 2003SOL    HW217472   0.627   2.953   9.857 -2.1383 -3.6878 -0.5864
 2004SOL     OW17473   2.191   1.053  15.271 -0.0718 -0.5573 -0.3680
 2004SOL    HW117474   2.191   0.979  15.211  0.5840 -0.8246 -0.0465
 2004SOL    HW217475   2.180   1.127  15.210  2.5243 -0.8735 -1.2254
 2005SOL     OW17476   1.602   4.242   8.587 -0.3549 -0.0937 -0.1303
 2005SOL    HW117477   1.694   4.267   8.582 -0.1192 -1.4248 -2.3476
 2005SOL    HW217478   1.566   4.304   8.651 -0.4659 -0.6809  0.3644
 2006SOL     OW17479   0.865   3.892   3.559 -0.4136 -0.3892  0.0770
 2006SOL    HW117480   0.904   3.901   3.646 -0.9148 -2.0716  0.4593
 2006SOL    HW217481   0.780   3.927   3.586 -0.2192 -0.1269  0.3598
 2007SOL     OW17482   0.252   1.221   6.917 -0.2052 -0.0678  0.3154
 2007SOL    HW117483   0.283   1.158   6.852  1.9341 -0.4907  1.7422
 2007SOL    HW217484   0.182   1.263   6.867 -0.8715  0.6725  1.8857
 2008SOL     OW17485   4.492   2.398   6.095  0.1660 -0.0209 -0.3790
 2008SOL    HW117486   4.496   2.347   6.014  1.2871  1.4733 -1.2696
 2008SOL    HW217487   4.581   2.433   6.092  0.1582  0.2408  1.8248
 2009SOL     OW17488   2.969   1.178   4.672 -0.1854  0.4589 -0.0412
 2009SOL    HW117489   2.959   1.148   4.762 -0.2579 -1.7747 -0.8074
 2009SOL    HW217490   3.038   1.245   4.675  1.2290 -0.9714 -0.4174
 2010SOL     OW17491   3.387   4.340   5.689 -0.1984  0.2250 -0.5890
 2010SOL    HW117492   3.419   4.256   5.655  0.4847  0.4494 -0.4944
 2010SOL    HW217493   3.465   4.392   5.672  0.4440 -0.6191 -0.2489
 2011SOL     OW17494   4.722   1.333   9.639  0.1767  0.0704  0.6074
 2011SOL    HW117495   4.630   1.310   9.643  0.6428 -1.8369  0.3433
 2011SOL    HW217496   0.027   1.285   9.717 -1.9412 -1.2692  0.5554
 2012SOL     OW17497   0.779   0.913   5.182 -0.6939  0.6135 -0.8541
 2012SOL    HW117498   0.760   0.866   5.263  3.8121 -3.2284 -2.0596
 2012SOL    HW217499   0.801   0.999   5.217 -1.8750  0.7505 -0.4275
 2013SOL     OW17500   2.735   4.670   5.589  0.1292  0.2115  0.6899
 2013SOL    HW117501   2.806   4.609   5.606 -0.9934 -1.1903  0.3848
 2013SOL    HW217502   2.661   4.616   5.563  0.0736  0.3199  0.6228
 2014SOL     OW17503   3.955   2.599   8.374  0.0634  0.0508 -0.3995
 2014SOL    HW117504   3.927   2.581   8.285 -0.1159  0.9593 -0.5276
 2014SOL    HW217505   4.013   2.524   8.387 -0.1153 -0.0067  0.0730
 2015SOL     OW17506   3.788   0.731  13.957  0.4144  0.3250  0.4164
 2015SOL    HW117507   3.813   0.797  14.022  0.9880  2.0581 -1.5707
 2015SOL    HW217508   3.733   0.790  13.906 -0.1072 -0.8871 -0.3986
 2016SOL     OW17509   1.138   3.146   8.327  0.0496  0.0011 -0.0135
 2016SOL    HW117510   1.138   3.242   8.318  0.3048  0.2750  2.7806
 2016SOL    HW217511   1.165   3.133   8.418  2.5525 -1.2322 -0.9434
 2017SOL     OW17512   3.921   4.250   5.386  0.0175 -0.1072 -0.0970
 2017SOL    HW117513   4.013   4.244   5.413  0.3148  1.0755 -0.8164
 2017SOL    HW217514   3.886   4.196   5.457 -0.7018  0.9234  0.3343
 2018SOL     OW17515   3.696   1.630   2.573 -0.7023 -0.4373 -0.5772
 2018SOL    HW117516   3.628   1.569   2.601 -2.6772  0.8190 -2.6279
 2018SOL    HW217517   3.766   1.601   2.631 -1.4928  2.0242  1.6250
 2019SOL     OW17518   2.532   3.146   6.273  0.0831  0.3240  0.1863
 2019SOL    HW117519   2.592   3.192   6.331  2.3870  0.8434 -2.6156
 2019SOL    HW217520   2.448   3.178   6.307 -1.4424  0.9569 -4.1646
 2020SOL     OW17521   2.997   1.484   7.003  0.6021 -0.1488  0.0466
 2020SOL    HW117522   3.058   1.558   7.003  1.0987 -0.5638 -0.9635
 2020SOL    HW217523   2.963   1.492   6.914  2.4513  0.4172 -0.6011
 2021SOL     OW17524   2.977   3.252   6.896 -0.1228 -0.0293 -0.7020
 2021SOL    HW117525   3.047   3.221   6.839  2.5897  0.2660  2.4615
 2021SOL    HW217526   3.020   3.335   6.918  0.2450 -0.9101  1.7967
 2022SOL     OW17527   3.447   2.474  10.732  0.0666 -0.0520 -0.4019
 2022SOL    HW117528   3.434   2.541  10.799  0.8545  0.1135 -0.4127
 2022SOL    HW217529   3.522   2.428  10.769  0.7226  0.2227 -1.4000
 2023SOL     OW17530   0.163   3.924   7.745 -0.0362  0.2053 -0.7356
 2023SOL    HW117531   0.210   3.878   7.675 -0.8558  0.0747 -1.2023
 2023SOL    HW217532   0.119   3.990   7.692  0.6677  0.1502 -1.3798
 2024SOL     OW17533   2.582   1.799   4.235  0.2572  0.1256  0.2585
 2024SOL    HW117534   2.612   1.750   4.311  1.1471 -0.2582 -0.3439
 2024SOL    HW217535   2.505   1.745   4.217 -0.5562  1.1866  0.5114
 2025SOL     OW17536   2.201   3.850  12.697 -0.1202 -0.0372 -0.1108
 2025SOL    HW117537   2.295   3.833  12.684  0.1209  0.4037  1.1289
 2025SOL    HW217538   2.164   3.778  12.646 -0.6706 -0.8112  1.4078
 2026SOL     OW17539   2.819   3.704  16.311  0.1945  0.1652  0.8034
 2026SOL    HW117540   2.773   3.723  16.393  0.0479  0.2843  0.6930
 2026SOL    HW217541   2.777   3.752  16.240  2.7535 -0.1289 -0.9205
 2027SOL     OW17542   1.189   3.472   2.646  0.6183 -0.0701 -0.3416
 2027SOL    HW117543   1.095   3.458   2.631  0.3667  0.6040  0.5641
 2027SOL    HW217544   1.189   3.549   2.703  2.0604 -1.3115  1.3078
 2028SOL     OW17545   1.351   3.742   6.519  0.1117  0.6583 -0.4091
 2028SOL    HW117546   1.419   3.695   6.470  0.0938 -0.6100  0.7911
 2028SOL    HW217547   1.280   3.680   6.537 -0.4321  0.8745 -1.8416
 2029SOL     OW17548   1.231   4.202   9.259  0.0821  0.6077 -0.0407
 2029SOL    HW117549   1.139   4.222   9.240 -0.3686 -1.4064 -0.0211
 2029SOL    HW217550   1.219   4.113   9.292  0.2487  0.2699 -0.8692
 2030SOL     OW17551   1.014   4.480   8.084  0.0989 -0.1816 -0.2009
 2030SOL    HW117552   0.986   4.389   8.097  1.5825 -1.1310 -3.5676
 2030SOL    HW217553   0.946   4.537   8.119  1.2055  1.4888 -0.7905
 2031SOL     OW17554   0.146   2.397   3.031  0.1601 -0.1930 -0.5089
 2031SOL    HW117555   0.085   2.428   2.964 -2.2051 -0.9299  1.3031
 2031SOL    HW217556   0.089   2.340   3.083 -0.8595  1.4701  0.2054
 2032SOL     OW17557   2.111   4.497   8.638  0.0098  0.0417 -0.7205
 2032SOL    HW117558   2.041   4.563   8.636 -0.7527 -0.7228  0.9019
 2032SOL    HW217559   2.183   4.542   8.683  0.2270 -0.6532 -0.3876
 2033SOL     OW17560   3.573   3.775   6.350 -1.0456 -0.4156 -0.0530
 2033SOL    HW117561   3.568   3.749   6.442 -2.4388  0.6099  0.1707
 2033SOL    HW217562   3.492   3.823   6.329  0.9230  2.8059 -0.2397
 2034SOL     OW17563   1.553   1.733   3.902 -0.3567 -0.0062  0.6332
 2034SOL    HW117564   1.545   1.725   3.807 -0.5302 -1.6723  0.8024
 2034SOL    HW217565   1.584   1.644   3.915  1.6754  0.1467 -3.1354
 2035SOL     OW17566   1.303   4.444  15.796 -0.1847 -0.0682  0.2557
 2035SOL    HW117567   1.257   4.522  15.767 -0.5596 -0.7319 -0.9554
 2035SOL    HW217568   1.372   4.474  15.856  1.4664 -1.6405 -0.8417
 2036SOL     OW17569   3.648   2.767   6.925 -0.0855  0.7475  0.3974
 2036SOL    HW117570   3.659   2.736   6.835 -1.0478  1.1648  0.1430
 2036SOL    HW217571   3.712   2.838   6.917  0.5586  0.1272  0.0092
 2037SOL     OW17572   1.452   4.467   8.078 -0.1967  0.2508 -0.2417
 2037SOL    HW117573   1.478   4.558   8.084  0.4526  0.0817 -0.5013
 2037SOL    HW217574   1.504   4.429   8.148 -0.7927  0.6968  0.4451
 2038SOL     OW17575   1.585   2.636   6.154 -0.6439 -0.7584  0.1940
 2038SOL    HW117576   1.577   2.557   6.101 -0.7561  0.2308 -1.2716
 2038SOL    HW217577   1.677   2.638   6.181 -0.5085 -0.0210 -0.3296
 2039SOL     OW17578   0.776   3.032   1.576  0.5784 -0.1402  0.0971
 2039SOL    HW117579   0.734   3.007   1.658  0.9184  2.2368  0.9994
 2039SOL    HW217580   0.784   2.944   1.539 -1.4121 -0.5840  0.7341
 2040SOL     OW17581   2.322   0.768   2.134  0.6384 -0.8029  0.6921
 2040SOL    HW117582   2.351   0.734   2.219 -0.1070 -1.9971  0.4667
 2040SOL    HW217583   2.368   0.706   2.077  1.3123 -0.5681  0.9908
 2041SOL     OW17584   2.051   3.066   0.285  0.0419  0.2577 -0.1068
 2041SOL    HW117585   2.018   3.051   0.373 -2.0248 -0.0575 -0.9328
 2041SOL    HW217586   2.144   3.078   0.303 -0.3257  1.4504  0.9164
 2042SOL     OW17587   2.545   3.280   9.558  0.1048  0.2034  0.0959
 2042SOL    HW117588   2.496   3.214   9.608  0.6121 -0.4435 -0.2667
 2042SOL    HW217589   2.577   3.236   9.480 -0.8521 -1.1604  0.4585
 2043SOL     OW17590   1.467   1.992  15.165  0.6893 -0.4057  0.2210
 2043SOL    HW117591   1.418   1.976  15.084  1.7504  0.0091 -0.5107
 2043SOL    HW217592   1.468   1.901  15.193 -2.0064 -0.2730  0.7831
 2044SOL     OW17593   0.744   1.106  14.441  0.2116 -0.0232  0.8969
 2044SOL    HW117594   0.794   1.082  14.519  1.8968 -1.6726 -0.6817
 2044SOL    HW217595   0.816   1.115  14.379 -1.6611 -0.1143 -1.3003
 2045SOL     OW17596   1.274   0.001   4.419  0.4977  0.3881 -0.7181
 2045SOL    HW117597   1.182   4.710   4.397  0.3184 -2.1408  1.7654
 2045SOL    HW217598   1.267   0.095   4.430  0.6943  0.4716 -1.2939
 2046SOL     OW17599   3.189   4.039   2.454  0.3155  0.4637 -0.1197
 2046SOL    HW117600   3.099   4.021   2.427  1.1452 -1.6963 -1.5054
 2046SOL    HW217601   3.227   3.952   2.440 -0.5933  0.0384  0.1130
 2047SOL     OW17602   1.668   2.473  15.979 -0.4500  0.2416 -0.2531
 2047SOL    HW117603   1.665   2.401  16.043 -1.6911 -1.4201 -2.1795
 2047SOL    HW217604   1.578   2.472  15.947 -1.3875 -1.0989  2.3933
 2048SOL     OW17605   2.952   2.230   7.317 -0.3920  0.7069 -0.2480
 2048SOL    HW117606   2.908   2.168   7.376  0.5281  1.6938  1.4906
 2048SOL    HW217607   3.024   2.178   7.282 -1.9316 -2.8421  1.8156
 2049SOL     OW17608   2.308   0.427   2.588  0.4521  0.4407 -0.4642
 2049SOL    HW117609   2.236   0.364   2.582  1.1244 -0.4000  0.2833
 2049SOL    HW217610   2.374   0.358   2.595 -1.0609 -1.1865 -2.2346
 2050SOL     OW17611   3.305   1.223   3.294 -0.0510  0.2367  0.0738
 2050SOL    HW117612   3.302   1.315   3.269 -0.7004 -0.3731 -2.0440
 2050SOL    HW217613   3.217   1.197   3.320  0.0690  0.6629  0.9088
 2051SOL     OW17614   1.240   4.593  13.289 -0.4044  0.0612 -0.2179
 2051SOL    HW117615   1.316   4.649  13.306 -0.4777 -0.4972  1.9198
 2051SOL    HW217616   1.168   4.650  13.316 -0.0415 -1.1089  3.2656
 2052SOL     OW17617   2.787   4.009   1.237 -0.0421  0.5800 -1.0260
 2052SOL    HW117618   2.818   4.050   1.318 -1.5572 -1.0362  0.3866
 2052SOL    HW217619   2.695   3.989   1.251  0.7508 -2.5455 -0.1692
 2053SOL     OW17620   0.031   2.952  16.639 -0.4320  0.6463  0.5243
 2053SOL    HW117621   0.005   2.939  16.548 -0.3269  1.6941  0.3493
 2053SOL    HW217622   4.721   3.040  16.652 -0.4075  0.5142  1.4817
 2054SOL     OW17623   4.018   1.179   7.106 -0.2096  0.3747 -0.3998
 2054SOL    HW117624   4.063   1.120   7.046  0.1907  0.9228 -0.6349
 2054SOL    HW217625   4.062   1.167   7.190 -0.8070 -0.1447 -0.1588
 2055SOL     OW17626   2.232   0.702   6.415 -0.0483  0.4067  0.4374
 2055SOL    HW117627   2.317   0.669   6.386 -0.6650 -0.1919 -0.7083
 2055SOL    HW217628   2.254   0.751   6.494  0.2850  1.3309 -0.2377
 2056SOL     OW17629   4.578   2.903   8.040  0.2190 -0.0431 -0.2617
 2056SOL    HW117630   4.556   2.843   8.111 -0.6538  1.1692  0.4935
 2056SOL    HW217631   4.531   2.981   8.068  3.3414  1.5203  0.5730
 2057SOL     OW17632   2.636   4.178   7.608 -0.5021  0.2769  0.3142
 2057SOL    HW117633   2.712   4.230   7.584 -0.0195 -1.3579 -1.6783
 2057SOL    HW217634   2.646   4.107   7.545  0.4283  1.7388 -1.1682
 2058SOL     OW17635   3.167   2.267   1.484  0.7668 -0.1769  0.6143
 2058SOL    HW117636   3.166   2.243   1.577  0.6479 -0.9751  0.4032
 2058SOL    HW217637   3.235   2.335   1.492  0.2047  0.5032 -0.3846
 2059SOL     OW17638   3.731   3.877   6.731 -0.0777 -0.5980 -0.5159
 2059SOL    HW117639   3.802   3.913   6.678 -2.0134  2.8077 -0.8249
 2059SOL    HW217640   3.789   3.855   6.804 -0.5573 -1.8679 -0.5250
 2060SOL     OW17641   4.703   1.653   1.502 -0.1348 -0.2027 -0.3153
 2060SOL    HW117642   0.051   1.597   1.532  0.4125 -0.9451 -2.9851
 2060SOL    HW217643   4.721   1.663   1.409  3.4336 -0.4679  0.3593
 2061SOL     OW17644   2.518   2.846   6.336 -0.2246 -0.3757 -0.8445
 2061SOL    HW117645   2.613   2.833   6.331 -0.6001 -2.8694 -1.1911
 2061SOL    HW217646   2.502   2.936   6.306  0.7386 -0.4802 -1.6940
 2062SOL     OW17647   3.870   4.477   3.751 -0.2690 -0.2318 -0.4194
 2062SOL    HW117648   3.779   4.452   3.769 -0.4748  0.6945 -0.1651
 2062SOL    HW217649   3.882   4.491   3.657  2.0972 -0.0641 -0.0991
 2063SOL     OW17650   4.692   3.520   3.313 -0.2481  0.0218 -0.0596
 2063SOL    HW117651   0.047   3.479   3.348 -0.0683  1.7127  1.5518
 2063SOL    HW217652   4.654   3.568   3.387  0.9681 -2.3562  2.1510
 2064SOL     OW17653   2.039   4.561  16.839  0.6283 -0.5699 -0.5804
 2064SOL    HW117654   1.989   4.497  16.787 -0.2102  1.2996 -2.0824
 2064SOL    HW217655   2.085   4.608  16.769 -1.2166  1.0726 -0.7140
 2065SOL     OW17656   1.426   2.308  14.791  0.0051 -0.0190 -0.2933
 2065SOL    HW117657   1.428   2.214  14.773  0.7083 -0.0661  0.0226
 2065SOL    HW217658   1.339   2.318  14.752  0.5033  1.1899 -1.1081
 2066SOL     OW17659   0.262   2.123   2.836 -0.5121  0.7526 -0.3813
 2066SOL    HW117660   0.168   2.134   2.846 -0.5069 -0.2661  0.8164
 2066SOL    HW217661   0.268   2.110   2.742 -1.2627 -0.5638 -0.2392
 2067SOL     OW17662   1.723   2.444  13.002 -0.0567  0.4477  0.0239
 2067SOL    HW117663   1.659   2.509  12.971  0.2753 -0.3036 -2.2095
 2067SOL    HW217664   1.739   2.396  12.921 -1.8028  2.1085 -1.3112
 2068SOL     OW17665   0.896   0.361   3.841  0.2944 -0.5055  0.6186
 2068SOL    HW117666   0.850   0.341   3.922 -1.3294  2.1860  0.3973
 2068SOL    HW217667   0.987   0.346   3.865 -0.0240 -2.1888  0.7702
 2069SOL     OW17668   3.629   1.442   3.048 -0.6314 -0.2244 -0.1847
 2069SOL    HW117669   3.543   1.456   3.009 -1.2045 -0.4281  1.0122
 2069SOL    HW217670   3.659   1.531   3.064 -0.6925 -0.2845  0.2583
 2070SOL     OW17671   0.672   2.015   8.594  0.1525  0.0245  0.0514
 2070SOL    HW117672   0.755   2.059   8.578  0.4246 -0.3067  0.5226
 2070SOL    HW217673   0.613   2.080   8.558  1.1351  0.2878 -1.0736
 2071SOL     OW17674   2.976   4.683   3.826  0.1243  0.0552 -0.3124
 2071SOL    HW117675   2.911   4.614   3.817 -0.5262  0.3371  2.2770
 2071SOL    HW217676   3.058   4.633   3.814 -0.9519 -1.3924 -1.6945
 2072SOL     OW17677   4.360   2.763   3.890  0.3941 -0.0540 -0.0062
 2072SOL    HW117678   4.418   2.830   3.927  0.9501  0.5835 -2.0320
 2072SOL    HW217679   4.358   2.692   3.954  1.3480  1.0405  1.2421
 2073SOL     OW17680   0.751   4.691   6.304 -0.1174  0.7719 -0.2418
 2073SOL    HW117681   0.806   4.638   6.363  0.7391  2.0259  0.0787
 2073SOL    HW217682   0.803   4.684   6.224  1.5889  1.7207  0.7837
 2074SOL     OW17683   0.017   2.161   4.555 -0.6141 -0.3663 -0.3962
 2074SOL    HW117684   0.081   2.214   4.509 -0.7353 -0.2898 -0.4787
 2074SOL    HW217685   0.063   2.123   4.630 -1.4744  0.8955  0.7662
 2075SOL     OW17686   0.594   0.025   4.259 -0.0912  0.2440 -0.8319
 2075SOL    HW117687   0.549   0.071   4.330  2.0619 -0.0380  0.7079
 2075SOL    HW217688   0.517   4.703   4.226 -0.2347 -1.5946  2.0725
 2076SOL     OW17689   3.538   0.628   7.726  0.5687 -0.3050 -0.0861
 2076SOL    HW117690   3.521   0.623   7.820 -2.0239  0.3554 -0.5404
 2076SOL    HW217691   3.540   0.535   7.704 -1.6045 -0.1594 -0.8622
 2077SOL     OW17692   1.899   0.716   3.748  0.3453 -0.3625 -0.6077
 2077SOL    HW117693   1.880   0.623   3.750  0.2211 -0.3703 -2.5677
 2077SOL    HW217694   1.871   0.744   3.661  0.9331 -1.4308 -1.1442
 2078SOL     OW17695   0.298   4.340   0.497  0.1925 -0.5943  0.3897
 2078SOL    HW117696   0.227   4.338   0.434  0.7850 -2.1808 -0.2213
 2078SOL    HW217697   0.274   4.261   0.545 -0.5925 -0.4185  0.2847
 2079SOL     OW17698   1.718   4.444   6.322 -0.4203  0.2057 -0.4612
 2079SOL    HW117699   1.811   4.423   6.310 -0.3817 -1.2162  2.2643
 2079SOL    HW217700   1.694   4.401   6.404  2.3670  0.0991  0.3080
 2080SOL     OW17701   1.313   0.507   0.666 -0.4975  0.1773 -0.2805
 2080SOL    HW117702   1.253   0.436   0.645 -2.6134  1.7731  0.4158
 2080SOL    HW217703   1.379   0.457   0.715 -0.3438  1.5837  0.9746
 2081SOL     OW17704   3.034   3.626  13.107 -0.2311  0.2889 -0.0643
 2081SOL    HW117705   3.093   3.610  13.033 -1.5355 -0.7605 -0.8902
 2081SOL    HW217706   2.984   3.544  13.100 -1.2649  1.1207 -2.2727
 2082SOL     OW17707   0.092   2.786   0.842 -0.1330 -0.3355  0.1214
 2082SOL    HW117708   0.136   2.707   0.875  0.1863 -1.4777 -3.0783
 2082SOL    HW217709   0.058   2.807   0.929 -1.3642  1.0364 -0.6944
 2083SOL     OW17710   3.574   1.142   8.744  0.6521 -0.8560  0.5316
 2083SOL    HW117711   3.503   1.155   8.806 -2.6245 -1.1503 -3.1686
 2083SOL    HW217712   3.619   1.067   8.785  0.7227 -0.1071  1.8272
 2084SOL     OW17713   0.566   4.412   5.307  0.0755 -0.3491 -0.5900
 2084SOL    HW117714   0.595   4.407   5.398 -2.7022 -3.6459  0.1389
 2084SOL    HW217715   0.627   4.482   5.282 -0.7221  0.1206 -1.2364
 2085SOL     OW17716   0.212   1.164   2.382 -0.1113 -0.2124  0.6236
 2085SOL    HW117717   0.165   1.094   2.338  0.3391 -0.5713  0.7123
 2085SOL    HW217718   0.209   1.111   2.463  0.1735 -2.1725 -0.6473
 2086SOL     OW17719   0.638   0.153   7.558  0.3745 -0.5077  0.3004
 2086SOL    HW117720   0.677   0.086   7.501  0.4954  0.3525 -0.6160
 2086SOL    HW217721   0.551   0.168   7.521  1.3360 -0.8707 -2.1349
 2087SOL     OW17722   1.910   1.231  10.133  0.2647 -0.1543 -0.3599
 2087SOL    HW117723   1.964   1.184  10.197  0.3492  1.5977  0.8576
 2087SOL    HW217724   1.977   1.234  10.065  0.3228 -0.6451 -0.3261
 2088SOL     OW17725   1.085   4.511   6.590 -0.1378 -0.0311  0.0929
 2088SOL    HW117726   1.055   4.596   6.558  2.5956  0.7612 -0.3394
 2088SOL    HW217727   1.008   4.457   6.570 -0.3390 -0.0147  0.8224
 2089SOL     OW17728   1.536   2.868  13.900  0.2049  0.3550 -0.0239
 2089SOL    HW117729   1.498   2.817  13.971  0.2478 -0.4165 -0.5515
 2089SOL    HW217730   1.626   2.838  13.906  0.4117  0.9074 -0.2940
 2090SOL     OW17731   4.066   1.505   8.722 -0.2442  0.0050  0.3225
 2090SOL    HW117732   4.100   1.563   8.654  0.2754 -0.1821  0.4223
 2090SOL    HW217733   4.015   1.562   8.779 -2.3561 -1.8532  0.3152
 2091SOL     OW17734   0.853   2.726   3.209 -0.3459  0.6970  0.1312
 2091SOL    HW117735   0.862   2.793   3.277 -1.5370  1.5355 -0.5349
 2091SOL    HW217736   0.765   2.744   3.175  0.3564  0.2799 -1.9061
 2092SOL     OW17737   2.825   3.867   8.439  0.5520 -0.5761  0.0764
 2092SOL    HW117738   2.804   3.850   8.531  0.7850 -0.9256  0.0621
 2092SOL    HW217739   2.904   3.920   8.448 -0.0958  0.3639  0.2878
 2093SOL     OW17740   3.444   0.113   5.052  0.0602  0.5331  0.4405
 2093SOL    HW117741   3.507   0.167   5.005  1.2489 -2.2017 -1.1188
 2093SOL    HW217742   3.406   0.055   4.986  0.9782 -1.2913  1.5296
 2094SOL     OW17743   3.549   1.050   6.147  0.0187 -0.0476 -0.5444
 2094SOL    HW117744   3.614   1.101   6.097  0.5627  0.3788  0.6088
 2094SOL    HW217745   3.486   1.025   6.079  1.3835 -0.3707 -1.6924
 2095SOL     OW17746   0.610   3.301  10.532  0.7904  0.5494 -0.4080
 2095SOL    HW117747   0.581   3.253  10.609 -0.1243  1.8358  0.0316
 2095SOL    HW217748   0.593   3.391  10.560 -1.8583 -0.1688  0.2808
 2096SOL     OW17749   0.305   4.566   1.037  0.4656 -0.2167  0.4056
 2096SOL    HW117750   0.326   4.485   1.082  0.6035  0.3335  1.3222
 2096SOL    HW217751   0.322   4.634   1.103  1.8185 -0.4555  0.3085
 2097SOL     OW17752   0.295   0.283   8.341 -0.0744  0.2711 -0.3445
 2097SOL    HW117753   0.382   0.285   8.382  0.5678 -2.2063 -1.6034
 2097SOL    HW217754   0.325   0.315   8.255 -0.2368  1.8376  0.1807
 2098SOL     OW17755   2.569   0.877   6.161  0.0037 -0.4116 -0.3952
 2098SOL    HW117756   2.559   0.938   6.088  0.1061  1.1917  0.9166
 2098SOL    HW217757   2.663   0.880   6.174 -0.1892 -0.1869  0.9671
 2099SOL     OW17758   2.929   1.120   1.407 -0.3827 -0.0790 -0.1284
 2099SOL    HW117759   2.981   1.200   1.404  0.7218 -0.9447 -3.9559
 2099SOL    HW217760   2.841   1.148   1.433 -0.2354  0.4639 -0.2160
 2100SOL     OW17761   4.174   2.101   1.175 -0.1119  0.1796 -0.1788
 2100SOL    HW117762   4.217   2.186   1.167 -2.4084  1.3983  0.4945
 2100SOL    HW217763   4.079   2.114   1.177 -0.4830 -2.4440 -0.2699
 2101SOL     OW17764   2.096   4.175  15.973 -0.1026 -0.0221  0.0714
 2101SOL    HW117765   2.150   4.252  15.956 -0.3373 -0.0059 -0.6396
 2101SOL    HW217766   2.016   4.222  15.950  1.8517  1.2894 -4.0478
 2102SOL     OW17767   1.003   0.938   1.824 -0.0324 -0.4144 -0.0220
 2102SOL    HW117768   0.966   0.884   1.754 -1.5840  0.7268 -0.0841
 2102SOL    HW217769   1.075   0.885   1.857 -0.5909 -0.9900  0.2939
 2103SOL     OW17770   0.820   2.007   6.469  0.1444 -0.5929 -0.0012
 2103SOL    HW117771   0.843   2.100   6.468  2.3949 -1.1492 -1.3220
 2103SOL    HW217772   0.798   1.986   6.378 -1.6500 -0.6407  0.4438
 2104SOL     OW17773   2.970   4.236  13.421 -0.2151 -0.4767  0.9603
 2104SOL    HW117774   3.034   4.165  13.416 -0.7160 -0.8053 -0.6524
 2104SOL    HW217775   2.980   4.255  13.514  1.8699  0.7737  0.4791
 2105SOL     OW17776   2.872   3.407   7.517  0.2169  0.2408  0.1642
 2105SOL    HW117777   2.903   3.353   7.590  2.0474 -1.1776 -1.6423
 2105SOL    HW217778   2.949   3.424   7.463  1.2997 -1.2330  1.2448
 2106SOL     OW17779   3.613   3.725   5.277  0.1759  0.1775  0.0664
 2106SOL    HW117780   3.612   3.729   5.373 -2.3581 -1.3323  0.0985
 2106SOL    HW217781   3.532   3.679   5.255  0.6386  0.4319 -2.2167
 2107SOL     OW17782   4.076   0.714   8.891 -0.0698 -0.0457  0.3412
 2107SOL    HW117783   4.121   0.640   8.934 -0.8227  0.7918  2.5549
 2107SOL    HW217784   3.996   0.715   8.943 -0.4920  1.0227 -0.3383
 2108SOL     OW17785   1.580   2.860   3.233  0.6537  0.0749  0.3608
 2108SOL    HW117786   1.612   2.801   3.164  1.5127  0.7164  0.2224
 2108SOL    HW217787   1.634   2.823   3.303  1.3714 -0.3248 -0.4025
 2109SOL     OW17788   4.216   2.579   3.385  0.6502  0.4201  0.0559
 2109SOL    HW117789   4.146   2.518   3.410  0.9210 -0.3781 -1.1110
 2109SOL    HW217790   4.197   2.651   3.445  0.7936 -0.0352  0.6478
 2110SOL     OW17791   4.575   0.206  10.400 -0.3622  0.1053 -0.0529
 2110SOL    HW117792   4.599   0.141  10.467  2.2431  0.1160 -0.9534
 2110SOL    HW217793   4.666   0.227  10.380 -0.2922 -0.1643 -0.0195
 2111SOL     OW17794   2.690   2.936  11.303  0.7926  0.1063  0.3750
 2111SOL    HW117795   2.647   2.853  11.325  0.3620 -0.2981 -1.9721
 2111SOL    HW217796   2.766   2.900  11.257  0.9595 -0.6335  1.2171
 2112SOL     OW17797   3.091   1.557   2.588 -0.4332 -0.3664  0.3042
 2112SOL    HW117798   3.169   1.576   2.640  0.4916 -1.7815 -0.5751
 2112SOL    HW217799   3.105   1.478   2.536  1.4624  0.7341 -0.8482
 2113SOL     OW17800   0.465   2.087  11.701 -0.1684  0.8513  0.5117
 2113SOL    HW117801   0.383   2.038  11.691  0.0927  0.5843 -0.2764
 2113SOL    HW217802   0.485   2.116  11.612 -2.0071  2.5605  0.6486
 2114SOL     OW17803   0.615   4.243   8.046 -0.2643 -0.2029 -0.1994
 2114SOL    HW117804   0.544   4.191   8.084 -1.1254  0.0529 -1.4770
 2114SOL    HW217805   0.587   4.327   8.009  0.1641  0.0031 -0.0547
 2115SOL     OW17806   0.484   2.326   1.992  0.1467  0.4533  0.3602
 2115SOL    HW117807   0.492   2.299   1.900  0.2569 -2.7780  1.3060
 2115SOL    HW217808   0.418   2.264   2.023  0.3875 -0.4454 -0.9358
 2116SOL     OW17809   0.033   4.237  12.288  0.4129 -0.3921  0.3795
 2116SOL    HW117810   4.664   4.213  12.287 -0.3028  2.6224 -4.3577
 2116SOL    HW217811   0.058   4.174  12.220 -1.1487 -0.4740 -0.1317
 2117SOL     OW17812   2.365   2.177   2.329 -0.1528  0.4157 -0.0254
 2117SOL    HW117813   2.415   2.230   2.392 -0.9449  0.5670  0.4804
 2117SOL    HW217814   2.431   2.115   2.298 -0.5240 -1.2442  2.5180
 2118SOL     OW17815   0.404   1.687  11.165 -0.6332  0.1412  0.3703
 2118SOL    HW117816   0.390   1.760  11.225 -0.8803  0.2754  0.1493
 2118SOL    HW217817   0.467   1.729  11.107  1.5340 -2.1428  1.0789
 2119SOL     OW17818   0.514   2.431   9.106  0.2173 -0.0798 -0.0758
 2119SOL    HW117819   0.440   2.461   9.159  0.4403 -0.9316  0.7149
 2119SOL    HW217820   0.579   2.412   9.173 -1.9193 -1.0286  1.7611
 2120SOL     OW17821   4.244   3.157   7.850  0.5158  0.2711  0.2845
 2120SOL    HW117822   4.293   3.119   7.923  1.8062 -0.4946 -0.9789
 2120SOL    HW217823   4.288   3.241   7.837 -0.3492  0.7239  0.2555
 2121SOL     OW17824   1.789   2.688   1.263 -0.4541 -0.2923 -0.6418
 2121SOL    HW117825   1.839   2.689   1.344 -1.8134 -3.1859  0.2195
 2121SOL    HW217826   1.732   2.764   1.277 -0.3081  0.0695 -2.0583
 2122SOL     OW17827   2.128   3.822   0.082  0.3321 -0.3291  0.2453
 2122SOL    HW117828   2.096   3.801   0.169  2.2803  1.1752  1.3080
 2122SOL    HW217829   2.178   3.743   0.058 -2.1151 -1.9819  0.5629
 2123SOL     OW17830   4.196   2.116   1.689  0.3367 -0.0326  0.0378
 2123SOL    HW117831   4.208   2.060   1.612 -1.8630 -1.0858  0.4627
 2123SOL    HW217832   4.102   2.105   1.706  0.7423 -1.6074  1.2473
 2124SOL     OW17833   1.487   4.115   3.475  0.0802 -0.4086  0.3951
 2124SOL    HW117834   1.473   4.187   3.537 -1.2932  1.2221 -1.8119
 2124SOL    HW217835   1.577   4.088   3.493  0.4357 -0.3171 -1.2789
 2125SOL     OW17836   3.334   3.899  14.280  0.7412 -1.0889 -0.4219
 2125SOL    HW117837   3.400   3.843  14.238  0.9007 -1.0582 -0.2071
 2125SOL    HW217838   3.319   3.961  14.208  0.3907 -0.3518  0.2928
 2126SOL     OW17839   1.298   2.479   6.562  0.0034 -0.2139 -0.0459
 2126SOL    HW117840   1.335   2.393   6.581 -1.1222 -0.7514 -0.3331
 2126SOL    HW217841   1.374   2.517   6.517  0.7052 -1.0776  0.3987
 2127SOL     OW17842   4.544   1.327   3.586 -0.1139 -0.6335 -0.1925
 2127SOL    HW117843   4.483   1.401   3.585 -1.0121 -1.3944 -0.9698
 2127SOL    HW217844   4.621   1.362   3.631  0.3720 -1.8394 -0.0697
 2128SOL     OW17845   4.608   3.443   3.711  0.3905  0.7907 -0.2636
 2128SOL    HW117846   4.703   3.454   3.703  0.5419 -0.9929 -0.8804
 2128SOL    HW217847   4.574   3.504   3.647 -0.6953  1.0182  0.5316
 2129SOL     OW17848   2.878   4.369   9.550  0.0614 -0.3359  0.1871
 2129SOL    HW117849   2.933   4.323   9.614 -1.1278 -1.5613  0.3195
 2129SOL    HW217850   2.947   4.391   9.487  1.3485 -0.1803  1.6508
 2130SOL     OW17851   2.204   1.183   6.981 -0.7936  0.3848 -0.9071
 2130SOL    HW117852   2.179   1.275   6.967 -0.1114  0.6656 -0.2486
 2130SOL    HW217853   2.197   1.160   6.888 -0.9804 -1.6302 -0.3954
 2131SOL     OW17854   0.130   4.045   2.255  0.4537  0.1363 -0.3043
 2131SOL    HW117855   0.147   4.057   2.162  0.9875  2.0657  0.0427
 2131SOL    HW217856   0.086   4.129   2.269 -0.3417 -0.5202  1.1975
 2132SOL     OW17857   4.015   2.579   9.383 -0.2792 -0.3715 -0.1391
 2132SOL    HW117858   4.049   2.554   9.297  1.9069  0.4865  0.4731
 2132SOL    HW217859   3.952   2.649   9.368 -1.1442 -0.8702  1.1876
 2133SOL     OW17860   3.243   0.551   5.732  0.7721 -0.2853  0.0553
 2133SOL    HW117861   3.280   0.466   5.756  1.2554 -0.2597 -0.5765
 2133SOL    HW217862   3.320   0.606   5.714  1.0894 -1.4093 -2.0741
 2134SOL     OW17863   4.445   2.138   6.391 -0.2826  0.1537  0.0000
 2134SOL    HW117864   4.400   2.056   6.411  2.3295 -1.6233 -1.4578
 2134SOL    HW217865   4.381   2.178   6.332 -1.5813  0.5544  1.6711
 2135SOL     OW17866   0.210   4.268   7.292  0.3756 -0.0180  0.0885
 2135SOL    HW117867   0.213   4.178   7.323 -2.5142 -0.0464  0.3373
 2135SOL    HW217868   0.189   4.311   7.375 -1.1184  1.6922 -1.1747
 2136SOL     OW17869   2.568   4.691  17.642 -0.3011  0.2902 -0.5246
 2136SOL    HW117870   2.650   4.703  17.594  0.3872  0.1774  0.6129
 2136SOL    HW217871   2.562   4.596  17.633 -1.4212  0.5178 -2.2600
 2137SOL     OW17872   2.170   3.669   2.080 -0.2777  0.7448  0.3852
 2137SOL    HW117873   2.231   3.606   2.039  1.5889  1.9144  1.3620
 2137SOL    HW217874   2.138   3.623   2.158 -2.4919 -0.1043 -1.0256
 2138SOL     OW17875   2.833   3.021   3.000  0.6327 -0.3110  0.0404
 2138SOL    HW117876   2.810   3.109   2.970 -0.0836 -0.7240 -0.6128
 2138SOL    HW217877   2.781   3.007   3.079 -0.7040  1.2620 -0.5577
 2139SOL     OW17878   4.188   2.342   9.882  0.1380 -0.0058  0.2802
 2139SOL    HW117879   4.093   2.349   9.887  0.1736  0.4985  0.3165
 2139SOL    HW217880   4.224   2.409   9.941  1.1444 -0.5488  0.2843
 2140SOL     OW17881   2.575   1.197  17.177 -0.0015 -0.4262  0.3461
 2140SOL    HW117882   2.665   1.212  17.148  0.7880 -1.0394  2.5417
 2140SOL    HW217883   2.577   1.111  17.217  0.8785  0.6025  2.5146
 2141SOL     OW17884   0.224   0.886  11.528 -0.1094 -0.4701  0.1127
 2141SOL    HW117885   0.151   0.846  11.575 -0.3920 -0.6229 -0.4468
 2141SOL    HW217886   0.268   0.807  11.498  3.2992  1.4523  0.0021
 2142SOL     OW17887   0.616   4.613   3.966 -0.2717 -0.2682  0.0906
 2142SOL    HW117888   0.638   4.583   3.878  0.2593  1.1833 -0.2792
 2142SOL    HW217889   0.530   4.650   3.946  0.2913  0.2755 -1.3497
 2143SOL     OW17890   1.948   3.296  10.300 -0.3722  0.0438 -0.1480
 2143SOL    HW117891   1.893   3.371  10.278  0.3444  0.9422  1.1171
 2143SOL    HW217892   1.887   3.242  10.351 -0.0236  0.2165  0.4564
 2144SOL     OW17893   2.784   1.094   4.498 -0.1316 -0.0704 -0.3176
 2144SOL    HW117894   2.852   1.131   4.554 -1.8165  0.8864  1.0884
 2144SOL    HW217895   2.705   1.140   4.525  0.2445 -0.4135  1.3789
 2145SOL     OW17896   3.887   1.125   5.713  0.0921  0.2246 -0.0278
 2145SOL    HW117897   3.982   1.131   5.717  0.1547 -0.7036 -0.1273
 2145SOL    HW217898   3.863   1.217   5.710  0.5673  0.3511  0.1007
 2146SOL     OW17899   0.827   0.229   3.216  0.0470 -0.0420 -0.1838
 2146SOL    HW117900   0.813   0.152   3.272 -0.2416  1.1725  1.4033
 2146SOL    HW217901   0.750   0.225   3.160  0.1289  1.1350 -0.3789
 2147SOL     OW17902   4.071   0.161   4.234  0.6011  0.5497  0.1519
 2147SOL    HW117903   4.036   0.250   4.228 -2.9935 -0.8001  0.8063
 2147SOL    HW217904   4.057   0.138   4.326 -0.3535 -2.0710 -0.6601
 2148SOL     OW17905   0.073   4.142   8.930 -0.1047  0.1195  0.1827
 2148SOL    HW117906   0.107   4.068   8.981  1.0201  0.6233  0.1510
 2148SOL    HW217907   0.065   4.100   8.844  1.4639 -1.6984  0.9267
 2149SOL     OW17908   2.337   4.516   6.780 -0.6325  0.1648 -0.2146
 2149SOL    HW117909   2.259   4.547   6.827 -0.5748 -1.0434  0.6612
 2149SOL    HW217910   2.402   4.506   6.849 -1.5273  0.2710  0.6453
 2150SOL     OW17911   4.010   0.648  16.880  0.3514  0.0841  0.3200
 2150SOL    HW117912   3.984   0.727  16.926 -3.0966 -1.5379  1.1481
 2150SOL    HW217913   3.976   0.672  16.794  0.4955  0.5856  0.4086
 2151SOL     OW17914   2.060   4.404   5.757  0.2874 -0.6148  0.0157
 2151SOL    HW117915   2.116   4.478   5.778 -1.3183 -0.0083  2.0600
 2151SOL    HW217916   2.103   4.368   5.679 -0.4759 -0.0734 -0.6530
 2152SOL     OW17917   2.249   4.643  14.817  0.2760  0.2744  0.4840
 2152SOL    HW117918   2.245   4.693  14.735 -2.9042 -0.8163 -0.0013
 2152SOL    HW217919   2.320   4.583  14.792 -0.5341 -0.7073  0.5501
 2153SOL     OW17920   0.434   0.305   8.947 -0.3133  0.0246 -0.0985
 2153SOL    HW117921   0.388   0.262   8.875 -1.5380 -0.3979  0.9395
 2153SOL    HW217922   0.510   0.248   8.959 -0.8689 -0.8568 -0.8111
 2154SOL     OW17923   1.901   3.131   2.926  0.1214  0.6738  0.3241
 2154SOL    HW117924   1.961   3.105   2.856  0.2658  0.9728  0.3365
 2154SOL    HW217925   1.821   3.101   2.883  0.8218  0.3955 -0.8131
 2155SOL     OW17926   1.671   1.280   1.522 -0.1593 -0.4845  0.5837
 2155SOL    HW117927   1.585   1.320   1.530 -0.6857 -0.6670 -3.9454
 2155SOL    HW217928   1.661   1.203   1.578 -1.6289 -0.7183 -0.0228
 2156SOL     OW17929   3.298   3.013   3.514 -0.0111 -0.4755  0.7431
 2156SOL    HW117930   3.296   3.092   3.568  2.7491  0.8305 -1.1068
 2156SOL    HW217931   3.240   3.036   3.442 -1.3055  0.7305  2.1729
 2157SOL     OW17932   4.628   0.141   4.441  0.2633 -0.0320  0.4199
 2157SOL    HW117933   4.534   0.147   4.423  0.5853  0.3220 -1.1784
 2157SOL    HW217934   4.626   0.135   4.536  0.7108 -1.7929  0.3132
 2158SOL     OW17935   3.344   1.707   2.805  0.1067  0.0514  0.0980
 2158SOL    HW117936   3.346   1.637   2.870 -0.1563 -0.6887 -0.7002
 2158SOL    HW217937   3.413   1.683   2.743 -1.7369 -0.8255 -1.6093
 2159SOL     OW17938   3.243   0.638   3.686  0.0431  0.1861 -0.4316
 2159SOL    HW117939   3.248   0.542   3.689  0.3308  0.2035 -0.3632
 2159SOL    HW217940   3.275   0.664   3.772 -1.1435 -0.4385  0.1932
 2160SOL     OW17941   2.090   2.517  17.606  0.3726 -0.3965 -0.6934
 2160SOL    HW117942   2.051   2.545  17.522  0.8959  0.7313 -0.5662
 2160SOL    HW217943   2.012   2.506  17.661  1.3557 -1.0056  0.5646
 2161SOL     OW17944   4.320   0.781   0.851 -0.2594  0.1729 -0.3224
 2161SOL    HW117945   4.231   0.816   0.859 -1.0549 -0.9211 -3.9240
 2161SOL    HW217946   4.374   0.854   0.880 -0.3013 -0.1731  0.6306
 2162SOL     OW17947   2.233   3.486  17.415  0.6621  0.2776 -0.2323
 2162SOL    HW117948   2.241   3.462  17.507  0.5081  0.7087 -0.1093
 2162SOL    HW217949   2.323   3.518  17.415  0.5608  0.5781 -1.0235
 2163SOL     OW17950   2.748   3.628   7.938 -0.4938 -0.0932  0.1908
 2163SOL    HW117951   2.709   3.678   7.866  2.3217 -1.4191 -2.2559
 2163SOL    HW217952   2.708   3.671   8.013  0.1804 -0.2819  0.6545
 2164SOL     OW17953   2.772   3.866   5.647 -0.0204 -0.1414  0.1284
 2164SOL    HW117954   2.801   3.827   5.730  0.3315 -0.8718 -0.3328
 2164SOL    HW217955   2.824   3.943   5.625 -2.4459  1.5419  0.2485
 2165SOL     OW17956   1.530   0.355   2.972  0.4506  1.1816 -0.3397
 2165SOL    HW117957   1.541   0.440   3.013  0.1646  0.2806  1.5976
 2165SOL    HW217958   1.485   0.304   3.040  0.0888  0.4482 -1.1277
 2166SOL     OW17959   1.103   3.439   8.308 -0.8670 -0.1140 -0.8448
 2166SOL    HW117960   1.164   3.451   8.235  0.7925  0.7634  0.6774
 2166SOL    HW217961   1.121   3.516   8.362 -2.3949  1.5965 -2.7849
 2167SOL     OW17962   0.451   1.138   6.342  0.4885  0.5348  0.2314
 2167SOL    HW117963   0.517   1.083   6.383  1.1910 -0.5623 -2.4179
 2167SOL    HW217964   0.384   1.145   6.410  1.4303 -0.6260  1.2764
 2168SOL     OW17965   4.636   1.009   3.380 -0.1065 -0.1745 -0.5554
 2168SOL    HW117966   4.710   1.033   3.325  0.9740  0.2179  1.0669
 2168SOL    HW217967   4.659   1.039   3.468 -1.5283  0.1405 -0.2798
 2169SOL     OW17968   3.206   4.502   5.281  0.3649  0.0599 -0.0130
 2169SOL    HW117969   3.264   4.578   5.289  2.3597 -1.5917  1.4023
 2169SOL    HW217970   3.175   4.530   5.195  2.8046  0.3394 -0.8099
 2170SOL     OW17971   1.227   1.598   5.357  0.5547  0.2303  0.2961
 2170SOL    HW117972   1.217   1.505   5.336  0.5575  0.0060  1.2838
 2170SOL    HW217973   1.276   1.593   5.439 -0.7694  1.6799  1.1791
 2171SOL     OW17974   1.904   2.631  15.900 -0.1621  0.2525 -0.8013
 2171SOL    HW117975   1.909   2.585  15.817 -0.7840  0.0872 -0.7538
 2171SOL    HW217976   1.840   2.580  15.951  0.5414  0.4554  0.2957
 2172SOL     OW17977   1.589   1.985   0.564 -0.4111 -0.3682 -0.1788
 2172SOL    HW117978   1.553   2.067   0.596  1.4430  0.9069 -1.3263
 2172SOL    HW217979   1.683   2.000   0.575 -0.3876 -0.3218 -0.4241
 2173SOL     OW17980   2.936   0.685   6.456  0.0454 -0.0241 -0.2552
 2173SOL    HW117981   2.922   0.596   6.423 -4.7504 -0.0612  1.8216
 2173SOL    HW217982   2.853   0.713   6.496 -0.2076 -4.3141  2.2423
 2174SOL     OW17983   2.709   2.263   6.933 -0.0773  0.0144  0.0639
 2174SOL    HW117984   2.712   2.314   6.853 -0.8284 -2.3466 -1.4828
 2174SOL    HW217985   2.616   2.240   6.928 -0.4233  1.1983  0.9614
 2175SOL     OW17986   0.033   2.157   5.688  0.0132 -0.1063 -0.0162
 2175SOL    HW117987   0.039   2.062   5.677 -2.3176 -0.3744  0.9068
 2175SOL    HW217988   4.712   2.193   5.612  0.1956  0.1375 -0.0079
 2176SOL     OW17989   0.373   1.900  11.346 -0.2474  0.5358  0.7832
 2176SOL    HW117990   0.464   1.883  11.368 -0.6977  1.7013  3.5119
 2176SOL    HW217991   0.322   1.837  11.396 -1.0239 -0.3334 -1.0688
 2177SOL     OW17992   3.409   1.781   6.016 -0.2629 -0.1484 -0.1352
 2177SOL    HW117993   3.494   1.742   5.999  0.9914  2.1514  0.9337
 2177SOL    HW217994   3.432   1.873   6.030 -2.0066  0.0649  1.3777
 2178SOL     OW17995   2.452   2.050  12.215 -0.8182 -0.2280 -0.8605
 2178SOL    HW117996   2.359   2.032  12.204 -1.4150  0.9967  2.1733
 2178SOL    HW217997   2.461   2.107  12.138  0.2703  0.7576 -0.0119
 2179SOL     OW17998   1.961   1.306   0.776 -0.1155  0.2879 -0.0812
 2179SOL    HW117999   1.881   1.274   0.735  0.3666 -0.5251 -0.3986
 2179SOL    HW218000   2.011   1.228   0.802 -1.3182 -0.3596  0.2542
 2180SOL     OW18001   3.940   2.085   2.248 -0.8537 -0.1701  0.0413
 2180SOL    HW118002   3.963   2.158   2.190  1.9681 -0.4019  0.8345
 2180SOL    HW218003   3.855   2.110   2.283 -0.2835  1.2201  0.4376
 2181SOL     OW18004   4.257   2.408   4.702 -0.7709  0.2547  0.2801
 2181SOL    HW118005   4.287   2.449   4.621 -0.5968 -0.0824  0.1747
 2181SOL    HW218006   4.286   2.321   4.674 -0.1891  0.7428 -0.6590
 2182SOL     OW18007   3.782   0.445  13.867 -0.2414  0.0042 -0.2260
 2182SOL    HW118008   3.805   0.515  13.929 -0.1631  1.2415 -1.6652
 2182SOL    HW218009   3.717   0.488  13.811 -0.5431 -1.3977 -0.9548
 2183SOL     OW18010   2.306   4.239  10.210  0.1111 -0.0831 -0.2701
 2183SOL    HW118011   2.281   4.284  10.290  0.2977  1.6595 -1.1920
 2183SOL    HW218012   2.259   4.286  10.141 -1.5747  0.1568  1.0572
 2184SOL     OW18013   1.120   3.504   6.646  0.2517 -0.0397 -0.1046
 2184SOL    HW118014   1.174   3.453   6.708  2.8417  0.8442 -1.6547
 2184SOL    HW218015   1.111   3.439   6.577 -1.3674 -0.4301  0.4809
 2185SOL     OW18016   2.528   2.354   6.079 -0.1575  0.0786  0.5115
 2185SOL    HW118017   2.602   2.412   6.094  0.3337 -0.7256  1.1400
 2185SOL    HW218018   2.552   2.288   6.144  4.3468  2.0767  0.8637
 2186SOL     OW18019   3.016   0.079   8.799 -0.5273  0.0158  0.4307
 2186SOL    HW118020   3.105   0.088   8.765  1.5740  0.6163  6.0072
 2186SOL    HW218021   3.013   4.715   8.835  0.7825  0.1408  0.8326
 2187SOL     OW18022   2.222   1.971  12.096 -0.2795 -0.1551 -0.1909
 2187SOL    HW118023   2.214   1.984  12.002  2.6122  2.0118 -0.1284
 2187SOL    HW218024   2.203   1.877  12.105 -0.4392 -0.2388 -1.3755
 2188SOL     OW18025   3.034   3.175   3.896  0.2612  0.1815  0.1915
 2188SOL    HW118026   3.057   3.083   3.881 -1.6964 -0.4911  1.2753
 2188SOL    HW218027   3.084   3.187   3.976  1.9618 -2.6577 -0.4650
 2189SOL     OW18028   0.904   3.973   8.472  0.2887  0.5274 -0.2903
 2189SOL    HW118029   0.830   4.017   8.430  1.3125 -0.4018 -3.0931
 2189SOL    HW218030   0.957   3.943   8.398 -3.2711  0.3238 -2.7688
 2190SOL     OW18031   4.157   2.695   6.406  0.2838  0.6660 -0.0478
 2190SOL    HW118032   4.072   2.680   6.366  0.0631  1.2006  0.2243
 2190SOL    HW218033   4.208   2.642   6.345 -0.8277 -0.9724  0.4294
 2191SOL     OW18034   0.353   2.022  11.103 -0.3820 -0.0905 -0.2295
 2191SOL    HW118035   0.335   1.974  11.183 -3.3738  2.2729  0.5211
 2191SOL    HW218036   0.415   1.974  11.048  0.4805  0.6914  0.0811
 2192SOL     OW18037   1.715   3.418   5.675 -0.3269  0.0302 -0.3917
 2192SOL    HW118038   1.650   3.366   5.723  0.4832  0.5856  1.3035
 2192SOL    HW218039   1.791   3.361   5.666 -2.1382 -2.5958  0.8025
 2193SOL     OW18040   4.323   4.242  15.678  0.1347  0.5602 -0.2469
 2193SOL    HW118041   4.271   4.212  15.603 -1.7097 -0.4978  1.4514
 2193SOL    HW218042   4.405   4.196  15.661 -0.4384  0.8589 -3.7973
 2194SOL     OW18043   0.338   2.728  14.758  0.1256 -0.0692  0.2562
 2194SOL    HW118044   0.399   2.714  14.685  1.4296 -3.1009  1.9536
 2194SOL    HW218045   0.289   2.647  14.766 -2.0855  1.4444  2.1683
 2195SOL     OW18046   0.766   4.373   6.110 -0.0491  0.2564  0.8453
 2195SOL    HW118047   0.702   4.367   6.039 -0.6649  0.9312  1.3450
 2195SOL    HW218048   0.784   4.467   6.118 -0.1193  0.4935 -1.8352
 2196SOL     OW18049   2.988   1.921  16.801  0.7606  0.1827 -0.0245
 2196SOL    HW118050   2.968   1.848  16.860  1.2940  0.1192  0.0779
 2196SOL    HW218051   2.977   1.877  16.717  1.0794 -0.2753  0.1737
 2197SOL     OW18052   3.577   3.292  14.216 -0.2769 -0.5914  0.1147
 2197SOL    HW118053   3.627   3.236  14.157  2.0966  1.1964  0.4158
 2197SOL    HW218054   3.629   3.369  14.194  0.0579 -0.3951  1.5418
 2198SOL     OW18055   4.285   1.167   4.774 -0.0653  0.3948  0.7037
 2198SOL    HW118056   4.336   1.240   4.740  1.2827 -1.1683 -0.6631
 2198SOL    HW218057   4.228   1.145   4.700  1.0918  1.8995 -0.6296
 2199SOL     OW18058   4.593   3.451   5.522 -0.3918  0.2256 -0.3042
 2199SOL    HW118059   4.624   3.362   5.509  0.8603  0.5193  0.6209
 2199SOL    HW218060   4.561   3.452   5.612 -1.2563  1.1113 -0.6249
 2200SOL     OW18061   1.260   2.420   1.028 -0.3750  0.0423 -0.2126
 2200SOL    HW118062   1.246   2.500   0.978 -0.5437  0.1288 -0.0251
 2200SOL    HW218063   1.351   2.396   1.009 -0.4131 -0.2296 -0.0612
 2201SOL     OW18064   3.584   1.628   1.519  0.1860  0.0581 -0.0023
 2201SOL    HW118065   3.513   1.644   1.457 -2.2226  0.1921  2.8062
 2201SOL    HW218066   3.662   1.601   1.469  0.3220 -0.9588  0.7557
 2202SOL     OW18067   4.268   2.512   6.020 -0.3539  0.4290 -0.0722
 2202SOL    HW118068   4.337   2.536   5.959  0.0414 -0.5110  0.0065
 2202SOL    HW218069   4.321   2.445   6.063 -1.9174 -0.9435 -0.2601
 2203SOL     OW18070   2.532   0.285   5.147 -0.2605  0.1972 -0.3910
 2203SOL    HW118071   2.473   0.269   5.073  0.8485 -0.9897 -1.0172
 2203SOL    HW218072   2.595   0.342   5.102  1.5762 -1.7548 -0.2658
 2204SOL     OW18073   4.457   3.377   6.155  0.0032 -0.1762  0.0387
 2204SOL    HW118074   4.534   3.332   6.120 -1.3641 -2.1753 -0.3487
 2204SOL    HW218075   4.491   3.464   6.133  1.6201 -1.1788 -1.4581
 2205SOL     OW18076   2.946   2.228  17.668 -0.2239  0.2461  0.4566
 2205SOL    HW118077   2.999   2.189   0.039 -1.0268  1.2027  1.6180
 2205SOL    HW218078   2.942   2.321  17.690 -1.9855  0.9791 -2.9950
 2206SOL     OW18079   2.398   3.419   4.133 -0.2199 -0.2969 -0.6138
 2206SOL    HW118080   2.336   3.386   4.198  1.6171 -1.0638  0.7374
 2206SOL    HW218081   2.398   3.346   4.070 -0.2817 -0.2666 -0.6492
 2207SOL     OW18082   2.606   1.073  12.115  0.5342  0.0733  0.1925
 2207SOL    HW118083   2.643   1.044  12.198  0.7602  1.3948  0.5565
 2207SOL    HW218084   2.578   0.987  12.083  0.7491 -0.4160  1.3004
 2208SOL     OW18085   1.156   1.086   3.934 -0.0165  0.5624  0.1197
 2208SOL    HW118086   1.070   1.112   3.902 -0.5066 -1.2521 -0.0660
 2208SOL    HW218087   1.170   1.118   4.023 -0.2487 -1.0202  0.7368
 2209SOL     OW18088   4.534   3.439   5.785  0.1509 -0.4396  0.0496
 2209SOL    HW118089   4.580   3.390   5.853  0.1883 -0.8907 -0.2990
 2209SOL    HW218090   4.535   3.522   5.832 -1.6764  0.6569 -1.8746
 2210SOL     OW18091   3.924   2.320   8.948 -0.0237 -0.0839  0.1057
 2210SOL    HW118092   3.845   2.306   9.000  0.2709  1.7823  1.0198
 2210SOL    HW218093   3.953   2.229   8.939  0.1864 -0.0774  0.6614
 2211SOL     OW18094   2.815   2.989   2.524  0.2245 -0.7072  0.5910
 2211SOL    HW118095   2.908   2.969   2.533  0.1787 -1.5093 -0.7151
 2211SOL    HW218096   2.770   2.946   2.597 -1.1993  0.6900  0.5379
 2212SOL     OW18097   2.689   0.961   1.246  0.0810 -0.1529 -0.0476
 2212SOL    HW118098   2.693   1.042   1.297 -0.4269  0.0899 -0.3917
 2212SOL    HW218099   2.694   0.898   1.317 -2.4774  0.8990  1.0627
 2213SOL     OW18100   2.424   3.731   7.438  0.6200 -0.0013 -0.5840
 2213SOL    HW118101   2.372   3.733   7.357  2.3927 -0.1410 -1.7237
 2213SOL    HW218102   2.497   3.678   7.407  0.9776  0.5487 -0.6896
 2214SOL     OW18103   3.567   2.948  15.210  0.0358 -0.0786 -0.8914
 2214SOL    HW118104   3.553   3.033  15.169 -0.8347 -0.3676 -1.2016
 2214SOL    HW218105   3.540   2.965  15.301 -0.0701 -2.0253 -0.5621
 2215SOL     OW18106   3.238   2.744   8.790 -0.1903 -0.3113  0.1780
 2215SOL    HW118107   3.285   2.818   8.751 -0.8638 -0.0348 -0.1086
 2215SOL    HW218108   3.249   2.765   8.882  2.8162 -0.1126 -0.2325
 2216SOL     OW18109   4.543   0.391   6.657  0.6939 -0.7647  0.1804
 2216SOL    HW118110   4.489   0.470   6.670 -1.8716 -2.7048  1.2533
 2216SOL    HW218111   4.532   0.385   6.562  0.6272  0.0954  0.1275
 2217SOL     OW18112   1.227   2.875   2.976  0.4262 -0.6466  0.0855
 2217SOL    HW118113   1.299   2.852   2.918 -0.2457 -0.6425 -0.7406
 2217SOL    HW218114   1.166   2.803   2.960 -1.3344  0.4494  1.8160
 2218SOL     OW18115   3.745   2.101   3.253 -0.2242 -0.4802  0.4373
 2218SOL    HW118116   3.740   2.141   3.166  0.0371  1.0496  1.1317
 2218SOL    HW218117   3.787   2.018   3.229 -2.7915 -1.1483 -1.7380
 2219SOL     OW18118   2.144   2.534   6.473  0.0178  0.3521  0.6688
 2219SOL    HW118119   2.154   2.597   6.402  1.1209  0.0656  0.5655
 2219SOL    HW218120   2.086   2.471   6.432  1.2859  0.9075 -1.9658
 2220SOL     OW18121   0.995   2.518   7.483 -0.3577  0.0636  0.0881
 2220SOL    HW118122   1.070   2.526   7.542 -1.8862 -1.9084  2.3274
 2220SOL    HW218123   0.933   2.577   7.526 -0.3572  1.0719 -1.2956
 2221SOL     OW18124   4.171   1.962   5.284  0.4046  0.3820 -0.5680
 2221SOL    HW118125   4.204   2.048   5.258  1.2883  0.3619  0.4743
 2221SOL    HW218126   4.171   1.914   5.201  2.6825 -1.3066  0.4138
 2222SOL     OW18127   1.286   0.088  10.886 -0.0091 -0.2176 -0.4257
 2222SOL    HW118128   1.358   0.071  10.826  0.5735 -1.4720  0.6357
 2222SOL    HW218129   1.328   0.143  10.952  1.9710 -0.4257 -1.5209
 2223SOL     OW18130   3.325   0.355   3.196  0.2943  0.5200  0.1085
 2223SOL    HW118131   3.417   0.342   3.171  0.8493  0.6846  2.1186
 2223SOL    HW218132   3.274   0.277   3.173  1.7728 -0.2688 -0.5146
 2224SOL     OW18133   1.711   3.196   8.341 -0.2384  0.4995 -0.2993
 2224SOL    HW118134   1.619   3.197   8.314 -0.5370 -0.1637  0.7063
 2224SOL    HW218135   1.751   3.221   8.258  1.4166  1.4290  0.7822
 2225SOL     OW18136   4.408   1.014   0.127  0.0393  0.4698 -0.6964
 2225SOL    HW118137   4.434   1.070   0.200 -1.3997 -0.3075  0.4137
 2225SOL    HW218138   4.425   0.926   0.160  1.3906  0.0923 -2.4535
 2226SOL     OW18139   1.531   4.676   5.253 -0.1716  0.1366  0.2149
 2226SOL    HW118140   1.498   0.001   5.178 -2.0445 -0.5356  0.6083
 2226SOL    HW218141   1.625   4.686   5.242 -0.2869  2.1110  1.1199
 2227SOL     OW18142   1.180   1.400   1.633  0.7943 -0.2714  0.1394
 2227SOL    HW118143   1.159   1.333   1.699  2.6784 -0.8498  0.1513
 2227SOL    HW218144   1.133   1.473   1.675 -1.8425 -0.9816 -1.5879
 2228SOL     OW18145   0.171   0.407   1.068  0.6790 -0.6843 -0.4542
 2228SOL    HW118146   0.159   0.434   1.159 -0.8360  2.9421 -1.7293
 2228SOL    HW218147   0.170   0.494   1.027  0.0588  0.2952  1.6718
 2229SOL     OW18148   4.052   1.852   7.492 -0.0336 -0.1397 -0.0492
 2229SOL    HW118149   3.989   1.918   7.464  0.1023 -1.5474 -3.7576
 2229SOL    HW218150   4.007   1.768   7.492  0.2006 -0.2673  0.3965
 2230SOL     OW18151   1.365   0.371  15.692  0.0183  0.1457 -0.7189
 2230SOL    HW118152   1.397   0.376  15.602 -1.8163  2.4878 -1.2233
 2230SOL    HW218153   1.309   0.447  15.705 -1.1926 -0.9312  0.3192
 2231SOL     OW18154   3.667   1.205   7.212  0.4663 -0.1293 -0.2308
 2231SOL    HW118155   3.708   1.149   7.278 -0.6662  0.3913  0.9101
 2231SOL    HW218156   3.613   1.139   7.167  3.1753 -0.7487 -2.5780
 2232SOL     OW18157   1.221   2.898   9.599 -0.1273  0.0274  0.7834
 2232SOL    HW118158   1.180   2.981   9.623 -3.4160 -0.9605 -1.5549
 2232SOL    HW218159   1.151   2.839   9.626 -1.2314  1.0942  0.2942
 2233SOL     OW18160   4.521   4.626   7.561 -0.1603  0.2382 -0.2588
 2233SOL    HW118161   4.577   4.704   7.555 -0.2085  0.4405  1.9394
 2233SOL    HW218162   4.472   4.651   7.639  1.8316  0.7593  0.8130
 2234SOL     OW18163   1.548   2.361   4.825 -0.1580  0.7902 -0.3038
 2234SOL    HW118164   1.470   2.402   4.864 -0.1451  0.1578  0.3738
 2234SOL    HW218165   1.559   2.289   4.886  2.8520 -1.1452 -3.1457
 2235SOL     OW18166   4.690   3.401   2.689 -0.2502  0.3216  0.4672
 2235SOL    HW118167   4.621   3.384   2.625  0.0640 -3.0928  1.0238
 2235SOL    HW218168   4.669   3.493   2.703  2.1038  0.7199  1.3827
 2236SOL     OW18169   4.382   3.088   3.375  0.2254  0.0078 -0.2268
 2236SOL    HW118170   4.435   3.144   3.319  1.7227 -2.0864 -0.9405
 2236SOL    HW218171   4.447   3.030   3.415  1.4451  2.0811  0.7970
 2237SOL     OW18172   4.260   4.473   2.924 -0.1883  0.2658  0.0973
 2237SOL    HW118173   4.348   4.489   2.890 -0.5899 -1.3306 -1.6810
 2237SOL    HW218174   4.224   4.547   2.876 -0.0665  0.5281  0.4062
 2238SOL     OW18175   0.143   4.398   7.028 -0.0408  0.2300 -0.4083
 2238SOL    HW118176   0.214   4.461   7.042  0.6400 -0.7726  0.6613
 2238SOL    HW218177   0.157   4.357   7.113 -2.0341  0.2136 -0.0804
 2239SOL     OW18178   0.655   0.837   6.864 -0.3530  0.4456  0.2955
 2239SOL    HW118179   0.562   0.844   6.843 -0.4712  0.3276  0.7824
 2239SOL    HW218180   0.678   0.929   6.849 -1.2084  0.5035 -0.6872
 2240SOL     OW18181   0.397   1.129  11.394  0.2359  0.1783  0.3502
 2240SOL    HW118182   0.398   1.191  11.467  0.9431 -1.6471  1.8959
 2240SOL    HW218183   0.386   1.189  11.321  3.4551 -0.7332 -0.8832
 2241SOL     OW18184   2.039   0.192   7.948 -0.5937  0.3154 -0.4116
 2241SOL    HW118185   2.055   0.108   7.905  0.3075  0.3443 -0.1489
 2241SOL    HW218186   2.025   0.255   7.877  2.9123  0.9620 -0.5691
 2242SOL     OW18187   2.346   1.549  16.254 -0.1765  0.3183  0.7598
 2242SOL    HW118188   2.412   1.615  16.277  0.6189 -0.4567  0.7135
 2242SOL    HW218189   2.302   1.535  16.338 -2.5968  0.9583 -0.3930
 2243SOL     OW18190   2.604   0.927   3.395 -0.5848 -0.1409 -0.1027
 2243SOL    HW118191   2.681   0.879   3.426  0.0912  0.3514 -1.0087
 2243SOL    HW218192   2.643   1.014   3.383  0.3567 -0.1964  2.5364
 2244SOL     OW18193   0.466   0.250  12.285 -0.2122 -0.3354 -0.1118
 2244SOL    HW118194   0.477   0.209  12.199 -0.4298  0.9117 -0.7300
 2244SOL    HW218195   0.485   0.182  12.351  0.8697 -0.2696 -0.3548
 2245SOL     OW18196   3.760   0.577  15.531 -0.1952 -0.0361 -0.2664
 2245SOL    HW118197   3.720   0.650  15.484 -0.8353 -0.8305 -0.9630
 2245SOL    HW218198   3.693   0.547  15.592 -0.8053  1.0960 -0.3793
 2246SOL     OW18199   1.157   3.398  14.231 -0.3838 -0.3786  0.2111
 2246SOL    HW118200   1.178   3.365  14.319 -0.5937 -2.3828 -0.4787
 2246SOL    HW218201   1.083   3.345  14.199  1.7650 -2.0128 -2.0539
 2247SOL     OW18202   1.142   0.493   8.993  0.8434  0.4651  0.5226
 2247SOL    HW118203   1.222   0.542   9.014 -0.9185  2.9218  1.4667
 2247SOL    HW218204   1.185   0.407   8.989  0.2378  0.1102  1.5079
 2248SOL     OW18205   4.641   0.261   5.333 -0.1592  0.3191 -0.7936
 2248SOL    HW118206   0.004   0.258   5.294  0.3536 -0.8062  0.4427
 2248SOL    HW218207   4.660   0.199   5.403  1.2634 -0.0230 -1.4679
 2249SOL     OW18208   3.523   1.461   3.480  0.6980 -0.1310 -0.1978
 2249SOL    HW118209   3.525   1.401   3.554  2.7060 -3.3255 -2.8675
 2249SOL    HW218210   3.584   1.410   3.426  1.2893  0.1626  0.1902
 2250SOL     OW18211   2.753   3.789  11.790  0.1119  0.1150  0.1748
 2250SOL    HW118212   2.778   3.851  11.858  1.6475 -2.0251  1.5724
 2250SOL    HW218213   2.666   3.821  11.768 -0.4626  0.5739  3.1877
 2251SOL     OW18214   0.235   1.988   9.432  0.0174  0.2026  0.2745
 2251SOL    HW118215   0.180   1.948   9.499  0.5083 -0.6840  0.1418
 2251SOL    HW218216   0.323   1.979   9.468 -0.6908  1.8530  2.3968
 2252SOL     OW18217   1.524   3.130   5.063 -0.4661 -0.6066  0.0365
 2252SOL    HW118218   1.566   3.114   4.979  1.0612 -1.5133  0.9672
 2252SOL    HW218219   1.452   3.183   5.030 -1.4550 -2.8338 -1.3536
 2253SOL     OW18220   0.589   0.125   3.526 -0.0321  1.0160  0.0068
 2253SOL    HW118221   0.550   0.194   3.472 -0.5088  0.4361 -0.3896
 2253SOL    HW218222   0.667   0.175   3.549  0.4646 -0.1020  0.7326
 2254SOL     OW18223   4.085   1.270   8.550  0.1758 -0.0554 -0.4161
 2254SOL    HW118224   4.034   1.294   8.473  1.4904 -1.1590 -1.6237
 2254SOL    HW218225   4.061   1.336   8.615 -0.8302 -0.9385  0.1050
 2255SOL     OW18226   3.485   2.904   5.058  0.0612  0.1519 -0.1347
 2255SOL    HW118227   3.496   2.925   4.965  0.7261 -2.0694 -0.5522
 2255SOL    HW218228   3.531   2.975   5.103  0.8554 -0.0837 -0.5662
 2256SOL     OW18229   1.865   4.264   7.165 -0.5185  0.2980 -0.0155
 2256SOL    HW118230   1.900   4.254   7.253 -0.5613  1.1141  0.0939
 2256SOL    HW218231   1.858   4.170   7.150  1.7522  0.1288  0.0715
 2257SOL     OW18232   4.663   0.908  17.453 -0.7546  0.1333  0.2871
 2257SOL    HW118233   4.668   0.929  17.360  2.0805 -0.6472  0.2686
 2257SOL    HW218234   4.584   0.952  17.484 -1.5634  0.3837 -2.1176
 2258SOL     OW18235   2.378   3.524  11.415 -0.1855 -0.1790 -0.7144
 2258SOL    HW118236   2.377   3.522  11.319 -2.0177 -0.4599 -0.6880
 2258SOL    HW218237   2.359   3.617  11.430 -0.5451 -0.4137  0.2935
 2259SOL     OW18238   0.425   1.673   2.959  0.0873  0.1582  0.4972
 2259SOL    HW118239   0.419   1.697   2.866 -0.9736  0.0855  0.5465
 2259SOL    HW218240   0.329   1.669   2.969  0.1179  0.4157  0.8769
 2260SOL     OW18241   1.517   2.198   9.217  0.1917 -0.8058  0.1917
 2260SOL    HW118242   1.555   2.259   9.280 -1.4466  0.7841 -0.3667
 2260SOL    HW218243   1.443   2.250   9.186  1.8249  1.1070 -0.5282
 2261SOL     OW18244   1.033   4.447   5.289 -0.4931 -0.2220 -0.0726
 2261SOL    HW118245   0.983   4.488   5.360  0.6888  0.0904  0.5825
 2261SOL    HW218246   1.092   4.386   5.333 -1.3412 -0.6318  0.5078
 2262SOL     OW18247   1.569   4.242  14.077  0.4296 -0.3907 -0.2394
 2262SOL    HW118248   1.598   4.269  14.164 -1.0898 -2.0757  0.8009
 2262SOL    HW218249   1.640   4.189  14.041  0.4062  2.1095 -3.9807
 2263SOL     OW18250   4.436   0.017   7.802  0.0276 -0.0157 -0.4532
 2263SOL    HW118251   4.411   0.099   7.759 -0.1934 -0.8089 -1.8629
 2263SOL    HW218252   4.357   0.001   7.853  0.6906 -0.1901  0.5192
 2264SOL     OW18253   0.798   1.784   7.121  0.9599 -0.7105  0.3950
 2264SOL    HW118254   0.734   1.848   7.151  1.7209 -0.7354  2.0549
 2264SOL    HW218255   0.841   1.830   7.049 -0.3425 -0.3112 -0.1227
 2265SOL     OW18256   1.728   2.029   7.021 -0.0322 -0.2048  0.1520
 2265SOL    HW118257   1.785   2.097   7.058  0.3053 -0.3159 -0.1541
 2265SOL    HW218258   1.785   1.969   6.972 -0.6654  0.3606 -1.3006
 2266SOL     OW18259   3.709   0.047   3.325  0.4967 -0.1402 -0.0115
 2266SOL    HW118260   3.746   0.117   3.379  1.3691 -1.6738  1.4112
 2266SOL    HW218261   3.789   0.005   3.292  0.0172 -0.6570 -0.5089
 2267SOL     OW18262   2.058   3.359   2.939  0.0928 -0.5063 -0.1864
 2267SOL    HW118263   2.003   3.368   2.861  0.8477 -0.9768 -0.7711
 2267SOL    HW218264   2.012   3.290   2.987  0.4282  0.1642  1.0981
 2268SOL     OW18265   1.505   0.617  16.459 -0.1526 -0.2114  0.8643
 2268SOL    HW118266   1.492   0.524  16.443  0.4568 -0.2517  0.6053
 2268SOL    HW218267   1.444   0.651  16.394  0.4020  0.4008  0.6584
 2269SOL     OW18268   0.622   2.645  10.165 -0.3206 -1.1488 -0.1518
 2269SOL    HW118269   0.532   2.639  10.133 -0.1344 -1.5589 -0.5960
 2269SOL    HW218270   0.643   2.552  10.166  2.6514 -0.4901  0.1316
 2270SOL     OW18271   0.654   2.239  16.530 -0.0212 -0.8659 -0.0668
 2270SOL    HW118272   0.592   2.210  16.463 -2.7721  0.6011  1.8016
 2270SOL    HW218273   0.737   2.196  16.510 -0.3253 -0.8322 -1.4021
 2271SOL     OW18274   1.741   4.194  11.582  0.1321  0.3389  0.0463
 2271SOL    HW118275   1.676   4.135  11.618 -1.2517  1.7121 -0.2185
 2271SOL    HW218276   1.691   4.275  11.572  2.1565  1.4892 -0.8974
 2272SOL     OW18277   1.531   2.854   5.189 -0.0725  0.2242 -0.4392
 2272SOL    HW118278   1.457   2.794   5.195 -1.2118  1.6853  0.3964
 2272SOL    HW218279   1.493   2.926   5.139 -0.7537  0.5681  0.5622
 2273SOL     OW18280   3.996   0.430  16.435 -0.0900  0.3407  0.0942
 2273SOL    HW118281   4.003   0.475  16.351  0.6966  1.0005  0.5165
 2273SOL    HW218282   4.084   0.398  16.453 -0.4854 -0.0565  1.3017
 2274SOL     OW18283   0.661   4.232  13.697  0.0702 -0.1639 -0.1869
 2274SOL    HW118284   0.752   4.241  13.668  0.1080  1.6573  0.4976
 2274SOL    HW218285   0.628   4.318  13.672  0.1318  0.3647  1.5268
 2275SOL     OW18286   3.390   4.231  14.172  0.2122 -0.9307  0.8724
 2275SOL    HW118287   3.463   4.292  14.183 -2.3303  1.7563  3.1643
 2275SOL    HW218288   3.346   4.256  14.254 -0.1459  0.7026  0.1906
 2276SOL     OW18289   1.423   0.264   7.431 -0.2580 -0.1442 -0.0394
 2276SOL    HW118290   1.412   0.185   7.379 -1.9887  0.0281  0.0850
 2276SOL    HW218291   1.460   0.225   7.510 -0.6753  0.0219  0.2332
 2277SOL     OW18292   3.440   4.051   2.122  0.0842  0.1112 -0.1026
 2277SOL    HW118293   3.470   4.070   2.033 -1.7124 -2.8209 -1.3447
 2277SOL    HW218294   3.363   3.996   2.106  1.0070 -0.7433 -1.5603
 2278SOL     OW18295   2.359   1.129   6.469  0.5716  0.2745  0.1617
 2278SOL    HW118296   2.429   1.129   6.403 -1.4533 -0.5834 -1.9903
 2278SOL    HW218297   2.294   1.191   6.435  1.6714  0.7829 -1.0214
 2279SOL     OW18298   4.371   4.188   7.836  0.4188  0.0202 -0.1202
 2279SOL    HW118299   4.311   4.127   7.877  2.3609 -1.3058  0.7603
 2279SOL    HW218300   4.365   4.261   7.897  1.9052 -2.2488  2.7102
 2280SOL     OW18301   2.202   0.808  14.679  0.3140  0.0073 -0.0295
 2280SOL    HW118302   2.250   0.841  14.755  1.7636  0.5986 -1.2088
 2280SOL    HW218303   2.152   0.886  14.655 -0.5145 -0.6649 -0.4675
 2281SOL     OW18304   2.879   4.252   3.869 -0.0738  0.7237  0.0392
 2281SOL    HW118305   2.912   4.238   3.958 -0.8512  0.0700  0.2265
 2281SOL    HW218306   2.863   4.161   3.843  0.7538  0.8841 -1.0473
 2282SOL     OW18307   1.724   4.588  17.291  0.1822  0.6071 -0.2753
 2282SOL    HW118308   1.716   4.495  17.313 -2.1972  0.5618 -1.3393
 2282SOL    HW218309   1.677   4.592  17.208 -1.7104  1.1145  0.8381
 2283SOL     OW18310   0.785   1.515  11.388 -0.3303  0.1516  0.3992
 2283SOL    HW118311   0.745   1.447  11.442  0.2841 -0.0368  0.6232
 2283SOL    HW218312   0.813   1.569  11.462 -1.4101 -0.7769  1.4837
 2284SOL     OW18313   4.339   0.426  14.197 -0.1204  0.0612  0.4913
 2284SOL    HW118314   4.295   0.505  14.229  0.2181  0.0497  0.9910
 2284SOL    HW218315   4.416   0.417  14.253 -0.1597 -0.6595  0.4281
 2285SOL     OW18316   1.213   2.006   3.709  0.1595 -0.1990 -0.2856
 2285SOL    HW118317   1.121   1.999   3.733 -0.4023 -2.5982 -3.1854
 2285SOL    HW218318   1.225   1.913   3.689 -2.0554 -0.4433 -0.4747
 2286SOL     OW18319   0.821   2.308   2.377 -0.4139 -0.5540 -0.3913
 2286SOL    HW118320   0.800   2.323   2.469 -0.2570 -2.1256 -0.0970
 2286SOL    HW218321   0.737   2.318   2.333  1.2372  1.7719 -2.9845
 2287SOL     OW18322   4.483   0.103   5.118 -0.5496 -0.0396 -0.0438
 2287SOL    HW118323   4.401   0.100   5.167 -0.6865  1.6406 -0.1496
 2287SOL    HW218324   4.527   0.164   5.178  0.4274 -1.7599  0.9692
 2288SOL     OW18325   2.363   1.702   0.152  0.1491  0.2842  0.4930
 2288SOL    HW118326   2.415   1.623   0.166 -0.6868 -0.6635 -1.9081
 2288SOL    HW218327   2.426   1.754   0.103 -0.4696  2.5322  2.0677
 2289SOL     OW18328   3.811   4.615   7.112  0.1448  0.0952  0.0350
 2289SOL    HW118329   3.854   4.622   7.026 -1.2434  1.5339 -0.5417
 2289SOL    HW218330   3.803   4.520   7.124 -0.7144 -0.0864 -2.0205
 2290SOL     OW18331   2.815   0.037   7.719 -0.0288 -0.2507  0.0019
 2290SOL    HW118332   2.779   4.723   7.639  1.3326  0.8357 -1.1285
 2290SOL    HW218333   2.856   4.687   7.764 -1.1315 -0.0402  1.3525
 2291SOL     OW18334   1.520   1.169   7.757 -0.1326 -0.3529 -0.7384
 2291SOL    HW118335   1.491   1.169   7.848  1.5810 -0.2186 -0.1823
 2291SOL    HW218336   1.533   1.264   7.750  1.0326 -0.3925  0.7692
 2292SOL     OW18337   2.650   4.696  13.476  0.0851  0.5227 -0.7088
 2292SOL    HW118338   2.708   4.642  13.423  1.0754 -0.7455  1.6503
 2292SOL    HW218339   2.708   0.047  13.489 -0.7827  1.2154 -0.8364
 2293SOL     OW18340   2.405   1.157   1.643  0.0129 -0.4322  0.0803
 2293SOL    HW118341   2.458   1.232   1.616 -0.5633  0.2548  0.8935
 2293SOL    HW218342   2.331   1.189   1.693 -0.5735  0.2616 -1.2459
 2294SOL     OW18343   3.939   0.497   6.564 -0.2823 -0.1079  0.0291
 2294SOL    HW118344   3.886   0.429   6.522  0.2783  0.1640 -1.1023
 2294SOL    HW218345   3.897   0.579   6.536  1.3784  1.1755  1.3289
 2295SOL     OW18346   0.771   4.064   6.637 -0.5795  0.0293  0.3340
 2295SOL    HW118347   0.779   4.133   6.571  1.1229  0.1054  0.6197
 2295SOL    HW218348   0.682   4.086   6.664 -0.3078 -0.0480  1.2806
 2296SOL     OW18349   3.969   3.506   3.010 -0.2115 -0.0928  0.1343
 2296SOL    HW118350   3.907   3.578   3.002  1.7515  2.0113  3.9543
 2296SOL    HW218351   3.912   3.441   3.050 -0.8164 -0.7206 -1.7372
 2297SOL     OW18352   4.597   1.714   7.910  0.1626  0.3741 -0.0739
 2297SOL    HW118353   4.605   1.778   7.981  0.0913 -0.1937  0.4538
 2297SOL    HW218354   4.686   1.679   7.907 -0.2564 -0.4633 -2.5163
 2298SOL     OW18355   4.408   3.873   7.133 -0.5580 -0.2004  0.3958
 2298SOL    HW118356   4.340   3.878   7.200 -0.5370 -1.2157  0.5026
 2298SOL    HW218357   4.360   3.827   7.065 -0.5588  0.5061 -0.0773
 2299SOL     OW18358   2.619   0.689   8.182  0.5108 -0.4327 -0.5961
 2299SOL    HW118359   2.696   0.670   8.128  1.9646  0.7911  1.0144
 2299SOL    HW218360   2.600   0.782   8.171  2.4188  0.0022 -0.2335
 2300SOL     OW18361   2.723   2.436   3.503  0.4673  0.1593 -0.6664
 2300SOL    HW118362   2.798   2.423   3.444  0.1367  2.4690 -1.6282
 2300SOL    HW218363   2.653   2.406   3.445 -2.0409  0.6157  2.1716
 2301SOL     OW18364   4.710   0.722   8.559  0.1519 -0.1576 -0.4758
 2301SOL    HW118365   0.054   0.787   8.572  0.0538 -0.3297  0.9794
 2301SOL    HW218366   0.019   0.670   8.486 -0.7828 -0.0996 -0.9518
 2302SOL     OW18367   2.015   0.972  16.898  0.3423  0.0002 -0.5023
 2302SOL    HW118368   2.073   0.900  16.924 -0.3701 -0.3683  0.0821
 2302SOL    HW218369   1.947   0.916  16.861  1.7789 -0.2793 -2.7322
 2303SOL     OW18370   3.031   2.585   3.930 -0.2412 -0.1463 -0.2782
 2303SOL    HW118371   3.114   2.542   3.912 -0.9978 -1.1975 -1.2137
 2303SOL    HW218372   2.990   2.583   3.844 -0.1065 -0.1713 -0.3409
 2304SOL     OW18373   0.295   3.757   7.593 -0.0981  0.5824 -0.4701
 2304SOL    HW118374   0.350   3.791   7.523 -0.5100 -0.7337 -1.4500
 2304SOL    HW218375   0.350   3.685   7.624  0.7237  1.1673 -0.5792
 2305SOL     OW18376   4.005   3.920   2.156 -0.3668  0.5051 -0.2573
 2305SOL    HW118377   3.993   3.897   2.064  2.1145  0.8661 -0.6654
 2305SOL    HW218378   4.099   3.907   2.164 -0.3996 -0.2402 -1.0188
 2306SOL     OW18379   3.675   0.311  15.413  0.3425 -0.3072 -0.3720
 2306SOL    HW118380   3.613   0.383  15.398 -1.5702 -1.0759  3.6110
 2306SOL    HW218381   3.756   0.359  15.427  0.2325 -0.9831  2.5992
 2307SOL     OW18382   1.468   1.307  16.762  0.0969 -0.3235 -0.0593
 2307SOL    HW118383   1.528   1.262  16.822  0.2912  0.8614  0.6295
 2307SOL    HW218384   1.390   1.255  16.782 -0.7503  1.3457  1.0066
 2308SOL     OW18385   2.475   4.512   7.217  0.4819 -0.2103 -0.4584
 2308SOL    HW118386   2.559   4.546   7.248 -0.4527  3.0578 -1.5233
 2308SOL    HW218387   2.419   4.590   7.214 -0.0603 -0.6417 -1.5102
 2309SOL     OW18388   2.157   2.463  15.724 -0.3753 -0.2020  0.6531
 2309SOL    HW118389   2.075   2.415  15.722 -0.7715  0.4418  1.3734
 2309SOL    HW218390   2.207   2.398  15.675 -0.7801 -0.1750  0.2127
 2310SOL     OW18391   2.226   2.089   4.892  0.0807  0.0249  0.3924
 2310SOL    HW118392   2.173   2.161   4.857  1.6138  1.6914  1.5138
 2310SOL    HW218393   2.311   2.132   4.885  0.7988 -1.3634  0.5041
 2311SOL     OW18394   1.557   4.002   2.682 -0.0233 -0.5772 -0.3140
 2311SOL    HW118395   1.561   4.061   2.757  1.6625  0.7717 -1.4539
 2311SOL    HW218396   1.624   4.045   2.629 -2.1375  2.5590 -0.3948
 2312SOL     OW18397   2.191   1.596   3.594  0.6095 -0.2296  0.1878
 2312SOL    HW118398   2.248   1.642   3.531 -1.7115  1.8560 -0.4068
 2312SOL    HW218399   2.236   1.514   3.612 -0.1368 -0.8274 -0.6597
 2313SOL     OW18400   4.231   4.398   5.754  0.0368  0.1939  0.9378
 2313SOL    HW118401   4.304   4.458   5.766 -0.1286  0.4021  0.9018
 2313SOL    HW218402   4.166   4.450   5.706  1.1331 -0.3848 -1.1746
 2314SOL     OW18403   0.458   3.018   3.847 -0.0931  0.0276 -0.1788
 2314SOL    HW118404   0.432   2.934   3.885 -0.2422  0.3246  0.3750
 2314SOL    HW218405   0.440   3.074   3.922 -0.9623 -0.6180  0.0957
 2315SOL     OW18406   1.766   4.035  11.207 -0.0574  0.0309  0.0064
 2315SOL    HW118407   1.747   4.071  11.120  1.4641 -1.4887 -0.9327
 2315SOL    HW218408   1.692   4.078  11.251  0.2778  0.5889  0.0377
 2316SOL     OW18409   4.677   1.019   7.614 -0.0508 -0.4911  0.2508
 2316SOL    HW118410   0.012   0.945   7.632 -0.8997 -0.7941  1.8145
 2316SOL    HW218411   4.614   1.011   7.685 -2.0081 -1.5117 -1.6331
 2317SOL     OW18412   3.803   3.981   8.664 -0.2864 -0.0241  0.1431
 2317SOL    HW118413   3.751   3.945   8.736  0.3057  0.2625  0.7157
 2317SOL    HW218414   3.747   4.054   8.637  0.6933  0.2485 -1.1727
 2318SOL     OW18415   2.435   2.041  16.560 -0.2005  0.0814 -0.4803
 2318SOL    HW118416   2.434   2.022  16.654 -1.9381  1.2367 -0.2578
 2318SOL    HW218417   2.474   2.128  16.568  1.0396 -0.3909 -1.4945
 2319SOL     OW18418   3.128   1.122   4.134  0.4457 -0.0272  0.0934
 2319SOL    HW118419   3.202   1.182   4.143  0.7287 -0.3111 -0.3344
 2319SOL    HW218420   3.093   1.141   4.046 -2.2927  1.2579  1.4474
 2320SOL     OW18421   0.946   2.626  10.997  0.2675 -0.2698  0.4785
 2320SOL    HW118422   0.920   2.626  11.089  0.9516  1.3993  0.6670
 2320SOL    HW218423   0.936   2.717  10.968 -2.8782 -0.5119  0.7838
 2321SOL     OW18424   4.527   1.424   0.842 -0.3974 -0.2913  0.0546
 2321SOL    HW118425   4.600   1.362   0.847 -0.6422 -0.6297 -0.5542
 2321SOL    HW218426   4.560   1.484   0.775  3.4910 -1.7453  0.6624
 2322SOL     OW18427   3.429   3.595   3.998  0.2557 -0.0893  0.3087
 2322SOL    HW118428   3.498   3.591   3.932 -0.8690  2.4549 -1.0193
 2322SOL    HW218429   3.476   3.562   4.075  2.6130 -1.2531 -1.6500
 2323SOL     OW18430   4.543   2.177  11.543 -0.6960 -0.9876 -0.0022
 2323SOL    HW118431   4.462   2.184  11.494 -0.5931  0.5453  0.0189
 2323SOL    HW218432   4.570   2.269  11.534  1.6742 -1.4995  1.7638
 2324SOL     OW18433   3.941   1.711   8.839 -0.1066  0.1815 -0.7766
 2324SOL    HW118434   3.926   1.786   8.896  1.4009  1.0577 -1.5436
 2324SOL    HW218435   3.857   1.713   8.794 -1.3130  1.8700  1.5537
 2325SOL     OW18436   1.657   0.379   1.772  0.1629  0.2168  0.1532
 2325SOL    HW118437   1.589   0.353   1.710 -2.0111  1.7590  1.8906
 2325SOL    HW218438   1.603   0.403   1.847  1.5638 -0.1708  1.2956
 2326SOL     OW18439   3.436   1.263   2.519 -0.3262 -0.5372 -0.2729
 2326SOL    HW118440   3.344   1.286   2.526 -0.5667 -1.4880 -0.2879
 2326SOL    HW218441   3.430   1.170   2.497  0.0728  0.4233 -4.2959
 2327SOL     OW18442   0.973   0.657   5.989 -0.3536  0.2766  0.0234
 2327SOL    HW118443   0.922   0.577   5.975 -1.9168  1.3235 -0.2697
 2327SOL    HW218444   0.921   0.724   5.945 -0.1258  0.8905  0.6880
 2328SOL     OW18445   1.270   2.553  16.964  0.5091  0.1777 -0.4179
 2328SOL    HW118446   1.234   2.544  16.876 -1.3121  1.2158  0.2173
 2328SOL    HW218447   1.193   2.559  17.021 -0.4357 -2.8134 -1.3874
 2329SOL     OW18448   1.306   0.673   3.952 -0.0451 -0.0465 -0.1980
 2329SOL    HW118449   1.222   0.685   3.996  0.7120  2.7530  0.4873
 2329SOL    HW218450   1.323   0.767   3.944 -2.6119  0.5878  1.5777
 2330SOL     OW18451   3.912   3.666   6.488  0.3573 -0.4027  0.2780
 2330SOL    HW118452   3.950   3.618   6.562  1.9728 -1.9120 -1.5305
 2330SOL    HW218453   3.846   3.727   6.522 -1.9611 -0.6547 -3.8561
 2331SOL     OW18454   0.556   4.595   6.931  0.4442 -0.1723 -0.3905
 2331SOL    HW118455   0.551   4.612   6.837  0.8662  1.2682 -0.1473
 2331SOL    HW218456   0.550   4.684   6.967 -1.6173 -1.6642  3.0199
 2332SOL     OW18457   0.010   3.243   3.182  0.4004 -0.1118  0.1073
 2332SOL    HW118458   4.648   3.217   3.149 -1.1199 -0.3006  4.1916
 2332SOL    HW218459   0.001   3.333   3.214 -2.7901 -0.2524 -0.3670
 2333SOL     OW18460   0.284   2.104   7.575  0.0249 -0.0209  0.6158
 2333SOL    HW118461   0.227   2.123   7.649  0.9782 -0.5659  1.4972
 2333SOL    HW218462   0.235   2.038   7.525  1.9041  0.0132 -1.2598
 2334SOL     OW18463   3.935   4.528   7.508  0.2160 -0.6404  0.1029
 2334SOL    HW118464   3.901   4.465   7.571  0.4857  0.0599  0.9509
 2334SOL    HW218465   3.857   4.558   7.460  0.2245  1.0847  1.1456
 2335SOL     OW18466   4.637   1.120   2.411  0.2257 -0.4199  0.6761
 2335SOL    HW118467   4.673   1.049   2.359 -1.5707 -0.8892  0.0646
 2335SOL    HW218468   4.676   1.201   2.377  1.7605 -1.0012  1.0648
 2336SOL     OW18469   2.051   2.657   3.062 -0.3082  0.2488 -0.0329
 2336SOL    HW118470   1.977   2.691   3.011 -1.3044 -0.8204  0.7066
 2336SOL    HW218471   2.032   2.714   3.137 -1.6072 -0.2997  0.0694
 2337SOL     OW18472   0.148   2.048   6.915  0.2511  0.3768  0.2113
 2337SOL    HW118473   0.215   2.116   6.904 -1.8996  2.1274 -1.9033
 2337SOL    HW218474   0.162   1.995   6.837 -2.0599  0.8377 -0.4867
 2338SOL     OW18475   0.323   2.677   7.400  0.7945  0.2141 -0.2122
 2338SOL    HW118476   0.387   2.612   7.370 -0.1426 -0.5133 -0.6307
 2338SOL    HW218477   0.336   2.668   7.494  1.9259  0.3798 -0.3593
 2339SOL     OW18478   3.569   1.848   4.409  0.2589 -0.0963 -0.2328
 2339SOL    HW118479   3.552   1.815   4.321  0.7889 -2.5809  0.5987
 2339SOL    HW218480   3.630   1.918   4.385 -1.4963  1.4304 -0.2437
 2340SOL     OW18481   2.144   1.444   3.054 -0.2098 -0.3499  0.0320
 2340SOL    HW118482   2.220   1.500   3.040 -1.2547  1.1471  0.3871
 2340SOL    HW218483   2.074   1.507   3.043  0.9138  0.6856 -1.1469
 2341SOL     OW18484   3.946   0.977   3.613 -0.0264 -0.6574  0.0099
 2341SOL    HW118485   3.974   0.935   3.533  1.1522  1.3033 -0.6157
 2341SOL    HW218486   3.987   0.933   3.687 -0.7047 -0.3574  0.5741
 2342SOL     OW18487   2.355   2.559   7.491 -0.5316  0.2747 -0.2795
 2342SOL    HW118488   2.265   2.526   7.479 -0.6480  0.4730  0.0514
 2342SOL    HW218489   2.323   2.647   7.510 -0.0921 -0.0233  1.8480
 2343SOL     OW18490   0.252   4.327   6.276 -0.1311  0.1268 -0.0478
 2343SOL    HW118491   0.210   4.314   6.361 -0.2988 -1.4131 -0.3711
 2343SOL    HW218492   0.340   4.292   6.288  0.3724  1.2976 -0.3047
 2344SOL     OW18493   2.827   4.473  14.906  0.3018 -0.3875 -0.0386
 2344SOL    HW118494   2.843   4.516  14.821  1.3391  2.2371  1.4850
 2344SOL    HW218495   2.856   4.386  14.879 -0.7816 -0.7464 -0.0365
 2345SOL     OW18496   1.330   3.680  16.611 -0.6082  0.3425 -0.3379
 2345SOL    HW118497   1.397   3.746  16.597 -0.0775 -0.0883  0.2183
 2345SOL    HW218498   1.304   3.691  16.702  1.8660  0.3995  0.3599
 2346SOL     OW18499   0.370   2.349   9.495 -0.2700 -0.2869  0.2004
 2346SOL    HW118500   0.306   2.299   9.546 -0.0412 -0.6217  0.1622
 2346SOL    HW218501   0.445   2.297   9.525  1.7955  1.5393 -1.8411
 2347SOL     OW18502   0.184   2.035  17.108  0.5350  0.3106 -0.0123
 2347SOL    HW118503   0.246   1.980  17.155  0.0368  0.4159  0.7683
 2347SOL    HW218504   0.251   2.084  17.061  1.0291 -0.7331 -0.3764
 2348SOL     OW18505   1.343   0.859   3.034 -0.0857 -0.3907  0.3313
 2348SOL    HW118506   1.342   0.952   3.056  0.1702 -0.2737 -0.1585
 2348SOL    HW218507   1.380   0.869   2.946 -2.4297 -2.5037 -0.8930
 2349SOL     OW18508   2.624   2.797   4.673 -0.4354 -0.8930  0.1572
 2349SOL    HW118509   2.657   2.772   4.587 -0.9970 -0.1536 -0.2689
 2349SOL    HW218510   2.546   2.846   4.646 -0.2109 -2.8041 -3.9423
 2350SOL     OW18511   3.994   2.556   6.861 -0.0343  0.2068 -0.2420
 2350SOL    HW118512   3.974   2.564   6.767  2.9500  0.8382 -0.8195
 2350SOL    HW218513   4.088   2.541   6.858 -0.1292 -0.3855 -0.2606
 2351SOL     OW18514   2.045   2.071  15.760 -0.8482  0.0599 -0.0912
 2351SOL    HW118515   2.030   2.128  15.835 -0.7306  1.4587 -1.1310
 2351SOL    HW218516   1.956   2.057  15.728 -0.2113  0.0202 -1.8441
 2352SOL     OW18517   2.957   0.378   7.705 -0.2904 -0.1443 -0.1010
 2352SOL    HW118518   2.872   0.335   7.699 -0.1764 -0.4245  0.2533
 2352SOL    HW218519   2.938   0.472   7.703 -1.2459 -0.3623 -1.6728
 2353SOL     OW18520   4.264   0.355  13.385  0.4609  0.2678  0.1438
 2353SOL    HW118521   4.212   0.364  13.465 -0.0389  2.8106 -0.4569
 2353SOL    HW218522   4.235   0.268  13.357 -0.4335  0.1552  1.4379
 2354SOL     OW18523   3.738   3.958  11.047 -0.0491  0.0266 -0.4123
 2354SOL    HW118524   3.723   4.051  11.037 -0.4248  0.1016  0.8479
 2354SOL    HW218525   3.703   3.924  10.965 -3.1075 -0.1671  0.9686
 2355SOL     OW18526   0.189   2.289   8.186 -0.9364 -1.1974  0.5156
 2355SOL    HW118527   0.183   2.222   8.254 -1.3481 -1.5471  0.1399
 2355SOL    HW218528   0.280   2.270   8.163 -0.1712  1.2629  1.5677
 2356SOL     OW18529   1.095   3.116   6.158 -0.1560  0.2771  0.6692
 2356SOL    HW118530   1.156   3.103   6.231  1.6511 -0.6479 -0.9916
 2356SOL    HW218531   1.162   3.113   6.089  0.9495 -1.1428  1.8150
 2357SOL     OW18532   1.578   1.453   5.884 -0.3589 -0.1184 -0.7707
 2357SOL    HW118533   1.528   1.527   5.850 -1.4776 -0.4052  0.2429
 2357SOL    HW218534   1.508   1.417   5.938  1.9975 -0.5748  1.9422
 2358SOL     OW18535   0.231   2.071   3.207 -0.3006 -0.0237 -0.5742
 2358SOL    HW118536   0.200   1.981   3.199 -0.9948 -0.0124  1.9218
 2358SOL    HW218537   0.323   2.064   3.184 -0.5345  1.1665 -1.8811
 2359SOL     OW18538   4.674   4.168   2.810 -0.7761 -0.0327 -0.1722
 2359SOL    HW118539   4.596   4.163   2.755 -0.2223 -0.4523 -0.9239
 2359SOL    HW218540   0.001   4.240   2.773  0.1465 -0.5119  0.1610
 2360SOL     OW18541   4.719   0.327   7.021  0.4602 -0.1068  0.6003
 2360SOL    HW118542   4.664   0.388   7.070 -2.4911 -1.9171 -0.4799
 2360SOL    HW218543   0.035   0.384   6.955  0.0479 -0.9430 -0.3775
 2361SOL     OW18544   3.931   0.588   4.958  0.5851 -0.5057  0.1657
 2361SOL    HW118545   3.879   0.654   5.005 -0.5977 -0.2013 -1.5615
 2361SOL    HW218546   3.858   0.546   4.912 -0.1087 -0.9669  1.6689
 2362SOL     OW18547   1.462   4.516   1.942  0.6582  0.0342  0.2664
 2362SOL    HW118548   1.367   4.527   1.943  0.5272 -0.9703 -0.9971
 2362SOL    HW218549   1.493   4.595   1.896  1.9700 -0.5093  0.2052
 2363SOL     OW18550   1.167   3.564   2.993  0.8313 -0.0347 -0.5673
 2363SOL    HW118551   1.133   3.482   2.958  1.9006 -0.9447  0.5493
 2363SOL    HW218552   1.231   3.534   3.057 -0.0805  0.3358  0.5103
 2364SOL     OW18553   1.758   0.115  11.210 -0.1045  0.0169  0.1858
 2364SOL    HW118554   1.794   0.033  11.177  3.0967  1.0750  1.0000
 2364SOL    HW218555   1.706   0.138  11.133 -0.1352 -0.7846 -0.0361
 2365SOL     OW18556   2.306   2.153  15.974  0.3596 -0.2997  0.2568
 2365SOL    HW118557   2.215   2.151  15.946  0.4586  0.7407 -0.1375
 2365SOL    HW218558   2.349   2.100  15.907  0.9251  0.7629 -0.2307
 2366SOL     OW18559   2.544   2.767   5.103 -0.7776 -0.5619 -0.1100
 2366SOL    HW118560   2.552   2.683   5.058  2.8323 -0.3476  0.1324
 2366SOL    HW218561   2.618   2.751   5.161  0.6640 -0.9569 -2.0406
 2367SOL     OW18562   1.805   1.540   3.941  0.0860  0.5744  0.0845
 2367SOL    HW118563   1.881   1.578   3.898  0.4173  0.7358  0.8015
 2367SOL    HW218564   1.839   1.451   3.939 -0.8849  0.2043 -0.1426
 2368SOL     OW18565   0.931   2.142  16.488  0.5977  0.1759 -0.0795
 2368SOL    HW118566   1.007   2.179  16.442  0.3740  0.8097  0.0625
 2368SOL    HW218567   0.985   2.077  16.533 -0.6359  1.2162  2.8345
 2369SOL     OW18568   3.089   3.408   8.085  0.1454  0.1171  0.1372
 2369SOL    HW118569   3.010   3.361   8.057  0.8523 -0.5627 -0.7130
 2369SOL    HW218570   3.074   3.489   8.037 -2.7627 -0.5636 -0.1175
 2370SOL     OW18571   2.012   0.660  14.356  0.1411  0.0837  0.5037
 2370SOL    HW118572   1.936   0.682  14.409  1.5454  2.3900  1.5627
 2370SOL    HW218573   1.987   0.568  14.347  0.5218  0.1525 -1.2289
 2371SOL     OW18574   1.308   2.888   7.654  0.6972 -0.0747 -0.2539
 2371SOL    HW118575   1.248   2.833   7.704  2.6726 -2.0254 -0.0197
 2371SOL    HW218576   1.251   2.953   7.613 -0.4020 -1.2607 -0.6114
 2372SOL     OW18577   4.225   0.897  16.930  0.1121 -0.2934 -0.0960
 2372SOL    HW118578   4.228   0.989  16.958 -2.8731  1.0243 -3.9683
 2372SOL    HW218579   4.154   0.866  16.985  0.1184  0.9497  0.6036
 2373SOL     OW18580   2.266   1.785   0.427 -0.1257 -0.3211 -0.1099
 2373SOL    HW118581   2.261   1.813   0.518 -1.8331 -0.0241 -0.2967
 2373SOL    HW218582   2.360   1.778   0.411 -0.2177 -0.5702 -0.5418
 2374SOL     OW18583   3.585   4.453   5.098  0.5804  0.5387 -0.9552
 2374SOL    HW118584   3.629   4.393   5.038  0.8252  0.7877 -1.0247
 2374SOL    HW218585   3.493   4.437   5.079  0.6194  0.0097 -0.7107
 2375SOL     OW18586   3.586   2.312   6.332  0.4447  0.2873  0.1162
 2375SOL    HW118587   3.554   2.319   6.422 -1.6269  1.3137 -0.6957
 2375SOL    HW218588   3.530   2.251   6.285 -1.8302  1.0903  1.7469
 2376SOL     OW18589   3.046   2.437   4.801 -0.8108  0.1266 -0.1273
 2376SOL    HW118590   3.090   2.380   4.864  1.4723  0.6245 -1.2714
 2376SOL    HW218591   2.969   2.467   4.850 -0.7400  1.1323 -0.6399
 2377SOL     OW18592   2.608   0.365   5.827 -0.4428 -0.1021  0.3590
 2377SOL    HW118593   2.675   0.425   5.860  0.0011 -0.6756  0.5016
 2377SOL    HW218594   2.653   0.280   5.820 -0.6438 -0.0562 -1.4802
 2378SOL     OW18595   2.192   4.112   1.849 -0.1778 -0.7692  0.3263
 2378SOL    HW118596   2.217   4.146   1.935  0.5493  1.3122 -0.6971
 2378SOL    HW218597   2.148   4.032   1.874 -1.6239 -0.1621 -0.2923
 2379SOL     OW18598   0.752   0.474   2.956 -0.5321  0.5309 -0.1361
 2379SOL    HW118599   0.825   0.521   2.996 -0.8832  0.7940  0.1937
 2379SOL    HW218600   0.776   0.382   2.946 -0.8952  0.6005 -1.6690
 2380SOL     OW18601   0.512   2.745   9.074 -0.1231 -0.5397  0.8131
 2380SOL    HW118602   0.520   2.687   9.150 -2.4595 -1.1015  0.6325
 2380SOL    HW218603   0.547   2.824   9.115  0.3209 -0.1524 -0.3004
 2381SOL     OW18604   4.064   3.543   6.713 -0.4554  0.2972  0.0099
 2381SOL    HW118605   4.121   3.620   6.721  1.8864 -1.2699 -1.5662
 2381SOL    HW218606   4.113   3.478   6.662  0.5121  2.9717 -2.4546
 2382SOL     OW18607   3.101   2.147   2.063  0.4169 -0.1806  0.7396
 2382SOL    HW118608   3.143   2.212   2.006 -1.7136  2.4180  2.1684
 2382SOL    HW218609   3.041   2.098   2.007  0.2428 -0.1659  0.9175
 2383SOL     OW18610   4.138   0.591  11.331 -0.5970  0.4436 -0.0712
 2383SOL    HW118611   4.206   0.551  11.277 -0.9987  0.5385 -0.6499
 2383SOL    HW218612   4.057   0.557  11.292 -0.9335  2.9712 -1.5084
 2384SOL     OW18613   0.392   4.486   5.106 -0.1032 -0.2831  0.1881
 2384SOL    HW118614   0.301   4.472   5.133  0.0826 -0.7551  0.5703
 2384SOL    HW218615   0.441   4.455   5.182  1.0470 -1.2458 -0.9461
 2385SOL     OW18616   4.045   1.923   2.024  0.5275  0.6430 -0.3366
 2385SOL    HW118617   3.973   1.943   1.964  0.3397 -0.4867 -0.4730
 2385SOL    HW218618   4.016   1.986   2.089 -0.3267  0.3814 -0.4742
 2386SOL     OW18619   4.701   2.842   1.900 -0.0042 -0.3379 -0.6237
 2386SOL    HW118620   4.662   2.810   1.981 -0.0713  2.4443  0.4580
 2386SOL    HW218621   0.070   2.855   1.915  0.5807 -1.1180 -3.4941
 2387SOL     OW18622   1.577   3.092   9.000  0.2768  0.1441 -0.3717
 2387SOL    HW118623   1.668   3.064   8.992 -0.0282  0.5922 -5.5599
 2387SOL    HW218624   1.560   3.073   9.092 -2.1515  0.4684 -0.7416
 2388SOL     OW18625   2.605   4.445   0.530 -0.3388 -0.4510 -0.2452
 2388SOL    HW118626   2.670   4.386   0.493  0.5320  1.8519 -2.3556
 2388SOL    HW218627   2.622   4.526   0.483  1.1300 -0.4007  0.3803
 2389SOL     OW18628   3.422   4.708   9.806  0.2903  0.1433  0.3705
 2389SOL    HW118629   3.459   0.071   9.819  0.1264  0.1983  0.4687
 2389SOL    HW218630   3.495   4.646   9.808  0.2735  0.1188  0.1936
 2390SOL     OW18631   2.102   0.595   8.432  0.2462  0.0689  0.2232
 2390SOL    HW118632   2.019   0.616   8.391  1.9901  1.5830 -2.4723
 2390SOL    HW218633   2.073   0.639   8.512  0.9553  1.4469 -0.2832
 2391SOL     OW18634   3.186   2.535   3.388 -0.4563 -0.0543  0.2951
 2391SOL    HW118635   3.130   2.588   3.444 -1.2628 -1.2141  0.6007
 2391SOL    HW218636   3.116   2.514   3.326  0.8869 -2.4890 -0.3939
 2392SOL     OW18637   1.207   4.397  17.004  0.6413  0.1041 -0.0215
 2392SOL    HW118638   1.229   4.305  16.991  1.0746  0.2453 -0.2796
 2392SOL    HW218639   1.241   4.438  16.924  1.2139 -0.4102 -0.0335
 2393SOL     OW18640   0.150   4.480   0.830  0.3443  0.5480 -0.1971
 2393SOL    HW118641   0.127   4.555   0.776 -2.4032 -0.5230 -0.5174
 2393SOL    HW218642   0.195   4.517   0.906 -1.2907  0.9739  0.5789
 2394SOL     OW18643   2.311   2.321   7.271 -0.4042 -0.1957  0.0103
 2394SOL    HW118644   2.357   2.291   7.349  1.8878 -0.9687 -1.6411
 2394SOL    HW218645   2.220   2.312   7.299 -0.3904  0.2276  0.1909
 2395SOL     OW18646   4.320   3.135  13.070  0.0048  0.1551 -0.6826
 2395SOL    HW118647   4.353   3.180  13.147 -0.9945  0.5492 -0.4782
 2395SOL    HW218648   4.347   3.197  13.003  1.0998 -0.3085 -0.6690
 2396SOL     OW18649   4.127   1.334   9.680  0.2306  0.1040 -0.5805
 2396SOL    HW118650   4.175   1.251   9.679 -1.6386 -0.9865 -0.9623
 2396SOL    HW218651   4.120   1.357   9.588  3.1553  0.3106 -0.7468
 2397SOL     OW18652   2.495   3.443   6.538  0.1299  0.2764 -0.3101
 2397SOL    HW118653   2.478   3.522   6.488 -0.9112 -0.5810 -1.3270
 2397SOL    HW218654   2.465   3.478   6.622 -0.5470 -1.6552  0.2540
 2398SOL     OW18655   1.454   3.976   9.557  0.2133 -0.5681  0.8294
 2398SOL    HW118656   1.412   3.900   9.517 -0.9801 -0.5579  2.0341
 2398SOL    HW218657   1.442   4.042   9.489 -0.6062 -1.1573  0.4015
 2399SOL     OW18658   0.286   3.421   4.187 -0.0438  0.1978  0.4180
 2399SOL    HW118659   0.277   3.458   4.275 -1.9886 -1.8057  1.0691
 2399SOL    HW218660   0.376   3.447   4.166  0.1183 -1.1892 -0.5934
 2400SOL     OW18661   0.485   1.439  15.629 -0.3546 -0.4478 -0.5133
 2400SOL    HW118662   0.450   1.350  15.621 -1.0080 -0.0921 -1.7879
 2400SOL    HW218663   0.541   1.435  15.706 -0.1866  1.2636 -0.5612
 2401SOL     OW18664   4.428   2.623   4.149 -0.3080  0.2936  0.3287
 2401SOL    HW118665   4.384   2.690   4.200 -1.1709 -0.2194  0.2638
 2401SOL    HW218666   4.509   2.622   4.199 -0.2006 -0.4648  0.1418
 2402SOL     OW18667   0.826   2.978   0.017 -0.0835 -0.2491 -0.7125
 2402SOL    HW118668   0.849   3.028   0.095  3.0200  0.3303 -1.9922
 2402SOL    HW218669   0.733   2.992   0.003 -0.1586 -0.6563 -0.6172
 2403SOL     OW18670   1.250   4.542   1.281 -0.4875  0.2367  0.1897
 2403SOL    HW118671   1.281   4.458   1.247  1.3507  0.9134  0.1945
 2403SOL    HW218672   1.183   4.513   1.343  0.1732  0.6357  1.0849
 2404SOL     OW18673   4.137   3.635   6.306 -0.5789 -0.7037  0.3687
 2404SOL    HW118674   4.214   3.654   6.359 -0.5647 -1.1451  0.5074
 2404SOL    HW218675   4.062   3.646   6.364 -1.5536  1.0154 -1.1971
 2405SOL     OW18676   0.750   1.872   3.850  0.0421  0.2044  0.2833
 2405SOL    HW118677   0.670   1.843   3.893 -1.3479  2.1259 -0.9808
 2405SOL    HW218678   0.758   1.811   3.777  1.5061 -0.6870  1.1738
 2406SOL     OW18679   4.629   3.706  12.601 -0.0820  0.6361 -0.0523
 2406SOL    HW118680   4.587   3.669  12.523  0.2499 -0.8204  0.4576
 2406SOL    HW218681   4.598   3.796  12.600  2.2026  1.4142 -0.2423
 2407SOL     OW18682   2.392   3.281  17.077  0.8337 -0.0268  0.2018
 2407SOL    HW118683   2.307   3.308  17.114  0.2689 -1.5058 -0.0389
 2407SOL    HW218684   2.447   3.351  17.112  1.9400 -0.9620  0.3258
 2408SOL     OW18685   1.378   1.597   5.022 -0.0039 -0.4724 -0.1056
 2408SOL    HW118686   1.357   1.510   4.987  0.1937 -0.2792 -0.7181
 2408SOL    HW218687   1.436   1.571   5.094 -1.7646 -3.9852  0.0452
 2409SOL     OW18688   3.160   1.694   6.985 -0.9922  0.1821  0.1270
 2409SOL    HW118689   3.254   1.714   6.982 -1.0658  0.3160 -1.1817
 2409SOL    HW218690   3.132   1.729   6.900  0.6399 -0.2169 -0.5956
 2410SOL     OW18691   2.401   4.233  16.552  0.0891  0.3828 -0.2655
 2410SOL    HW118692   2.380   4.260  16.642 -0.3159 -1.2741  0.1493
 2410SOL    HW218693   2.493   4.216  16.569 -0.4379 -1.5597  0.6943
 2411SOL     OW18694   3.404   3.332  16.345  0.0939  0.8991 -0.0141
 2411SOL    HW118695   3.380   3.273  16.417  0.1868  2.8594  1.6360
 2411SOL    HW218696   3.360   3.415  16.365  0.0792  0.6128  1.1380
 2412SOL     OW18697   2.440   1.568   5.698 -0.0468 -0.1715  0.0504
 2412SOL    HW118698   2.389   1.611   5.629  0.8370 -0.5068 -0.7972
 2412SOL    HW218699   2.416   1.624   5.773  4.0982 -0.1354  1.3613
 2413SOL     OW18700   3.560   1.020   0.898 -0.1730  0.0817 -0.1787
 2413SOL    HW118701   3.553   0.943   0.841 -1.4717 -0.9029  1.2942
 2413SOL    HW218702   3.495   1.076   0.855 -0.9074 -0.5190  0.1486
 2414SOL     OW18703   4.666   1.391   8.501  0.0360  0.1268 -0.5710
 2414SOL    HW118704   0.006   1.461   8.485  1.7608 -0.8176  2.0703
 2414SOL    HW218705   4.611   1.402   8.424  0.9334 -0.8011 -1.3577
 2415SOL     OW18706   0.938   0.090   1.792  0.1311  0.0580 -0.5692
 2415SOL    HW118707   0.962   0.034   1.718  0.1742 -0.2069 -0.3535
 2415SOL    HW218708   0.851   0.051   1.794  0.3891 -0.6000 -2.0409
 2416SOL     OW18709   4.529   0.035   8.563  0.1717  0.2903 -0.8156
 2416SOL    HW118710   4.562   4.669   8.562  0.6971  0.4826 -0.8869
 2416SOL    HW218711   4.604   0.086   8.534 -0.9730  1.3272 -1.9247
 2417SOL     OW18712   1.162   3.000   5.689  0.1268  0.0386 -0.2354
 2417SOL    HW118713   1.229   2.959   5.745  0.4290  0.1741 -0.4996
 2417SOL    HW218714   1.198   3.004   5.601  0.9147 -0.1726  0.0777
 2418SOL     OW18715   1.007   3.552  10.433  0.2133  0.2266 -0.3371
 2418SOL    HW118716   0.962   3.600  10.364  0.8086 -0.3056 -1.0979
 2418SOL    HW218717   1.094   3.587  10.412  1.4141 -1.3168  2.0704
 2419SOL     OW18718   0.089   0.475  14.845 -0.0857 -0.1255 -0.1761
 2419SOL    HW118719   0.127   0.496  14.759 -0.0560 -1.5174 -0.5077
 2419SOL    HW218720   0.103   0.558  14.890 -0.4151 -0.7231  1.0149
 2420SOL     OW18721   0.046   2.510   8.300 -0.4493  0.3071 -0.0120
 2420SOL    HW118722   0.015   2.435   8.351 -0.3498  0.1929 -0.1224
 2420SOL    HW218723   0.068   2.468   8.217 -0.9997  0.3108 -0.1614
 2421SOL     OW18724   0.106   3.936   7.004  0.5583 -0.9712 -0.5286
 2421SOL    HW118725   0.038   3.898   7.059  0.1438  1.0856  0.3840
 2421SOL    HW218726   0.185   3.915   7.053  1.0151  0.8723 -0.4900
 2422SOL     OW18727   3.065   4.439  11.387  0.1365 -0.2479  0.3753
 2422SOL    HW118728   3.074   4.367  11.450  2.2195  0.8413  1.3076
 2422SOL    HW218729   3.151   4.480  11.399  0.9662 -2.4203  1.9595
 2423SOL     OW18730   4.591   0.016   5.659  0.2848 -0.4216 -0.5167
 2423SOL    HW118731   4.641   0.008   5.578 -1.9509  0.2380 -1.9829
 2423SOL    HW218732   4.663   0.031   5.720 -0.1770  0.6272 -0.2286
 2424SOL     OW18733   2.639   0.219   8.489  0.5775  0.0994 -0.6767
 2424SOL    HW118734   2.618   0.136   8.447  3.3907 -0.8827 -0.1234
 2424SOL    HW218735   2.682   0.197   8.572 -0.2614  0.5169 -0.1235
 2425SOL     OW18736   1.631   4.293   6.525 -0.2962 -0.4827  0.1748
 2425SOL    HW118737   1.606   4.375   6.566  0.3246 -0.1324 -0.1311
 2425SOL    HW218738   1.560   4.231   6.541 -0.0467 -0.8889 -0.2811
 2426SOL     OW18739   2.333   3.159   9.931  0.4803 -0.4899 -0.1488
 2426SOL    HW118740   2.332   3.113   9.848  0.2365 -2.9350  1.2248
 2426SOL    HW218741   2.411   3.118   9.968  0.5766 -1.1150 -1.0512
 2427SOL     OW18742   4.133   2.133   3.099  0.1230  0.3701 -0.6011
 2427SOL    HW118743   4.210   2.160   3.050 -0.5965  0.8560 -1.4679
 2427SOL    HW218744   4.118   2.048   3.057 -0.4764  0.1014  0.1679
 2428SOL     OW18745   0.020   4.484   4.903  0.5142  0.0249 -0.0330
 2428SOL    HW118746   4.708   4.542   4.836  0.0077  0.8614  0.9684
 2428SOL    HW218747   0.111   4.515   4.906  0.1264  0.9602  1.7780
 2429SOL     OW18748   1.277   4.050  13.760 -0.5620  0.1741 -0.2618
 2429SOL    HW118749   1.291   4.120  13.696 -1.5895  2.2416  1.7576
 2429SOL    HW218750   1.284   4.097  13.844 -2.3362 -0.8974  0.4807
 2430SOL     OW18751   0.260   2.739   8.955 -0.0151  1.4279  0.1129
 2430SOL    HW118752   0.344   2.748   8.999 -0.1698 -0.4185  0.7781
 2430SOL    HW218753   0.204   2.778   9.022 -0.1574  0.9345  0.2773
 2431SOL     OW18754   2.433   2.052   5.974  0.0850  0.2259  0.2572
 2431SOL    HW118755   2.380   1.981   6.009 -2.7654  2.3683  0.3418
 2431SOL    HW218756   2.463   2.098   6.053  0.4088 -0.9428  0.8172
 2432SOL     OW18757   2.528   3.242   8.596 -0.3315 -0.3148  0.2375
 2432SOL    HW118758   2.504   3.189   8.520  0.3690 -0.0051 -0.1996
 2432SOL    HW218759   2.516   3.330   8.560 -1.3703 -0.5113  0.0958
 2433SOL     OW18760   2.481   4.036   2.566 -0.0980 -0.1839 -0.0775
 2433SOL    HW118761   2.473   4.110   2.627 -1.7909  0.0108 -0.5530
 2433SOL    HW218762   2.565   4.052   2.522  0.2716  0.1764  0.7608
 2434SOL     OW18763   1.390   2.146  10.291 -0.2806 -0.3637 -0.6316
 2434SOL    HW118764   1.302   2.110  10.287 -0.1982 -0.5089 -1.2568
 2434SOL    HW218765   1.380   2.236  10.259 -1.3989 -0.1312  0.3916
 2435SOL     OW18766   0.491   3.412   2.463 -0.0548 -0.5358  0.3122
 2435SOL    HW118767   0.396   3.421   2.478 -0.0211 -0.8217  0.6907
 2435SOL    HW218768   0.515   3.334   2.513 -2.1773  0.0467  2.2764
 2436SOL     OW18769   1.963   1.845   3.164 -0.2405  0.0029  0.4899
 2436SOL    HW118770   2.058   1.832   3.164 -0.0645  1.3505  1.5592
 2436SOL    HW218771   1.962   1.923   3.108  2.0738  1.0779  1.9611
 2437SOL     OW18772   3.681   0.650  15.069  0.1501  0.4534 -0.2189
 2437SOL    HW118773   3.656   0.664  14.977  1.7355  0.5676 -0.6298
 2437SOL    HW218774   3.747   0.716  15.090  0.1924  0.5127 -0.5290
 2438SOL     OW18775   3.178   0.867   2.629 -0.3923 -0.3983 -0.2873
 2438SOL    HW118776   3.188   0.821   2.712 -0.7273 -1.3163 -0.7615
 2438SOL    HW218777   3.160   0.788   2.578  1.7952  0.6555 -2.6859
 2439SOL     OW18778   0.680   2.346   3.042  0.3861  0.3007 -0.0966
 2439SOL    HW118779   0.637   2.261   3.036 -0.4246  0.9539 -3.4707
 2439SOL    HW218780   0.608   2.406   3.023  1.6755  2.2254  1.1068
 2440SOL     OW18781   3.587   3.072   7.950  0.2559  0.1951 -0.0880
 2440SOL    HW118782   3.604   2.977   7.953 -0.6628  0.0286 -0.1638
 2440SOL    HW218783   3.645   3.098   8.022  1.0431  0.2278 -0.7367
 2441SOL     OW18784   2.282   0.089   1.760  0.0139 -0.0198 -0.5879
 2441SOL    HW118785   2.300   0.097   1.666 -0.6010  1.4672 -0.5791
 2441SOL    HW218786   2.283   4.718   1.762 -1.2155 -0.0193  0.5811
 2442SOL     OW18787   2.894   3.240   7.744  0.0443 -0.1427 -0.2419
 2442SOL    HW118788   2.873   3.286   7.826 -0.7359  0.9454 -1.0387
 2442SOL    HW218789   2.808   3.201   7.729  1.8428 -3.5567 -1.4291
 2443SOL     OW18790   0.248   1.569   5.707 -0.1593  0.0983  0.3562
 2443SOL    HW118791   0.301   1.630   5.758  0.0586  0.2853 -0.0931
 2443SOL    HW218792   0.285   1.586   5.620 -0.3300 -1.3708 -0.0104
 2444SOL     OW18793   2.270   0.983  17.143  0.4610  0.1809  0.2779
 2444SOL    HW118794   2.286   1.061  17.089 -3.1829  1.6521  1.3058
 2444SOL    HW218795   2.189   1.008  17.187 -0.7050 -0.4939 -1.4800
 2445SOL     OW18796   4.530   2.032   4.452 -0.3372  0.1554  0.0836
 2445SOL    HW118797   4.591   2.087   4.503  1.6400 -0.9456 -1.1109
 2445SOL    HW218798   4.588   1.962   4.422  0.8345  0.3538  1.8196
 2446SOL     OW18799   3.845   1.358   0.395  0.1250  0.3144 -0.2414
 2446SOL    HW118800   3.905   1.342   0.322 -0.4314 -0.3207 -0.5581
 2446SOL    HW218801   3.762   1.353   0.348  0.0438  3.0938 -0.3811
 2447SOL     OW18802   0.198   3.405   1.552  0.0895  0.0961 -0.5301
 2447SOL    HW118803   0.215   3.372   1.640 -1.1868 -2.3336 -1.1813
 2447SOL    HW218804   0.180   3.331   1.494  0.2573  0.0493 -0.5207
 2448SOL     OW18805   2.276   2.525   4.271  0.1523 -0.1077  0.1632
 2448SOL    HW118806   2.297   2.433   4.289  0.5262 -0.0375  0.0838
 2448SOL    HW218807   2.311   2.560   4.353 -0.2321  0.3962  0.1094
 2449SOL     OW18808   1.504   4.644   7.277  0.0758 -0.1745 -0.3744
 2449SOL    HW118809   1.552   4.660   7.359  0.5920 -0.7604 -0.5636
 2449SOL    HW218810   1.560   4.575   7.242 -0.3883 -0.4980 -0.4682
 2450SOL     OW18811   1.006   2.756  13.109 -0.2438 -0.7822  0.1287
 2450SOL    HW118812   1.084   2.750  13.054 -1.8380 -0.0729 -2.1887
 2450SOL    HW218813   0.985   2.663  13.107 -1.5805 -0.4749  0.0518
 2451SOL     OW18814   3.111   0.716   5.063  0.3221  0.0602  0.9677
 2451SOL    HW118815   3.142   0.629   5.087 -0.6334  0.1173  2.4174
 2451SOL    HW218816   3.116   0.752   5.151 -4.7731  2.0463  0.4380
 2452SOL     OW18817   0.116   0.196   2.315  0.0637  0.1555  0.0172
 2452SOL    HW118818   0.124   0.174   2.222  0.9383  0.0082  0.1234
 2452SOL    HW218819   0.209   0.211   2.332 -0.3296  0.8918  1.4772
 2453SOL     OW18820   0.487   2.037   7.114  0.3400  0.0956 -0.0688
 2453SOL    HW118821   0.473   2.122   7.073 -0.0191 -0.0474 -0.2396
 2453SOL    HW218822   0.488   2.065   7.205 -2.4986  0.5316 -0.1983
 2454SOL     OW18823   0.021   4.277   2.232  0.3645 -0.1935  0.3737
 2454SOL    HW118824   4.673   4.280   2.169  0.0083  0.8134  0.8332
 2454SOL    HW218825   0.083   4.346   2.206 -0.9714  1.3115  1.1440
 2455SOL     OW18826   4.251   1.030  17.462 -0.0830  0.5485 -0.1132
 2455SOL    HW118827   4.257   1.118  17.423 -1.2467  1.1611  1.0867
 2455SOL    HW218828   4.340   1.018  17.493 -0.6665 -0.4591  1.1684
 2456SOL     OW18829   0.403   0.714   5.755 -0.2859  0.3292 -0.0755
 2456SOL    HW118830   0.478   0.661   5.784 -0.0032 -0.3181 -1.9333
 2456SOL    HW218831   0.448   0.793   5.726  0.9295 -0.3175  0.0273
 2457SOL     OW18832   0.301   4.446   2.222  0.5450  0.7515 -0.2333
 2457SOL    HW118833   0.287   4.405   2.137  0.9844  0.5109 -0.1876
 2457SOL    HW218834   0.395   4.464   2.224  0.7606 -0.1777 -2.0810
 2458SOL     OW18835   1.857   3.859   5.225 -0.2812  0.4581  0.0738
 2458SOL    HW118836   1.840   3.823   5.312 -0.1728 -0.9527 -0.4856
 2458SOL    HW218837   1.935   3.914   5.235  1.4339 -1.9241 -0.0366
 2459SOL     OW18838   1.932   0.518   2.790  0.3526  0.2188 -0.4205
 2459SOL    HW118839   1.936   0.451   2.858 -2.5868 -0.1879 -0.6511
 2459SOL    HW218840   2.013   0.569   2.798 -0.8913  2.3260 -1.1860
 2460SOL     OW18841   0.049   2.221   1.351 -0.1531 -0.3399  0.3996
 2460SOL    HW118842   0.052   2.234   1.446 -0.4190  1.1590  0.1946
 2460SOL    HW218843   0.076   2.130   1.336  0.3566  0.0558 -1.1037
 2461SOL     OW18844   0.554   2.987   4.791  0.1350 -0.0180 -0.3476
 2461SOL    HW118845   0.610   2.918   4.755 -0.4043 -0.1903 -0.8516
 2461SOL    HW218846   0.475   2.972   4.740 -1.2160  2.8906  0.9041
 2462SOL     OW18847   0.168   0.042  13.281  0.3276 -0.3905  0.8152
 2462SOL    HW118848   0.150   0.073  13.192 -1.9061 -1.1009  1.0144
 2462SOL    HW218849   0.263   0.056  13.286  0.3659 -0.4243  0.1324
 2463SOL     OW18850   2.531   3.903  10.645  0.5444  0.0634  0.2213
 2463SOL    HW118851   2.524   3.991  10.609 -0.3947  0.8624  2.3527
 2463SOL    HW218852   2.548   3.932  10.735 -1.7323  1.9300  0.0406
 2464SOL     OW18853   3.626   1.777   7.562  0.2142 -0.0835  0.1479
 2464SOL    HW118854   3.674   1.853   7.529 -0.4221  0.2522 -0.0100
 2464SOL    HW218855   3.546   1.816   7.598 -0.4462  0.0594 -1.4879
 2465SOL     OW18856   2.184   0.590   7.762 -0.3839  0.2214 -0.0724
 2465SOL    HW118857   2.095   0.626   7.766 -0.5731 -0.1869 -0.6031
 2465SOL    HW218858   2.193   0.561   7.853 -0.3774  0.3254 -0.0400
 2466SOL     OW18859   0.677   0.802   7.866  0.2832  0.6474 -0.5071
 2466SOL    HW118860   0.678   0.891   7.900 -0.3709  0.6815 -0.5766
 2466SOL    HW218861   0.744   0.809   7.797  1.8802 -0.8708  0.9016
 2467SOL     OW18862   4.326   2.796  12.978  0.5914  0.1108  0.3683
 2467SOL    HW118863   4.342   2.885  13.010  0.4563  0.3830 -0.3126
 2467SOL    HW218864   4.238   2.803  12.941  0.4011  1.2265  1.0393
 2468SOL     OW18865   2.145   3.658   6.287  0.5211  0.4040  0.6811
 2468SOL    HW118866   2.167   3.751   6.289 -3.5704  1.3821 -0.2228
 2468SOL    HW218867   2.180   3.639   6.374 -1.4041 -1.0469  1.1407
 2469SOL     OW18868   2.895   2.355   8.338 -0.2821  0.0889  0.1526
 2469SOL    HW118869   2.932   2.319   8.419  0.0861  1.5862  0.6468
 2469SOL    HW218870   2.975   2.387   8.299  0.3969 -0.6027  0.9688
 2470SOL     OW18871   4.410   4.207   8.448  0.6500 -0.7826 -0.6429
 2470SOL    HW118872   4.432   4.293   8.413  0.1386  0.0469  1.0909
 2470SOL    HW218873   4.339   4.230   8.508  2.1070  2.1148 -0.0255
 2471SOL     OW18874   4.624   4.157   4.106 -0.0774  0.5457  1.0113
 2471SOL    HW118875   4.546   4.181   4.155 -0.9274 -0.4776  0.1590
 2471SOL    HW218876   4.682   4.183   4.177 -0.2089 -1.6992  1.9368
 2472SOL     OW18877   0.720   4.196   8.415 -0.9874 -0.2207  0.1419
 2472SOL    HW118878   0.670   4.150   8.483 -1.0316 -0.3623  0.0158
 2472SOL    HW218879   0.642   4.241   8.381  1.3606  2.3942 -1.7090
 2473SOL     OW18880   3.853   3.725   9.389  0.8251 -0.3768  0.0434
 2473SOL    HW118881   3.885   3.635   9.377  1.7279 -0.1268  0.5785
 2473SOL    HW218882   3.933   3.757   9.430 -0.3187 -0.4699  2.3361
 2474SOL     OW18883   0.313   1.212   5.617  0.2182  0.1462  0.6116
 2474SOL    HW118884   0.264   1.129   5.620  1.0939 -0.4153 -0.7134
 2474SOL    HW218885   0.253   1.275   5.656  1.2827  0.0150  2.4718
 2475SOL     OW18886   3.502   0.969  16.835  0.7299  0.6971 -0.1444
 2475SOL    HW118887   3.570   0.984  16.770  0.7056  0.7010 -0.1686
 2475SOL    HW218888   3.433   0.939  16.776  1.0591  0.4637 -0.4119
 2476SOL     OW18889   1.277   2.349   9.523 -0.3776  0.4198 -0.0136
 2476SOL    HW118890   1.231   2.290   9.463  0.4417 -0.2736  0.0458
 2476SOL    HW218891   1.308   2.419   9.465  2.4448 -0.0395  0.9322
 2477SOL     OW18892   4.222   4.471   7.156 -0.9736  0.1363 -0.1631
 2477SOL    HW118893   4.246   4.550   7.108  1.7712 -1.5891 -1.6621
 2477SOL    HW218894   4.290   4.467   7.223 -1.1432  3.0304  0.1782
 2478SOL     OW18895   2.259   0.107  17.170 -0.1865 -0.1792  0.0565
 2478SOL    HW118896   2.168   0.114  17.143  0.2522 -1.5578 -1.7508
 2478SOL    HW218897   2.270   0.199  17.195  1.2502 -0.1140 -0.8040
 2479SOL     OW18898   3.699   3.140   8.775 -0.0319  0.0992 -1.0057
 2479SOL    HW118899   3.715   3.231   8.799  2.7297 -0.3553 -1.1055
 2479SOL    HW218900   3.615   3.125   8.817  0.5519  0.0389  0.1521
 2480SOL     OW18901   0.350   1.509  15.356  0.2110  0.1107  0.2133
 2480SOL    HW118902   0.425   1.514  15.415  0.5635  2.1244 -0.3728
 2480SOL    HW218903   0.278   1.518  15.418 -0.9092  0.9114 -1.1916
 2481SOL     OW18904   4.693   1.657   4.611 -0.6024  0.4754 -0.1612
 2481SOL    HW118905   4.643   1.655   4.693 -0.0133 -0.3998  0.1791
 2481SOL    HW218906   4.701   1.561   4.608  3.5133  0.8601 -1.5155
 2482SOL     OW18907   3.836   2.304   6.898  0.1377 -0.6060  0.3905
 2482SOL    HW118908   3.882   2.387   6.889 -0.4909 -0.4889 -1.7773
 2482SOL    HW218909   3.895   2.258   6.957  0.7182 -0.5391 -0.1438
 2483SOL     OW18910   0.743   4.352   1.613 -0.3851  0.2207  0.5412
 2483SOL    HW118911   0.832   4.352   1.648 -0.7163  0.9909  1.4003
 2483SOL    HW218912   0.745   4.258   1.594 -1.3828  0.6932 -1.9013
 2484SOL     OW18913   4.313   4.472   8.389 -0.1757 -0.0187  0.2986
 2484SOL    HW118914   4.307   4.493   8.482  2.5858  0.4258  0.3856
 2484SOL    HW218915   4.236   4.511   8.348 -0.3951 -2.7749 -1.9631
 2485SOL     OW18916   0.720   2.002  15.912 -0.4345  0.1994  0.8653
 2485SOL    HW118917   0.779   1.968  15.979 -1.2703  1.1612  2.0909
 2485SOL    HW218918   0.714   2.094  15.936  0.6352  1.0334 -2.1410
 2486SOL     OW18919   0.716   0.972  12.252  0.3908  0.4963  0.1398
 2486SOL    HW118920   0.784   0.936  12.308  2.0537  0.6702 -1.7783
 2486SOL    HW218921   0.758   0.988  12.168 -0.9147  4.2319  0.2111
 2487SOL     OW18922   1.811   1.018  14.408  0.7745 -1.0845 -0.6942
 2487SOL    HW118923   1.779   1.014  14.318  0.7815 -0.5922 -0.7197
 2487SOL    HW218924   1.798   0.930  14.443  0.6228 -0.2189  1.4764
 2488SOL     OW18925   0.625   3.437   6.828  0.5400 -0.3587 -0.2282
 2488SOL    HW118926   0.599   3.372   6.762 -1.4806  0.7835 -0.5375
 2488SOL    HW218927   0.676   3.390   6.894  2.3167 -1.3779 -2.3265
 2489SOL     OW18928   1.627   2.246   5.749  0.3190 -0.3077 -0.1813
 2489SOL    HW118929   1.720   2.225   5.757  0.4912  0.9209  1.0960
 2489SOL    HW218930   1.637   2.341   5.745  0.6631 -0.3768 -0.8567
 2490SOL     OW18931   0.759   0.731   9.151 -0.7606 -0.7621 -0.7234
 2490SOL    HW118932   0.807   0.648   9.145 -0.7794 -0.8969  1.0638
 2490SOL    HW218933   0.759   0.757   9.059 -0.6919  0.4813 -0.3852
 2491SOL     OW18934   2.154   0.911   8.155 -0.8353 -1.1166 -0.6259
 2491SOL    HW118935   2.108   0.881   8.234  2.1815  0.8878  1.8682
 2491SOL    HW218936   2.218   0.841   8.148 -1.2067 -1.4780 -0.4516
 2492SOL     OW18937   1.948   3.681  14.227  0.1733  0.6653  0.1982
 2492SOL    HW118938   1.959   3.591  14.258 -0.7570  0.1844 -0.8713
 2492SOL    HW218939   1.871   3.672  14.170  0.9728  2.3699 -1.1573
 2493SOL     OW18940   0.664   3.253   6.046  0.2923  0.1191 -0.1413
 2493SOL    HW118941   0.726   3.181   6.057  0.1471  0.0714  0.3702
 2493SOL    HW218942   0.624   3.258   6.133  0.9873  0.6504  0.1499
 2494SOL     OW18943   0.535   0.098   2.327  0.1832  0.3345 -0.4236
 2494SOL    HW118944   0.465   0.158   2.353 -2.2333 -1.3164 -3.0494
 2494SOL    HW218945   0.616   0.142   2.353  0.2706  0.4980 -0.9843
 2495SOL     OW18946   4.399   0.553   7.353 -0.3925  0.1288  0.5919
 2495SOL    HW118947   4.304   0.546   7.356 -0.5009  1.2825 -0.1505
 2495SOL    HW218948   4.424   0.504   7.275 -1.0130  1.0349 -0.1695
 2496SOL     OW18949   3.861   2.133   9.152 -0.2888 -0.7807 -0.0846
 2496SOL    HW118950   3.883   2.083   9.231  0.9055  0.6703  0.5040
 2496SOL    HW218951   3.934   2.108   9.095 -1.6550 -2.1607 -1.2368
 2497SOL     OW18952   0.902   3.444   5.927 -0.1614 -0.1483 -0.7074
 2497SOL    HW118953   0.926   3.369   5.872  0.5066  0.6951 -1.5568
 2497SOL    HW218954   0.881   3.394   6.006 -0.8536  0.4607 -0.5134
 2498SOL     OW18955   2.099   3.326  11.528 -0.3335 -0.0409 -0.8295
 2498SOL    HW118956   2.123   3.250  11.580 -1.5785  0.2082  0.1271
 2498SOL    HW218957   2.157   3.396  11.557 -0.8641  0.0754 -0.0453
 2499SOL     OW18958   2.674   2.503   6.731 -0.2967 -0.0490 -0.2072
 2499SOL    HW118959   2.630   2.556   6.665 -2.0604  0.1532  1.1387
 2499SOL    HW218960   2.724   2.573   6.774  1.1056 -1.2130  0.0391
 2500SOL     OW18961   0.707   0.040   9.050  0.2709 -0.2324  0.1388
 2500SOL    HW118962   0.652   4.692   9.082  0.4611  0.2378  1.5252
 2500SOL    HW218963   0.737   4.722   8.969 -0.2596  0.8994 -0.6460
 2501SOL     OW18964   1.896   4.086   2.555 -0.0520 -0.1610 -0.2367
 2501SOL    HW118965   1.944   4.003   2.564 -1.2356 -0.7406  0.6646
 2501SOL    HW218966   1.962   4.143   2.516 -0.4578 -0.2230 -1.0137
 2502SOL     OW18967   1.143   3.737  16.391 -0.4550  0.1193 -0.5278
 2502SOL    HW118968   1.202   3.743  16.316  2.1335  0.1705  1.5168
 2502SOL    HW218969   1.194   3.698  16.461  0.2575  0.4848 -0.8397
 2503SOL     OW18970   1.977   2.428   4.488  0.2038 -0.7040  0.1439
 2503SOL    HW118971   1.929   2.444   4.569  0.8830 -0.5159  0.5120
 2503SOL    HW218972   1.945   2.505   4.441 -2.7778 -0.8093  1.9991
 2504SOL     OW18973   0.801   2.211   4.294 -0.1923 -0.3067 -0.0084
 2504SOL    HW118974   0.765   2.168   4.217  2.4473 -1.3200 -0.6596
 2504SOL    HW218975   0.862   2.267   4.247  0.7166 -1.2621  0.0480
 2505SOL     OW18976   4.225   1.905   1.495 -0.8131 -0.1328 -0.0749
 2505SOL    HW118977   4.272   1.854   1.561 -1.8975  1.1705  1.7016
 2505SOL    HW218978   4.140   1.864   1.508  0.0929 -1.5645  1.3940
 2506SOL     OW18979   3.689   4.248   8.783  0.3621 -0.3716 -0.0473
 2506SOL    HW118980   3.619   4.224   8.844 -0.8179  1.6809 -0.6175
 2506SOL    HW218981   3.634   4.291   8.717  0.6511 -0.3246 -0.2545
 2507SOL     OW18982   0.252   2.611   0.452 -0.3349 -0.0046  0.5672
 2507SOL    HW118983   0.193   2.676   0.414  0.2926  0.8149  0.9675
 2507SOL    HW218984   0.186   2.570   0.508  0.1445  0.2205  1.3045
 2508SOL     OW18985   1.586   2.523  15.036 -0.1559 -0.2528 -0.6050
 2508SOL    HW118986   1.633   2.452  14.992  1.0873 -0.7670  1.5461
 2508SOL    HW218987   1.495   2.493  15.030 -1.3623  3.0947  1.0575
 2509SOL     OW18988   2.554   0.203   8.104  0.0536  0.0747 -0.6857
 2509SOL    HW118989   2.547   0.111   8.079 -2.2094  0.1312 -0.2488
 2509SOL    HW218990   2.466   0.233   8.124  0.6342  1.0587  0.4078
 2510SOL     OW18991   0.394   4.002   8.122  0.0019 -0.6405 -0.1607
 2510SOL    HW118992   0.363   3.918   8.089 -0.8156  0.2591 -1.6794
 2510SOL    HW218993   0.372   4.053   8.044  1.3809  1.6892  0.9633
 2511SOL     OW18994   2.017   2.864  12.066  0.4624 -0.1892  0.0844
 2511SOL    HW118995   1.929   2.900  12.069  0.1542 -0.7868 -2.2011
 2511SOL    HW218996   2.012   2.798  12.135  0.8389 -0.4932 -0.1728
 2512SOL     OW18997   2.193   0.309  12.731 -0.8969  0.1816 -0.6407
 2512SOL    HW118998   2.221   0.399  12.716  0.2467 -0.1934 -0.7520
 2512SOL    HW218999   2.099   0.323  12.747 -0.5311 -0.3281  2.0013
 2513SOL     OW19000   1.872   4.272  15.256  0.7735  0.1368 -0.0515
 2513SOL    HW119001   1.910   4.332  15.321 -0.1321  1.6466 -0.9115
 2513SOL    HW219002   1.807   4.229  15.312 -0.3912  1.0824 -0.6812
 2514SOL     OW19003   0.923   4.299  13.061 -0.3465  0.1063 -0.5699
 2514SOL    HW119004   0.921   4.394  13.066  0.5970  0.0557  0.9203
 2514SOL    HW219005   1.003   4.295  13.114  0.7177  1.8330 -2.0523
 2515SOL     OW19006   2.839   4.599   5.278 -0.5614 -0.1720 -0.3591
 2515SOL    HW119007   2.909   4.664   5.275  0.0856 -0.8533  0.0849
 2515SOL    HW219008   2.761   4.653   5.292  0.0383  0.6243 -0.1488
 2516SOL     OW19009   0.666   4.220   3.570 -0.4018  0.0885  0.1070
 2516SOL    HW119010   0.613   4.142   3.562  1.3241 -1.2314  1.4326
 2516SOL    HW219011   0.650   4.276   3.494  1.4281 -1.3611 -1.3582
 2517SOL     OW19012   2.632   4.056  12.616 -0.3349 -0.2712 -0.3378
 2517SOL    HW119013   2.679   4.136  12.642  1.9807 -1.9885  0.7761
 2517SOL    HW219014   2.558   4.095  12.570  0.8052 -1.2953 -2.9790
 2518SOL     OW19015   2.827   2.050   8.781  0.3061 -0.3761  0.4438
 2518SOL    HW119016   2.907   2.048   8.729  2.6786  0.1981  4.1063
 2518SOL    HW219017   2.859   2.091   8.861 -0.0305  0.1828  0.2932
 2519SOL     OW19018   1.123   3.729   1.564 -0.2322 -0.1995  0.1236
 2519SOL    HW119019   1.107   3.649   1.615  0.5078 -1.5262 -1.7211
 2519SOL    HW219020   1.152   3.789   1.632  4.3058 -0.0228 -1.9933
 2520SOL     OW19021   4.506   1.523  10.598  0.1919  0.1304  0.3227
 2520SOL    HW119022   4.451   1.573  10.537 -0.2311  0.2620  0.8164
 2520SOL    HW219023   4.589   1.570  10.586  0.3155  0.0221  0.7556
 2521SOL     OW19024   2.284   2.148  15.634  0.1002  0.0517  0.0641
 2521SOL    HW119025   2.198   2.120  15.665 -0.5099  2.1534  0.2652
 2521SOL    HW219026   2.262   2.214  15.568 -0.8667  1.9323  2.2939
 2522SOL     OW19027   2.976   2.011  17.507 -0.7074 -0.0951 -0.1965
 2522SOL    HW119028   3.045   1.963  17.553 -0.4469 -0.8558 -1.3707
 2522SOL    HW219029   3.000   2.100  17.532  1.6448 -0.9223  0.4580
 2523SOL     OW19030   1.450   2.966   4.581 -0.1386 -0.6063  0.6201
 2523SOL    HW119031   1.456   2.877   4.548 -3.2678 -0.3927 -0.4762
 2523SOL    HW219032   1.405   2.963   4.665 -0.5289  2.7548  0.5520
 2524SOL     OW19033   3.871   2.046  10.311 -0.1000 -0.4886 -0.5503
 2524SOL    HW119034   3.958   2.035  10.272 -0.1499  0.6577 -1.0070
 2524SOL    HW219035   3.893   2.095  10.390 -0.5467 -2.4911  0.7896
 2525SOL     OW19036   2.466   2.229   4.849 -0.4538  0.8430  0.0013
 2525SOL    HW119037   2.515   2.284   4.788 -0.6858 -0.3954 -1.3135
 2525SOL    HW219038   2.507   2.143   4.837 -0.7175  0.5918  0.8907
 2526SOL     OW19039   2.818   2.137   8.182 -0.1697 -0.0635 -0.6194
 2526SOL    HW119040   2.870   2.210   8.213 -2.7073  1.7310 -0.5477
 2526SOL    HW219041   2.735   2.165   8.220  0.3177 -0.2780  0.5927
 2527SOL     OW19042   2.480   4.438   9.054  0.1441 -0.1423 -0.3470
 2527SOL    HW119043   2.548   4.505   9.047 -0.0603  0.0728 -0.2560
 2527SOL    HW219044   2.532   4.357   9.051  0.6985  0.1414  1.3414
 2528SOL     OW19045   0.441   2.627   1.930 -0.1592 -0.2299  0.8440
 2528SOL    HW119046   0.435   2.607   1.836 -0.5754 -0.8147  0.9907
 2528SOL    HW219047   0.516   2.574   1.956 -0.6093 -1.7248 -0.8633
 2529SOL     OW19048   4.022   2.002   4.631 -0.6823 -0.0294  0.1152
 2529SOL    HW119049   3.932   2.007   4.597  0.4667 -0.7531 -3.1005
 2529SOL    HW219050   4.052   1.934   4.570  2.3720  0.9603  0.5009
 2530SOL     OW19051   2.022   1.333   9.685 -0.2177 -0.0134  0.0734
 2530SOL    HW119052   2.036   1.271   9.757 -0.9291  0.3215  0.5033
 2530SOL    HW219053   1.959   1.284   9.632 -2.0260  0.5725  1.6723
 2531SOL     OW19054   0.234   0.112  11.351  0.0973 -0.0791 -0.4771
 2531SOL    HW119055   0.156   0.161  11.378  0.4227  0.6615 -0.9157
 2531SOL    HW219056   0.223   0.131  11.258  3.5822 -2.0239 -1.2771
 2532SOL     OW19057   3.784   3.064  11.351 -0.4001  0.1464 -0.4334
 2532SOL    HW119058   3.749   3.043  11.264  1.6223 -0.3386 -1.1270
 2532SOL    HW219059   3.848   3.134  11.335  2.0779 -1.7160  1.4916
 2533SOL     OW19060   3.182   4.686   6.251 -0.5517  0.2138 -0.0410
 2533SOL    HW119061   3.221   0.040   6.290  1.0632  0.0008 -1.2405
 2533SOL    HW219062   3.098   4.686   6.297 -1.0422 -0.2980 -0.9419
 2534SOL     OW19063   3.739   4.470   6.683  0.0634 -0.0960  0.3269
 2534SOL    HW119064   3.750   4.383   6.644 -1.1486  0.3248 -0.9774
 2534SOL    HW219065   3.660   4.461   6.735  0.3496  0.0821  0.7894
 2535SOL     OW19066   2.096   4.134   3.727 -0.5153  0.1384  0.4186
 2535SOL    HW119067   2.144   4.052   3.714  2.5089  1.6761  1.8830
 2535SOL    HW219068   2.087   4.143   3.822 -1.4331 -0.4807  0.3930
 2536SOL     OW19069   0.858   0.418   5.950 -0.2098 -0.7724 -0.4233
 2536SOL    HW119070   0.851   0.352   6.020 -2.9829  0.8695  0.8421
 2536SOL    HW219071   0.777   0.398   5.904 -1.0784 -0.6961  1.0757
 2537SOL     OW19072   2.406   3.899   8.238 -0.2435  0.0548 -0.3145
 2537SOL    HW119073   2.366   3.829   8.291  0.9189 -1.5794 -1.5897
 2537SOL    HW219074   2.467   3.936   8.302 -1.2746  2.9003 -0.9746
 2538SOL     OW19075   4.610   0.440  13.895 -0.3650  0.3450 -0.4930
 2538SOL    HW119076   4.646   0.380  13.830 -1.4016 -2.2299  1.3369
 2538SOL    HW219077   4.531   0.397  13.927 -1.4663  0.7060 -2.7446
 2539SOL     OW19078   0.938   2.634   1.968 -0.0323  0.3046  0.4454
 2539SOL    HW119079   0.873   2.565   1.982  0.9369 -1.0621 -1.7472
 2539SOL    HW219080   0.896   2.713   2.001 -1.9599 -0.5828  0.1347
 2540SOL     OW19081   3.962   0.169   1.152  0.5173 -0.8451 -0.0246
 2540SOL    HW119082   3.913   0.227   1.210  3.9954  0.7718  1.2967
 2540SOL    HW219083   3.888   0.140   1.099  0.8812 -1.7840 -0.0260
 2541SOL     OW19084   2.396   1.432   2.462  0.4120 -0.1802  0.4506
 2541SOL    HW119085   2.311   1.399   2.432  0.6074 -1.1905  1.0179
 2541SOL    HW219086   2.419   1.383   2.541  0.5857 -0.2441  0.3591
 2542SOL     OW19087   0.686   3.815   1.364 -0.5065  0.1551 -0.5876
 2542SOL    HW119088   0.643   3.764   1.432 -1.3802 -3.2087 -3.6804
 2542SOL    HW219089   0.623   3.791   1.296 -1.4251 -0.3669  0.4450
 2543SOL     OW19090   3.659   2.411   3.540 -0.1968  0.5533 -0.5831
 2543SOL    HW119091   3.723   2.346   3.511 -0.2146  0.4802 -0.4558
 2543SOL    HW219092   3.591   2.355   3.577 -1.1931  2.0323 -0.1620
 2544SOL     OW19093   0.528   3.131   6.898  0.1217 -0.2779  0.3694
 2544SOL    HW119094   0.449   3.132   6.843 -1.0132 -3.3691  1.9509
 2544SOL    HW219095   0.527   3.041   6.930  0.3356  0.3323  2.0898
 2545SOL     OW19096   3.510   1.788   5.608  0.0524  0.1190 -0.1324
 2545SOL    HW119097   3.503   1.883   5.601 -0.4086  0.0694 -0.3755
 2545SOL    HW219098   3.586   1.775   5.552 -1.0176  2.1845 -2.0635
 2546SOL     OW19099   4.639   0.159   1.685 -0.0099 -0.5110 -0.4180
 2546SOL    HW119100   4.592   0.105   1.621  1.0816 -2.4752  0.4398
 2546SOL    HW219101   4.569   0.204   1.733  1.1010 -0.6626  1.3652
 2547SOL     OW19102   0.880   4.672   9.394 -0.3069 -0.3411 -0.4454
 2547SOL    HW119103   0.801   4.621   9.379 -0.5028  0.0945 -0.8891
 2547SOL    HW219104   0.936   4.597   9.411  0.3530  0.7124  2.0957
 2548SOL     OW19105   1.767   3.013   0.718 -0.0875  0.0349  0.5036
 2548SOL    HW119106   1.675   2.996   0.701 -0.1130  0.6016  0.0829
 2548SOL    HW219107   1.800   2.927   0.746  1.8185  0.0364 -1.7363
 2549SOL     OW19108   3.231   2.036   3.085  0.5026  0.1283 -0.0785
 2549SOL    HW119109   3.276   2.013   3.003 -1.1603  0.5903 -1.1120
 2549SOL    HW219110   3.304   2.013   3.142 -1.4207 -2.7076  1.2429
 2550SOL     OW19111   2.611   0.123   6.300 -0.2953  0.2755  0.3380
 2550SOL    HW119112   2.557   0.202   6.297 -0.6513 -0.0727 -2.3637
 2550SOL    HW219113   2.697   0.165   6.307  0.1555 -0.5253 -0.4171
 2551SOL     OW19114   0.667   4.721   1.725 -0.7841 -0.1863  0.2543
 2551SOL    HW119115   0.639   4.630   1.734 -0.8121 -0.1474  0.5614
 2551SOL    HW219116   0.580   0.025   1.697 -0.6852 -2.6247 -2.4202
 2552SOL     OW19117   2.634   0.328   3.009 -0.2779 -0.1045 -0.2552
 2552SOL    HW119118   2.655   0.414   2.972 -2.3163  0.4719 -0.0863
 2552SOL    HW219119   2.547   0.316   2.971  0.1608 -1.5639 -0.7910
 2553SOL     OW19120   2.935   1.869  10.468 -0.1478  0.2010 -0.0732
 2553SOL    HW119121   2.896   1.943  10.516  0.3615  1.1302 -1.0831
 2553SOL    HW219122   2.861   1.821  10.432  0.8598 -2.2646  1.1997
 2554SOL     OW19123   0.326   1.646   0.945  0.3834 -0.0749 -0.1940
 2554SOL    HW119124   0.238   1.610   0.941  0.7467 -0.9366 -0.3432
 2554SOL    HW219125   0.373   1.604   1.017  2.0649 -1.1145 -1.9013
 2555SOL     OW19126   1.596   2.017  10.420  0.2559  0.4185 -0.2879
 2555SOL    HW119127   1.525   2.062  10.373  1.0775  1.3032 -0.6946
 2555SOL    HW219128   1.561   2.016  10.510  0.1879  3.1955 -0.2859
 2556SOL     OW19129   0.494   0.461  13.007 -0.1242  0.6424 -0.7594
 2556SOL    HW119130   0.551   0.522  13.054  1.1168 -1.6776  0.7399
 2556SOL    HW219131   0.438   0.528  12.967  0.6185  1.9808  0.4652
 2557SOL     OW19132   1.214   0.241   8.923  0.5851 -0.8830  0.6787
 2557SOL    HW119133   1.159   0.202   8.990 -0.0419  0.3032  0.8530
 2557SOL    HW219134   1.203   0.186   8.845  0.4411  0.6233 -0.3726
 2558SOL     OW19135   4.300   3.274   5.187  0.3456  0.1894 -0.3429
 2558SOL    HW119136   4.247   3.352   5.204  0.6084  0.3532 -0.2690
 2558SOL    HW219137   4.260   3.224   5.116 -0.4392 -1.3590  1.2108
 2559SOL     OW19138   3.070   1.078   5.911 -0.3985  0.0373 -0.2755
 2559SOL    HW119139   2.975   1.092   5.915 -0.5037 -0.3613 -1.4618
 2559SOL    HW219140   3.073   0.984   5.893  1.0976 -0.0419  0.4070
 2560SOL     OW19141   2.431   4.673   4.025 -0.5489  0.5054 -0.1894
 2560SOL    HW119142   2.501   4.630   4.076  0.7658  1.9581 -0.7707
 2560SOL    HW219143   2.484   0.028   4.013 -0.9760  0.9854  1.1610
 2561SOL     OW19144   4.136   2.972   8.727  0.5579  0.0232 -0.6957
 2561SOL    HW119145   4.041   2.966   8.736  0.4804  1.3623 -0.6822
 2561SOL    HW219146   4.154   2.933   8.642  0.3312  2.0059 -1.6417
 2562SOL     OW19147   0.006   0.322   3.312 -0.3336  0.0115  0.0220
 2562SOL    HW119148   0.025   0.233   3.340  1.1087  0.6418  1.0679
 2562SOL    HW219149   4.650   0.329   3.260  1.2880 -3.6311 -2.9543
 2563SOL     OW19150   3.843   1.381   5.630 -0.1951  0.0849 -0.2236
 2563SOL    HW119151   3.859   1.443   5.559 -0.3973 -1.7211 -1.8366
 2563SOL    HW219152   3.748   1.376   5.623 -0.1272  0.2806 -1.3634
 2564SOL     OW19153   3.102   1.613   0.171  0.7519 -0.8064  0.4378
 2564SOL    HW119154   3.052   1.532   0.174 -0.5110 -0.1291 -2.3545
 2564SOL    HW219155   3.113   1.625   0.076  1.6897 -0.1900  0.6223
 2565SOL     OW19156   0.313   4.013   5.368 -0.2188 -0.4520 -0.0051
 2565SOL    HW119157   0.343   3.925   5.388 -0.2041 -0.3161  0.5774
 2565SOL    HW219158   0.374   4.030   5.296  0.8723  2.5566  1.6162
 2566SOL     OW19159   3.762   0.319  12.872  0.3345  0.2331 -0.1840
 2566SOL    HW119160   3.731   0.276  12.952 -0.6407 -2.0451 -1.7699
 2566SOL    HW219161   3.724   0.263  12.804  0.4239  1.6746 -1.3966
 2567SOL     OW19162   2.846   0.728   4.156  1.0234  0.2207 -0.0239
 2567SOL    HW119163   2.868   0.770   4.239  1.6692 -2.3109  1.0939
 2567SOL    HW219164   2.773   0.669   4.172 -0.1498  1.5357 -0.5125
 2568SOL     OW19165   3.440   2.282   1.346 -0.5484 -0.0895  0.3695
 2568SOL    HW119166   3.492   2.267   1.425  1.7598 -0.2212 -1.1658
 2568SOL    HW219167   3.375   2.212   1.357 -0.3412 -0.4006 -0.4272
 2569SOL     OW19168   4.392   1.803   3.760 -0.4470 -0.0806 -0.0082
 2569SOL    HW119169   4.386   1.878   3.701 -1.5300  0.5022  0.8347
 2569SOL    HW219170   4.478   1.808   3.802 -1.4339  1.8908  1.7898
 2570SOL     OW19171   3.879   2.924  11.943 -0.3768  0.2812 -0.2351
 2570SOL    HW119172   3.823   3.000  11.958 -0.7600  0.1955 -1.2268
 2570SOL    HW219173   3.879   2.881  12.028 -1.5612  1.8437  0.5609
 2571SOL     OW19174   2.113   2.840   4.899  0.0779 -0.2628 -0.1493
 2571SOL    HW119175   2.154   2.926   4.890 -0.4912  0.0504  0.3066
 2571SOL    HW219176   2.129   2.811   4.809  1.6930  2.9392 -0.9147
 2572SOL     OW19177   0.865   2.505   8.169  0.6001  0.7809  0.0346
 2572SOL    HW119178   0.954   2.475   8.187  0.5155  0.1926 -0.5303
 2572SOL    HW219179   0.881   2.558   8.091 -0.9165 -0.1526 -0.9137
 2573SOL     OW19180   3.673   0.525   1.888 -1.1349  0.0131  0.0225
 2573SOL    HW119181   3.662   0.431   1.875 -2.1268  0.0953  0.2748
 2573SOL    HW219182   3.704   0.524   1.979  1.3597  3.2048 -0.7938
 2574SOL     OW19183   1.520   0.302   8.252 -0.6841 -0.1064  0.3159
 2574SOL    HW119184   1.613   0.278   8.254 -0.4781  0.6497 -0.0563
 2574SOL    HW219185   1.496   0.317   8.343 -0.7409  3.7369 -0.3695
 2575SOL     OW19186   3.080   3.699   5.797  0.4247  0.2390 -0.0447
 2575SOL    HW119187   3.140   3.677   5.726 -0.8185 -1.5199 -0.5583
 2575SOL    HW219188   3.131   3.750   5.860  1.1726 -0.1888 -0.3172
 2576SOL     OW19189   4.665   3.194  14.345  0.3725 -0.2747  0.2017
 2576SOL    HW119190   4.573   3.203  14.367  0.2518 -0.2337 -0.3156
 2576SOL    HW219191   4.683   3.113  14.393  0.4516 -0.2825  0.1596
 2577SOL     OW19192   2.925   1.486   6.731  0.4757 -0.2850  0.1411
 2577SOL    HW119193   2.873   1.566   6.739 -0.1727 -0.7663  0.6460
 2577SOL    HW219194   2.930   1.494   6.636  2.4338 -0.5346  0.2185
 2578SOL     OW19195   0.914   4.282   1.244  0.0550 -0.0405 -0.5427
 2578SOL    HW119196   0.896   4.189   1.258  0.0941 -0.6163 -4.3886
 2578SOL    HW219197   0.879   4.295   1.156  0.4465 -0.5452 -0.7726
 2579SOL     OW19198   2.081   4.140   1.058  0.1598 -0.2379 -0.2916
 2579SOL    HW119199   2.176   4.144   1.047  0.2222 -1.5510 -0.3273
 2579SOL    HW219200   2.050   4.210   1.001  0.6581 -0.8195 -1.3011
 2580SOL     OW19201   1.164   4.585   0.028  0.1854  0.6827 -0.1803
 2580SOL    HW119202   1.079   4.542   0.022  0.8560 -0.7797  0.7096
 2580SOL    HW219203   1.164   4.643  17.650 -0.3221  1.2125  0.2166
 2581SOL     OW19204   0.126   0.212  14.611 -0.3236  0.0365 -0.4764
 2581SOL    HW119205   0.113   0.155  14.686 -0.0681  0.0890 -0.3936
 2581SOL    HW219206   0.217   0.193  14.589 -0.1332  1.3158 -0.7874
 2582SOL     OW19207   1.984   1.372   1.871  0.7943  0.8464 -0.0111
 2582SOL    HW119208   1.912   1.315   1.900  0.6671  0.3848 -1.2377
 2582SOL    HW219209   1.952   1.401   1.786 -0.2389  0.9703  0.4246
 2583SOL     OW19210   0.944   2.451   1.433 -0.3900 -0.2269  0.2463
 2583SOL    HW119211   0.888   2.376   1.411 -0.0549 -0.2091 -0.6691
 2583SOL    HW219212   0.989   2.477   1.353 -1.7778  0.4051 -0.3319
 2584SOL     OW19213   4.698   2.576   7.749 -0.4686 -0.2021  0.2072
 2584SOL    HW119214   4.697   2.515   7.824  0.9762  0.7934  1.0542
 2584SOL    HW219215   4.719   2.657   7.796 -1.7000  0.9074 -1.1782
 2585SOL     OW19216   2.999   4.405   8.704 -0.3978  0.2511  0.2071
 2585SOL    HW119217   2.951   4.465   8.762 -0.6377 -1.8109  2.1668
 2585SOL    HW219218   2.996   4.324   8.755  0.1689  0.7959  1.1100
 2586SOL     OW19219   3.120   3.086   5.834  0.5519 -0.2894  0.3675
 2586SOL    HW119220   3.102   3.146   5.907 -1.2938 -0.8093  0.3591
 2586SOL    HW219221   3.185   3.033   5.880  1.1941  1.1446  1.1337
 2587SOL     OW19222   1.379   2.609  12.703  0.6357  0.2783  0.2283
 2587SOL    HW119223   1.452   2.640  12.756 -0.6349  2.1207  0.8922
 2587SOL    HW219224   1.435   2.565  12.639 -0.0283 -0.2393  0.0016
 2588SOL     OW19225   1.399   3.188  10.293 -0.4161 -0.6897 -0.1209
 2588SOL    HW119226   1.354   3.133  10.229  0.7122 -3.2989  1.3405
 2588SOL    HW219227   1.490   3.174  10.267 -0.6318 -1.9587 -0.1999
 2589SOL     OW19228   0.952   1.400   3.265  0.8765 -0.3692 -0.3119
 2589SOL    HW119229   0.949   1.478   3.210  0.0703 -0.9749 -1.1386
 2589SOL    HW219230   0.878   1.416   3.325 -2.1879 -1.2570 -3.8496
 2590SOL     OW19231   4.629   1.854   3.894 -0.0543  0.2248  0.2284
 2590SOL    HW119232   4.699   1.916   3.913 -2.2291  2.3473  1.2652
 2590SOL    HW219233   4.669   1.778   3.936 -2.2533 -0.6295  0.7616
 2591SOL     OW19234   3.171   1.689   4.091 -0.0993  0.3780  0.1962
 2591SOL    HW119235   3.232   1.755   4.122  0.4419 -0.4320  0.8629
 2591SOL    HW219236   3.195   1.692   3.999 -0.9112 -0.0969 -0.0383
 2592SOL     OW19237   0.480   3.144  12.495 -0.3350 -0.3692  0.1018
 2592SOL    HW119238   0.516   3.217  12.444 -0.8224 -1.2097 -1.4546
 2592SOL    HW219239   0.549   3.079  12.484 -0.7606 -0.9927  1.1005
 2593SOL     OW19240   0.710   1.611   8.135  0.3284 -0.2437  0.1384
 2593SOL    HW119241   0.796   1.615   8.178 -1.2120  0.9716  3.0861
 2593SOL    HW219242   0.681   1.701   8.150 -0.0820 -0.4751  0.7323
 2594SOL     OW19243   0.414   0.723  10.850  0.2334 -0.2799  0.3516
 2594SOL    HW119244   0.430   0.783  10.777 -3.6236  0.2166 -0.0960
 2594SOL    HW219245   0.476   0.653  10.832  0.1765 -0.4824  0.9712
 2595SOL     OW19246   2.445   0.845   4.337 -0.5110 -0.6236  0.1083
 2595SOL    HW119247   2.469   0.785   4.408  1.1074  0.2843  0.3216
 2595SOL    HW219248   2.352   0.823   4.329  0.0031 -2.2410 -1.4962
 2596SOL     OW19249   2.805   2.024   7.076 -0.1702 -0.4707  0.8738
 2596SOL    HW119250   2.716   2.036   7.044  0.6058  1.1051 -0.7037
 2596SOL    HW219251   2.821   1.932   7.096  2.9058 -0.1816 -0.3007
 2597SOL     OW19252   2.102   4.151  12.443  0.0081  0.3214 -0.0743
 2597SOL    HW119253   2.143   4.209  12.379 -1.0122  1.4250  0.2622
 2597SOL    HW219254   2.011   4.181  12.442  0.1965  0.8171 -2.5917
 2598SOL     OW19255   4.345   3.357   8.328  0.2198  0.0353  0.4679
 2598SOL    HW119256   4.323   3.447   8.305  0.3928 -0.3162 -1.1378
 2598SOL    HW219257   4.257   3.334   8.358  1.1300 -1.2894  2.1136
 2599SOL     OW19258   2.081   2.795   3.315 -0.4277  0.2598  0.8131
 2599SOL    HW119259   2.123   2.873   3.351 -0.1409  0.5429 -0.1496
 2599SOL    HW219260   1.991   2.805   3.347 -1.0144 -0.0078 -0.7499
 2600SOL     OW19261   3.072   3.117   6.245 -0.1609 -0.2255  0.3907
 2600SOL    HW119262   3.131   3.176   6.199  0.1693 -1.6211 -0.9714
 2600SOL    HW219263   3.032   3.076   6.169 -1.5008  2.9228 -0.5661
 2601SOL     OW19264   3.804   3.626   8.683 -0.1034  0.4170  0.7076
 2601SOL    HW119265   3.771   3.706   8.721  0.4028  1.4388 -0.9968
 2601SOL    HW219266   3.844   3.652   8.600  0.3708  0.6255  0.9983
 2602SOL     OW19267   2.376   3.131   4.112  0.1553  0.3492 -0.2212
 2602SOL    HW119268   2.445   3.126   4.178 -0.1493  0.5209  0.1103
 2602SOL    HW219269   2.346   3.040   4.114 -1.8560  0.9958 -1.1681
 2603SOL     OW19270   2.384   1.628   7.790 -0.4450 -0.3247 -0.2722
 2603SOL    HW119271   2.367   1.589   7.876 -0.8377 -1.6246 -0.9400
 2603SOL    HW219272   2.396   1.548   7.740  1.0147 -0.6391  0.5846
 2604SOL     OW19273   2.838   4.445   6.654 -0.1125 -0.7434 -0.2775
 2604SOL    HW119274   2.750   4.482   6.640 -0.3401 -0.4158  2.0777
 2604SOL    HW219275   2.826   4.359   6.693 -3.1575  0.3337  1.1545
 2605SOL     OW19276   2.350   3.665  14.237  0.0166  0.2935  0.4956
 2605SOL    HW119277   2.319   3.642  14.324  1.8548  1.7047  1.5445
 2605SOL    HW219278   2.406   3.739  14.262 -0.1149  0.3109  0.7395
 2606SOL     OW19279   2.911   0.201   6.286 -0.5965  0.4682  0.6969
 2606SOL    HW119280   2.911   0.118   6.335 -2.2624  2.0218  3.3141
 2606SOL    HW219281   2.959   0.189   6.204 -1.6715 -2.2749  0.4796
 2607SOL     OW19282   2.592   2.904   3.479 -0.1852  0.8427 -0.0113
 2607SOL    HW119283   2.578   2.941   3.566  1.2153 -1.6252  1.2455
 2607SOL    HW219284   2.641   2.824   3.499  1.2633  1.7240 -0.0537
 2608SOL     OW19285   4.418   2.621   1.367 -0.1190  0.9644  0.0663
 2608SOL    HW119286   4.380   2.708   1.369 -0.9441  0.5830  0.8052
 2608SOL    HW219287   4.511   2.636   1.388 -0.0155  2.7554 -1.7134
 2609SOL     OW19288   1.122   4.092   7.990 -0.2943  0.0135  0.1073
 2609SOL    HW119289   1.051   4.150   7.961  0.8067  2.4938  2.4835
 2609SOL    HW219290   1.196   4.151   8.001  0.7146 -0.7096 -2.6355
 2610SOL     OW19291   1.654   2.418   8.198  0.1003  0.0362  0.1853
 2610SOL    HW119292   1.723   2.351   8.196  0.8409  0.8912 -2.9041
 2610SOL    HW219293   1.584   2.368   8.239 -0.2235 -0.2591 -0.7234
 2611SOL     OW19294   1.790   4.077   5.664 -0.2524 -0.5194 -0.3405
 2611SOL    HW119295   1.858   4.118   5.611  0.5838  1.0720  1.9251
 2611SOL    HW219296   1.839   4.024   5.727 -1.7835 -0.5420  0.8210
 2612SOL     OW19297   1.603   1.729  14.469  0.1649 -0.3402 -0.5181
 2612SOL    HW119298   1.647   1.688  14.544 -0.7536 -1.1074 -0.4067
 2612SOL    HW219299   1.682   1.731  14.414  0.2428 -1.8098 -0.4793
 2613SOL     OW19300   0.470   2.259   8.879 -0.0410  0.0652 -0.4954
 2613SOL    HW119301   0.524   2.181   8.889 -0.7052 -0.2695  0.4512
 2613SOL    HW219302   0.467   2.300   8.966  2.2053  1.5016 -1.0908
 2614SOL     OW19303   0.336   3.899   4.444 -0.3873 -0.2987 -0.0387
 2614SOL    HW119304   0.273   3.839   4.405 -1.2229  0.8309 -0.4306
 2614SOL    HW219305   0.407   3.894   4.380 -1.3269 -3.8650 -0.8003
 2615SOL     OW19306   0.522   2.021   3.205  0.0147  0.0456 -0.4050
 2615SOL    HW119307   0.610   2.037   3.240 -0.6646  0.1819  1.2608
 2615SOL    HW219308   0.504   1.934   3.240  1.7616 -1.0202 -2.1309
 2616SOL     OW19309   2.124   0.023   0.756 -0.2730  0.6595 -0.5303
 2616SOL    HW119310   2.181   4.672   0.771  0.2070  1.0887 -0.2108
 2616SOL    HW219311   2.169   0.074   0.689 -0.3952  0.9521 -0.3922
 2617SOL     OW19312   2.772   1.841   3.135  0.0076 -0.3577  0.8555
 2617SOL    HW119313   2.853   1.878   3.101  0.3423 -1.6123  0.3016
 2617SOL    HW219314   2.806   1.781   3.201 -0.4655  0.3246  1.7268
 2618SOL     OW19315   4.357   0.986  12.249 -0.0919  0.2851  0.2320
 2618SOL    HW119316   4.341   0.907  12.301 -1.2739 -1.6360 -3.0859
 2618SOL    HW219317   4.404   1.043  12.311 -0.6200  0.6031  0.3423
 2619SOL     OW19318   2.551   4.450   6.944  0.3295  0.1038  0.2275
 2619SOL    HW119319   2.539   4.447   7.039  1.9091 -0.8344  0.3957
 2619SOL    HW219320   2.606   4.372   6.942 -0.4809 -0.4901  1.2012
 2620SOL     OW19321   1.919   4.046  13.890 -0.1704  0.6053 -0.0264
 2620SOL    HW119322   1.911   4.095  13.972  0.0260  0.1436  0.2709
 2620SOL    HW219323   1.828   4.033  13.863  0.0451 -1.0557  0.0771
 2621SOL     OW19324   4.540   3.213  12.344  0.4823  0.2608  0.1383
 2621SOL    HW119325   4.569   3.188  12.256  0.4043 -1.6527  0.6543
 2621SOL    HW219326   4.453   3.179  12.323  0.4814  1.2086 -1.3781
 2622SOL     OW19327   3.190   3.103  14.046  0.1161 -0.5744 -0.1670
 2622SOL    HW119328   3.263   3.127  13.989 -1.2758  0.1450 -1.6444
 2622SOL    HW219329   3.110   3.133  14.003 -1.1295 -0.7005  2.0545
 2623SOL     OW19330   0.720   4.163  12.560  0.5613  0.6508 -0.3385
 2623SOL    HW119331   0.645   4.202  12.605 -0.2457  1.0081 -1.9855
 2623SOL    HW219332   0.788   4.202  12.615  1.4526  0.4380 -1.2851
 2624SOL     OW19333   4.451   3.230  13.818 -0.1092  0.7527  0.3660
 2624SOL    HW119334   4.399   3.209  13.741 -0.5323 -2.0342  1.4059
 2624SOL    HW219335   4.521   3.173  13.788  0.5744 -0.3372  3.9774
 2625SOL     OW19336   0.473   4.035   3.524  0.2444  0.3113  0.2197
 2625SOL    HW119337   0.514   3.970   3.468  1.9721  0.7333  1.0008
 2625SOL    HW219338   0.378   4.033   3.515  0.4066  1.0220 -1.5398
 2626SOL     OW19339   3.616   3.107   4.622  1.0908  0.1640  0.1352
 2626SOL    HW119340   3.572   3.165   4.561  2.0570  0.8387  0.0720
 2626SOL    HW219341   3.705   3.142   4.624  0.9148  0.6658 -0.7677
 2627SOL     OW19342   4.651   3.867  10.209 -0.2043 -0.0199  0.2832
 2627SOL    HW119343   4.637   3.869  10.304 -0.3194 -2.3679  0.3057
 2627SOL    HW219344   4.716   3.797  10.203 -2.0176 -1.4269 -2.5993
 2628SOL     OW19345   0.437   4.679   9.116  0.4852  0.2079  0.1006
 2628SOL    HW119346   0.417   0.028   9.174 -1.5791 -0.4642  0.2487
 2628SOL    HW219347   0.349   4.642   9.112  1.0099 -0.9945 -0.2923
 2629SOL     OW19348   4.063   2.772   5.787  0.0993  0.1988 -0.1418
 2629SOL    HW119349   3.979   2.753   5.745 -1.2381  1.7172  1.9073
 2629SOL    HW219350   4.098   2.823   5.714 -1.8687 -1.3068 -2.1180
 2630SOL     OW19351   0.882   2.717   5.085 -0.3640  0.2396  0.0477
 2630SOL    HW119352   0.790   2.706   5.061  0.1544  0.5344 -2.1401
 2630SOL    HW219353   0.878   2.764   5.168  1.8194 -0.3455  0.4782
 2631SOL     OW19354   0.940   2.061   1.790 -0.2934 -0.0042 -0.3298
 2631SOL    HW119355   0.878   2.020   1.851  0.8257 -1.0319  0.1262
 2631SOL    HW219356   0.887   2.065   1.711  0.6637 -0.6666 -1.0144
 2632SOL     OW19357   0.308   0.741   7.006 -0.6839 -0.1621  0.2423
 2632SOL    HW119358   0.313   0.788   7.089 -0.6410 -0.3998  0.3753
 2632SOL    HW219359   0.379   0.791   6.965 -0.5877 -0.8038 -0.3729
 2633SOL     OW19360   3.178   1.646   0.906 -0.0260  0.2511  0.0836
 2633SOL    HW119361   3.213   1.583   0.843 -3.4795 -2.6907  1.1089
 2633SOL    HW219362   3.087   1.651   0.879 -0.0097 -2.1673 -0.4102
 2634SOL     OW19363   1.879   1.760   4.793 -0.2260  1.3382  0.3548
 2634SOL    HW119364   1.802   1.753   4.848  0.5885 -0.9930  1.1959
 2634SOL    HW219365   1.857   1.837   4.741 -3.4292 -0.8007 -1.4914
 2635SOL     OW19366   4.656   0.111  10.816 -0.0287  0.1675  0.0119
 2635SOL    HW119367   4.610   0.195  10.816 -1.5244 -0.6401  0.9366
 2635SOL    HW219368   0.019   0.142  10.792  1.1147 -3.1823 -0.1529
 2636SOL     OW19369   1.484   4.636  12.087  0.1631 -0.1837 -0.3952
 2636SOL    HW119370   1.527   4.623  12.171  1.0355 -2.7870 -1.2455
 2636SOL    HW219371   1.404   4.589  12.110 -0.3709  0.8599 -0.1132
 2637SOL     OW19372   1.009   2.634   9.434  0.3273  0.3162 -0.9985
 2637SOL    HW119373   1.043   2.600   9.517  1.0016 -0.7923 -1.7258
 2637SOL    HW219374   0.924   2.664   9.464  0.7041 -0.1862  0.5875
 2638SOL     OW19375   4.612   3.346   8.312  0.2286 -0.2220  0.7110
 2638SOL    HW119376   4.518   3.356   8.323  0.0074 -2.6077  1.0844
 2638SOL    HW219377   4.642   3.421   8.363  0.6315 -1.3040  2.0985
 2639SOL     OW19378   4.220   4.589  12.560 -0.0694  0.2775  0.0621
 2639SOL    HW119379   4.263   4.675  12.565 -2.1503  1.2753  0.6134
 2639SOL    HW219380   4.294   4.532  12.539 -0.0934  0.7316 -1.3037
 2640SOL     OW19381   1.987   0.118  11.073  0.1510  0.6874  0.0563
 2640SOL    HW119382   1.913   0.161  11.115 -0.8507  1.7283 -2.7576
 2640SOL    HW219383   1.942   0.043  11.035  1.5096  0.2716 -0.7455
 2641SOL     OW19384   1.948   4.047   0.086  0.7850  0.1933 -0.2454
 2641SOL    HW119385   1.978   4.114   0.148  1.6910  0.1520 -0.6451
 2641SOL    HW219386   2.023   3.991   0.065  0.2821 -0.1246 -1.2058
 2642SOL     OW19387   2.392   3.196   5.946 -0.2337 -0.7048 -0.0004
 2642SOL    HW119388   2.344   3.209   6.028 -0.7694  2.8896 -0.8641
 2642SOL    HW219389   2.323   3.144   5.905 -1.6083 -0.0532  1.4867
 2643SOL     OW19390   0.660   2.022  10.298 -0.0498  0.2454 -0.4880
 2643SOL    HW119391   0.720   2.092  10.324  1.1358 -0.8685 -0.2261
 2643SOL    HW219392   0.581   2.057  10.339  0.0414  0.0952 -0.1801
 2644SOL     OW19393   4.374   0.957   9.944  0.1520  0.1973  0.7211
 2644SOL    HW119394   4.315   0.881   9.947 -1.1739  1.1350 -1.0678
 2644SOL    HW219395   4.452   0.909   9.918  0.1462  1.2482 -1.2390
 2645SOL     OW19396   2.912   1.303  14.956  0.3014 -0.5329  0.2171
 2645SOL    HW119397   2.935   1.393  14.981  0.9330 -0.8333  0.7353
 2645SOL    HW219398   2.896   1.259  15.040  0.9960  1.0134  1.1629
 2646SOL     OW19399   0.224   2.246   6.124 -0.3191 -0.5367  0.3348
 2646SOL    HW119400   0.206   2.152   6.128 -1.5548 -0.3354 -0.5759
 2646SOL    HW219401   0.313   2.241   6.090  0.3495 -0.5570  2.0713
 2647SOL     OW19402   1.923   4.586   7.272 -0.4938  0.7670  0.2210
 2647SOL    HW119403   1.985   4.570   7.200  0.3280  3.6335  0.2992
 2647SOL    HW219404   1.992   4.568   7.336  0.3597 -0.7750 -1.1259
 2648SOL     OW19405   2.346   3.855   2.720 -0.3165 -0.1794  0.2937
 2648SOL    HW119406   2.358   3.776   2.667 -1.0359  0.2545 -0.5306
 2648SOL    HW219407   2.353   3.923   2.652  0.3952 -2.1584 -1.6143
 2649SOL     OW19408   1.040   2.019   8.982  0.3064 -0.5014 -0.2476
 2649SOL    HW119409   1.048   1.928   9.011 -1.1537  0.0617  1.9389
 2649SOL    HW219410   0.949   2.025   9.010  0.6195 -0.8076  0.8282
 2650SOL     OW19411   2.690   1.943  15.319  0.2997 -0.2400 -0.1710
 2650SOL    HW119412   2.751   1.977  15.384 -0.8103 -0.5800  1.0361
 2650SOL    HW219413   2.656   2.025  15.282 -1.3201 -0.6533  0.4100
 2651SOL     OW19414   1.614   4.341   4.543 -0.3487 -0.0683  0.3371
 2651SOL    HW119415   1.549   4.411   4.533  1.3167  1.7701  2.4075
 2651SOL    HW219416   1.661   4.366   4.463 -0.9125  0.3069  0.1153
 2652SOL     OW19417   3.297   2.642   2.853 -0.8271  0.2249  0.0392
 2652SOL    HW119418   3.212   2.605   2.877 -0.1842 -1.0618  0.3482
 2652SOL    HW219419   3.318   2.696   2.929 -0.8996 -0.3633  0.4780
 2653SOL     OW19420   4.017   2.462  12.842  0.2294  0.2640  0.4402
 2653SOL    HW119421   3.939   2.451  12.897  1.5033  1.0549  2.3656
 2653SOL    HW219422   4.054   2.375  12.855 -0.8412  0.4185  4.4261
 2654SOL     OW19423   1.664   3.686   5.690 -0.2110 -0.2594  0.0580
 2654SOL    HW119424   1.672   3.591   5.675  1.6146  0.0628 -0.9454
 2654SOL    HW219425   1.681   3.704   5.782  0.2063  0.2497 -0.1232
 2655SOL     OW19426   2.328   3.511   5.500 -0.1493  0.1376  0.4953
 2655SOL    HW119427   2.408   3.462   5.519 -0.5175 -0.0897  1.4807
 2655SOL    HW219428   2.283   3.452   5.439 -0.5480 -0.2812  1.1832
 2656SOL     OW19429   3.938   1.172   8.077  0.0723 -0.0278 -0.1150
 2656SOL    HW119430   3.957   1.101   8.016  2.7786 -0.2413  1.0048
 2656SOL    HW219431   3.872   1.218   8.025  0.8731  0.7630 -0.4309
 2657SOL     OW19432   1.186   2.360  13.944 -0.1911 -0.4048 -1.0506
 2657SOL    HW119433   1.197   2.401  14.030  0.1471 -0.8937 -0.8567
 2657SOL    HW219434   1.241   2.412  13.885 -0.1537  0.9149  0.1595
 2658SOL     OW19435   0.083   0.948   4.912 -0.4700  0.1733  0.8304
 2658SOL    HW119436   0.044   1.033   4.893 -0.2870  0.2774  0.9243
 2658SOL    HW219437   0.089   0.918   4.821  0.1425  0.7305  0.6889
 2659SOL     OW19438   2.940   3.466   8.367 -0.6842  0.1454  0.1376
 2659SOL    HW119439   2.912   3.387   8.320 -2.6353  0.1545  1.3150
 2659SOL    HW219440   2.869   3.495   8.424 -0.2824 -1.1331  1.2841
 2660SOL     OW19441   4.148   4.343  16.390 -0.0481  0.2270  0.0477
 2660SOL    HW119442   4.187   4.306  16.311 -0.2199 -0.6356  0.3682
 2660SOL    HW219443   4.116   4.423  16.349 -1.5456  0.1185  0.9846
 2661SOL     OW19444   1.487   1.888   5.411 -0.0207 -0.5646 -0.2304
 2661SOL    HW119445   1.497   1.898   5.506  0.9878 -0.9534 -0.2962
 2661SOL    HW219446   1.531   1.968   5.382 -1.1318 -0.4516 -1.5736
 2662SOL     OW19447   0.162   1.193  14.016 -0.3846 -0.3147 -0.1337
 2662SOL    HW119448   0.070   1.209  13.997 -0.6852 -2.2782 -0.2685
 2662SOL    HW219449   0.166   1.265  14.079 -1.2692 -0.1277 -0.2957
 2663SOL     OW19450   4.590   2.936   3.481  0.4858  0.4083  0.4618
 2663SOL    HW119451   4.522   2.893   3.533  2.3835  0.0913  2.6896
 2663SOL    HW219452   4.648   2.864   3.458 -0.1286 -0.1501  0.6615
 2664SOL     OW19453   1.247   1.597  17.528 -0.4918  0.6501  0.0427
 2664SOL    HW119454   1.153   1.596  17.511 -0.6304  0.9237  0.7656
 2664SOL    HW219455   1.261   1.510  17.492 -3.1890  0.5532 -0.7427
 2665SOL     OW19456   0.254   2.487   4.058 -0.0175  0.3534 -0.0816
 2665SOL    HW119457   0.248   2.399   4.094  2.3070  0.5580  0.8102
 2665SOL    HW219458   0.169   2.490   4.014 -1.2704  1.5438  2.4392
 2666SOL     OW19459   1.630   1.568   6.275  0.2495 -0.4038  0.9850
 2666SOL    HW119460   1.556   1.624   6.252 -0.3854 -0.8789  1.8564
 2666SOL    HW219461   1.666   1.619   6.348  2.2779 -1.4412  0.7102
 2667SOL     OW19462   0.910   2.260   6.432  0.8387 -0.2789 -0.1500
 2667SOL    HW119463   0.980   2.326   6.427  0.6797 -0.0127  1.1173
 2667SOL    HW219464   0.832   2.308   6.404 -1.2245 -3.1378  0.7722
 2668SOL     OW19465   1.283   2.270   1.276 -0.0118  0.2923 -0.5909
 2668SOL    HW119466   1.341   2.199   1.248 -1.0133 -0.0977 -1.6706
 2668SOL    HW219467   1.261   2.311   1.193 -2.2896 -1.3816 -0.8121
 2669SOL     OW19468   2.218   2.534   4.781  0.4603 -0.7267 -0.3910
 2669SOL    HW119469   2.314   2.540   4.780  0.2629  2.5333  0.8258
 2669SOL    HW219470   2.200   2.607   4.722  0.8771 -0.3896 -0.0966
 2670SOL     OW19471   0.447   3.277   7.571  0.3201 -0.5481  0.2881
 2670SOL    HW119472   0.504   3.214   7.527  0.2085  0.5613 -1.4730
 2670SOL    HW219473   0.472   3.262   7.662  0.5839 -0.2060  0.2745
 2671SOL     OW19474   4.233   0.215   3.746 -0.2410 -0.3082  0.5575
 2671SOL    HW119475   4.213   0.218   3.840  1.2044 -0.5364  0.8695
 2671SOL    HW219476   4.309   0.158   3.754 -0.6260 -0.5251  2.7359
 2672SOL     OW19477   3.817   0.742   6.646 -0.4435 -0.0556  0.9822
 2672SOL    HW119478   3.736   0.792   6.651  0.8596  2.0525  0.8268
 2672SOL    HW219479   3.873   0.807   6.689  1.3048 -2.0815  1.7966
 2673SOL     OW19480   1.897   3.097   8.508  0.0772 -0.1931 -0.3138
 2673SOL    HW119481   1.823   3.117   8.452 -0.1622  1.2275  0.5231
 2673SOL    HW219482   1.865   3.122   8.595 -1.1346 -2.3239 -0.1445
 2674SOL     OW19483   0.069   2.787   2.569  0.5029 -0.4339 -0.4554
 2674SOL    HW119484   0.116   2.823   2.645  2.1806 -1.7861 -0.8465
 2674SOL    HW219485   0.001   2.736   2.613  1.2040 -0.5797  0.4741
 2675SOL     OW19486   0.709   0.547   4.237  0.4493  0.1073  0.3773
 2675SOL    HW119487   0.725   0.470   4.291  2.5273  0.5472  0.3663
 2675SOL    HW219488   0.793   0.591   4.244 -0.3233  1.4367  1.1072
 2676SOL     OW19489   2.916   4.437   5.068 -0.2089 -0.6867  0.3787
 2676SOL    HW119490   2.891   4.498   5.138  1.4769  2.5084 -1.8066
 2676SOL    HW219491   2.994   4.482   5.035 -1.6474  0.1032 -1.9682
 2677SOL     OW19492   2.453   4.175   8.659 -0.0773  0.4546 -0.2891
 2677SOL    HW119493   2.434   4.082   8.648 -0.2422  0.4153  0.3197
 2677SOL    HW219494   2.402   4.187   8.739 -0.9849 -2.5643 -0.4083
 2678SOL     OW19495   2.654   3.847   7.780  0.1560 -0.5053  0.4114
 2678SOL    HW119496   2.712   3.824   7.707  1.2448 -0.5161  1.2752
 2678SOL    HW219497   2.709   3.919   7.811  0.3628  0.8598 -3.1253
 2679SOL     OW19498   2.881   1.185   3.609  0.0293 -0.3119 -0.4284
 2679SOL    HW119499   2.871   1.172   3.703  2.3475  1.1473  0.0411
 2679SOL    HW219500   2.826   1.262   3.593 -0.0473 -0.0086  1.2974
 2680SOL     OW19501   4.209   3.889   7.605 -0.3070 -0.6998 -0.2713
 2680SOL    HW119502   4.297   3.928   7.604  0.1610 -1.7833 -1.0369
 2680SOL    HW219503   4.221   3.814   7.547  0.4256 -1.7702  1.2821
 2681SOL     OW19504   1.725   0.896   9.265  0.3063  0.1799  0.3057
 2681SOL    HW119505   1.720   0.826   9.330 -0.5465  2.4821  2.6999
 2681SOL    HW219506   1.761   0.969   9.315  0.6161  1.1187 -1.2596
 2682SOL     OW19507   4.044   0.249   5.771 -0.2549  0.1700 -0.0400
 2682SOL    HW119508   4.136   0.225   5.764  0.2229  2.4024 -1.3132
 2682SOL    HW219509   4.015   0.159   5.781 -0.4912  0.2296 -0.1712
 2683SOL     OW19510   1.435   0.055  13.333  0.1649 -0.2853 -0.0157
 2683SOL    HW119511   1.530   0.053  13.320 -0.0289  1.9849 -1.7205
 2683SOL    HW219512   1.413   0.145  13.309 -0.2741 -0.0167  1.3702
 2684SOL     OW19513   3.450   2.578   5.745 -0.1820 -0.4728 -0.0458
 2684SOL    HW119514   3.404   2.628   5.678 -0.8057  0.6093  1.1839
 2684SOL    HW219515   3.404   2.608   5.824 -0.7363  0.6897 -0.8098
 2685SOL     OW19516   2.133   2.013   2.527 -0.6330 -0.2325  0.2530
 2685SOL    HW119517   2.160   2.102   2.549 -0.5610  0.1010 -1.1825
 2685SOL    HW219518   2.117   2.011   2.433  0.7144  2.2455 -0.0138
 2686SOL     OW19519   1.999   3.130  11.141  0.7970  0.3371  0.1177
 2686SOL    HW119520   1.937   3.196  11.171  0.6403  0.6047 -0.8194
 2686SOL    HW219521   1.999   3.144  11.047 -1.2915 -3.9873 -0.5401
 2687SOL     OW19522   3.064   3.468   7.083  0.4418 -0.1586  0.4215
 2687SOL    HW119523   3.130   3.474   7.014 -0.8455  0.4264 -0.7645
 2687SOL    HW219524   3.087   3.550   7.125  0.9336  0.5318 -1.2146
 2688SOL     OW19525   0.927   0.029   7.513  0.0757  0.2258 -0.1083
 2688SOL    HW119526   0.905   4.666   7.480 -1.5814  0.4625  0.3815
 2688SOL    HW219527   0.952   4.723   7.600 -4.2571 -0.8642  0.7492
 2689SOL     OW19528   3.570   1.540   9.035  0.6853  0.0859  0.7565
 2689SOL    HW119529   3.635   1.470   9.048 -0.0902 -0.5086  1.4958
 2689SOL    HW219530   3.584   1.593   9.113 -0.2945  2.0376 -0.4102
 2690SOL     OW19531   2.466   1.188   6.224 -0.0593  0.2257  0.4651
 2690SOL    HW119532   2.457   1.276   6.187  2.6362 -0.4183 -1.7070
 2690SOL    HW219533   2.518   1.139   6.161  0.3286 -1.3268  2.0115
 2691SOL     OW19534   1.636   3.529  17.446 -0.6670 -0.7571  0.6464
 2691SOL    HW119535   1.560   3.479  17.476 -0.1066 -1.6567  0.5679
 2691SOL    HW219536   1.639   3.594  17.517  2.4815  1.4244 -1.5158
 2692SOL     OW19537   2.994   3.901   8.147  0.5850 -0.3330 -0.1010
 2692SOL    HW119538   3.065   3.938   8.200  1.6551  0.8449 -2.3467
 2692SOL    HW219539   2.919   3.959   8.164  0.1533 -0.5421 -1.2768
 2693SOL     OW19540   1.126   3.056   9.329 -0.5714  0.1721  0.1805
 2693SOL    HW119541   1.172   2.975   9.351 -0.3350  0.2492 -0.0189
 2693SOL    HW219542   1.194   3.124   9.328  0.4138 -0.8421 -2.6295
 2694SOL     OW19543   3.628   2.239  11.365  0.6377 -0.2027  0.3124
 2694SOL    HW119544   3.580   2.300  11.421  1.1730 -1.0857  1.7227
 2694SOL    HW219545   3.560   2.173  11.356  0.5903 -0.1207  0.0663
 2695SOL     OW19546   0.461   0.798   3.894 -0.4163  0.2504  0.1359
 2695SOL    HW119547   0.495   0.820   3.981 -0.1512 -0.3404  0.1821
 2695SOL    HW219548   0.500   0.712   3.875 -2.1399 -0.8185  1.3792
 2696SOL     OW19549   1.971   3.062   4.576 -0.2721 -0.1936  0.1525
 2696SOL    HW119550   1.884   3.103   4.579  0.3299  0.9848  1.3163
 2696SOL    HW219551   1.994   3.068   4.484 -0.1604 -1.3266  0.0999
 2697SOL     OW19552   1.721   3.521   6.862  0.1393  0.3234 -0.1103
 2697SOL    HW119553   1.639   3.472   6.869  0.2154  0.2934  0.5286
 2697SOL    HW219554   1.688   3.610   6.852  0.0150  0.4688  1.6601
 2698SOL     OW19555   3.976   0.301   7.548  0.1078 -0.1534 -0.2396
 2698SOL    HW119556   3.976   0.217   7.502 -3.7138 -0.2579 -0.1057
 2698SOL    HW219557   3.903   0.339   7.498 -0.6170  0.0404  0.9603
 2699SOL     OW19558   2.652   1.357   4.304 -0.0321 -0.3094  0.3174
 2699SOL    HW119559   2.570   1.326   4.263  0.3991 -1.7202  0.5226
 2699SOL    HW219560   2.711   1.294   4.263  0.2221 -0.5799  1.1059
 2700SOL     OW19561   3.942   4.534  17.642 -0.2397 -0.3335  0.1304
 2700SOL    HW119562   3.922   4.606   0.004  1.9668  1.8669 -1.8067
 2700SOL    HW219563   3.857   4.523  17.599 -0.1497 -1.6790  0.3158
 2701SOL     OW19564   0.488   3.501  15.919 -0.3462  0.1127  0.3451
 2701SOL    HW119565   0.449   3.437  15.860 -0.2076  1.0424 -0.7645
 2701SOL    HW219566   0.425   3.509  15.991 -0.8481  0.6148 -0.1490
 2702SOL     OW19567   1.238   1.626   8.562 -0.1478  0.0652  0.2046
 2702SOL    HW119568   1.150   1.592   8.543  0.9375 -3.2287  1.1195
 2702SOL    HW219569   1.260   1.655   8.473 -2.8474 -1.6173 -1.0476
 2703SOL     OW19570   3.278   0.825   4.285  0.7647 -0.2120 -0.4036
 2703SOL    HW119571   3.191   0.834   4.324  0.3193  0.1478 -1.4718
 2703SOL    HW219572   3.287   0.915   4.254  1.0104  1.0281  3.2712
 2704SOL     OW19573   1.054   0.080   3.055 -0.1944 -0.2626 -0.1095
 2704SOL    HW119574   1.056   0.155   3.114  2.3705  0.1729 -0.7575
 2704SOL    HW219575   1.140   0.067   3.016 -0.3424 -0.9323 -0.2142
 2705SOL     OW19576   3.312   1.664  15.597 -0.5960 -0.3327  0.1266
 2705SOL    HW119577   3.361   1.717  15.660 -1.0786 -1.2009  1.2442
 2705SOL    HW219578   3.225   1.659  15.638 -0.6959 -3.2845 -0.4232
 2706SOL     OW19579   2.373   4.642   1.071 -0.2303  0.0909 -0.3419
 2706SOL    HW119580   2.322   4.722   1.082  1.0703  0.8877 -0.0496
 2706SOL    HW219581   2.420   4.667   0.991  0.1455  1.7958  0.4031
 2707SOL     OW19582   4.617   2.572  12.291  0.2747 -0.4369  0.7761
 2707SOL    HW119583   4.530   2.612  12.295  0.6710  0.7585 -2.3485
 2707SOL    HW219584   4.651   2.577  12.381  0.8808  0.6531  0.4899
 2708SOL     OW19585   1.791   2.352   6.736  0.0647  0.1780 -0.1581
 2708SOL    HW119586   1.764   2.276   6.786 -0.2344  0.4569  0.1034
 2708SOL    HW219587   1.729   2.423   6.754 -1.7933 -0.8334 -2.6446
 2709SOL     OW19588   0.179   3.477   7.432  0.1174  0.0160  0.4257
 2709SOL    HW119589   0.225   3.556   7.461  0.8979 -0.7486  1.2907
 2709SOL    HW219590   0.150   3.446   7.518 -0.0114 -1.2153 -0.0598
 2710SOL     OW19591   2.235   0.240   6.166 -0.4954  0.2532  0.2575
 2710SOL    HW119592   2.315   0.281   6.133 -0.6289 -0.7800 -1.3387
 2710SOL    HW219593   2.232   0.173   6.098  0.1480  0.1283  0.3469
 2711SOL     OW19594   0.566   1.501   2.618 -0.0422  0.4173 -0.2713
 2711SOL    HW119595   0.614   1.511   2.536  3.8823  0.5286  2.0324
 2711SOL    HW219596   0.620   1.536   2.689 -1.0269 -0.5364  0.9594
 2712SOL     OW19597   3.374   3.841   3.338 -0.3223 -0.0009  0.3347
 2712SOL    HW119598   3.315   3.916   3.325 -0.0139 -0.0220 -1.1492
 2712SOL    HW219599   3.320   3.787   3.396 -0.1041 -0.1332  0.4131
 2713SOL     OW19600   1.954   1.317   3.708  0.5986  0.0345 -0.3055
 2713SOL    HW119601   1.961   1.398   3.759  1.2694 -0.6995  0.7561
 2713SOL    HW219602   1.875   1.347   3.663  0.5026 -1.2403 -0.9880
 2714SOL     OW19603   0.847   4.190   3.781  0.6900  0.1019  0.0163
 2714SOL    HW119604   0.784   4.198   3.710 -0.5834  1.4772  1.3028
 2714SOL    HW219605   0.815   4.113   3.829  1.1731  0.3339  0.7178
 2715SOL     OW19606   0.123   0.149   9.339 -0.4509 -0.5792 -0.5382
 2715SOL    HW119607   0.129   0.214   9.410  0.5678 -2.1180  0.8013
 2715SOL    HW219608   0.052   0.183   9.286 -0.6644 -0.3063 -0.0790
 2716SOL     OW19609   3.236   1.565   6.026 -0.2901 -0.0842 -0.1589
 2716SOL    HW119610   3.290   1.644   6.026 -1.1582  0.5066 -0.9154
 2716SOL    HW219611   3.297   1.506   5.981  1.9590  1.6510  0.6233
 2717SOL     OW19612   2.263   2.086   6.719  0.4486 -0.7998 -0.6101
 2717SOL    HW119613   2.184   2.134   6.692 -0.3720 -2.5961 -1.3542
 2717SOL    HW219614   2.255   2.088   6.814  1.7249 -0.3838 -0.5128
 2718SOL     OW19615   2.348   1.076   0.879 -0.2536 -1.0630  0.0001
 2718SOL    HW119616   2.373   1.070   0.971 -0.5108 -0.1091  0.1377
 2718SOL    HW219617   2.438   1.076   0.846 -1.5211  1.7679 -3.4358
 2719SOL     OW19618   2.159   4.135  13.758  0.4663  0.2250 -1.0483
 2719SOL    HW119619   2.184   4.174  13.841  1.9072  0.5031 -1.6143
 2719SOL    HW219620   2.073   4.099  13.780  0.6628  2.3384  3.1530
 2720SOL     OW19621   3.909   0.597   5.358 -0.0795  0.7180 -0.0271
 2720SOL    HW119622   3.960   0.652   5.418 -0.3843  0.9442  0.0276
 2720SOL    HW219623   3.977   0.580   5.294  0.0224  1.6898 -0.1833
 2721SOL     OW19624   4.239   2.356   1.769 -0.0828  0.4116  0.3814
 2721SOL    HW119625   4.225   2.376   1.677  1.3609 -1.1350 -0.1731
 2721SOL    HW219626   4.237   2.261   1.759 -0.8529  0.1285  3.1242
 2722SOL     OW19627   0.671   4.381   2.845  0.5359 -0.6256  0.0616
 2722SOL    HW119628   0.718   4.366   2.763 -0.2646  0.5839 -0.6164
 2722SOL    HW219629   0.631   4.295   2.857  4.1378 -2.1775  0.7260
 2723SOL     OW19630   3.085   1.356   4.987 -0.0256  0.1551 -0.2150
 2723SOL    HW119631   3.108   1.265   5.001 -0.2245  0.5808  2.8295
 2723SOL    HW219632   3.133   1.396   5.059 -0.3624  1.5805 -0.7727
 2724SOL     OW19633   2.492   3.906  17.320 -0.0056 -0.3026  0.3825
 2724SOL    HW119634   2.448   3.851  17.256 -0.0279 -1.1086  1.0981
 2724SOL    HW219635   2.568   3.851  17.340 -0.0238 -0.2797  0.5122
 2725SOL     OW19636   2.672   1.543   1.189  0.3689 -0.2552 -0.1982
 2725SOL    HW119637   2.738   1.571   1.125  0.6779  1.5329  0.9143
 2725SOL    HW219638   2.727   1.525   1.265  0.6841 -1.3969 -0.6870
 2726SOL     OW19639   0.938   3.774   2.934 -0.4716 -0.3584  0.1285
 2726SOL    HW119640   0.891   3.691   2.944 -0.9307 -0.1181 -0.0819
 2726SOL    HW219641   0.864   3.825   2.903 -1.1873 -1.6431 -0.2604
 2727SOL     OW19642   0.339   1.345   8.038 -0.1077 -0.1072 -0.5022
 2727SOL    HW119643   0.365   1.257   8.066 -1.0005 -0.6728 -1.4499
 2727SOL    HW219644   0.320   1.335   7.945 -0.8114  0.2705 -0.3987
 2728SOL     OW19645   1.888   1.305   8.744 -0.1755 -0.1605  0.4737
 2728SOL    HW119646   1.834   1.381   8.762 -0.1154  0.2044 -0.8878
 2728SOL    HW219647   1.832   1.234   8.776  0.8168 -0.0560  2.4196
 2729SOL     OW19648   1.410   3.080   8.420  0.1225 -0.1509  0.8108
 2729SOL    HW119649   1.423   2.986   8.427 -0.8796 -0.3323  0.1425
 2729SOL    HW219650   1.360   3.099   8.500  0.4377 -1.7888  1.4044
 2730SOL     OW19651   3.441   3.265   6.302 -0.4032 -0.3362  0.3654
 2730SOL    HW119652   3.402   3.200   6.242 -0.2090 -1.0208  0.9783
 2730SOL    HW219653   3.533   3.244   6.286  0.2539  1.1820  2.1703
 2731SOL     OW19654   2.179   0.503  17.096 -0.0038 -0.6702 -0.7861
 2731SOL    HW119655   2.247   0.449  17.055  1.3912  0.0615  0.6150
 2731SOL    HW219656   2.103   0.444  17.097  1.3451 -2.3751  0.9653
 2732SOL     OW19657   3.111   2.899   3.780  0.3066  0.1108 -0.3468
 2732SOL    HW119658   3.044   2.918   3.715 -0.1150 -1.2343 -0.3075
 2732SOL    HW219659   3.162   2.837   3.728  3.1864  1.5898  0.6739
 2733SOL     OW19660   0.515   3.125   2.311 -0.3795  0.6701  0.0863
 2733SOL    HW119661   0.602   3.166   2.303 -0.4658  0.6350 -1.0869
 2733SOL    HW219662   0.489   3.135   2.402  0.5118 -0.6384  0.4906
 2734SOL     OW19663   1.051   2.324   3.560 -0.0097  0.4230  0.7315
 2734SOL    HW119664   1.035   2.415   3.533  2.2882  0.5495 -0.1811
 2734SOL    HW219665   1.138   2.308   3.523  0.0894 -1.2677  1.6848
 2735SOL     OW19666   4.335   0.077  10.502  0.4159 -0.2740 -0.7689
 2735SOL    HW119667   4.416   0.092  10.552 -0.2303 -2.5700  0.9432
 2735SOL    HW219668   4.322   4.707  10.492  3.0597 -0.9836  2.4571
 2736SOL     OW19669   4.002   2.564  13.507 -0.0187  0.0504 -0.5494
 2736SOL    HW119670   3.972   2.599  13.423  1.1724 -0.3158 -1.1280
 2736SOL    HW219671   3.995   2.641  13.564  1.3822 -0.6011  0.4969
 2737SOL     OW19672   0.246   3.077  14.333  0.1891 -0.2982 -0.8601
 2737SOL    HW119673   0.279   3.114  14.414 -2.2431 -0.0346  0.0155
 2737SOL    HW219674   0.165   3.030  14.354  0.1496 -0.1499 -0.6766
 2738SOL     OW19675   3.065   2.294  14.444 -0.0103  0.0371 -0.0158
 2738SOL    HW119676   3.054   2.247  14.527 -2.6975 -0.2894 -0.5631
 2738SOL    HW219677   3.031   2.383  14.456  2.5502  0.7156  2.1992
 2739SOL     OW19678   1.168   0.817  10.520 -0.6477  0.3396  0.0009
 2739SOL    HW119679   1.264   0.818  10.517 -0.6565  1.1574  0.0403
 2739SOL    HW219680   1.154   0.873  10.596 -0.0099  2.6269 -1.5519
 2740SOL     OW19681   0.830   4.345   2.645 -0.2286 -0.6438  0.1984
 2740SOL    HW119682   0.866   4.272   2.695  1.2981  0.6163  0.9338
 2740SOL    HW219683   0.914   4.363   2.604  0.7626 -0.8025  2.1917
 2741SOL     OW19684   4.662   4.586   8.386  0.1354  0.5570  0.6359
 2741SOL    HW119685   0.001   4.574   8.315  0.9491  0.6158  1.3564
 2741SOL    HW219686   4.677   4.505   8.435 -0.8519 -0.2097 -0.3283
 2742SOL     OW19687   0.434   3.845   9.897  0.7197  0.8082 -0.0208
 2742SOL    HW119688   0.507   3.784   9.906 -0.0534  0.3504  3.4347
 2742SOL    HW219689   0.387   3.806   9.823  0.3708  2.4422 -0.6630
 2743SOL     OW19690   3.034   1.438  17.420 -0.0413 -0.1958 -0.4080
 2743SOL    HW119691   3.024   1.364  17.481 -0.9460 -0.7219 -1.1937
 2743SOL    HW219692   2.966   1.492  17.462  0.4435 -1.1239  1.6065
 2744SOL     OW19693   0.073   4.581   1.661 -0.1073 -0.0058 -0.2599
 2744SOL    HW119694   0.018   4.532   1.722  0.0333 -0.8997 -0.8482
 2744SOL    HW219695   0.010   4.600   1.590 -0.5022 -2.6308 -0.6162
 2745SOL     OW19696   4.145   2.430   8.434 -0.1051  0.1074  0.3795
 2745SOL    HW119697   4.194   2.466   8.508 -2.3334 -0.1437  1.9507
 2745SOL    HW219698   4.110   2.352   8.478 -0.1670  0.0952  0.3068
 2746SOL     OW19699   4.077   1.516   1.594  0.2244  0.1348 -0.1777
 2746SOL    HW119700   4.147   1.466   1.635  0.0413  0.6219  0.7382
 2746SOL    HW219701   4.071   1.596   1.647  0.5243  0.6692 -0.9437
 2747SOL     OW19702   1.492   1.919   1.703  0.1563  0.2582 -0.8131
 2747SOL    HW119703   1.560   1.851   1.697 -0.2756 -0.2255 -0.2537
 2747SOL    HW219704   1.512   1.959   1.787 -0.4274 -3.0980  0.9388
 2748SOL     OW19705   3.136   4.155   8.812  0.1172 -0.1557 -0.2436
 2748SOL    HW119706   3.132   4.221   8.881  0.2841 -1.1969  0.7632
 2748SOL    HW219707   3.199   4.093   8.848 -1.8342 -1.3728  1.0613
 2749SOL     OW19708   1.025   0.446   4.939 -0.3016 -0.4735 -0.2999
 2749SOL    HW119709   1.024   0.383   5.011  2.8397 -1.1930 -0.8866
 2749SOL    HW219710   0.962   0.505   4.979  0.8527  0.4090  0.1897
 2750SOL     OW19711   0.276   3.098   4.098 -0.1417  0.3293  0.2275
 2750SOL    HW119712   0.282   3.168   4.163  0.2948  0.5152 -0.0114
 2750SOL    HW219713   0.181   3.095   4.098 -0.0907 -1.4030  0.0655
 2751SOL     OW19714   2.049   1.034  14.640  0.4662  0.1056 -0.1066
 2751SOL    HW119715   2.090   1.106  14.688  0.8054 -0.4839  0.4838
 2751SOL    HW219716   1.961   1.026  14.675  0.7317 -1.9625  0.0993
 2752SOL     OW19717   0.836   4.497   4.933  0.7698  0.2991 -0.2654
 2752SOL    HW119718   0.743   4.477   4.919  0.7983  1.6607 -2.4179
 2752SOL    HW219719   0.841   4.590   4.911 -0.4175  0.5085  0.3648
 2753SOL     OW19720   2.194   2.319  12.173  0.1002 -0.2472  0.0833
 2753SOL    HW119721   2.149   2.253  12.119  1.0004  0.8547 -2.0204
 2753SOL    HW219722   2.263   2.347  12.113  0.0517  1.0989  0.6568
 2754SOL     OW19723   1.180   1.117  16.237 -0.1421 -0.7104  0.1010
 2754SOL    HW119724   1.249   1.168  16.281  0.2281  0.5604 -1.9137
 2754SOL    HW219725   1.127   1.186  16.196  0.0158 -0.2624  0.6591
 2755SOL     OW19726   2.019   4.254   3.989 -0.1202 -0.1622 -0.8538
 2755SOL    HW119727   2.023   4.338   3.943 -0.5507  1.7348  2.5465
 2755SOL    HW219728   1.927   4.248   4.016  0.4204  2.1059  1.4488
 2756SOL     OW19729   1.459   4.130  11.875 -0.0440 -0.6293  0.7794
 2756SOL    HW119730   1.485   4.176  11.954 -4.5332  0.4911  1.5976
 2756SOL    HW219731   1.365   4.143  11.868 -0.0482 -0.4251  1.2099
 2757SOL     OW19732   3.523   3.531   8.210  0.8380 -0.5820  0.1071
 2757SOL    HW119733   3.525   3.536   8.305 -1.2395  2.5295 -0.0254
 2757SOL    HW219734   3.458   3.600   8.197 -1.1378 -2.2500  1.0360
 2758SOL     OW19735   1.772   2.274  12.171  0.2442  0.0536 -0.2585
 2758SOL    HW119736   1.745   2.223  12.248 -1.5050  2.1366  0.5215
 2758SOL    HW219737   1.853   2.237  12.137 -0.3237 -3.3838  2.1025
 2759SOL     OW19738   1.406   4.397   3.083  0.0978 -0.3405 -0.3249
 2759SOL    HW119739   1.345   4.373   3.153  0.2340  0.6844  0.1490
 2759SOL    HW219740   1.370   4.332   3.023 -1.4136  1.7353 -1.6550
 2760SOL     OW19741   1.803   1.825   8.732  0.1583 -0.3769  0.1168
 2760SOL    HW119742   1.715   1.817   8.769  1.7043 -1.7198  3.4068
 2760SOL    HW219743   1.788   1.824   8.637 -1.5518  1.0016  0.3633
 2761SOL     OW19744   0.189   0.782   9.019  0.2684  0.6053 -0.8082
 2761SOL    HW119745   0.175   0.869   8.982  0.6309  1.1913  0.4348
 2761SOL    HW219746   0.146   0.731   8.950  2.0379 -0.5266 -1.1011
 2762SOL     OW19747   3.990   1.136   5.101 -0.1077  0.5382  0.3852
 2762SOL    HW119748   4.075   1.180   5.110  0.1603  0.0940  0.0034
 2762SOL    HW219749   4.014   1.068   5.038 -2.8087  1.3252 -1.5051
 2763SOL     OW19750   3.728   3.758   4.058 -0.5712  0.0654 -0.8089
 2763SOL    HW119751   3.712   3.688   4.121 -1.8408  0.5658 -0.5718
 2763SOL    HW219752   3.634   3.771   4.042 -1.3909 -3.2469  1.2622
 2764SOL     OW19753   3.796   4.023   4.026 -0.0822  0.3331 -0.4948
 2764SOL    HW119754   3.765   3.932   4.016  1.8253 -0.5205  1.6065
 2764SOL    HW219755   3.725   4.061   4.077 -2.1070  0.5876 -3.4435
 2765SOL     OW19756   1.922   0.021   7.732  0.1166  0.2408 -0.0273
 2765SOL    HW119757   1.895   4.653   7.721 -1.7000  1.0228 -2.1643
 2765SOL    HW219758   1.853   0.049   7.792  0.2210 -1.6751  1.0144
 2766SOL     OW19759   0.790   0.942   8.443 -0.0065  0.8145  0.3550
 2766SOL    HW119760   0.873   0.989   8.434  1.9302 -2.0485  3.3361
 2766SOL    HW219761   0.809   0.848   8.441 -1.9462  0.4272  0.5271
 2767SOL     OW19762   4.391   2.967   5.321  0.0424  0.2644  0.0162
 2767SOL    HW119763   4.348   2.882   5.325  2.4206 -0.9724 -0.8564
 2767SOL    HW219764   4.335   3.037   5.288 -0.6992 -0.7327 -0.8335
 2768SOL     OW19765   0.277   2.742  14.011 -0.0788  0.2164  0.1178
 2768SOL    HW119766   0.215   2.791  13.957 -0.6285  1.0128  1.4543
 2768SOL    HW219767   0.246   2.652  14.003  1.1082 -0.1152 -0.6407
 2769SOL     OW19768   3.252   3.509   3.203 -0.0137  0.0136  0.0422
 2769SOL    HW119769   3.248   3.416   3.183  0.2148 -0.3307  1.6630
 2769SOL    HW219770   3.193   3.509   3.279  0.6841  0.1162  0.5808
 2770SOL     OW19771   2.865   0.637   7.761 -0.0637  0.0719 -0.0375
 2770SOL    HW119772   2.798   0.691   7.803 -0.6440  0.6713 -1.6868
 2770SOL    HW219773   2.925   0.708   7.737 -2.7494  1.2575 -3.2908
 2771SOL     OW19774   1.340   2.327  11.756  0.0563 -0.2057 -0.2650
 2771SOL    HW119775   1.330   2.406  11.808  0.7971  0.9830 -1.9476
 2771SOL    HW219776   1.418   2.348  11.705  0.3989 -0.9941 -0.0759
 2772SOL     OW19777   2.930   4.689   0.666  0.2165 -0.3724  0.9320
 2772SOL    HW119778   2.975   0.006   0.593 -0.0584 -3.1904 -0.8383
 2772SOL    HW219779   3.008   4.661   0.715 -0.4767  0.2870  2.4120
 2773SOL     OW19780   0.306   2.380   6.331  0.5382  0.1176 -0.1612
 2773SOL    HW119781   0.380   2.320   6.338 -0.1604 -0.4819  1.8979
 2773SOL    HW219782   0.261   2.334   6.260  1.1686  0.5432 -0.8427
 2774SOL     OW19783   0.150   3.691   6.827  0.2523  0.3891 -0.4287
 2774SOL    HW119784   0.117   3.664   6.913 -1.1480  1.1891 -0.7119
 2774SOL    HW219785   0.238   3.722   6.848  0.7233 -0.5465 -1.0090
 2775SOL     OW19786   0.018   3.708   3.866  0.0245 -0.5255  0.1042
 2775SOL    HW119787   0.098   3.742   3.903 -0.0891  0.3241 -0.4410
 2775SOL    HW219788   0.041   3.617   3.887  1.1715  0.2504  2.1166
 2776SOL     OW19789   4.328   1.612   5.755  0.2336 -0.1991 -0.4814
 2776SOL    HW119790   4.306   1.642   5.667 -2.4505 -2.0126 -0.4326
 2776SOL    HW219791   4.329   1.697   5.799 -0.5679 -0.1170 -0.6176
 2777SOL     OW19792   1.218   2.234   7.439  0.1090 -0.5896 -0.1567
 2777SOL    HW119793   1.312   2.216   7.438  0.3329  0.4889  2.0571
 2777SOL    HW219794   1.211   2.302   7.506  0.9584 -1.1768  0.5249
 2778SOL     OW19795   0.926   0.513   9.679  0.5881 -0.3253  0.0262
 2778SOL    HW119796   0.854   0.451   9.670 -2.2488  2.9756 -0.0456
 2778SOL    HW219797   0.922   0.547   9.590  1.7292 -1.1612 -0.3522
 2779SOL     OW19798   3.423   1.664   4.670 -0.3272 -0.2523  0.2984
 2779SOL    HW119799   3.500   1.719   4.654 -0.3528 -0.5656 -0.9087
 2779SOL    HW219800   3.415   1.606   4.594  0.4006  0.6407 -0.4463
 2780SOL     OW19801   1.508   3.005   9.252  0.2515 -0.0655  0.1494
 2780SOL    HW119802   1.422   3.040   9.230  0.2270 -0.7749 -0.8535
 2780SOL    HW219803   1.523   3.031   9.343 -2.1935 -0.7537  0.7443
 2781SOL     OW19804   2.219   3.692   7.243 -0.0666  0.4859 -0.1599
 2781SOL    HW119805   2.233   3.781   7.211  1.1501  0.1011 -0.7089
 2781SOL    HW219806   2.160   3.708   7.317 -1.4792  0.9009 -1.3744
 2782SOL     OW19807   3.279   0.783  13.912 -0.2057 -0.6245 -0.2259
 2782SOL    HW119808   3.357   0.732  13.893  0.1133  0.4202 -1.7267
 2782SOL    HW219809   3.242   0.806  13.827 -0.4927 -1.9246 -0.4367
 2783SOL     OW19810   0.807   3.097   8.065  0.2020  0.4651  0.3237
 2783SOL    HW119811   0.794   3.173   8.122 -0.0988  2.2209 -2.0720
 2783SOL    HW219812   0.715   3.072   8.060  0.9509 -1.4956 -3.3243
 2784SOL     OW19813   3.647   3.169  12.739  0.1106  0.3519 -0.0578
 2784SOL    HW119814   3.689   3.187  12.655 -0.8263 -0.7493 -0.7640
 2784SOL    HW219815   3.559   3.150  12.706 -0.0078  1.4031 -0.3346
 2785SOL     OW19816   2.967   3.412   5.502  0.2980  0.4618 -0.4642
 2785SOL    HW119817   2.897   3.421   5.567 -0.4897  2.2576 -1.5569
 2785SOL    HW219818   3.015   3.338   5.540 -2.4728 -0.5726  0.9874
 2786SOL     OW19819   3.113   2.028   8.606 -0.0310  0.0076 -0.3425
 2786SOL    HW119820   3.114   1.933   8.618 -0.5738 -0.3152 -2.8710
 2786SOL    HW219821   3.207   2.037   8.590  0.4452 -0.8560  1.9398
 2787SOL     OW19822   1.872   3.254   3.221 -0.7664  0.3768  0.2258
 2787SOL    HW119823   1.784   3.219   3.227 -1.2314  1.6968  1.1936
 2787SOL    HW219824   1.914   3.189   3.165 -2.2343  0.2916 -0.7418
 2788SOL     OW19825   1.951   3.018  13.893  0.0779 -0.6301 -0.8191
 2788SOL    HW119826   1.888   2.950  13.869 -0.7098 -0.1539 -0.0480
 2788SOL    HW219827   1.897   3.092  13.918  1.7075 -0.7855  3.1484
 2789SOL     OW19828   4.408   0.600   4.836 -0.0818  0.2273  0.0931
 2789SOL    HW119829   4.324   0.573   4.873  0.4669 -2.4464 -0.6097
 2789SOL    HW219830   4.422   0.520   4.786 -1.2283  1.4638 -2.2279
 2790SOL     OW19831   2.910   0.660   4.844 -0.1032 -0.0087  0.4702
 2790SOL    HW119832   2.984   0.670   4.905  0.6933  1.7982 -0.7973
 2790SOL    HW219833   2.921   0.565   4.830 -1.0569 -0.2179  1.1924
 2791SOL     OW19834   1.227   4.411  10.347  0.0030  0.2725  0.2154
 2791SOL    HW119835   1.148   4.422  10.294 -0.3999 -0.5899  0.6511
 2791SOL    HW219836   1.276   4.487  10.314  1.3943 -1.8151 -2.5203
 2792SOL     OW19837   2.364   0.315   4.924 -0.0456  0.0944  0.0825
 2792SOL    HW119838   2.308   0.283   4.853 -1.0076  2.5803 -0.2743
 2792SOL    HW219839   2.413   0.382   4.876  1.4260 -1.2255 -0.2675
 2793SOL     OW19840   4.589   1.141   4.611  0.2672  0.5620  0.2316
 2793SOL    HW119841   4.644   1.065   4.593  0.0692  0.8076 -1.4011
 2793SOL    HW219842   4.616   1.175   4.697  1.2831  1.5868 -0.4989
 2794SOL     OW19843   2.477   2.431   7.722  0.5508  0.5925 -0.0709
 2794SOL    HW119844   2.425   2.488   7.666 -0.8441 -0.2336  0.3907
 2794SOL    HW219845   2.416   2.396   7.786  0.4886  0.1228 -0.3894
 2795SOL     OW19846   2.271   1.873   0.685 -0.4342 -0.0784 -0.4906
 2795SOL    HW119847   2.336   1.941   0.703 -1.0214  0.1497  0.7574
 2795SOL    HW219848   2.307   1.807   0.745  1.5845  3.6600  2.4291
 2796SOL     OW19849   1.798   0.917   3.053 -0.2812  0.0838 -0.1639
 2796SOL    HW119850   1.871   0.972   3.024 -1.5602  0.5010 -2.5405
 2796SOL    HW219851   1.789   0.943   3.145 -0.6066  0.2611 -0.2460
 2797SOL     OW19852   2.783   1.518   1.458 -0.4740 -0.0914  0.0519
 2797SOL    HW119853   2.742   1.577   1.521 -0.1549 -0.8688  1.0029
 2797SOL    HW219854   2.724   1.444   1.473 -1.5727  0.8834  0.5302
 2798SOL     OW19855   2.433   4.274   0.338  0.5254 -0.0817 -0.2670
 2798SOL    HW119856   2.461   4.188   0.369  0.3192 -0.3398 -0.7917
 2798SOL    HW219857   2.470   4.336   0.400 -2.6680  0.1630  1.3801
 2799SOL     OW19858   4.137   1.687   6.174  0.3353 -0.0123  0.1837
 2799SOL    HW119859   4.116   1.735   6.254 -0.0699 -1.3786  0.9030
 2799SOL    HW219860   4.141   1.594   6.197  0.0719 -0.3573 -1.1880
 2800SOL     OW19861   3.765   0.271   7.066  0.2664  0.2997  0.1915
 2800SOL    HW119862   3.669   0.279   7.064  0.2840  0.7431  0.9369
 2800SOL    HW219863   3.785   0.255   6.974 -0.1647  0.7253  0.0227
 2801SOL     OW19864   0.217   1.979   1.332 -0.4626 -0.0570  0.0276
 2801SOL    HW119865   0.219   1.891   1.293 -0.0945  0.8085 -1.8748
 2801SOL    HW219866   0.310   1.996   1.352 -0.5458 -1.1612  1.4477
 2802SOL     OW19867   1.498   4.224   7.760  0.4021  0.0469  0.1344
 2802SOL    HW119868   1.472   4.184   7.843 -1.9574 -1.9481 -1.5473
 2802SOL    HW219869   1.430   4.177   7.711 -1.0793  2.7838 -0.4496
 2803SOL     OW19870   3.005   4.225   5.287  0.9190  0.0773  0.3256
 2803SOL    HW119871   2.913   4.223   5.314  0.8063 -2.0134 -0.2237
 2803SOL    HW219872   3.011   4.318   5.265  0.4364 -0.0969 -0.5247
 2804SOL     OW19873   1.482   3.475   9.414  0.0064  0.5050 -0.4493
 2804SOL    HW119874   1.565   3.473   9.462  1.4459  1.1051 -2.9324
 2804SOL    HW219875   1.423   3.471   9.489  0.0285 -0.0232 -0.4663
 2805SOL     OW19876   1.358   1.812   7.423 -0.0366 -0.2266  0.6075
 2805SOL    HW119877   1.400   1.867   7.489 -0.9877  0.3629  0.7132
 2805SOL    HW219878   1.311   1.873   7.366  2.4373  0.2376 -0.9550
 2806SOL     OW19879   0.518   0.122   8.082  0.3361 -0.0274  0.0104
 2806SOL    HW119880   0.449   0.061   8.109  0.8509 -0.9629 -0.8055
 2806SOL    HW219881   0.568   0.068   8.021  1.1142 -0.4212  0.9982
 2807SOL     OW19882   3.247   4.587   8.278 -0.1386  0.4058  0.1328
 2807SOL    HW119883   3.246   4.620   8.368  0.4242  0.4165  0.1300
 2807SOL    HW219884   3.243   4.675   8.239  2.8001  0.9398  1.0521
 2808SOL     OW19885   2.116   1.619  12.007 -0.2678 -0.2804 -0.2658
 2808SOL    HW119886   2.117   1.655  11.918 -0.6983  0.5910  0.0770
 2808SOL    HW219887   2.092   1.527  11.994  0.7773 -0.8273  1.6029
 2809SOL     OW19888   2.352   2.504   8.431 -0.2086 -0.0743 -0.0552
 2809SOL    HW119889   2.294   2.580   8.421  0.8110  0.7292  0.1654
 2809SOL    HW219890   2.296   2.436   8.470  2.6052 -2.0039  0.5870
 2810SOL     OW19891   0.112   1.770  15.861 -0.0247 -0.0213  0.7655
 2810SOL    HW119892   0.152   1.823  15.792 -2.3332 -1.3852 -1.6209
 2810SOL    HW219893   0.118   1.680  15.827  0.2233 -0.3797  1.7478
 2811SOL     OW19894   3.150   4.702  11.599 -0.6035  0.7010 -0.2414
 2811SOL    HW119895   3.137   0.053  11.657 -1.3706  1.3930 -1.3198
 2811SOL    HW219896   3.121   0.005  11.512 -2.4654 -0.2617  0.0981
 2812SOL     OW19897   0.302   2.687   2.952 -0.2642  0.4914 -0.1863
 2812SOL    HW119898   0.369   2.620   2.962 -0.6126  0.3907  1.3374
 2812SOL    HW219899   0.229   2.638   2.915 -0.8231  0.8350  0.4719
 2813SOL     OW19900   0.704   0.116   6.950  0.3072  0.3736  0.0774
 2813SOL    HW119901   0.772   0.075   6.896 -0.5550 -2.4485  1.1387
 2813SOL    HW219902   0.729   0.207   6.935  0.1737  0.6723  1.7316
 2814SOL     OW19903   1.427   0.748  11.952 -0.4576  0.2500 -0.2535
 2814SOL    HW119904   1.478   0.670  11.929 -1.0806 -0.4262  0.6627
 2814SOL    HW219905   1.451   0.803  11.877  0.2943  0.1028 -0.1250
 2815SOL     OW19906   1.717   2.694   5.076  0.0769  0.3354 -0.2583
 2815SOL    HW119907   1.781   2.750   5.120  0.8404  0.0431 -0.9917
 2815SOL    HW219908   1.642   2.734   5.120  2.1070  2.4903  1.2030
 2816SOL     OW19909   1.180   2.223   3.978 -0.4054 -0.7158 -0.2853
 2816SOL    HW119910   1.253   2.210   4.037 -0.8104  0.9987  0.6054
 2816SOL    HW219911   1.154   2.131   3.969 -2.6970 -0.0771 -0.2900
 2817SOL     OW19912   2.681   0.173   7.333 -0.1666 -0.1670  0.1342
 2817SOL    HW119913   2.738   0.247   7.349 -0.1531 -0.5333  1.7450
 2817SOL    HW219914   2.596   0.212   7.351  0.5028 -0.1479  3.1908
 2818SOL     OW19915   0.079   0.207  16.300  0.2892 -0.6308 -0.1945
 2818SOL    HW119916   0.030   0.127  16.320  0.2110 -0.8177 -1.1779
 2818SOL    HW219917   0.157   0.180  16.348  0.7630  1.0331 -0.0318
 2819SOL     OW19918   1.501   3.218  13.770  0.2950  0.5832  0.0965
 2819SOL    HW119919   1.480   3.263  13.688 -1.3135  0.4842  0.4722
 2819SOL    HW219920   1.433   3.253  13.827  0.5504  0.5836  0.3998
 2820SOL     OW19921   4.651   4.668   6.679 -0.5895  0.2557  0.3677
 2820SOL    HW119922   0.017   4.637   6.665  0.0152  0.6941  3.4263
 2820SOL    HW219923   4.607   4.605   6.621  3.9066 -2.8537  0.3014
 2821SOL     OW19924   1.948   2.375   1.896 -0.3724  0.1412  0.1270
 2821SOL    HW119925   1.956   2.373   1.991  1.2840 -2.1920 -0.0683
 2821SOL    HW219926   1.966   2.466   1.873 -0.7542  0.3907  0.8328
 2822SOL     OW19927   3.817   1.650   3.416 -0.1591 -0.3386  0.1904
 2822SOL    HW119928   3.814   1.592   3.492  1.9503 -0.2667  0.3090
 2822SOL    HW219929   3.874   1.601   3.356  2.1032  2.0302  0.4197
 2823SOL     OW19930   3.468   2.585   3.809 -0.7124 -0.4810 -0.3795
 2823SOL    HW119931   3.554   2.601   3.768 -0.4156 -0.1854  0.3666
 2823SOL    HW219932   3.425   2.660   3.768 -0.7614 -1.6121 -2.4001
 2824SOL     OW19933   3.580   2.443   3.130  0.1850 -0.4309  0.9011
 2824SOL    HW119934   3.526   2.522   3.134  0.7798  0.0537 -0.6560
 2824SOL    HW219935   3.650   2.470   3.190  2.6450  0.0046 -2.1484
 2825SOL     OW19936   2.090   2.305   3.639 -0.6341 -0.1878 -0.1491
 2825SOL    HW119937   2.028   2.273   3.705 -0.0600  1.7282  1.2938
 2825SOL    HW219938   2.178   2.267   3.648 -1.5744 -1.9360  1.6272
 2826SOL     OW19939   4.285   4.175   8.902  0.1740  0.4559  0.9727
 2826SOL    HW119940   4.379   4.193   8.904  0.1374  0.5369  2.0783
 2826SOL    HW219941   4.261   4.189   8.994  0.2067  1.1532  0.8786
 2827SOL     OW19942   3.561   3.199  16.138 -0.6895 -0.1225  0.5768
 2827SOL    HW119943   3.499   3.225  16.206 -1.0667 -1.3460  0.6954
 2827SOL    HW219944   3.619   3.275  16.137  0.0824 -0.7305 -0.6999
 2828SOL     OW19945   2.637   3.206   2.407 -0.2601  0.5781  0.0588
 2828SOL    HW119946   2.645   3.144   2.479 -0.7954  0.8148  0.3251
 2828SOL    HW219947   2.562   3.264   2.419 -0.8434  0.3431 -2.5207
 2829SOL     OW19948   1.211   2.040   7.695 -0.1831  0.8313  0.3419
 2829SOL    HW119949   1.154   1.975   7.737 -1.7294  0.9272 -1.6135
 2829SOL    HW219950   1.149   2.084   7.637  0.9293  0.3735 -1.1729
 2830SOL     OW19951   0.073   3.235   0.609 -1.0074  0.4518  0.3687
 2830SOL    HW119952   0.110   3.151   0.635 -2.2814 -0.7840 -1.8497
 2830SOL    HW219953   4.704   3.222   0.591 -0.3217 -1.1714 -1.9191
 2831SOL     OW19954   2.122   1.233   1.156 -0.3008  0.5882 -0.3805
 2831SOL    HW119955   2.169   1.177   1.217 -2.0345 -0.9690 -0.5065
 2831SOL    HW219956   2.031   1.212   1.175 -0.0078 -1.6095 -1.4509
 2832SOL     OW19957   4.670   4.535  11.393  0.5327  0.5139  0.5935
 2832SOL    HW119958   4.700   4.607  11.448 -0.3462 -0.4592  2.3420
 2832SOL    HW219959   0.029   4.500  11.362  0.3174 -0.5640  1.2352
 2833SOL     OW19960   0.587   3.648  13.055 -0.3980  0.3383 -0.1940
 2833SOL    HW119961   0.619   3.738  13.064 -2.3785  0.9100  1.0917
 2833SOL    HW219962   0.666   3.597  13.076 -1.3961 -0.6413  1.1729
 2834SOL     OW19963   2.734   3.196   6.740  0.4191  0.0649  0.0664
 2834SOL    HW119964   2.771   3.278   6.773 -2.0782  1.0001  0.5694
 2834SOL    HW219965   2.806   3.134   6.747 -1.6865 -2.4730 -0.9416
 2835SOL     OW19966   2.900   3.001   1.522 -0.1182  0.2053  0.0000
 2835SOL    HW119967   2.937   3.070   1.467  0.1164 -0.0315 -0.1361
 2835SOL    HW219968   2.864   3.045   1.600 -0.3791  1.4101 -0.7911
 2836SOL     OW19969   0.983   1.467   6.320  0.5346 -0.0644  0.0621
 2836SOL    HW119970   1.026   1.443   6.238  1.7570 -1.5068  1.1151
 2836SOL    HW219971   1.055   1.471   6.383  0.6005  0.2786 -0.0345
 2837SOL     OW19972   1.182   0.724   5.465 -0.0381 -0.6552 -0.5576
 2837SOL    HW119973   1.215   0.642   5.501  0.5920  0.2064  0.8600
 2837SOL    HW219974   1.091   0.703   5.443 -0.0045 -1.9538  0.5693
 2838SOL     OW19975   1.760   2.233   2.517 -0.0572  0.4876 -0.5080
 2838SOL    HW119976   1.674   2.243   2.559  1.5931  0.8677  2.8241
 2838SOL    HW219977   1.736   2.203   2.430 -0.3101  1.3339 -0.7285
 2839SOL     OW19978   2.620   4.165   4.170 -0.4503  0.1138  0.4030
 2839SOL    HW119979   2.538   4.130   4.206 -1.2729 -0.0094 -1.5870
 2839SOL    HW219980   2.610   4.149   4.076  1.8670  0.2764  0.1263
 2840SOL     OW19981   3.913   2.878   0.231 -0.3123 -0.3578  0.1885
 2840SOL    HW119982   3.901   2.898   0.324  0.5368  2.7578 -0.3568
 2840SOL    HW219983   3.869   2.952   0.190  1.3381  0.1469 -0.6571
 2841SOL     OW19984   2.352   2.630   3.739  0.1051 -0.0874  0.4904
 2841SOL    HW119985   2.440   2.593   3.751 -1.2454 -4.0333 -1.7258
 2841SOL    HW219986   2.318   2.614   3.827 -1.0073 -0.0494  0.0754
 2842SOL     OW19987   1.811   4.691   8.764  0.1327  0.1482  0.7680
 2842SOL    HW119988   1.742   4.716   8.826 -0.4207  0.9487 -0.1793
 2842SOL    HW219989   1.829   4.606   8.805  3.4439  1.2771  1.6130
 2843SOL     OW19990   4.077   4.402   7.848 -0.1890 -0.6350 -0.1592
 2843SOL    HW119991   4.136   4.340   7.892  2.5806  0.8693 -1.7437
 2843SOL    HW219992   4.108   4.478   7.896 -0.0067 -1.0075  0.3088
 2844SOL     OW19993   1.080   2.523   1.212 -0.4888  0.1224 -0.1939
 2844SOL    HW119994   1.138   2.465   1.162 -0.7704 -1.4053  1.2564
 2844SOL    HW219995   1.057   2.584   1.142 -1.9581 -1.9976 -1.5485
 2845SOL     OW19996   0.505   4.182   7.306  0.3433 -0.1322  0.5057
 2845SOL    HW119997   0.426   4.199   7.255  1.3393  0.3139 -0.8739
 2845SOL    HW219998   0.567   4.159   7.237  0.7368 -0.9468  1.1257
 2846SOL     OW19999   3.722   3.574   3.829 -0.9124  0.2596 -0.5076
 2846SOL    HW120000   3.777   3.598   3.754  0.1445  1.1076  0.5245
 2846SOL    HW220001   3.751   3.645   3.887 -0.4525  1.2730 -1.9739
 2847SOL     OW20002   4.560   4.492   1.827  0.0788  0.0065 -0.3410
 2847SOL    HW120003   4.477   4.537   1.845  0.6522  0.8444  0.1878
 2847SOL    HW220004   4.575   4.448   1.911 -1.6168  1.7515  0.8765
 2848SOL     OW20005   1.727   0.211   4.648 -0.1355  0.1092  0.3371
 2848SOL    HW120006   1.740   0.225   4.554 -0.6343  0.9809  0.3990
 2848SOL    HW220007   1.805   0.157   4.663  1.1346  2.2586  1.3839
 2849SOL     OW20008   1.244   1.339   1.975 -0.3572 -0.1648 -0.3193
 2849SOL    HW120009   1.200   1.327   2.059 -0.0215  0.7888  0.0004
 2849SOL    HW220010   1.269   1.431   1.980  0.1078 -0.2865 -0.4366
 2850SOL     OW20011   2.376   2.137   1.410 -0.2018 -0.3295 -0.3389
 2850SOL    HW120012   2.424   2.152   1.328  0.9808  0.7842  0.5583
 2850SOL    HW220013   2.456   2.137   1.462 -0.6386 -1.9998  0.3358
 2851SOL     OW20014   2.207   4.153   7.940 -0.5776  0.0248 -0.6802
 2851SOL    HW120015   2.170   4.154   7.852 -1.1281 -0.2222 -0.4475
 2851SOL    HW220016   2.203   4.060   7.960 -1.8884  0.3222  0.4127
 2852SOL     OW20017   4.541   1.392   4.519 -0.0758 -0.0295  0.6886
 2852SOL    HW120018   4.547   1.297   4.508  2.1010  0.1969 -0.1671
 2852SOL    HW220019   4.610   1.422   4.460 -2.2304 -0.1771 -1.9057
 2853SOL     OW20020   4.389   0.491   2.785 -0.6399 -0.3138  0.1053
 2853SOL    HW120021   4.425   0.534   2.708 -0.9763  0.1697  0.2240
 2853SOL    HW220022   4.307   0.456   2.750 -1.7540  3.6272 -1.1312
 2854SOL     OW20023   2.197   0.765   2.452 -0.2284 -0.4526  0.6502
 2854SOL    HW120024   2.264   0.708   2.416  0.1503 -0.3439  1.1914
 2854SOL    HW220025   2.131   0.697   2.467  1.0902 -1.6869  0.8641
 2855SOL     OW20026   4.714   0.688   4.528  0.6132 -0.1537 -0.3605
 2855SOL    HW120027   0.014   0.677   4.436  1.6181 -3.2475  0.2766
 2855SOL    HW220028   0.009   0.603   4.568  0.2041 -0.5510 -1.0171
 2856SOL     OW20029   0.330   1.299   5.937 -0.9685 -0.2416  0.2122
 2856SOL    HW120030   0.391   1.276   5.867  1.9811  1.7024  2.1419
 2856SOL    HW220031   0.252   1.328   5.890 -1.0528  1.0911  1.1721
 2857SOL     OW20032   3.515   1.762   3.948 -0.1498 -0.2852  0.1204
 2857SOL    HW120033   3.559   1.841   3.979  1.4432  0.1813 -3.2771
 2857SOL    HW220034   3.428   1.787   3.919  0.3641  1.4977  0.0793
 2858SOL     OW20035   4.083   1.252  10.228 -0.0951  0.4178 -0.4435
 2858SOL    HW120036   4.130   1.269  10.146 -0.2585  0.8719 -0.4438
 2858SOL    HW220037   3.989   1.264  10.217  0.1317  3.6907  1.3353
 2859SOL     OW20038   3.327   4.041  13.563  0.5884  0.2386  0.1840
 2859SOL    HW120039   3.267   4.054  13.490  0.3200  0.5406  0.4596
 2859SOL    HW220040   3.342   3.946  13.563 -2.0817 -0.1722  0.2544
 2860SOL     OW20041   2.709   2.539   5.234 -0.3052 -0.0052  0.5390
 2860SOL    HW120042   2.686   2.543   5.327 -1.8963  1.5462  0.0835
 2860SOL    HW220043   2.803   2.522   5.239  0.2213  2.7223 -0.1108
 2861SOL     OW20044   1.715   2.218   2.961 -0.8627 -0.3818 -0.8703
 2861SOL    HW120045   1.790   2.211   2.901  0.2214  0.2141  0.3940
 2861SOL    HW220046   1.645   2.168   2.921 -3.4772  0.4144  2.6656
 2862SOL     OW20047   0.144   0.825   0.627  0.4111 -0.3187 -0.6139
 2862SOL    HW120048   0.064   0.858   0.667 -0.3246 -1.7521 -0.8983
 2862SOL    HW220049   0.214   0.880   0.662 -1.1682  1.0876  0.3229
 2863SOL     OW20050   0.313   3.201   3.548 -0.0835  0.0127  0.5071
 2863SOL    HW120051   0.382   3.135   3.538 -1.0016 -0.6405 -1.4997
 2863SOL    HW220052   0.233   3.157   3.518 -1.1848  0.6689  2.4632
 2864SOL     OW20053   3.494   0.847   8.937 -0.1118  0.1715  0.4185
 2864SOL    HW120054   3.512   0.782   9.005  0.1066 -1.3440 -1.0751
 2864SOL    HW220055   3.576   0.895   8.933 -0.9303  1.3648 -2.1329
 2865SOL     OW20056   3.313   4.580   0.580  0.4224 -0.0261  0.0419
 2865SOL    HW120057   3.265   4.636   0.519  0.5859  0.4445  0.3523
 2865SOL    HW220058   3.255   4.596   0.655  0.8721 -1.5089  0.7069
 2866SOL     OW20059   1.984   3.516   3.731  0.1401 -0.1713 -0.3440
 2866SOL    HW120060   2.014   3.578   3.797 -0.4230  0.2360 -0.4716
 2866SOL    HW220061   2.067   3.482   3.696  0.0867  1.2667 -1.8616
 2867SOL     OW20062   4.255   2.998  15.942  0.5063  0.3486  1.0796
 2867SOL    HW120063   4.219   3.010  16.030  2.2866  1.2812  1.6893
 2867SOL    HW220064   4.309   3.077  15.942  0.2113  0.5553 -2.1914
 2868SOL     OW20065   0.640   4.065   9.211  0.6002  0.0694  0.1415
 2868SOL    HW120066   0.690   4.019   9.278 -1.1376 -2.1596 -0.1089
 2868SOL    HW220067   0.555   4.029   9.235 -1.0602  1.4335 -3.7529
 2869SOL     OW20068   0.057   2.433   6.014 -0.1772  0.4294 -0.5384
 2869SOL    HW120069   0.095   2.436   5.926  0.6559  1.4776 -0.1443
 2869SOL    HW220070   0.093   2.350   6.047 -1.2063  1.2790  2.6887
 2870SOL     OW20071   1.502   0.570   5.071 -0.3783  0.1322  0.2946
 2870SOL    HW120072   1.433   0.598   5.132  1.7553  0.8326  2.3742
 2870SOL    HW220073   1.535   0.489   5.109 -0.9259  0.0126  0.5100
 2871SOL     OW20074   1.696   0.446   4.325 -0.1558  0.1830 -0.0398
 2871SOL    HW120075   1.620   0.397   4.294 -0.3777 -1.2614  2.8008
 2871SOL    HW220076   1.768   0.384   4.314 -0.2369  0.2132 -0.7364
 2872SOL     OW20077   0.216   3.734   5.213 -0.1710  0.1631 -0.3143
 2872SOL    HW120078   0.137   3.687   5.238  1.0544 -2.4446 -1.3088
 2872SOL    HW220079   0.266   3.742   5.294  0.2857 -0.6827 -0.5163
 2873SOL     OW20080   4.319   4.169   2.133 -0.7619  0.0781  0.1893
 2873SOL    HW120081   4.370   4.126   2.201 -0.6108  0.1199  0.1046
 2873SOL    HW220082   4.264   4.101   2.094  0.2966 -1.0014  0.5643
 2874SOL     OW20083   1.745   0.950  11.511 -0.1386  0.4781 -0.0773
 2874SOL    HW120084   1.718   0.929  11.600  0.0218 -0.4865 -0.2524
 2874SOL    HW220085   1.769   0.864  11.476  0.0046 -0.0081  1.2273
 2875SOL     OW20086   4.057   2.344   3.292  0.2868 -0.5222  0.2527
 2875SOL    HW120087   4.070   2.263   3.243 -2.8443 -0.7041 -0.3198
 2875SOL    HW220088   3.992   2.315   3.355 -1.2917  1.7161 -0.3098
 2876SOL     OW20089   1.684   3.888  10.717 -0.0899 -0.4635  0.0852
 2876SOL    HW120090   1.648   3.854  10.799 -1.8807 -1.6307 -1.1845
 2876SOL    HW220091   1.750   3.822  10.695 -0.1406  0.3264 -2.3646
 2877SOL     OW20092   4.392   1.992  13.175 -0.0054  0.3571 -0.8699
 2877SOL    HW120093   4.475   2.014  13.219  0.0819 -0.7526 -0.4973
 2877SOL    HW220094   4.347   2.061  13.224  2.0444  2.0493 -1.3150
 2878SOL     OW20095   3.699   4.381   9.099 -0.4592 -0.4332  0.0578
 2878SOL    HW120096   3.643   4.416   9.169 -1.3101  0.4971 -1.0969
 2878SOL    HW220097   3.628   4.336   9.055  0.7756 -0.0738 -2.2803
 2879SOL     OW20098   3.839   2.153   8.280 -0.0081 -0.2436  0.0547
 2879SOL    HW120099   3.824   2.181   8.371 -1.4333 -1.1676  0.1081
 2879SOL    HW220100   3.866   2.062   8.290 -2.2005 -1.0186 -1.0909
 2880SOL     OW20101   3.618   0.156  17.574 -0.3493 -0.2473  0.0227
 2880SOL    HW120102   3.585   0.234  17.618 -1.5862 -0.1707 -1.0205
 2880SOL    HW220103   3.707   0.190  17.562 -0.3674 -0.7402 -1.5847
 2881SOL     OW20104   4.235   0.081  16.338 -0.5166 -0.2199 -0.2870
 2881SOL    HW120105   4.233   0.164  16.387 -1.5935 -0.6791  0.4443
 2881SOL    HW220106   4.150   0.082  16.294  0.5962  0.8055 -2.3753
 2882SOL     OW20107   2.068   3.430  11.939  0.1460  0.0507 -0.0801
 2882SOL    HW120108   2.049   3.336  11.944  0.7541 -0.1277 -1.1087
 2882SOL    HW220109   1.991   3.472  11.977  0.7631  0.0841  1.1573
 2883SOL     OW20110   1.159   2.207  12.684 -0.4311  0.1286  0.2059
 2883SOL    HW120111   1.250   2.236  12.681  0.3998 -2.3334  1.2982
 2883SOL    HW220112   1.164   2.152  12.762 -1.6756 -2.9432 -1.8496
 2884SOL     OW20113   3.521   0.358   0.023  0.6031 -0.3651  0.0199
 2884SOL    HW120114   3.457   0.324   0.086  0.2540 -0.7017 -0.5145
 2884SOL    HW220115   3.530   0.447   0.056  0.7429 -0.6139  0.6366
 2885SOL     OW20116   4.145   0.445  13.623 -0.9890  0.0839 -0.1102
 2885SOL    HW120117   4.114   0.535  13.634  0.3349  0.6736 -1.1299
 2885SOL    HW220118   4.234   0.437  13.659 -1.2077 -1.6065  0.0421
 2886SOL     OW20119   2.404   2.607   4.530  0.0403 -0.8107 -0.4783
 2886SOL    HW120120   2.449   2.624   4.613  3.7117 -0.3160 -2.5690
 2886SOL    HW220121   2.476   2.636   4.474 -0.0976  3.9728  1.8350
 2887SOL     OW20122   2.126   0.112   4.140 -0.6481 -0.2613  1.0031
 2887SOL    HW120123   2.098   0.202   4.129 -0.6884 -0.3416  0.4373
 2887SOL    HW220124   2.194   0.119   4.207 -0.6074 -0.4462  0.9812
 2888SOL     OW20125   3.417   3.865  12.941  0.0445 -0.2425  0.3454
 2888SOL    HW120126   3.509   3.881  12.919  0.3331 -0.6669  1.2331
 2888SOL    HW220127   3.383   3.936  12.887  0.1317 -0.3649  0.1296
 2889SOL     OW20128   4.169   0.268   3.219 -0.2267 -0.1429 -0.7791
 2889SOL    HW120129   4.223   0.222   3.282 -0.4432 -0.8834 -1.1304
 2889SOL    HW220130   4.186   0.220   3.137 -1.5036 -2.1413  0.1279
 2890SOL     OW20131   1.991   1.650   2.983 -0.0112 -0.4806  0.2471
 2890SOL    HW120132   1.959   1.708   3.052  3.2879 -0.5761  1.8604
 2890SOL    HW220133   1.935   1.673   2.909 -1.1580  0.9109  1.5409
 2891SOL     OW20134   2.169   0.079   5.968 -0.9282  0.3132  0.5058
 2891SOL    HW120135   2.101   0.139   5.938  0.4709  1.5703 -0.1299
 2891SOL    HW220136   2.159   0.019   5.894  0.5071 -0.7392  1.1599
 2892SOL     OW20137   0.524   0.398   2.664 -0.0847 -0.5874 -0.3321
 2892SOL    HW120138   0.429   0.402   2.675  0.2479  2.2627  1.5675
 2892SOL    HW220139   0.559   0.403   2.753  1.2996 -0.3057 -0.8926
 2893SOL     OW20140   0.584   0.467   8.751 -0.7197 -0.3929  0.2348
 2893SOL    HW120141   0.544   0.458   8.838 -1.3803 -0.8496 -0.1155
 2893SOL    HW220142   0.585   0.373   8.729 -0.5420 -0.1862 -0.6204
 2894SOL     OW20143   1.632   2.348  16.209  0.2840 -0.4738 -0.0925
 2894SOL    HW120144   1.685   2.328  16.286 -1.4491  1.5487  1.6043
 2894SOL    HW220145   1.568   2.413  16.236 -1.3429 -1.5663 -1.3175
 2895SOL     OW20146   3.316   1.980   5.837 -0.2425 -0.5011  0.1994
 2895SOL    HW120147   3.341   1.888   5.846  2.5436  0.4266  2.0069
 2895SOL    HW220148   3.288   1.977   5.745  2.4103 -0.9131 -0.5988
 2896SOL     OW20149   2.140   0.324  11.622 -0.3583  0.1759  0.6954
 2896SOL    HW120150   2.064   0.315  11.680 -0.8860  0.3315  0.0322
 2896SOL    HW220151   2.151   0.238  11.582  2.4515  0.6892  0.4139
 2897SOL     OW20152   0.256   4.346   1.381  0.4152 -0.3334 -0.1853
 2897SOL    HW120153   0.212   4.261   1.375 -2.1763  0.9488  0.6268
 2897SOL    HW220154   0.190   4.395   1.430 -2.7225 -3.5695 -1.2114
 2898SOL     OW20155   0.510   1.441  11.220  0.1174  0.3981 -0.6930
 2898SOL    HW120156   0.473   1.528  11.233 -1.1061 -0.3227  0.7407
 2898SOL    HW220157   0.586   1.440  11.278 -0.1194 -3.5119 -0.4170
 2899SOL     OW20158   3.179   3.478   6.550  0.2132  0.0918  0.0993
 2899SOL    HW120159   3.126   3.440   6.480 -1.5814 -0.0348  1.5100
 2899SOL    HW220160   3.166   3.572   6.535 -1.5177  0.0125  1.1220
 2900SOL     OW20161   1.274   1.724   5.652 -0.3219  0.3276 -0.2352
 2900SOL    HW120162   1.271   1.749   5.744 -0.6333 -1.0849  0.1313
 2900SOL    HW220163   1.188   1.685   5.636 -0.1171 -0.0313 -0.4534
 2901SOL     OW20164   1.081   2.135   8.188  0.9190  0.2646  0.5881
 2901SOL    HW120165   1.082   2.064   8.252 -0.9358 -1.5449 -1.3924
 2901SOL    HW220166   0.998   2.112   8.146  0.5386  0.3342  1.3064
 2902SOL     OW20167   1.719   3.489   9.169  0.1884  0.1442 -0.1277
 2902SOL    HW120168   1.801   3.483   9.218  2.1395  0.4773 -3.3246
 2902SOL    HW220169   1.744   3.455   9.083  3.3521  0.5782  0.6190
 2903SOL     OW20170   4.002   4.291   9.400 -0.3829  0.1067  0.0728
 2903SOL    HW120171   3.913   4.267   9.425 -0.3991 -0.5965 -0.6793
 2903SOL    HW220172   4.021   4.355   9.469  0.0239  0.6014 -0.4956
 2904SOL     OW20173   3.844   2.613   4.462 -0.2520  0.0900  0.0215
 2904SOL    HW120174   3.938   2.594   4.464 -0.3390 -0.1069  1.6416
 2904SOL    HW220175   3.801   2.533   4.431  0.3265 -0.4571  0.6293
 2905SOL     OW20176   1.693   2.938  17.491  0.1878 -0.0880  1.0000
 2905SOL    HW120177   1.613   2.890  17.514 -0.9081  1.8064  1.1654
 2905SOL    HW220178   1.678   2.955  17.398 -1.2556  0.9050  1.4139
 2906SOL     OW20179   3.855   2.162   5.334  0.0227 -0.1718 -0.1173
 2906SOL    HW120180   3.918   2.224   5.300 -1.3115  0.8852 -0.6798
 2906SOL    HW220181   3.838   2.205   5.417  1.0934  0.7358 -0.3773
 2907SOL     OW20182   2.131   3.274   4.660 -0.0690 -0.3079  0.0297
 2907SOL    HW120183   2.080   3.196   4.679  0.6260 -0.6455  0.5128
 2907SOL    HW220184   2.174   3.248   4.578 -1.8494  1.2559 -1.4009
 2908SOL     OW20185   0.555   2.187   1.752  1.1857 -0.4679  0.8855
 2908SOL    HW120186   0.615   2.143   1.692  1.2770  2.0555 -0.8656
 2908SOL    HW220187   0.492   2.116   1.765  1.6477 -1.4804 -2.5937
 2909SOL     OW20188   2.636   3.406  13.864  0.0971 -0.2065 -0.0893
 2909SOL    HW120189   2.619   3.419  13.957  2.6359  1.3678  0.1688
 2909SOL    HW220190   2.562   3.352  13.837  1.6707 -2.1505 -0.5151
 2910SOL     OW20191   1.929   0.494   6.592  0.4766 -0.7404 -0.1452
 2910SOL    HW120192   1.999   0.539   6.639  2.1327 -1.5008 -1.8468
 2910SOL    HW220193   1.982   0.458   6.520  1.5870 -1.7021  1.1520
 2911SOL     OW20194   1.017   0.759  17.688 -0.3483  0.1885 -0.7111
 2911SOL    HW120195   1.042   0.694  17.622  0.5856 -2.0916  1.9126
 2911SOL    HW220196   1.064   0.732   0.069  1.5906 -0.9091 -2.2264
 2912SOL     OW20197   1.940   0.049  11.727 -0.2016  0.5685 -0.0041
 2912SOL    HW120198   1.961   0.102  11.804  0.2901  1.4560 -0.7522
 2912SOL    HW220199   1.850   0.072  11.704 -1.3087 -3.6227  0.2011
 2913SOL     OW20200   3.856   3.824  16.917  0.2720  0.5566  0.7006
 2913SOL    HW120201   3.905   3.758  16.868 -0.3851  2.6877 -2.8664
 2913SOL    HW220202   3.820   3.778  16.992  1.4066 -0.2688  0.7341
 2914SOL     OW20203   4.230   2.715   9.163 -0.4720  0.2132 -0.3526
 2914SOL    HW120204   4.140   2.732   9.190 -0.4093 -1.1614  0.7031
 2914SOL    HW220205   4.282   2.766   9.226 -0.9619  0.7422 -0.3776
 2915SOL     OW20206   0.149   4.671   7.603  0.4624  0.2326  0.0163
 2915SOL    HW120207   0.181   4.678   7.693 -0.7852  1.3756  0.3659
 2915SOL    HW220208   0.101   0.028   7.589  0.5071  0.1761 -0.4518
 2916SOL     OW20209   1.251   1.475   3.345 -0.0830 -0.5493 -0.3125
 2916SOL    HW120210   1.232   1.568   3.329  2.4966  0.1287  0.5926
 2916SOL    HW220211   1.175   1.438   3.299 -0.7894  0.9127 -0.3559
 2917SOL     OW20212   0.832   1.453  13.676  0.3991 -0.2359 -0.2398
 2917SOL    HW120213   0.830   1.508  13.597 -1.2031 -2.0351 -1.4613
 2917SOL    HW220214   0.860   1.523  13.734 -0.3371 -0.2979  0.2004
 2918SOL     OW20215   2.652   2.592   4.421 -0.4392 -0.1225  0.1370
 2918SOL    HW120216   2.725   2.581   4.359 -0.3506  0.0417  0.2120
 2918SOL    HW220217   2.630   2.503   4.449  1.7944 -0.7127  0.0362
 2919SOL     OW20218   1.677   1.823  11.460  0.0166 -0.6908 -0.1994
 2919SOL    HW120219   1.763   1.848  11.425  0.5409 -1.3541  0.5897
 2919SOL    HW220220   1.627   1.847  11.383 -0.2909  2.7617  1.0723
 2920SOL     OW20221   2.841   2.361   5.498  0.4733 -0.3914  0.2277
 2920SOL    HW120222   2.779   2.300   5.538 -1.2930  0.7411 -0.7740
 2920SOL    HW220223   2.909   2.361   5.565  1.1330 -0.9541 -0.4410
 2921SOL     OW20224   1.788   2.329   3.487 -0.5442  0.4191  0.8597
 2921SOL    HW120225   1.710   2.277   3.504 -0.5693  0.0450 -0.4178
 2921SOL    HW220226   1.799   2.365   3.575 -1.2457 -0.7038  1.4006
 2922SOL     OW20227   1.172   1.018   5.439  0.4053 -0.2813  0.0688
 2922SOL    HW120228   1.197   0.929   5.464 -0.7131 -0.5935  0.0757
 2922SOL    HW220229   1.240   1.074   5.476 -0.1947 -0.9086  2.1301
 2923SOL     OW20230   1.831   3.616  11.664  0.2115  0.1843  0.0935
 2923SOL    HW120231   1.822   3.691  11.605 -0.2378 -0.4142 -0.6038
 2923SOL    HW220232   1.916   3.633  11.706  0.4032  0.2067 -0.3020
 2924SOL     OW20233   0.030   2.753  10.032  0.5203  0.2197 -0.1462
 2924SOL    HW120234   4.717   2.699  10.102  1.9391 -0.4601  0.0826
 2924SOL    HW220235   0.005   2.841  10.058 -1.1876  0.3762 -2.2594
 2925SOL     OW20236   0.296   4.497   2.492 -0.1172  0.4736  0.2916
 2925SOL    HW120237   0.278   4.495   2.398  0.5583  0.8434  0.1536
 2925SOL    HW220238   0.355   4.572   2.496 -0.5472  0.9058 -1.5863
 2926SOL     OW20239   0.643   1.958   0.320 -0.0173  0.0871  0.0929
 2926SOL    HW120240   0.668   1.919   0.403 -0.1123 -0.9281 -0.3630
 2926SOL    HW220241   0.550   1.972   0.336  0.0398 -0.1611  0.6290
 2927SOL     OW20242   2.246   2.828   7.590  0.4166 -0.1716  0.3216
 2927SOL    HW120243   2.280   2.910   7.554  1.7381 -0.1716  1.5772
 2927SOL    HW220244   2.276   2.843   7.680  0.5719  3.6166 -0.3734
 2928SOL     OW20245   1.958   0.737   7.780  0.3430 -0.3140  0.3247
 2928SOL    HW120246   1.878   0.782   7.753 -0.1165 -1.2718  0.0603
 2928SOL    HW220247   1.935   0.713   7.870  0.4167 -1.3802  0.0674
 2929SOL     OW20248   2.680   2.497  16.008 -0.5377  0.6824 -0.5472
 2929SOL    HW120249   2.590   2.470  15.993 -1.4686  3.3122  0.2283
 2929SOL    HW220250   2.693   2.576  15.955  2.1137  0.2526 -0.5743
 2930SOL     OW20251   3.648   3.049   9.044 -0.4173  0.6548 -0.6241
 2930SOL    HW120252   3.735   3.009   9.040 -1.4118 -1.7005  1.7716
 2930SOL    HW220253   3.601   2.975   9.005  0.1781 -0.8362  1.4769
 2931SOL     OW20254   1.316   4.326   5.843 -0.4245  0.3209 -0.5932
 2931SOL    HW120255   1.331   4.336   5.749  0.4596 -0.4809 -0.5414
 2931SOL    HW220256   1.401   4.347   5.882 -1.1166  1.0067  0.5077
 2932SOL     OW20257   4.493   2.196   6.652  0.7555 -0.0282  0.2718
 2932SOL    HW120258   4.506   2.172   6.561 -0.7889  1.5053 -0.3638
 2932SOL    HW220259   4.545   2.130   6.697  0.2436  0.0758  1.0257
 2933SOL     OW20260   2.619   1.311  15.739  0.2224  0.8326 -0.3672
 2933SOL    HW120261   2.649   1.400  15.721 -1.4778  1.4026 -0.3844
 2933SOL    HW220262   2.559   1.328  15.812 -0.2218 -0.2265 -0.4819
 2934SOL     OW20263   1.579   3.707   9.263 -0.0451  0.1302  0.2148
 2934SOL    HW120264   1.628   3.729   9.342 -0.3957  1.5126  0.0402
 2934SOL    HW220265   1.592   3.612   9.260  0.8997  0.3469 -1.7323
 2935SOL     OW20266   0.392   1.737   9.226 -0.0007  0.3334  0.1351
 2935SOL    HW120267   0.337   1.786   9.287 -0.7487  0.3958 -0.5789
 2935SOL    HW220268   0.408   1.661   9.281 -1.3703 -0.9063 -1.1908
 2936SOL     OW20269   3.766   2.490   0.010 -0.0647 -0.1946  0.1602
 2936SOL    HW120270   3.810   2.574  17.696  1.0312 -0.7312  0.4195
 2936SOL    HW220271   3.680   2.515  17.674  0.3091 -1.5170 -1.7551
 2937SOL     OW20272   1.301   1.774   3.580  0.6517 -0.1940 -0.3229
 2937SOL    HW120273   1.312   1.809   3.492 -1.6529  2.2852  0.3696
 2937SOL    HW220274   1.235   1.709   3.558  1.3354 -1.3215  0.9677
 2938SOL     OW20275   4.168   2.957  11.905 -0.1256  0.1152  0.2779
 2938SOL    HW120276   4.180   3.047  11.934  0.2554  0.1807 -0.0856
 2938SOL    HW220277   4.074   2.947  11.916 -0.1542 -1.6581 -1.6801
 2939SOL     OW20278   4.127   1.133  17.089 -0.1529 -0.1549  0.1366
 2939SOL    HW120279   4.061   1.183  17.137  0.2382 -1.8153  2.4378
 2939SOL    HW220280   4.070   1.073  17.042 -0.4488  0.2056  0.0385
 2940SOL     OW20281   3.644   4.282   5.600  0.1752 -0.0501 -0.7223
 2940SOL    HW120282   3.679   4.320   5.519 -0.5240 -1.0928 -1.5315
 2940SOL    HW220283   3.708   4.211   5.607  1.1933  1.0745  1.2059
 2941SOL     OW20284   3.523   0.503   4.106  0.0214 -0.5235 -0.5509
 2941SOL    HW120285   3.597   0.522   4.048 -0.1867  0.2570 -0.5598
 2941SOL    HW220286   3.462   0.557   4.056 -1.0736 -1.7972 -0.5712
 2942SOL     OW20287   3.037   1.389   1.421  0.0488 -0.1392 -0.0797
 2942SOL    HW120288   3.052   1.455   1.354  0.4861 -0.0240  0.1287
 2942SOL    HW220289   2.958   1.423   1.464  0.0496  2.1805 -1.9339
 2943SOL     OW20290   2.709   3.455  16.110  0.2329 -0.2376  0.2310
 2943SOL    HW120291   2.720   3.462  16.205  0.9326  0.1258  0.1244
 2943SOL    HW220292   2.802   3.458  16.086  0.7981  1.3207  2.5941
 2944SOL     OW20293   0.136   3.412  11.909 -0.0132  0.2341  0.9621
 2944SOL    HW120294   0.212   3.366  11.873 -1.2024 -0.5617 -0.5042
 2944SOL    HW220295   0.102   3.448  11.827 -1.0228  1.1302  1.7746
 2945SOL     OW20296   0.239   3.125   2.225 -0.1867 -0.3954 -0.3295
 2945SOL    HW120297   0.188   3.193   2.268  0.1085  0.5653 -1.5096
 2945SOL    HW220298   0.260   3.062   2.294 -2.4997 -0.4987  0.2747
 2946SOL     OW20299   2.899   1.032  11.102  0.1498 -0.5601  0.3536
 2946SOL    HW120300   2.846   1.007  11.177 -0.8123  0.5238  0.0303
 2946SOL    HW220301   2.856   0.989  11.028 -1.8835  0.1595  1.1284
 2947SOL     OW20302   0.056   3.114   3.427 -0.3951  0.0933  0.2183
 2947SOL    HW120303   0.058   3.148   3.337  1.2139 -1.7627 -0.4403
 2947SOL    HW220304   4.710   3.048   3.428  0.2535 -0.5902  0.7987
 2948SOL     OW20305   0.829   0.201   7.915  0.1339  0.4876 -0.0079
 2948SOL    HW120306   0.842   0.256   7.837 -2.2422  1.0445 -0.0179
 2948SOL    HW220307   0.860   0.270   7.973 -0.5737  0.2529  0.6386
 2949SOL     OW20308   1.139   1.176   1.790 -0.1150 -0.3983 -0.1684
 2949SOL    HW120309   1.161   1.086   1.814  1.3732 -0.0014 -0.0624
 2949SOL    HW220310   1.169   1.228   1.864  0.3142 -1.7978  0.6523
 2950SOL     OW20311   1.845   0.263   5.537 -0.2203  0.0289 -0.3441
 2950SOL    HW120312   1.860   0.180   5.582 -1.4703 -0.0144 -0.0189
 2950SOL    HW220313   1.827   0.327   5.606 -3.6893 -1.5898  0.2373
 2951SOL     OW20314   4.124   1.018   0.697  0.7272  0.2428 -0.5483
 2951SOL    HW120315   4.088   1.085   0.640  0.4349 -0.2040 -0.8867
 2951SOL    HW220316   4.209   1.053   0.723  0.0791  0.7816  0.8695
 2952SOL     OW20317   3.641   0.221   2.901 -0.2392  0.4477  0.0462
 2952SOL    HW120318   3.614   0.197   2.990 -0.2747  0.1066 -0.0570
 2952SOL    HW220319   3.733   0.248   2.912 -0.1730  0.1917  0.1361
 2953SOL     OW20320   1.243   2.825  11.425  0.2904  0.0267  0.6924
 2953SOL    HW120321   1.210   2.757  11.483  1.9190 -0.6145  0.8552
 2953SOL    HW220322   1.237   2.787  11.337 -0.0302 -0.3349  0.8699
 2954SOL     OW20323   0.631   3.860   8.025 -0.6044 -0.2075 -0.3306
 2954SOL    HW120324   0.554   3.890   8.074 -0.5247 -1.7289  0.7066
 2954SOL    HW220325   0.601   3.773   8.000 -0.0517  0.0117 -1.7862
 2955SOL     OW20326   3.095   2.846  13.474 -0.1763  0.0747 -0.0077
 2955SOL    HW120327   3.002   2.828  13.460  0.6587 -3.8304 -0.6458
 2955SOL    HW220328   3.105   2.816  13.564 -2.3116 -1.4414 -0.2812
 2956SOL     OW20329   0.573   0.971  12.478  0.3533  0.0549 -0.9073
 2956SOL    HW120330   0.580   0.875  12.479 -3.3010 -0.2064 -0.5289
 2956SOL    HW220331   0.610   0.986  12.391  1.5540  0.3306 -0.3471
 2957SOL     OW20332   3.711   0.025   0.525 -0.0650 -0.4102 -0.6743
 2957SOL    HW120333   3.637   0.002   0.582  0.9426 -2.3229 -0.1469
 2957SOL    HW220334   3.703   0.119   0.513 -0.6597 -0.5914 -1.6851
 2958SOL     OW20335   0.055   1.569   0.930 -0.1406 -1.0152 -0.1735
 2958SOL    HW120336   0.021   1.600   1.015 -0.8003 -1.4955 -0.2605
 2958SOL    HW220337   0.001   1.626   0.876  0.4799  0.7451  1.0572
 2959SOL     OW20338   1.852   4.121   6.542 -0.3361  0.2512  0.1272
 2959SOL    HW120339   1.884   4.127   6.452 -3.1903 -0.5223 -0.9448
 2959SOL    HW220340   1.786   4.191   6.542  0.4267  0.9709  0.1095
 2960SOL     OW20341   2.227   4.513  17.049  0.6266  0.2418  0.0185
 2960SOL    HW120342   2.176   4.557  16.982 -0.3689 -0.8362  0.0593
 2960SOL    HW220343   2.179   4.541  17.127 -1.7885 -1.9434 -0.6666
 2961SOL     OW20344   0.666   4.143   4.310  0.0816  0.2302 -0.4562
 2961SOL    HW120345   0.664   4.224   4.259 -1.4496  1.7065  1.8967
 2961SOL    HW220346   0.716   4.082   4.256  2.0113  0.0094  1.5670
 2962SOL     OW20347   0.389   0.120  15.421  0.3045  0.0591 -0.1720
 2962SOL    HW120348   0.322   0.085  15.480 -1.3076 -2.4007 -3.4718
 2962SOL    HW220349   0.388   0.066  15.341 -2.7323 -0.5130  0.2405
 2963SOL     OW20350   4.054   1.844   5.033 -0.1422  0.2537 -0.2290
 2963SOL    HW120351   4.110   1.776   4.995 -2.0123 -0.6400 -1.3999
 2963SOL    HW220352   4.071   1.921   4.977  0.2348 -1.5476 -2.5895
 2964SOL     OW20353   0.281   1.515   6.415 -0.3609 -0.5411  0.1704
 2964SOL    HW120354   0.235   1.434   6.437 -1.4779 -0.1519 -0.7346
 2964SOL    HW220355   0.211   1.568   6.377  0.6891  1.0941  0.4720
 2965SOL     OW20356   2.546   4.336   4.475 -0.3071  0.0152  0.4142
 2965SOL    HW120357   2.612   4.400   4.501 -0.4116  0.1807  0.2732
 2965SOL    HW220358   2.595   4.255   4.458 -1.2547  0.0741 -2.6208
 2966SOL     OW20359   2.191   4.469   2.818 -0.4645  0.2298  0.3578
 2966SOL    HW120360   2.234   4.505   2.740 -0.1567  0.1819  0.5053
 2966SOL    HW220361   2.268   4.454   2.873 -0.3150  0.8121  0.3079
 2967SOL     OW20362   1.854   1.705  13.885 -0.4043 -0.4986 -0.8612
 2967SOL    HW120363   1.906   1.723  13.964 -1.9952  0.5850 -0.0626
 2967SOL    HW220364   1.923   1.737  13.827 -0.2175 -0.5421 -0.6654
 2968SOL     OW20365   2.017   1.774  13.638  0.2086 -0.2933  0.2179
 2968SOL    HW120366   1.946   1.838  13.633 -0.1038 -0.5873  0.8357
 2968SOL    HW220367   2.016   1.740  13.549  0.6691  2.6844 -0.9415
 2969SOL     OW20368   2.158   0.855   5.042  0.0795  0.1433 -0.5394
 2969SOL    HW120369   2.136   0.837   5.133 -2.8855 -1.2635 -1.5455
 2969SOL    HW220370   2.103   0.794   4.993  0.3770  0.2051 -0.9493
 2970SOL     OW20371   1.446   0.371   1.549  0.4126  0.4775  0.0826
 2970SOL    HW120372   1.507   0.301   1.524 -0.8142  0.0008 -1.5567
 2970SOL    HW220373   1.363   0.345   1.510  0.4129  1.8632 -0.8420
 2971SOL     OW20374   2.922   3.347   6.369 -0.4506  0.1442 -0.2087
 2971SOL    HW120375   2.857   3.292   6.412  0.1369 -0.2892  0.1286
 2971SOL    HW220376   2.992   3.281   6.363 -1.1921 -0.7334  0.7342
 2972SOL     OW20377   0.630   4.704   8.518  0.5399  0.7072  0.0715
 2972SOL    HW120378   0.596   0.036   8.588  1.0778  0.0054  0.8989
 2972SOL    HW220379   0.637   4.624   8.571 -1.2125 -0.1977 -1.0471
 2973SOL     OW20380   2.051   4.421   2.141 -0.4405  0.0608  0.3597
 2973SOL    HW120381   2.134   4.411   2.188 -0.9190 -1.6467  0.8236
 2973SOL    HW220382   2.032   4.332   2.111  0.6249  0.5153 -1.6643
 2974SOL     OW20383   1.999   1.134   7.426 -0.5821 -0.2360 -0.0008
 2974SOL    HW120384   2.050   1.186   7.488  2.6283 -1.8322 -1.2929
 2974SOL    HW220385   1.983   1.196   7.355  2.0777  0.2280 -0.1733
 2975SOL     OW20386   3.299   3.797   4.121  0.0870 -0.1467  0.0149
 2975SOL    HW120387   3.364   3.863   4.095 -2.4968  2.3216 -0.2106
 2975SOL    HW220388   3.328   3.717   4.078  0.7413  0.5738 -0.8876
 2976SOL     OW20389   3.925   3.425   4.857  0.3017  0.1763 -0.6450
 2976SOL    HW120390   3.989   3.475   4.806  0.2130 -0.6763 -1.5889
 2976SOL    HW220391   3.929   3.465   4.945  0.8771 -0.4783 -0.3713
 2977SOL     OW20392   3.442   3.241   4.466  0.1547 -0.2505  0.1588
 2977SOL    HW120393   3.487   3.326   4.472  0.7760 -0.6175  0.6899
 2977SOL    HW220394   3.354   3.280   4.475  0.7765  0.9909  0.8503
 2978SOL     OW20395   2.318   3.023   7.193 -0.0420  0.1903  0.7166
 2978SOL    HW120396   2.305   3.096   7.254  2.6788  2.4404 -1.3729
 2978SOL    HW220397   2.405   2.991   7.216  0.5457  3.0297  2.4383
 2979SOL     OW20398   1.183   4.473  11.746 -0.3278  0.0484  0.2310
 2979SOL    HW120399   1.115   4.502  11.808  1.2551  3.0951  0.5426
 2979SOL    HW220400   1.193   4.384  11.779  3.3296 -0.4898 -2.3261
 2980SOL     OW20401   3.688   4.194   1.418 -0.3349 -0.5652 -0.4507
 2980SOL    HW120402   3.615   4.170   1.475  0.3017 -1.7414 -0.1366
 2980SOL    HW220403   3.763   4.223   1.470 -0.5936  1.2950 -1.1122
 2981SOL     OW20404   1.769   1.569   0.397  0.2615  0.3398  0.5077
 2981SOL    HW120405   1.717   1.590   0.474  3.0562  0.7269  2.2895
 2981SOL    HW220406   1.717   1.606   0.326  1.9401 -0.6220 -1.2225
 2982SOL     OW20407   3.658   0.164   0.188  0.0800 -0.4329 -0.3050
 2982SOL    HW120408   3.593   0.230   0.210  0.5951 -0.1856  0.4759
 2982SOL    HW220409   3.614   0.104   0.128  0.1003 -2.1037  1.3375
 2983SOL     OW20410   2.585   0.754   6.805 -0.0986  0.0314 -0.2448
 2983SOL    HW120411   2.547   0.828   6.759 -0.4654  1.4160  2.2959
 2983SOL    HW220412   2.619   0.698   6.734  1.0374  1.3135 -0.7176
 2984SOL     OW20413   0.218   1.121  11.003  0.3907  0.1898  0.1717
 2984SOL    HW120414   0.306   1.084  10.995 -0.3849 -1.6386  0.1692
 2984SOL    HW220415   0.227   1.177  11.080 -0.4280  0.6723 -0.0769
 2985SOL     OW20416   2.221   1.527   0.703 -0.2293 -0.3319 -0.4999
 2985SOL    HW120417   2.169   1.530   0.783 -2.6950  2.0820 -2.1985
 2985SOL    HW220418   2.306   1.506   0.741 -0.2132  3.3974  1.4660
 2986SOL     OW20419   1.074   3.465  10.871  0.1178 -0.0847 -0.4121
 2986SOL    HW120420   1.029   3.460  10.787 -1.6237  2.4902  0.3768
 2986SOL    HW220421   1.091   3.371  10.884  0.4909  0.2447  1.4892
 2987SOL     OW20422   2.437   0.714   0.493  0.1569 -0.4611  0.5147
 2987SOL    HW120423   2.341   0.718   0.498  0.1439  1.2609 -1.2489
 2987SOL    HW220424   2.443   0.685   0.402 -0.9665 -0.9895  0.6005
 2988SOL     OW20425   2.097   3.851  13.926 -0.4625  0.5137  0.7209
 2988SOL    HW120426   2.139   3.868  13.842 -0.7070  0.9875  0.6900
 2988SOL    HW220427   2.026   3.916  13.923 -2.0364 -1.1455  1.7816
 2989SOL     OW20428   1.622   0.322   5.395 -0.0067 -0.4667  0.4963
 2989SOL    HW120429   1.640   0.278   5.312  0.2559  0.1981  0.2023
 2989SOL    HW220430   1.697   0.294   5.447 -1.3883 -2.0862  1.6128
 2990SOL     OW20431   3.449   0.985   7.957  0.4405 -0.1361  0.5442
 2990SOL    HW120432   3.491   1.067   7.983 -1.7636  1.5023 -1.0410
 2990SOL    HW220433   3.492   0.977   7.872  2.9969 -1.1759  1.9545
 2991SOL     OW20434   4.319   0.723   7.047 -0.2929 -0.1529  0.1285
 2991SOL    HW120435   4.241   0.669   7.032 -1.3746  0.7462  2.4990
 2991SOL    HW220436   4.298   0.798   7.103  1.5899  1.5041 -1.3503
 2992SOL     OW20437   1.973   1.028  17.186 -0.6831 -0.0287 -0.2776
 2992SOL    HW120438   1.974   1.020  17.091 -0.7618 -1.1612 -0.1825
 2992SOL    HW220439   1.960   0.937  17.210 -0.1299 -0.5029 -1.7838
 2993SOL     OW20440   3.937   0.728   8.468 -0.3495 -0.3974  0.1766
 2993SOL    HW120441   3.923   0.692   8.555 -0.9545 -0.5439  0.0220
 2993SOL    HW220442   3.867   0.688   8.416  0.8488 -0.7280 -1.1713
 2994SOL     OW20443   4.657   0.098  17.214  0.2865  0.0457 -0.1492
 2994SOL    HW120444   4.600   0.131  17.284 -1.3624 -1.8830 -0.5873
 2994SOL    HW220445   0.009   0.154  17.229 -0.4436  0.3741  2.3821
 2995SOL     OW20446   0.277   0.173  16.473  0.2218  0.3483 -0.5060
 2995SOL    HW120447   0.229   0.169  16.556 -1.9289 -0.4454 -1.7773
 2995SOL    HW220448   0.287   0.268  16.461 -0.6561  0.5805  0.6428
 2996SOL     OW20449   2.247   1.697  12.224 -0.2834  0.2433  0.0091
 2996SOL    HW120450   2.195   1.667  12.149 -1.4840  0.2854  0.8304
 2996SOL    HW220451   2.243   1.615  12.274 -3.2277 -0.2174 -1.0087
 2997SOL     OW20452   0.736   3.625   5.122 -0.0276 -0.2881 -0.3307
 2997SOL    HW120453   0.786   3.575   5.186 -1.5350 -1.6793 -0.2469
 2997SOL    HW220454   0.717   3.559   5.056  1.2049 -2.0849  1.1146
 2998SOL     OW20455   4.141   0.429  17.573 -0.3646  0.3604 -0.0234
 2998SOL    HW120456   4.123   0.512  17.617  1.3739 -0.3725  2.0386
 2998SOL    HW220457   4.209   0.392  17.629 -1.9558 -1.6275  0.5656
 2999SOL     OW20458   3.674   2.501   4.098 -0.4384 -0.0278 -0.5682
 2999SOL    HW120459   3.754   2.553   4.098 -1.7314  1.9568  0.2316
 2999SOL    HW220460   3.606   2.563   4.125  0.3944  0.5898  0.0810
 3000SOL     OW20461   0.340   1.887   4.618 -0.1485  0.1224 -0.0052
 3000SOL    HW120462   0.398   1.919   4.550  0.0877  2.3049  1.2520
 3000SOL    HW220463   0.382   1.936   4.689  0.7404 -1.1295  0.3352
 3001SOL     OW20464   0.107   1.468  15.512 -0.2881  0.5978  0.0788
 3001SOL    HW120465   0.040   1.533  15.491  0.0768  0.8488 -0.2990
 3001SOL    HW220466   0.061   1.384  15.505  1.2492 -0.2094 -0.4241
 3002SOL     OW20467   1.225   1.852   2.949  0.1877 -0.0268 -0.4414
 3002SOL    HW120468   1.282   1.886   3.018 -0.7882 -0.2699  0.5012
 3002SOL    HW220469   1.255   1.901   2.873 -2.2598  3.1329  0.6266
 3003SOL     OW20470   2.045   3.248   5.848 -0.5372 -0.2565  0.1566
 3003SOL    HW120471   2.008   3.266   5.934  0.6702  0.6686  0.4844
 3003SOL    HW220472   2.038   3.337   5.814 -0.7122  0.3566  1.7912
 3004SOL     OW20473   0.062   1.194   3.184 -0.3892 -0.5429  0.4114
 3004SOL    HW120474   0.127   1.255   3.219 -1.2709  0.1544  0.8314
 3004SOL    HW220475   4.707   1.243   3.208  0.7352  1.3207  0.3648
 3005SOL     OW20476   4.366   3.514   3.842 -0.5098  0.5459 -0.6487
 3005SOL    HW120477   4.326   3.562   3.770 -1.3865  1.4289  0.4227
 3005SOL    HW220478   4.446   3.477   3.806  0.5683 -0.3599  2.6052
 3006SOL     OW20479   3.475   0.972   7.267 -0.6058 -0.2365 -0.0694
 3006SOL    HW120480   3.427   0.975   7.184  0.1626  1.2011 -0.4686
 3006SOL    HW220481   3.509   0.883   7.264 -0.4627 -0.0559 -3.6308
 3007SOL     OW20482   4.655   0.811   1.037 -0.1420  0.1021  0.8070
 3007SOL    HW120483   4.658   0.874   1.109 -0.9901  0.1322  0.8227
 3007SOL    HW220484   4.568   0.771   1.048  0.8164 -1.9274  0.9997
 3008SOL     OW20485   0.376   2.914   8.605 -0.1854  1.0663 -0.3541
 3008SOL    HW120486   0.442   2.844   8.606 -0.9501  0.3171 -1.4099
 3008SOL    HW220487   0.378   2.959   8.690 -0.2581  4.6611 -2.2813
 3009SOL     OW20488   2.748   2.957   9.176  0.0048 -0.3140  0.0178
 3009SOL    HW120489   2.752   2.975   9.082 -0.2048 -1.0016 -0.1261
 3009SOL    HW220490   2.679   2.891   9.185 -0.4898  0.2697  0.4948
 3010SOL     OW20491   0.709   4.706   3.335  0.0024 -0.4009  0.3650
 3010SOL    HW120492   0.643   0.020   3.393 -0.9491 -0.8687 -0.4213
 3010SOL    HW220493   0.657   4.677   3.261  1.8007 -0.8060 -0.7382
 3011SOL     OW20494   0.576   3.837   2.960  0.3182 -0.2219  0.3232
 3011SOL    HW120495   0.500   3.894   2.965  1.9292  1.8341  1.6305
 3011SOL    HW220496   0.604   3.857   2.870  1.0917 -0.0955  0.5924
 3012SOL     OW20497   4.527   1.212  14.187 -0.4583 -0.4038  0.1602
 3012SOL    HW120498   4.432   1.197  14.193 -0.3921 -0.4900  1.0560
 3012SOL    HW220499   4.542   1.228  14.094  2.1090 -0.4371  0.5887
 3013SOL     OW20500   1.173   4.611   2.586  0.3315 -0.1932 -0.1731
 3013SOL    HW120501   1.256   4.576   2.553  1.0751 -1.1204  2.6797
 3013SOL    HW220502   1.107   4.573   2.528  0.8545  0.1723 -1.0166
 3014SOL     OW20503   0.694   1.370   4.651  0.2754 -0.1601  0.1317
 3014SOL    HW120504   0.702   1.458   4.615 -1.5548 -0.0044  0.0763
 3014SOL    HW220505   0.788   1.355   4.662  0.4605  2.1591  1.8651
 3015SOL     OW20506   4.005   3.752   5.389 -0.2474  0.2862  0.4984
 3015SOL    HW120507   3.934   3.707   5.437 -0.9123  0.8108  0.0053
 3015SOL    HW220508   4.084   3.702   5.408 -0.3170 -0.0151  0.0171
 3016SOL     OW20509   4.261   2.509   6.829  0.1055 -0.0417  0.7723
 3016SOL    HW120510   4.273   2.429   6.881  1.3630 -1.1974 -1.3017
 3016SOL    HW220511   4.278   2.470   6.744 -1.5457  0.1834  0.3359
 3017SOL     OW20512   1.903   1.118   1.705 -0.1012  0.4777 -0.3230
 3017SOL    HW120513   1.872   1.147   1.791 -1.0858  0.7261 -0.7594
 3017SOL    HW220514   1.836   1.052   1.685  2.1397 -1.3833 -1.6231
 3018SOL     OW20515   0.552   1.361   3.280 -0.0861 -0.4799  0.6077
 3018SOL    HW120516   0.617   1.412   3.328  1.2220 -0.2350 -1.4238
 3018SOL    HW220517   0.587   1.363   3.191  0.3143 -2.9823  0.7158
 3019SOL     OW20518   4.256   3.990   8.688  0.1263 -0.1087 -0.1081
 3019SOL    HW120519   4.237   4.054   8.757  0.4144  0.1506 -0.2694
 3019SOL    HW220520   4.171   3.963   8.653 -0.0819  0.4730 -0.0528
 3020SOL     OW20521   3.702   1.912   3.477 -0.4664  0.2424  0.0366
 3020SOL    HW120522   3.680   1.973   3.407 -1.6080 -1.2482 -0.9062
 3020SOL    HW220523   3.725   1.833   3.428 -0.6670 -0.1095  0.5042
 3021SOL     OW20524   2.620   4.186   9.023 -0.4077 -0.4593 -0.0195
 3021SOL    HW120525   2.644   4.095   9.004  1.3788 -0.3009  1.5082
 3021SOL    HW220526   2.625   4.211   8.930  1.8601 -0.8149 -0.0078
 3022SOL     OW20527   4.311   1.530   0.971 -0.1995  0.1839 -0.3087
 3022SOL    HW120528   4.394   1.490   0.946  0.0913  0.8188 -0.3477
 3022SOL    HW220529   4.338   1.618   0.994  0.3651  0.1530 -0.8500
 3023SOL     OW20530   2.480   1.919  16.826  0.7899  0.3098 -0.0060
 3023SOL    HW120531   2.497   1.859  16.754  0.4953  0.8491 -0.5271
 3023SOL    HW220532   2.562   1.916  16.875 -0.1335  1.5610  1.6325
 3024SOL     OW20533   1.639   1.929   8.972 -0.0120  0.0650  0.0272
 3024SOL    HW120534   1.568   1.912   9.034  0.1575 -0.9217 -0.0521
 3024SOL    HW220535   1.701   1.978   9.026  1.1360  0.6945 -1.8874
 3025SOL     OW20536   3.103   1.076   5.132 -0.3652 -0.1642 -0.5454
 3025SOL    HW120537   3.017   1.048   5.166  0.2938  0.4100  1.5637
 3025SOL    HW220538   3.142   1.099   5.216 -0.4326 -2.0007 -0.0151
 3026SOL     OW20539   2.227   0.831   6.648 -0.0073  0.1827 -0.4419
 3026SOL    HW120540   2.154   0.888   6.671  0.9078  1.2086 -0.0912
 3026SOL    HW220541   2.191   0.747   6.676 -1.1410  0.7819 -0.1111
 3027SOL     OW20542   0.889   1.656  13.853 -0.1374 -0.1250 -0.0507
 3027SOL    HW120543   0.975   1.697  13.841  0.4855 -1.4797 -0.1920
 3027SOL    HW220544   0.873   1.685  13.943 -0.4668 -0.8690  0.1241
 3028SOL     OW20545   2.391   0.689  13.862 -0.6238 -0.2489 -0.1581
 3028SOL    HW120546   2.340   0.629  13.917  0.8550 -0.0569  1.4111
 3028SOL    HW220547   2.347   0.773  13.870 -1.2961 -0.4771 -1.3236
 3029SOL     OW20548   0.939   3.296   5.072  0.1284  0.4430 -0.0285
 3029SOL    HW120549   0.908   3.370   5.125  0.0172 -0.1990  0.7966
 3029SOL    HW220550   0.864   3.238   5.066  0.2861  0.2530 -0.1614
 3030SOL     OW20551   3.603   4.199   6.307 -0.0105 -0.2269  0.4009
 3030SOL    HW120552   3.576   4.252   6.232 -0.0545 -1.4535 -0.4504
 3030SOL    HW220553   3.638   4.122   6.260 -0.2092 -0.0420 -0.0512
 3031SOL     OW20554   1.036   2.136   5.568  0.4087 -0.3694  0.1068
 3031SOL    HW120555   1.124   2.124   5.602  0.3470 -3.0868 -0.6613
 3031SOL    HW220556   0.996   2.159   5.652  1.0347  2.5989 -0.4405
 3032SOL     OW20557   1.359   2.163   4.187 -0.1251  0.4610  0.3598
 3032SOL    HW120558   1.352   2.086   4.243 -2.4892  1.0800  0.9105
 3032SOL    HW220559   1.449   2.193   4.198 -0.0264 -0.6367  2.5903
 3033SOL     OW20560   3.211   0.133   4.076  0.1483 -0.3512  0.0171
 3033SOL    HW120561   3.247   0.173   3.996 -0.1713  0.8219  0.4707
 3033SOL    HW220562   3.131   0.184   4.089  0.2765  0.2540 -1.5191
 3034SOL     OW20563   2.327   0.861   3.940 -0.2942  0.7523 -0.1482
 3034SOL    HW120564   2.239   0.875   3.905 -1.0605  1.3312  2.0211
 3034SOL    HW220565   2.319   0.768   3.962  2.5463  0.0597 -2.0228
 3035SOL     OW20566   3.148   1.946   5.157 -0.3324  0.8273 -0.0241
 3035SOL    HW120567   3.201   1.927   5.080 -0.7194  0.3012 -0.1608
 3035SOL    HW220568   3.218   1.941   5.221 -0.3945 -1.0180 -0.1105
 3036SOL     OW20569   2.385   1.739   0.911 -0.3795 -0.2327 -0.2837
 3036SOL    HW120570   2.362   1.698   0.995  0.1489 -0.1545 -0.1018
 3036SOL    HW220571   2.409   1.831   0.927  2.3652 -0.9514 -0.1914
 3037SOL     OW20572   0.631   1.479   5.051 -0.5001 -0.0128 -0.1181
 3037SOL    HW120573   0.693   1.544   5.084 -0.6281  0.0703 -0.0433
 3037SOL    HW220574   0.627   1.407   5.114  1.9711 -1.1867 -1.2802
 3038SOL     OW20575   2.457   4.039   0.463 -0.1353  0.0080 -0.8399
 3038SOL    HW120576   2.521   3.967   0.470  2.4296  2.5319  1.7911
 3038SOL    HW220577   2.382   3.999   0.419  0.5366 -1.1707 -0.9094
 3039SOL     OW20578   4.480   4.344   4.522 -0.2440  0.1109  0.4277
 3039SOL    HW120579   4.573   4.358   4.503 -0.9070  2.1336 -1.3539
 3039SOL    HW220580   4.483   4.248   4.532 -1.6958  0.0211 -0.0541
 3040SOL     OW20581   0.445   1.421   6.594  0.1272 -0.3513  0.1223
 3040SOL    HW120582   0.526   1.469   6.578  2.2909 -3.3063  2.1768
 3040SOL    HW220583   0.396   1.443   6.515  0.7639  0.0961 -0.1464
 3041SOL     OW20584   0.728   0.092   4.660 -0.2546 -0.5795 -0.2429
 3041SOL    HW120585   0.813   0.068   4.623  0.4948  3.7229 -1.3177
 3041SOL    HW220586   0.746   0.095   4.754 -1.6898 -1.7716  0.0806
 3042SOL     OW20587   1.387   0.800   3.474 -0.2229 -0.2158  0.6356
 3042SOL    HW120588   1.316   0.826   3.533 -2.0466  0.1692 -1.7384
 3042SOL    HW220589   1.345   0.764   3.395 -0.0541 -1.8703  1.2986
 3043SOL     OW20590   2.140   0.781  17.546 -1.2925  0.1509  0.4565
 3043SOL    HW120591   2.094   0.732  17.478 -3.8096  1.6950  1.0460
 3043SOL    HW220592   2.179   0.711  17.598 -0.7433 -0.1033 -0.2878
 3044SOL     OW20593   0.485   3.173  10.724 -0.2777  0.3018  0.2392
 3044SOL    HW120594   0.402   3.219  10.713 -1.1778 -1.2339  0.7323
 3044SOL    HW220595   0.504   3.198  10.815 -0.4576  1.3223  0.0015
 3045SOL     OW20596   4.231   0.371   6.162  0.1229 -0.0926 -0.0433
 3045SOL    HW120597   4.184   0.288   6.172  0.1256  0.0023  0.7170
 3045SOL    HW220598   4.204   0.412   6.244 -1.1321  1.3205 -1.1718
 3046SOL     OW20599   0.184   2.073  12.124 -1.4037  0.1883 -0.6440
 3046SOL    HW120600   0.181   2.113  12.211 -0.2839 -0.5637 -0.2680
 3046SOL    HW220601   0.194   2.151  12.070 -0.6562 -0.5098 -1.5174
 3047SOL     OW20602   3.991   2.660   8.736 -0.4363  0.1231  0.0021
 3047SOL    HW120603   3.958   2.743   8.772 -0.6731  0.4950 -1.0770
 3047SOL    HW220604   4.013   2.688   8.647  3.4462  2.6406  1.7389
 3048SOL     OW20605   3.582   4.009  16.726  0.4601 -0.0716 -0.3530
 3048SOL    HW120606   3.580   4.083  16.665  0.0067  0.2675  0.0707
 3048SOL    HW220607   3.677   4.001  16.731  0.5113  1.3485  1.1562
 3049SOL     OW20608   1.527   0.507   7.139  0.5119 -0.2864 -0.7267
 3049SOL    HW120609   1.526   0.503   7.234  0.2322  0.3404 -0.7059
 3049SOL    HW220610   1.587   0.579   7.118 -1.1308  0.8792 -1.4613
 3050SOL     OW20611   0.251   0.402   6.677  0.2974 -0.5712 -0.7421
 3050SOL    HW120612   0.297   0.318   6.682 -0.8310 -1.1892 -0.7651
 3050SOL    HW220613   0.161   0.370   6.677  0.4415 -0.9754 -0.0983
 3051SOL     OW20614   3.630   1.332   3.738 -0.9301 -0.6455  0.6191
 3051SOL    HW120615   3.721   1.300   3.736  0.0797  2.3642 -0.5678
 3051SOL    HW220616   3.655   1.421   3.762 -2.0099 -0.5157  1.2368
 3052SOL     OW20617   2.643   1.630   3.838 -0.7253  0.2654 -0.0106
 3052SOL    HW120618   2.619   1.573   3.911 -0.7917 -1.0314 -1.0518
 3052SOL    HW220619   2.676   1.711   3.877  0.0133 -0.9183  1.7911
 3053SOL     OW20620   3.960   1.042   1.850 -0.0189 -0.3531 -0.4586
 3053SOL    HW120621   4.005   1.102   1.791 -0.3191  2.4617  2.1611
 3053SOL    HW220622   4.029   0.985   1.882  0.1443  0.0180 -0.1387
 3054SOL     OW20623   0.503   0.742   3.229  0.2626  0.2467 -0.2879
 3054SOL    HW120624   0.512   0.824   3.180  3.1822  0.8857  1.3846
 3054SOL    HW220625   0.438   0.757   3.298  0.4688 -1.8825  0.3844
 3055SOL     OW20626   1.899   1.368   8.413  0.8075 -0.1200  0.2462
 3055SOL    HW120627   1.835   1.436   8.437 -0.1244 -1.2507  0.9536
 3055SOL    HW220628   1.908   1.322   8.496  0.6877 -0.9963 -0.2280
 3056SOL     OW20629   0.468   1.827   7.435  0.0983 -0.0298  0.2028
 3056SOL    HW120630   0.536   1.761   7.435 -0.2118 -0.3503  0.5493
 3056SOL    HW220631   0.498   1.884   7.506  0.7374 -1.0628  0.7517
 3057SOL     OW20632   1.754   1.542  12.660 -0.9917  0.5311  0.3724
 3057SOL    HW120633   1.750   1.628  12.702  0.3908  0.5146  0.5459
 3057SOL    HW220634   1.845   1.540  12.629 -0.0694 -1.3466  3.1647
 3058SOL     OW20635   0.360   4.177   3.185 -0.0190  0.4053 -0.2794
 3058SOL    HW120636   0.339   4.262   3.147 -3.0279 -0.6804 -1.1036
 3058SOL    HW220637   0.343   4.187   3.279 -2.3959 -0.3283 -0.6257
 3059SOL     OW20638   3.172   4.695   9.166 -0.1840  0.1083 -0.4175
 3059SOL    HW120639   3.108   0.041   9.171 -1.5938 -1.1015 -1.4421
 3059SOL    HW220640   3.214   4.701   9.251 -0.2981 -1.6607 -0.2401
 3060SOL     OW20641   4.555   1.598   4.826  0.0296  0.3302 -0.1051
 3060SOL    HW120642   4.600   1.538   4.886  0.6742  1.1341  0.2092
 3060SOL    HW220643   4.588   1.684   4.851  0.7933  0.2342 -0.7764
 3061SOL     OW20644   0.264   4.046   1.754  0.2774  0.7324 -0.0193
 3061SOL    HW120645   0.271   3.959   1.717  0.2371  0.3724  0.8100
 3061SOL    HW220646   0.352   4.073   1.731  0.5865 -1.9001 -1.7510
 3062SOL     OW20647   0.349   3.312  12.192  0.5100 -0.2024  0.1311
 3062SOL    HW120648   0.257   3.333  12.206  0.3766 -1.1969  0.7119
 3062SOL    HW220649   0.388   3.347  12.273  2.2759  0.6409 -1.0608
 3063SOL     OW20650   2.950   2.937   6.984 -0.2310 -0.3274  0.4126
 3063SOL    HW120651   2.947   2.985   6.901  1.0644  1.4463  1.4011
 3063SOL    HW220652   3.010   2.989   7.036 -0.4439  0.2944  0.0276
 3064SOL     OW20653   3.087   0.108   0.982 -0.2243  0.1188  0.1498
 3064SOL    HW120654   3.107   0.066   1.066 -0.1086  0.1853  0.1562
 3064SOL    HW220655   2.993   0.122   0.993 -0.4004 -1.0035  0.1436
 3065SOL     OW20656   1.733   2.886  10.369 -0.0922 -0.3185 -0.0578
 3065SOL    HW120657   1.748   2.920  10.457 -2.7379 -2.0834  1.0898
 3065SOL    HW220658   1.814   2.907  10.323 -0.8963  0.5130 -1.0897
 3066SOL     OW20659   1.152   1.968   7.303 -0.3239 -0.3029  0.1105
 3066SOL    HW120660   1.138   1.997   7.213 -0.8494 -1.9425 -0.3487
 3066SOL    HW220661   1.157   2.045   7.358 -2.1269  0.7992 -1.2585
 3067SOL     OW20662   0.339   4.534   1.618 -0.2031  0.0471 -0.3801
 3067SOL    HW120663   0.384   4.460   1.659  1.1077  0.5444 -0.9358
 3067SOL    HW220664   0.245   4.529   1.636 -0.3746 -2.9596 -2.2220
 3068SOL     OW20665   4.367   1.392   3.307 -0.6744 -0.2365 -0.2999
 3068SOL    HW120666   4.292   1.333   3.316  0.2198 -1.8781 -3.4818
 3068SOL    HW220667   4.325   1.468   3.266  0.9028  0.5972 -0.3548
 3069SOL     OW20668   0.697   3.618  11.722  0.4272  0.6115 -0.1165
 3069SOL    HW120669   0.608   3.585  11.710  0.4345  0.5275  0.0615
 3069SOL    HW220670   0.709   3.612  11.817 -1.6765  2.1158  0.2411
 3070SOL     OW20671   1.423   1.340   6.700  0.5349 -0.2817  0.1219
 3070SOL    HW120672   1.385   1.271   6.754 -1.4443  1.2997  0.7791
 3070SOL    HW220673   1.355   1.408   6.706  0.0092 -0.9945  2.0825
 3071SOL     OW20674   1.432   3.633   4.123  0.3363 -0.0438 -0.3219
 3071SOL    HW120675   1.379   3.613   4.047 -0.2331  1.5514 -0.3448
 3071SOL    HW220676   1.501   3.566   4.129  0.2520 -0.1877 -1.0405
 3072SOL     OW20677   1.540   3.053  16.955 -0.1715  0.0582 -0.3025
 3072SOL    HW120678   1.472   2.987  16.936 -0.6872  1.1369 -2.2574
 3072SOL    HW220679   1.539   3.104  16.874 -1.4847  0.0822 -0.2832
 3073SOL     OW20680   4.553   0.240   9.347 -0.0007 -0.3710  0.7465
 3073SOL    HW120681   4.469   0.238   9.301  0.0777  0.5479  0.5596
 3073SOL    HW220682   4.602   0.283   9.277  0.4444  0.8819  1.8200
 3074SOL     OW20683   0.347   2.967  10.029  0.3133  0.4852  0.2133
 3074SOL    HW120684   0.374   2.911  10.102 -2.1245  1.0052  1.5150
 3074SOL    HW220685   0.422   3.027  10.030  0.4370  0.3282  0.3797
 3075SOL     OW20686   3.588   1.196  11.383  0.7436  0.3039 -0.0734
 3075SOL    HW120687   3.645   1.121  11.363 -0.0027 -0.7881  1.9215
 3075SOL    HW220688   3.538   1.201  11.302  0.5825 -2.9851 -0.1643
 3076SOL     OW20689   2.377   3.619  12.835 -0.3123  0.0052  0.4068
 3076SOL    HW120690   2.420   3.685  12.781 -2.3611  0.6394 -0.4734
 3076SOL    HW220691   2.343   3.563  12.765  0.1952  1.2200 -0.8140
 3077SOL     OW20692   1.466   2.713   0.715 -0.0679  0.3423  0.4990
 3077SOL    HW120693   1.455   2.688   0.624 -0.5056  2.5475 -0.0563
 3077SOL    HW220694   1.511   2.797   0.716  1.4877 -0.4934 -0.5257
 3078SOL     OW20695   1.501   4.041  10.536 -0.0569  0.1065 -0.3680
 3078SOL    HW120696   1.439   3.968  10.526  0.3296 -0.3151  0.3501
 3078SOL    HW220697   1.572   4.000  10.585  0.9778  1.5265 -0.6923
 3079SOL     OW20698   0.400   0.881   7.206  0.1398  0.7143 -0.4887
 3079SOL    HW120699   0.487   0.887   7.245 -0.1074 -1.4774  0.3478
 3079SOL    HW220700   0.361   0.967   7.222 -0.0805  0.5957 -0.3995
 3080SOL     OW20701   2.627   1.924   9.425 -0.0188  0.0931 -0.8692
 3080SOL    HW120702   2.633   1.970   9.509  2.4544 -0.2836 -0.8374
 3080SOL    HW220703   2.690   1.968   9.368 -0.3365  1.4444 -0.1610
 3081SOL     OW20704   3.704   2.231   3.036  0.3470 -0.5738  0.1102
 3081SOL    HW120705   3.747   2.287   2.971  1.0374 -1.5165 -0.2434
 3081SOL    HW220706   3.631   2.288   3.061  0.6743  0.5655 -1.5493
 3082SOL     OW20707   2.335   3.693   2.947  0.7328  0.4540  0.4532
 3082SOL    HW120708   2.325   3.760   2.879  0.5556  1.1444  1.1653
 3082SOL    HW220709   2.271   3.735   3.004 -0.3905 -0.3476 -0.1983
 3083SOL     OW20710   1.375   0.492   9.462 -0.9013  0.4357  0.4180
 3083SOL    HW120711   1.464   0.476   9.430 -1.1300  0.5078 -0.2581
 3083SOL    HW220712   1.349   0.568   9.410 -1.2082  0.9012  1.2533
 3084SOL     OW20713   4.023   4.688   2.471 -0.1815  0.6708 -0.0308
 3084SOL    HW120714   4.066   0.030   2.416 -4.2276  1.6025 -2.0300
 3084SOL    HW220715   4.097   4.631   2.493  0.6442  1.2227 -1.3342
 3085SOL     OW20716   2.967   3.394   4.280 -0.1415  0.2421  0.1950
 3085SOL    HW120717   3.021   3.367   4.206 -1.6802  0.8766 -1.1587
 3085SOL    HW220718   2.941   3.485   4.264  1.4094  0.1820 -2.6612
 3086SOL     OW20719   2.331   3.485   1.949 -0.3804  0.0748  0.3733
 3086SOL    HW120720   2.381   3.411   1.913 -1.0636  0.8488 -2.1676
 3086SOL    HW220721   2.304   3.532   1.871  1.0274 -0.5951 -0.5270
 3087SOL     OW20722   4.292   1.761   7.288 -1.0875  0.1084 -0.0211
 3087SOL    HW120723   4.280   1.667   7.303 -2.1169 -0.1977 -2.7487
 3087SOL    HW220724   4.208   1.784   7.247 -0.7136  0.1115 -0.7679
 3088SOL     OW20725   3.676   2.191   2.709 -0.4558  0.4678  0.5306
 3088SOL    HW120726   3.748   2.240   2.748  0.7853  0.7430 -2.1304
 3088SOL    HW220727   3.599   2.243   2.734  0.4364  1.4660  1.2132
 3089SOL     OW20728   1.355   1.061   8.232  0.0980 -0.3649 -0.0439
 3089SOL    HW120729   1.414   1.057   8.308  1.6192 -0.3672 -1.2307
 3089SOL    HW220730   1.294   0.988   8.248  1.1460 -1.4274 -0.8789
 3090SOL     OW20731   3.811   3.528   4.471 -0.1709 -0.0073 -0.2076
 3090SOL    HW120732   3.894   3.537   4.423 -0.1884  0.6779 -0.1154
 3090SOL    HW220733   3.824   3.588   4.545  0.7306 -1.3559  0.7532
 3091SOL     OW20734   4.099   0.579   6.993 -0.7482  0.9210 -0.0403
 3091SOL    HW120735   4.012   0.544   7.015  0.5783 -2.3779 -0.0412
 3091SOL    HW220736   4.087   0.584   6.898 -0.6256 -2.2930 -0.2270
 3092SOL     OW20737   2.171   0.920   5.543  0.2900  0.5188 -0.1149
 3092SOL    HW120738   2.107   0.968   5.595  0.8360  0.4695  0.5923
 3092SOL    HW220739   2.242   0.983   5.533  1.4709 -1.0901 -1.7565
 3093SOL     OW20740   4.113   4.229   9.142 -0.0595  0.4560  0.1394
 3093SOL    HW120741   4.074   4.268   9.220  0.6278  2.4733 -0.5115
 3093SOL    HW220742   4.031   4.216   9.095 -0.6401  1.8104  0.7709
 3094SOL     OW20743   1.896   0.154   4.409  0.2288 -0.0333  0.1069
 3094SOL    HW120744   1.990   0.142   4.395  0.2475 -0.1762  0.3562
 3094SOL    HW220745   1.864   0.164   4.319  0.3183  1.1094  0.1991
 3095SOL     OW20746   4.141   1.364  11.093 -0.2047  0.3391  0.1845
 3095SOL    HW120747   4.155   1.449  11.135  1.3541  0.7776 -1.1800
 3095SOL    HW220748   4.212   1.317  11.137  0.6318  2.2812  0.9344
 3096SOL     OW20749   3.449   3.991   8.217  0.1690  0.2455 -0.0481
 3096SOL    HW120750   3.359   4.023   8.224  0.1604  0.0775  0.5705
 3096SOL    HW220751   3.452   3.954   8.129  0.0835  1.7198 -0.6773
 3097SOL     OW20752   3.591   0.271   1.938 -0.1304  0.8382 -0.5559
 3097SOL    HW120753   3.592   0.238   2.028 -0.1226  1.3744 -0.3534
 3097SOL    HW220754   3.499   0.298   1.939 -0.1422  0.9164 -3.3300
 3098SOL     OW20755   2.343   1.033  14.883  0.2412  0.0601 -0.4820
 3098SOL    HW120756   2.425   0.991  14.908  0.0217 -0.4099 -0.5474
 3098SOL    HW220757   2.273   0.976  14.915 -1.8448  2.5514 -0.6583
 3099SOL     OW20758   2.201   2.120   3.961 -0.3090  0.1987  0.5031
 3099SOL    HW120759   2.177   2.047   3.903  0.2892  0.2225  0.2288
 3099SOL    HW220760   2.266   2.076   4.016  0.6278  2.5677  1.2482
 3100SOL     OW20761   0.256   3.054   5.319  0.1068 -0.4042  0.3814
 3100SOL    HW120762   0.327   3.099   5.274  0.0589 -0.9101 -0.2020
 3100SOL    HW220763   0.183   3.085   5.265 -1.4938 -0.5895  2.4448
 3101SOL     OW20764   0.254   3.189   9.843  0.0690  0.0961  0.6501
 3101SOL    HW120765   0.245   3.256   9.911  1.1040  1.7192 -0.8291
 3101SOL    HW220766   0.252   3.098   9.875  3.3755 -0.1388  0.1721
 3102SOL     OW20767   3.240   2.240   2.396  0.4711 -0.0859  0.1211
 3102SOL    HW120768   3.292   2.198   2.328  1.6277  1.5746 -0.0277
 3102SOL    HW220769   3.151   2.217   2.371  0.9394 -0.6003 -1.0532
 3103SOL     OW20770   4.262   4.601  15.936 -0.6764 -0.2680  0.3741
 3103SOL    HW120771   4.335   4.629  15.880 -1.4898  1.0399 -0.0040
 3103SOL    HW220772   4.308   4.531  15.983 -0.2495  0.3121  0.8256
 3104SOL     OW20773   0.308   0.693   6.377  0.3836 -0.3133  0.1745
 3104SOL    HW120774   0.345   0.660   6.459  1.9872 -1.1364 -0.8639
 3104SOL    HW220775   0.390   0.702   6.328 -0.0235 -0.8763 -0.6211
 3105SOL     OW20776   1.089   0.756   9.163  0.2382 -0.5600 -0.4116
 3105SOL    HW120777   1.085   0.742   9.068 -1.5453 -1.3355 -0.2153
 3105SOL    HW220778   1.026   0.691   9.194  1.0859 -1.3945 -0.4457
 3106SOL     OW20779   4.258   0.536  15.377 -0.1799  0.4940  0.1941
 3106SOL    HW120780   4.329   0.599  15.364  1.7348 -1.8777 -0.6969
 3106SOL    HW220781   4.182   0.594  15.376 -0.2645  0.3783 -0.0530
 3107SOL     OW20782   3.952   4.325   4.506  0.3965  0.1133  0.6918
 3107SOL    HW120783   4.043   4.351   4.487 -0.4788  1.4294 -1.6506
 3107SOL    HW220784   3.968   4.255   4.570 -1.5459 -1.5473 -0.6620
 3108SOL     OW20785   2.477   0.864   3.095  0.1149 -0.0157 -0.3928
 3108SOL    HW120786   2.458   0.771   3.089 -1.7349  0.1531  3.1994
 3108SOL    HW220787   2.460   0.909   3.012  0.5343  0.8245 -0.0268
 3109SOL     OW20788   2.806   0.212  17.273 -0.7520 -0.2137 -0.1640
 3109SOL    HW120789   2.803   0.132  17.221  2.1369 -0.3086 -0.1901
 3109SOL    HW220790   2.713   0.232  17.272 -0.7468 -0.1470  0.3415
 3110SOL     OW20791   4.454   3.438   7.351 -0.3568 -0.0120 -0.2927
 3110SOL    HW120792   4.403   3.362   7.379 -0.8565  1.1856  2.0627
 3110SOL    HW220793   4.423   3.446   7.261  1.5917  0.9231 -0.8883
 3111SOL     OW20794   2.091   0.410   3.030 -0.1037  0.0899  0.3601
 3111SOL    HW120795   2.084   0.505   3.030 -0.8449  0.0338 -2.2652
 3111SOL    HW220796   2.081   0.394   3.124  1.4531  4.4986  1.2571
 3112SOL     OW20797   3.609   0.728   4.654  0.0848 -0.0349  0.3415
 3112SOL    HW120798   3.671   0.797   4.630  1.1593 -1.4878 -1.0686
 3112SOL    HW220799   3.559   0.771   4.723 -2.7443 -0.3759 -1.4919
 3113SOL     OW20800   4.610   2.609  10.231 -0.5251 -0.5665  0.0736
 3113SOL    HW120801   4.545   2.538  10.234  1.3489 -2.3235 -1.2322
 3113SOL    HW220802   4.576   2.666  10.300 -0.4533  1.9180 -1.9528
 3114SOL     OW20803   1.875   2.708   0.487 -0.4820 -0.7137  0.4859
 3114SOL    HW120804   1.907   2.657   0.562 -0.0999 -1.1429  0.0291
 3114SOL    HW220805   1.902   2.643   0.422  1.8743 -0.2027  0.9336
 3115SOL     OW20806   2.863   0.012   4.319  0.5587  0.2163 -0.2590
 3115SOL    HW120807   2.952   4.701   4.323  0.0808 -1.0000 -0.3519
 3115SOL    HW220808   2.827   4.653   4.286  1.0794 -0.5364  1.0667
 3116SOL     OW20809   0.440   1.734   6.417  0.4196  0.4895  0.0628
 3116SOL    HW120810   0.363   1.678   6.417 -1.4808  3.1088  0.0143
 3116SOL    HW220811   0.407   1.823   6.407 -2.2019 -0.4603  0.2159
 3117SOL     OW20812   3.284   1.509   3.265 -0.3194 -0.2295  0.7014
 3117SOL    HW120813   3.242   1.593   3.282  0.2251  0.4027 -1.0565
 3117SOL    HW220814   3.339   1.507   3.343 -0.8708  2.7980  1.1630
 3118SOL     OW20815   3.912   0.284   3.169  0.1624  0.3022  0.2334
 3118SOL    HW120816   3.929   0.278   3.075  0.8730 -1.3914  0.4719
 3118SOL    HW220817   4.002   0.308   3.192  0.2544  1.7595 -1.6301
 3119SOL     OW20818   3.716   2.393   9.314 -0.6181 -0.0016 -0.0369
 3119SOL    HW120819   3.743   2.456   9.248  2.5760 -0.8694  0.4419
 3119SOL    HW220820   3.794   2.358   9.357 -0.6032  1.5005  1.1589
 3120SOL     OW20821   2.582   1.926   5.767 -0.2759  0.1046 -0.7218
 3120SOL    HW120822   2.527   1.966   5.833 -0.9061 -1.6807 -0.1667
 3120SOL    HW220823   2.601   1.843   5.812 -0.9312  0.4410  0.1615
 3121SOL     OW20824   4.140   4.167   8.041 -0.4276  0.1471  0.3476
 3121SOL    HW120825   4.105   4.147   8.127  0.2038  4.5021  1.6385
 3121SOL    HW220826   4.160   4.081   8.004  1.8110  0.3741  0.9956
 3122SOL     OW20827   1.835   2.450   0.925  0.3075  0.2237  0.3777
 3122SOL    HW120828   1.915   2.481   0.966  1.5737 -1.9443 -0.4767
 3122SOL    HW220829   1.849   2.498   0.844 -1.4300  0.7393  0.3659
 3123SOL     OW20830   1.281   0.117   8.465 -0.3084 -0.2829 -0.3475
 3123SOL    HW120831   1.349   0.145   8.525 -2.2596 -0.1796  1.8127
 3123SOL    HW220832   1.222   0.187   8.490 -2.6622 -1.0151 -3.7723
 3124SOL     OW20833   1.723   4.037  16.616 -0.7884 -0.1513  0.6083
 3124SOL    HW120834   1.770   3.966  16.573  0.6906  1.1597  0.0714
 3124SOL    HW220835   1.742   4.003  16.704  0.4383 -0.7133  0.1215
 3125SOL     OW20836   1.221   3.142   2.922 -0.3686  0.4161  0.1231
 3125SOL    HW120837   1.242   3.067   2.978 -0.3277  1.1447  1.0802
 3125SOL    HW220838   1.198   3.109   2.835  1.6497 -1.6295  0.3688
 3126SOL     OW20839   2.575   2.624  13.451 -0.7926 -0.1321 -0.2866
 3126SOL    HW120840   2.601   2.535  13.475  1.3971  1.4112  2.9939
 3126SOL    HW220841   2.522   2.612  13.372 -0.8572 -1.2483 -0.0617
 3127SOL     OW20842   1.878   0.239   2.491  0.6272  0.0615  0.6864
 3127SOL    HW120843   1.791   0.259   2.526  0.2991 -1.4232  0.7211
 3127SOL    HW220844   1.867   0.144   2.477 -1.0698  0.1779  1.1904
 3128SOL     OW20845   0.952   0.370   2.644 -0.4584  0.6792 -0.7659
 3128SOL    HW120846   1.016   0.355   2.574  0.0076 -1.3792  0.0953
 3128SOL    HW220847   0.963   0.287   2.691  0.7383 -0.3792 -2.9007
 3129SOL     OW20848   1.523   2.446   4.250 -0.1403 -0.4021  0.0156
 3129SOL    HW120849   1.578   2.501   4.307 -0.2715  1.3283 -1.5419
 3129SOL    HW220850   1.588   2.403   4.195 -1.0306 -0.8042 -0.7191
 3130SOL     OW20851   4.201   4.257   5.383  0.1733 -0.1983  0.4449
 3130SOL    HW120852   4.241   4.186   5.332  0.5188 -0.1206  0.6071
 3130SOL    HW220853   4.234   4.238   5.471 -0.6052  2.7229  1.3445
 3131SOL     OW20854   1.638   4.191   4.770 -0.1498  0.1505 -0.9405
 3131SOL    HW120855   1.678   4.119   4.721 -1.5932 -1.0261 -0.3618
 3131SOL    HW220856   1.615   4.240   4.691 -1.2164  0.3876 -0.4832
 3132SOL     OW20857   2.116   1.695  14.350  0.8255  0.3188  0.5547
 3132SOL    HW120858   2.185   1.760  14.365  1.0057  0.5473 -1.1930
 3132SOL    HW220859   2.108   1.646  14.431  0.3448 -0.3327  0.1099
 3133SOL     OW20860   1.544   2.444   2.256  0.0675  0.0683  0.2659
 3133SOL    HW120861   1.481   2.505   2.216 -0.2062 -0.1334  0.3855
 3133SOL    HW220862   1.574   2.498   2.329 -0.6872  0.8000  0.0376
 3134SOL     OW20863   1.114   2.085   6.645  0.3396 -0.2649  0.0444
 3134SOL    HW120864   1.070   2.132   6.716 -0.3917 -0.3916 -0.3309
 3134SOL    HW220865   1.047   2.098   6.578 -0.0561 -2.2821  0.0453
 3135SOL     OW20866   0.321   0.189  14.227  0.2114  0.2737  0.2837
 3135SOL    HW120867   0.357   0.204  14.314  1.1544 -2.7769  0.4580
 3135SOL    HW220868   0.326   0.276  14.189 -2.1416  0.9374  1.5340
 3136SOL     OW20869   2.540   3.244   5.197 -0.0074  0.3874 -0.4213
 3136SOL    HW120870   2.609   3.289   5.147  0.2417 -1.3547 -1.6558
 3136SOL    HW220871   2.518   3.177   5.133 -0.1905 -0.7701  0.8628
 3137SOL     OW20872   3.319   2.216   3.906 -0.2108  0.3255 -0.3144
 3137SOL    HW120873   3.407   2.232   3.870 -0.1802  0.6672 -0.0871
 3137SOL    HW220874   3.333   2.216   4.001 -0.3633 -0.7550 -0.2900
 3138SOL     OW20875   0.536   0.523   7.811  0.1819  0.0094  0.1862
 3138SOL    HW120876   0.574   0.559   7.891  1.2215 -0.9861  0.1461
 3138SOL    HW220877   0.493   0.601   7.775  1.8595  0.4948 -0.7977
 3139SOL     OW20878   0.535   3.862  17.055  0.0036  0.6365 -0.6394
 3139SOL    HW120879   0.456   3.892  17.009 -0.9445 -0.4354  0.2842
 3139SOL    HW220880   0.494   3.813  17.126 -1.2533  1.5545 -0.7245
 3140SOL     OW20881   3.049   0.713  11.257  0.8823  0.5148 -0.2743
 3140SOL    HW120882   3.145   0.720  11.255  0.9832 -1.4494 -1.3536
 3140SOL    HW220883   3.023   0.720  11.349  1.3246 -1.7364  0.0257
 3141SOL     OW20884   1.763   1.515   6.053  0.1672  0.2592  0.2826
 3141SOL    HW120885   1.709   1.533   6.130 -0.3743  0.0818 -0.0601
 3141SOL    HW220886   1.695   1.482   5.995  3.0078 -3.5600 -0.8996
 3142SOL     OW20887   0.336   0.491  16.453  0.1361 -0.0026  0.0916
 3142SOL    HW120888   0.375   0.421  16.400  0.4041  2.0384 -2.3978
 3142SOL    HW220889   0.378   0.565  16.410  1.9021  0.1168  2.0569
 3143SOL     OW20890   3.558   3.919   0.621 -0.0604 -0.6019  0.1358
 3143SOL    HW120891   3.624   3.881   0.679 -1.8018 -2.5985  0.7834
 3143SOL    HW220892   3.515   3.847   0.575 -0.2646  0.0130 -0.6277
 3144SOL     OW20893   1.722   0.388   8.896  0.6382 -0.1827  0.2385
 3144SOL    HW120894   1.649   0.328   8.906  2.0126 -1.5483  2.0988
 3144SOL    HW220895   1.703   0.419   8.808 -0.6785 -0.4551  0.4356
 3145SOL     OW20896   1.685   4.503  16.800 -0.6003  0.2304 -0.5434
 3145SOL    HW120897   1.742   4.451  16.744 -0.6194  0.7095 -1.0083
 3145SOL    HW220898   1.701   4.589  16.762 -2.0300  2.3680  3.6407
 3146SOL     OW20899   2.919   1.602  15.460  0.6088  0.1265  0.4241
 3146SOL    HW120900   2.975   1.656  15.516  0.7555 -0.4357  0.8256
 3146SOL    HW220901   2.959   1.625  15.376  0.3668 -0.4047  0.1585
 3147SOL     OW20902   2.207   2.891   4.378  0.0167 -0.0980  0.3074
 3147SOL    HW120903   2.208   2.985   4.396  2.7690 -0.3407  1.4202
 3147SOL    HW220904   2.222   2.887   4.284  1.1402 -1.4549  0.5429
 3148SOL     OW20905   4.241   2.729  15.854 -0.4394 -0.6519 -0.0477
 3148SOL    HW120906   4.146   2.733  15.865 -0.4016  4.3449 -1.3319
 3148SOL    HW220907   4.262   2.819  15.880 -1.6891 -0.2034 -0.5951
 3149SOL     OW20908   4.481   3.799   3.089  0.2862 -0.7077 -0.9108
 3149SOL    HW120909   4.463   3.725   3.148  0.5450 -1.6814 -2.0347
 3149SOL    HW220910   4.405   3.792   3.032  0.5507  0.4468 -1.3898
 3150SOL     OW20911   1.101   4.543   7.179  0.2715  0.1213  0.3781
 3150SOL    HW120912   1.134   4.632   7.192  1.5425 -0.1108 -1.2260
 3150SOL    HW220913   1.022   4.543   7.234 -0.1520  0.1281 -0.2334
 3151SOL     OW20914   0.357   2.707   5.794  0.1357 -0.1370  0.4643
 3151SOL    HW120915   0.345   2.784   5.739  1.8153 -0.8465 -0.8793
 3151SOL    HW220916   0.352   2.752   5.879  1.4234  0.5109  0.1929
 3152SOL     OW20917   4.627   1.905   6.691 -0.0292  0.1056 -0.5711
 3152SOL    HW120918   4.611   1.913   6.785 -3.3170 -0.2226 -1.1014
 3152SOL    HW220919   4.723   1.903   6.688 -0.0046 -0.3568  0.5059
 3153SOL     OW20920   4.568   2.961   1.615  0.0364  0.5642 -0.0232
 3153SOL    HW120921   4.647   2.908   1.602 -0.5626 -0.8836  2.1756
 3153SOL    HW220922   4.516   2.942   1.536 -0.8848 -0.3223  0.7849
 3154SOL     OW20923   1.005   4.282   0.831  0.4077 -0.3488 -0.3086
 3154SOL    HW120924   1.073   4.301   0.767  1.2085 -1.5798  0.1672
 3154SOL    HW220925   0.971   4.198   0.799  2.6107 -0.5790 -2.0493
 3155SOL     OW20926   4.364   3.868   0.415  0.4542  0.8893 -0.5341
 3155SOL    HW120927   4.427   3.812   0.461 -0.2096  1.4867  1.1042
 3155SOL    HW220928   4.306   3.907   0.481 -0.1914 -0.0368 -0.5626
 3156SOL     OW20929   0.545   0.689   5.137  0.0992 -0.2613  0.0749
 3156SOL    HW120930   0.509   0.714   5.052 -0.5234 -1.7226 -0.0897
 3156SOL    HW220931   0.577   0.770   5.177  0.0828  0.1364 -0.7145
 3157SOL     OW20932   0.636   3.164   7.406  0.2395  0.0155  0.5044
 3157SOL    HW120933   0.729   3.182   7.395  0.0293  1.6544  1.4925
 3157SOL    HW220934   0.627   3.069   7.395  0.8963  0.0895 -0.7004
 3158SOL     OW20935   2.254   0.272   8.112  0.2464 -0.5594  0.0535
 3158SOL    HW120936   2.197   0.244   8.040 -0.6011  0.1243  0.4612
 3158SOL    HW220937   2.274   0.184   8.144  2.6178  0.1205  0.4240
 3159SOL     OW20938   0.608   2.608   5.613 -0.4956 -0.2155 -0.2907
 3159SOL    HW120939   0.586   2.640   5.525  1.3274  0.9747 -0.3147
 3159SOL    HW220940   0.539   2.657   5.658 -1.3175 -1.4891 -0.1602
 3160SOL     OW20941   0.660   2.020   4.831  0.4623 -0.7890  0.2851
 3160SOL    HW120942   0.723   2.088   4.854  2.1741 -2.7333  1.2820
 3160SOL    HW220943   0.681   2.017   4.737  0.1390 -1.5823  0.2430
 3161SOL     OW20944   3.719   0.782   7.200 -0.5068 -0.0258  0.6015
 3161SOL    HW120945   3.741   0.856   7.144  1.0923 -0.5080  0.6082
 3161SOL    HW220946   3.750   0.706   7.151 -0.8854  2.1649 -3.0899
 3162SOL     OW20947   4.468   0.386   4.029 -0.0428 -0.3312  0.3451
 3162SOL    HW120948   4.553   0.411   3.993 -0.1036 -1.6963 -0.7684
 3162SOL    HW220949   4.473   0.292   4.009 -0.6168 -0.3274  0.1874
 3163SOL     OW20950   1.364   3.691   7.678 -0.3317 -0.2755 -0.4548
 3163SOL    HW120951   1.328   3.749   7.745 -0.5047 -0.0283 -0.7630
 3163SOL    HW220952   1.299   3.685   7.608  0.5702  0.2252 -1.3348
 3164SOL     OW20953   0.506   2.182  16.283  0.4933 -0.1657 -0.0957
 3164SOL    HW120954   0.545   2.230  16.210 -1.7119  1.0808 -0.4572
 3164SOL    HW220955   0.413   2.183  16.264  0.5837  2.0365 -0.4819
 3165SOL     OW20956   2.012   2.223   4.186 -0.6952  0.1573  0.0456
 3165SOL    HW120957   2.104   2.199   4.195 -0.1602  1.8923 -0.7418
 3165SOL    HW220958   1.964   2.153   4.230 -1.2992 -0.5843 -1.8206
 3166SOL     OW20959   3.069   4.068  10.240 -0.3847  0.0061 -0.2193
 3166SOL    HW120960   2.989   4.024  10.210 -1.3230  0.7995  1.0989
 3166SOL    HW220961   3.038   4.105  10.323 -1.1868  1.1788 -1.0497
 3167SOL     OW20962   3.762   0.989   5.512 -0.3211 -0.0597 -0.3643
 3167SOL    HW120963   3.830   1.007   5.447 -0.7613 -1.7789 -1.3105
 3167SOL    HW220964   3.811   1.026   5.586  0.6471 -1.7669 -0.1313
 3168SOL     OW20965   0.832   3.322   9.894 -0.2540 -0.2487  0.3209
 3168SOL    HW120966   0.866   3.232   9.891  1.4704  0.4465 -0.8712
 3168SOL    HW220967   0.802   3.331   9.984  1.5440  2.2849  0.6675
 3169SOL     OW20968   4.266   1.494   8.323 -0.2692 -0.1561 -0.7663
 3169SOL    HW120969   4.305   1.409   8.346  0.9554  0.2691 -1.2898
 3169SOL    HW220970   4.321   1.528   8.253 -0.8825 -1.3708 -1.8341
 3170SOL     OW20971   0.160   4.688  16.650  0.4571  0.4386 -0.2090
 3170SOL    HW120972   0.135   0.046  16.694  3.8886  0.4701  1.6270
 3170SOL    HW220973   0.121   4.624  16.709 -1.2333  2.6602  1.0876
 3171SOL     OW20974   1.301   4.074   7.654  0.1920 -0.2788  0.5587
 3171SOL    HW120975   1.234   4.010   7.680  0.1603 -0.3739  0.2473
 3171SOL    HW220976   1.315   4.035   7.568 -0.7011  1.0926 -0.1981
 3172SOL     OW20977   3.581   2.706  15.101  0.5209 -0.2296 -0.0381
 3172SOL    HW120978   3.638   2.693  15.025  1.4902 -0.0246  0.6605
 3172SOL    HW220979   3.591   2.797  15.126 -2.2903 -0.2415  1.1587
 3173SOL     OW20980   4.310   1.883   2.651 -0.0478  0.2210  0.1876
 3173SOL    HW120981   4.328   1.977   2.650 -0.9255  0.3948  0.8727
 3173SOL    HW220982   4.303   1.865   2.745  0.8795  0.8193  0.3677
 3174SOL     OW20983   4.385   1.014   0.961 -0.2982 -0.0344 -0.3910
 3174SOL    HW120984   4.453   1.079   0.981 -1.4208  0.4285  1.8499
 3174SOL    HW220985   4.302   1.050   0.992 -0.2707  1.8231 -2.4527
 3175SOL     OW20986   0.651   2.165   6.758 -0.4089  0.2652  0.1403
 3175SOL    HW120987   0.606   2.247   6.736 -0.2766  0.5321  0.8599
 3175SOL    HW220988   0.570   2.115   6.752  1.0303 -1.8860 -1.5647
 3176SOL     OW20989   2.102   1.549  17.428 -0.0525  0.2913 -0.0473
 3176SOL    HW120990   2.125   1.616  17.364 -0.1677 -0.5605 -0.9753
 3176SOL    HW220991   2.021   1.520  17.387 -0.4312  0.6035  0.4759
 3177SOL     OW20992   0.603   1.301   4.187 -0.4155  0.1295  0.1660
 3177SOL    HW120993   0.697   1.313   4.187 -0.4209  0.1075 -1.9988
 3177SOL    HW220994   0.575   1.384   4.148 -0.7472 -0.2410 -0.3895
 3178SOL     OW20995   1.021   1.881   5.465 -0.0559  0.1467 -0.0309
 3178SOL    HW120996   1.070   1.880   5.383  1.4252  3.8079  0.8153
 3178SOL    HW220997   1.043   1.964   5.508  2.2292 -0.0430 -0.8329
 3179SOL     OW20998   3.622   0.766   2.955 -0.0433 -0.0501  0.4977
 3179SOL    HW120999   3.580   0.728   3.031 -1.3928 -1.4156 -0.9266
 3179SOL    HW221000   3.656   0.687   2.913  0.6264  0.8212 -0.6447
 3180SOL     OW21001   4.308   3.018   7.627 -0.5525  0.1528 -0.4472
 3180SOL    HW121002   4.278   3.029   7.717 -1.1355 -1.9516 -0.4025
 3180SOL    HW221003   4.254   2.944   7.601 -2.0372  1.3477 -0.7945
 3181SOL     OW21004   3.053   2.286   8.587 -0.5276  0.2227 -0.6700
 3181SOL    HW121005   3.083   2.195   8.583 -0.6690  0.2207 -1.7538
 3181SOL    HW221006   3.124   2.330   8.633  0.7842 -0.7664 -1.7273
 3182SOL     OW21007   0.788   2.688   9.620  0.4578 -0.3602 -0.3535
 3182SOL    HW121008   0.853   2.732   9.675 -1.2913  2.9913 -0.9456
 3182SOL    HW221009   0.723   2.663   9.686  1.1828  0.8567  0.8032
 3183SOL     OW21010   4.390   2.133   7.247 -0.3536 -0.2121  0.0252
 3183SOL    HW121011   4.431   2.061   7.294 -0.7266 -0.4278  0.0257
 3183SOL    HW221012   4.303   2.101   7.222  0.3384 -0.7616 -1.6498
 3184SOL     OW21013   3.893   1.360   3.306  0.6588 -0.1849  0.1578
 3184SOL    HW121014   3.969   1.332   3.357  1.3262 -0.7155 -1.1155
 3184SOL    HW221015   3.911   1.315   3.223  1.8957  1.0309 -0.2385
 3185SOL     OW21016   0.948   2.595   3.977 -0.6570 -0.4894  0.0983
 3185SOL    HW121017   0.932   2.590   3.883 -1.2425  1.6047  0.0789
 3185SOL    HW221018   0.862   2.574   4.013 -0.2528  0.3085  1.5184
 3186SOL     OW21019   3.425   4.276   0.883  0.0425  0.4753  0.3313
 3186SOL    HW121020   3.361   4.267   0.812  0.3167  3.5771 -0.3169
 3186SOL    HW221021   3.490   4.333   0.841  1.8380 -0.4790  1.8216
 3187SOL     OW21022   4.053   0.389   8.583 -0.1263  0.2039  0.1333
 3187SOL    HW121023   4.012   0.456   8.638 -0.2542  1.0448 -1.0095
 3187SOL    HW221024   3.988   0.397   8.514 -0.5534 -2.9893  0.1470
 3188SOL     OW21025   0.367   2.903   2.321  0.5813 -0.1626  0.3325
 3188SOL    HW121026   0.442   2.960   2.307 -0.6444  1.4677  0.4273
 3188SOL    HW221027   0.392   2.850   2.245  0.2729 -2.0696  1.5700
 3189SOL     OW21028   2.196   0.547   9.058  0.1608 -0.5695 -0.1728
 3189SOL    HW121029   2.195   0.545   9.154  0.2119  0.1388 -0.1565
 3189SOL    HW221030   2.112   0.505   9.042  0.0296 -0.3170 -0.1445
 3190SOL     OW21031   4.697   2.169   9.862  0.3208  0.0642 -0.2520
 3190SOL    HW121032   4.678   2.116   9.940 -2.7291  0.2855 -0.8229
 3190SOL    HW221033   4.639   2.243   9.881  0.7553  0.2788  0.2289
 3191SOL     OW21034   0.217   3.477   6.454 -0.4085 -0.3020  0.0449
 3191SOL    HW121035   0.310   3.480   6.431 -0.8791 -3.0955 -2.2566
 3191SOL    HW221036   0.214   3.410   6.522 -0.1121 -0.6230 -0.2542
 3192SOL     OW21037   1.383   1.504   1.030 -0.5949  0.2652  0.0076
 3192SOL    HW121038   1.408   1.448   0.956  0.9346  2.1783 -0.9110
 3192SOL    HW221039   1.386   1.439   1.101  1.5169  1.1283  0.6859
 3193SOL     OW21040   1.959   4.668   1.568 -0.6207  0.1921  0.2357
 3193SOL    HW121041   1.867   4.658   1.589 -0.9661 -0.2704 -1.4621
 3193SOL    HW221042   2.002   4.670   1.653 -0.3536 -1.0922  0.1280
 3194SOL     OW21043   0.034   0.145   8.412 -0.2026  0.2169  0.1225
 3194SOL    HW121044   0.058   0.053   8.398  0.7132  0.2823  1.2741
 3194SOL    HW221045   0.120   0.179   8.389 -0.5964  0.6657 -0.7220
 3195SOL     OW21046   3.189   1.177  16.838  0.3254 -0.5812 -0.4363
 3195SOL    HW121047   3.102   1.212  16.818  0.5931  0.2013 -0.1926
 3195SOL    HW221048   3.205   1.127  16.758  2.2257 -0.9766  0.2032
 3196SOL     OW21049   0.727   4.530  15.775  0.1700  0.1240 -0.5895
 3196SOL    HW121050   0.721   4.471  15.850  1.8864 -0.8986 -1.2682
 3196SOL    HW221051   0.815   4.503  15.750  0.2776 -0.3193  0.2466
 3197SOL     OW21052   2.618   2.184   5.337  0.2687  0.0647  0.3257
 3197SOL    HW121053   2.554   2.121   5.369 -0.5233  0.4397 -0.5259
 3197SOL    HW221054   2.596   2.255   5.397 -1.0879 -0.4376  0.4223
 3198SOL     OW21055   0.191   1.610   5.120 -0.3738 -0.3720 -0.4673
 3198SOL    HW121056   0.281   1.578   5.114  0.5549  2.3530 -1.2193
 3198SOL    HW221057   0.180   1.699   5.087  3.9048  1.7398  3.7812
 3199SOL     OW21058   2.009   4.557   8.191  0.9013 -0.0264  0.4208
 3199SOL    HW121059   2.016   4.465   8.168 -0.8086 -0.7407  2.7501
 3199SOL    HW221060   2.030   4.611   8.114  0.7087 -0.5557 -0.0060
 3200SOL     OW21061   4.674   1.222   4.881 -0.8448  0.1510 -0.3511
 3200SOL    HW121062   4.715   1.308   4.882 -1.3124  0.3477  0.9697
 3200SOL    HW221063   4.605   1.236   4.945  0.1428  1.0289  0.5235
 3201SOL     OW21064   1.713   0.132   7.893 -0.2904  0.2040 -0.6540
 3201SOL    HW121065   1.684   0.064   7.955 -1.0842 -1.3816 -2.7760
 3201SOL    HW221066   1.646   0.200   7.893  0.9708  1.4486 -0.9337
 3202SOL     OW21067   2.793   3.774  17.010 -0.5726 -0.1050  0.4451
 3202SOL    HW121068   2.762   3.686  17.031 -3.6572  1.4177  2.3364
 3202SOL    HW221069   2.886   3.751  17.012 -0.9100 -1.4585  0.7855
 3203SOL     OW21070   0.412   4.672  15.200  0.0227  0.4796  0.6671
 3203SOL    HW121071   0.448   4.627  15.124 -0.0422  0.0955  0.8676
 3203SOL    HW221072   0.320   4.653  15.181 -0.0884  0.6317  1.0446
 3204SOL     OW21073   3.588   3.460   6.518 -0.0541 -0.0188  0.4731
 3204SOL    HW121074   3.624   3.479   6.432 -0.2188 -1.0142  0.1828
 3204SOL    HW221075   3.588   3.547   6.558 -0.9865 -0.6530  1.8630
 3205SOL     OW21076   1.104   0.263   9.803 -0.7329 -0.0753 -0.0393
 3205SOL    HW121077   1.050   0.242   9.727 -2.1282 -0.2507  0.9944
 3205SOL    HW221078   1.170   0.318   9.760 -0.0449  1.0936  2.5265
 3206SOL     OW21079   2.277   4.252   5.310  0.0598  0.1894 -0.0335
 3206SOL    HW121080   2.294   4.163   5.279 -1.3111 -0.9753  2.4773
 3206SOL    HW221081   2.366   4.281   5.293 -0.6786  2.0369 -0.7628
 3207SOL     OW21082   2.899   1.788  16.587  0.4299 -0.0031 -0.8859
 3207SOL    HW121083   2.847   1.847  16.532 -0.4917  1.0236  1.1029
 3207SOL    HW221084   2.832   1.728  16.620 -0.4843  1.1500 -0.6313
 3208SOL     OW21085   2.003   1.256   6.767 -0.2401  0.6523 -0.4838
 3208SOL    HW121086   2.016   1.161   6.766 -1.3695  0.4859  1.0628
 3208SOL    HW221087   1.920   1.259   6.719 -0.9218 -0.7293  0.5903
 3209SOL     OW21088   1.726   2.474   3.758 -0.1093  0.3088 -0.0856
 3209SOL    HW121089   1.700   2.424   3.835  0.5014 -0.7572 -0.5632
 3209SOL    HW221090   1.649   2.531   3.757 -0.1657  0.2222 -1.6670
 3210SOL     OW21091   0.969   0.372   1.723 -0.2642  0.0534 -0.8122
 3210SOL    HW121092   0.947   0.286   1.758  3.6404 -0.3628  0.6846
 3210SOL    HW221093   0.882   0.400   1.695 -0.2666  0.8207 -0.0443
 3211SOL     OW21094   0.231   4.224   6.018 -0.2543  0.2358 -0.4899
 3211SOL    HW121095   0.227   4.235   6.113 -0.1258  0.6220 -0.5287
 3211SOL    HW221096   0.147   4.261   5.992 -0.4826  0.5134  0.6560
 3212SOL     OW21097   0.702   2.975  11.963 -0.4769 -0.1486 -0.4719
 3212SOL    HW121098   0.703   2.903  12.026  0.8232 -0.8056 -1.2636
 3212SOL    HW221099   0.640   3.031  12.010 -0.0852 -0.4350  0.3758
 3213SOL     OW21100   3.340   0.112   0.898 -0.2614 -0.6054  0.2653
 3213SOL    HW121101   3.255   0.136   0.935 -1.3458 -0.8718 -2.1002
 3213SOL    HW221102   3.387   0.184   0.940 -2.1223  1.4616 -1.2149
 3214SOL     OW21103   3.331   2.463   2.316  0.4743  0.6886  0.3337
 3214SOL    HW121104   3.310   2.380   2.358  1.7995 -0.0771 -0.5604
 3214SOL    HW221105   3.424   2.473   2.335  0.4023  1.0432  0.5062
 3215SOL     OW21106   1.288   3.559   9.632  0.3568  0.0127 -0.6617
 3215SOL    HW121107   1.326   3.645   9.652 -1.3538  0.7390 -0.5436
 3215SOL    HW221108   1.198   3.574   9.660  0.8073  0.4066  0.5729
 3216SOL     OW21109   2.336   2.799   0.047  0.1632 -0.0739 -0.0725
 3216SOL    HW121110   2.283   2.763   0.118 -0.8943  0.6473 -0.5050
 3216SOL    HW221111   2.412   2.824   0.099 -0.1590 -0.9504  0.8094
 3217SOL     OW21112   3.826   4.214   4.856 -0.2901  0.2622 -0.5311
 3217SOL    HW121113   3.898   4.154   4.839 -1.3483 -1.4581  1.0818
 3217SOL    HW221114   3.874   4.293   4.882 -0.7973  1.0233 -1.8906
 3218SOL     OW21115   0.581   1.210   7.461 -0.2604 -0.1942  0.6166
 3218SOL    HW121116   0.490   1.232   7.481 -0.0711  0.4857  0.7500
 3218SOL    HW221117   0.619   1.288   7.419  1.0446 -1.0760  0.1544
 3219SOL     OW21118   2.417   1.673   4.766  0.4413 -0.1611 -0.3718
 3219SOL    HW121119   2.362   1.675   4.844  1.7153 -0.0781  0.5354
 3219SOL    HW221120   2.467   1.592   4.772 -1.4061 -1.3215 -0.8804
 3220SOL     OW21121   0.751   4.343   5.781 -0.3203  0.3887 -0.0222
 3220SOL    HW121122   0.666   4.299   5.789 -0.2681 -0.0072 -1.7541
 3220SOL    HW221123   0.810   4.285   5.733  1.3678  1.6907  0.4643
 3221SOL     OW21124   3.155   0.079   3.588 -0.0257 -0.1054 -0.1247
 3221SOL    HW121125   3.220   0.015   3.617  2.2478  2.5217  0.5374
 3221SOL    HW221126   3.082   0.055   3.646 -0.5570  1.9416  0.0365
 3222SOL     OW21127   4.638   4.151   2.485 -0.0994 -0.5048  0.9663
 3222SOL    HW121128   4.685   4.153   2.401  1.0690  1.1063  1.6500
 3222SOL    HW221129   4.688   4.209   2.542  2.1820 -0.8452 -0.6674
 3223SOL     OW21130   3.900   2.872   4.272 -0.4844  0.7541 -0.1592
 3223SOL    HW121131   3.940   2.957   4.252  3.6174 -0.7398  1.8936
 3223SOL    HW221132   3.939   2.848   4.355 -0.3690  0.5034 -0.2884
 3224SOL     OW21133   2.661   3.294   2.103  0.2830 -0.1124 -0.3840
 3224SOL    HW121134   2.639   3.236   2.176 -1.4066 -0.0604 -0.8604
 3224SOL    HW221135   2.754   3.275   2.092  0.7193  0.2973  2.6886
 3225SOL     OW21136   1.351   3.019   3.513  0.0792  0.1480 -0.2997
 3225SOL    HW121137   1.393   3.012   3.599  0.4390 -4.7603 -0.8638
 3225SOL    HW221138   1.388   2.943   3.470 -0.2223 -0.8342  1.1778
 3226SOL     OW21139   1.502   3.162   3.958  0.2010  0.2194 -0.5269
 3226SOL    HW121140   1.524   3.115   4.039  2.7821  1.6243 -0.4221
 3226SOL    HW221141   1.592   3.178   3.929 -0.4267  0.6105 -2.2784
 3227SOL     OW21142   0.675   0.933   1.881 -0.3546 -0.2379 -0.1506
 3227SOL    HW121143   0.601   0.912   1.938  1.1497  1.0386  2.2731
 3227SOL    HW221144   0.625   0.946   1.800 -0.1510  2.2362  0.1171
 3228SOL     OW21145   0.821   4.079  14.563  0.0563  0.4125 -0.3825
 3228SOL    HW121146   0.839   4.147  14.627 -0.3258 -0.9659  1.1929
 3228SOL    HW221147   0.909   4.072  14.526  0.5721 -0.2556  0.9470
 3229SOL     OW21148   2.166   4.102  16.305 -0.0364 -0.7223  0.0985
 3229SOL    HW121149   2.232   4.172  16.301 -1.2687  0.5976  3.2942
 3229SOL    HW221150   2.150   4.082  16.212  1.4936 -1.5325  0.0096
 3230SOL     OW21151   4.523   1.414  14.665  0.4873  0.5503  0.2921
 3230SOL    HW121152   4.592   1.419  14.731  0.6706  0.5784  0.0984
 3230SOL    HW221153   4.575   1.425  14.586  0.5368  2.9075  0.6354
 3231SOL     OW21154   0.200   3.443   3.406  0.2413  0.4245 -0.1958
 3231SOL    HW121155   0.255   3.365   3.408  0.1202  0.3913  2.7148
 3231SOL    HW221156   0.264   3.510   3.382  0.7216 -0.1725 -0.5622
 3232SOL     OW21157   0.703   3.397   7.826 -0.3035  0.1351  0.5341
 3232SOL    HW121158   0.768   3.383   7.894  0.2042  0.0203  0.0195
 3232SOL    HW221159   0.760   3.393   7.749 -1.0998 -3.0634  0.0916
 3233SOL     OW21160   2.048   3.032   2.686  0.0003  0.6412 -0.3876
 3233SOL    HW121161   2.110   3.096   2.650  1.3764  0.2426  1.2942
 3233SOL    HW221162   1.983   3.042   2.617  0.2911  0.0496 -0.7525
 3234SOL     OW21163   0.902   4.515   3.402  0.0598 -0.2523  0.5402
 3234SOL    HW121164   0.954   4.554   3.472  0.9947  0.0215 -0.2963
 3234SOL    HW221165   0.834   4.578   3.380 -0.0105 -0.7139 -0.5880
 3235SOL     OW21166   2.842   2.749   5.495  0.6975 -0.8732 -0.0246
 3235SOL    HW121167   2.857   2.808   5.568  2.5082 -1.4179  0.0300
 3235SOL    HW221168   2.781   2.690   5.540  0.9575 -1.2211 -0.1258
 3236SOL     OW21169   3.881   3.159   4.792 -0.1192  0.3183  0.1417
 3236SOL    HW121170   3.926   3.196   4.867  0.7326 -1.4748  0.5271
 3236SOL    HW221171   3.885   3.240   4.742 -0.1530  0.2627  0.0493
 3237SOL     OW21172   4.465   3.791  13.108  0.0755  0.0287  0.1808
 3237SOL    HW121173   4.558   3.806  13.089 -0.0844  1.9939  1.0004
 3237SOL    HW221174   4.455   3.700  13.078 -0.2785 -0.0982  0.6956
 3238SOL     OW21175   4.559   0.464  11.701  0.0042 -0.2205 -0.2213
 3238SOL    HW121176   4.621   0.411  11.651  1.2743  0.3748  0.7075
 3238SOL    HW221177   4.511   0.503  11.628  1.6591 -1.5274 -1.9906
 3239SOL     OW21178   1.190   4.016   2.972  0.5912  0.2421 -0.0048
 3239SOL    HW121179   1.243   4.093   2.952  0.9849 -0.4883 -1.8377
 3239SOL    HW221180   1.178   4.027   3.066 -3.7089 -3.5747 -0.0760
 3240SOL     OW21181   2.082   4.086  11.781 -0.2249  0.0590  0.4110
 3240SOL    HW121182   2.104   4.020  11.715  1.0228  1.6448 -0.7521
 3240SOL    HW221183   2.114   4.044  11.861 -0.0722  1.6213  1.1517
 3241SOL     OW21184   4.054   0.849   2.458  0.4474  0.1954 -0.1345
 3241SOL    HW121185   4.030   0.896   2.538 -3.0028  2.9221 -2.7463
 3241SOL    HW221186   4.024   0.905   2.387  2.4647  0.5049 -0.7445
 3242SOL     OW21187   1.304   3.888   8.155 -0.1058  0.5169  0.1465
 3242SOL    HW121188   1.356   3.873   8.234 -0.4040 -0.6112  0.1289
 3242SOL    HW221189   1.214   3.869   8.182  0.0369 -0.1261  0.1622
 3243SOL     OW21190   3.222   2.443   3.784  0.0208 -0.1683  0.1221
 3243SOL    HW121191   3.235   2.350   3.802  0.1214 -0.2898 -0.5681
 3243SOL    HW221192   3.311   2.476   3.787  0.3011 -1.1107  2.3496
 3244SOL     OW21193   2.013   0.992  13.915 -0.2869  0.1451  0.3279
 3244SOL    HW121194   1.950   1.063  13.909  0.1413  0.4351 -0.7286
 3244SOL    HW221195   1.963   0.918  13.879  1.4367 -0.3744 -0.9792
 3245SOL     OW21196   2.662   3.070   7.468 -0.3672 -0.1350  0.2964
 3245SOL    HW121197   2.638   3.025   7.549 -2.0082  0.8089  0.3265
 3245SOL    HW221198   2.605   3.013   7.416 -0.5660 -0.4511  0.8535
 3246SOL     OW21199   3.394   0.141  16.310 -0.2770 -0.8427  0.4558
 3246SOL    HW121200   3.438   0.069  16.264  0.9763 -1.9873  3.4401
 3246SOL    HW221201   3.339   0.181  16.243  3.4010  2.8924 -0.2948
 3247SOL     OW21202   1.787   4.163   9.343 -0.2792  0.1175 -0.6806
 3247SOL    HW121203   1.805   4.254   9.365  0.4836 -0.6368  1.8529
 3247SOL    HW221204   1.691   4.156   9.349 -0.4423  3.3409  0.6856
 3248SOL     OW21205   2.255   3.556  13.728 -0.1777 -0.2579  0.1189
 3248SOL    HW121206   2.216   3.643  13.736 -2.2276 -1.2519  0.8079
 3248SOL    HW221207   2.309   3.551  13.806  0.6275  1.4495 -0.3330
 3249SOL     OW21208   1.259   0.430   3.286 -0.3083  0.0227 -0.0608
 3249SOL    HW121209   1.296   0.436   3.374 -0.8694  0.0004  0.1793
 3249SOL    HW221210   1.229   0.521   3.292 -3.6882 -1.1074  0.4753
 3250SOL     OW21211   3.164   3.594  13.417  0.1073  0.4361  0.6474
 3250SOL    HW121212   3.217   3.527  13.374  0.9807  1.9068 -0.5231
 3250SOL    HW221213   3.124   3.540  13.486  2.4176 -1.8818  0.1730
 3251SOL     OW21214   2.719   2.869   3.899  0.0779 -0.3569  0.2579
 3251SOL    HW121215   2.720   2.946   3.956 -0.5557  0.8464 -1.3420
 3251SOL    HW221216   2.755   2.801   3.955 -1.8646 -1.1942  0.5051
 3252SOL     OW21217   0.478   2.109   5.774  0.0203 -0.2788  0.0502
 3252SOL    HW121218   0.488   2.131   5.682 -1.4368  1.3142  0.2645
 3252SOL    HW221219   0.549   2.046   5.787  1.8136  1.5124 -0.9495
 3253SOL     OW21220   2.253   2.108   2.881 -0.5952 -0.0443 -0.3793
 3253SOL    HW121221   2.252   2.196   2.844 -1.3686  0.1623  0.1594
 3253SOL    HW221222   2.332   2.115   2.934  0.7989 -1.5556 -2.2257
 3254SOL     OW21223   3.051   2.131   0.200  0.0952 -0.1670 -0.0365
 3254SOL    HW121224   3.100   2.176   0.269 -0.5014  1.1596 -0.4736
 3254SOL    HW221225   2.967   2.177   0.211  0.1732 -0.4791  1.8948
 3255SOL     OW21226   3.637   1.761  15.640 -0.2703  0.1385 -0.3987
 3255SOL    HW121227   3.568   1.766  15.706 -2.5286  1.3712 -2.8930
 3255SOL    HW221228   3.696   1.694  15.675 -1.5096 -0.8699 -0.2475
 3256SOL     OW21229   2.201   4.191   0.219  0.1643  0.3335  0.0979
 3256SOL    HW121230   2.245   4.201   0.135  0.0182  1.9463  0.2004
 3256SOL    HW221231   2.266   4.223   0.281  0.8873 -0.4909 -0.2357
 3257SOL     OW21232   0.222   3.747   9.727  0.1042 -0.6060  0.1662
 3257SOL    HW121233   0.174   3.830   9.732  1.0012 -0.1002  0.3835
 3257SOL    HW221234   0.186   3.709   9.807  0.9899 -2.8700 -0.5258
 3258SOL     OW21235   1.646   3.822   6.015 -0.1246 -0.2190  0.2254
 3258SOL    HW121236   1.742   3.822   6.014 -0.1336 -1.6166  0.3289
 3258SOL    HW221237   1.622   3.906   5.975 -3.7044 -1.4674 -0.2144
 3259SOL     OW21238   3.370   1.477   8.431 -0.4003  0.2402 -0.2692
 3259SOL    HW121239   3.316   1.557   8.431 -1.6171 -0.5897  0.3289
 3259SOL    HW221240   3.300   1.414   8.445  1.0749 -1.4851 -0.6949
 3260SOL     OW21241   1.938   2.664  10.005  0.0278  0.0258 -0.3853
 3260SOL    HW121242   1.910   2.573  10.001 -2.7209  0.7802  1.4364
 3260SOL    HW221243   1.991   2.687   9.929 -1.1899  0.3464 -1.1464
 3261SOL     OW21244   4.649   2.755   6.802  0.0985  0.3327 -0.1664
 3261SOL    HW121245   4.631   2.718   6.715  0.8474  0.6709 -0.4673
 3261SOL    HW221246   4.594   2.707   6.864 -0.8999  1.5422 -0.1117
 3262SOL     OW21247   3.120   4.081   6.114  0.5521  0.1980  0.5547
 3262SOL    HW121248   3.095   4.015   6.178 -2.2488  0.4381 -0.3056
 3262SOL    HW221249   3.191   4.124   6.162 -0.4684 -0.6783  2.8032
 3263SOL     OW21250   0.917   3.770   9.309 -0.2695 -0.2721  0.7026
 3263SOL    HW121251   0.968   3.850   9.297 -0.1024 -0.7556 -1.8740
 3263SOL    HW221252   0.839   3.802   9.355 -1.2456 -2.2213  0.4139
 3264SOL     OW21253   4.578   1.759   9.639 -0.2406  0.3709  0.4365
 3264SOL    HW121254   4.553   1.789   9.552 -2.9547 -1.3091  0.6633
 3264SOL    HW221255   4.603   1.667   9.626  0.6288  0.6364  0.2086
 3265SOL     OW21256   0.901   3.136  14.734  0.4742 -0.5477 -0.2119
 3265SOL    HW121257   0.954   3.145  14.655  1.6485  0.8424  0.7336
 3265SOL    HW221258   0.953   3.074  14.784  0.0507  0.3373  1.3205
 3266SOL     OW21259   0.598   3.443   0.674  0.0638  0.1139 -0.7999
 3266SOL    HW121260   0.654   3.470   0.746 -0.2888  1.3587 -0.9953
 3266SOL    HW221261   0.553   3.523   0.648 -0.8392 -0.5312 -1.2215
 3267SOL     OW21262   0.383   4.141   6.688  0.0766  1.0121  0.2028
 3267SOL    HW121263   0.299   4.104   6.662  0.0100  0.8696  0.6238
 3267SOL    HW221264   0.371   4.164   6.780 -0.6638 -0.8004  0.5487
 3268SOL     OW21265   2.007   0.195   1.422 -0.5490 -0.4444 -0.3010
 3268SOL    HW121266   1.976   0.108   1.447  0.0270 -0.2705  1.0527
 3268SOL    HW221267   1.955   0.243   1.487  0.0070 -0.2745  0.0179
 3269SOL     OW21268   4.098   0.538   3.198 -0.1368 -0.6146  1.2759
 3269SOL    HW121269   4.138   0.567   3.280  0.9973 -0.4791  0.6743
 3269SOL    HW221270   4.126   0.447   3.193  1.8676 -0.0123  1.3850
 3270SOL     OW21271   1.879   3.028   6.705 -0.3943  0.0149  0.4172
 3270SOL    HW121272   1.966   3.010   6.740 -0.2809 -2.2049 -1.0468
 3270SOL    HW221273   1.846   3.094   6.767  0.0732  0.5392  0.1050
 3271SOL     OW21274   3.249   1.778   3.842  0.1465 -0.0406  0.6359
 3271SOL    HW121275   3.267   1.740   3.756 -1.7886  1.0372 -0.2560
 3271SOL    HW221276   3.243   1.871   3.820  1.3405 -0.3078 -0.8366
 3272SOL     OW21277   3.807   0.189  13.735  0.7082 -0.2875 -0.3724
 3272SOL    HW121278   3.877   0.207  13.673  2.2472  0.8454  1.6882
 3272SOL    HW221279   3.808   0.267  13.792 -1.8841 -1.3202  1.1129
 3273SOL     OW21280   4.555   2.578   5.306  0.3222  0.5880  0.5066
 3273SOL    HW121281   4.632   2.546   5.258 -0.6555  0.6010 -1.0943
 3273SOL    HW221282   4.533   2.507   5.366  0.6789 -1.9524 -2.3597
 3274SOL     OW21283   3.948   1.235   8.859 -0.0389  0.4112 -0.0716
 3274SOL    HW121284   4.043   1.243   8.870 -0.0955 -1.2772  1.6833
 3274SOL    HW221285   3.938   1.158   8.803 -0.3930 -0.6867  1.4828
 3275SOL     OW21286   2.356   4.364  13.470  0.3333 -0.5924  0.4932
 3275SOL    HW121287   2.388   4.290  13.521 -0.6277 -1.5953 -0.3340
 3275SOL    HW221288   2.345   4.325  13.383 -1.7672  2.5874 -0.6472
 3276SOL     OW21289   3.110   4.320  14.071 -0.3277 -0.3275 -0.5870
 3276SOL    HW121290   3.055   4.318  14.150 -1.6408  0.9386 -1.4807
 3276SOL    HW221291   3.099   4.406  14.031  0.3762  0.6770  1.3461
 3277SOL     OW21292   2.936   4.351   3.189  0.2611  0.0641 -0.1694
 3277SOL    HW121293   2.993   4.394   3.253 -1.0889 -0.5828  1.4539
 3277SOL    HW221294   3.010   4.337   3.130  0.1247 -0.8940 -0.1133
 3278SOL     OW21295   3.902   3.384   7.997 -0.1070  0.4505  0.1670
 3278SOL    HW121296   3.813   3.414   7.978  0.5949  0.5387 -2.9354
 3278SOL    HW221297   3.923   3.426   8.081  3.3355  0.9249 -0.9388
 3279SOL     OW21298   3.255   2.104  14.305  0.2954  0.3602 -0.0364
 3279SOL    HW121299   3.338   2.146  14.325 -0.8924  2.7712 -0.1671
 3279SOL    HW221300   3.198   2.155  14.363  1.1693 -1.5220  2.4723
 3280SOL     OW21301   3.547   2.795  16.832 -0.0849 -0.0945  0.2528
 3280SOL    HW121302   3.499   2.859  16.885 -0.0510 -0.2689  0.4901
 3280SOL    HW221303   3.608   2.755  16.893  1.3954  1.2303 -0.3471
 3281SOL     OW21304   3.379   4.696   4.806 -0.0913 -0.1606  0.0240
 3281SOL    HW121305   3.416   4.608   4.805 -0.3561 -0.2577 -1.1501
 3281SOL    HW221306   3.395   0.012   4.721 -0.8859 -1.2766 -0.6549
 3282SOL     OW21307   0.375   4.628   6.329  0.1105  0.2888 -0.0843
 3282SOL    HW121308   0.377   4.724   6.333  1.3032  0.3057 -1.0895
 3282SOL    HW221309   0.345   4.624   6.239 -1.8496  2.2577  0.4789
 3283SOL     OW21310   0.314   4.411   9.719 -0.6026 -0.6229  0.2885
 3283SOL    HW121311   0.380   4.375   9.779 -0.4618 -0.0548  0.4708
 3283SOL    HW221312   0.337   4.503   9.731  1.5482 -0.9444 -1.4959
 3284SOL     OW21313   0.307   4.145   9.235  0.1355 -0.4979 -0.0265
 3284SOL    HW121314   0.316   4.110   9.324 -0.8867  0.4180  0.4301
 3284SOL    HW221315   0.279   4.234   9.256 -0.8512 -1.4575  2.7564
 3285SOL     OW21316   0.502   2.645   3.343 -0.1926  0.4715  0.0277
 3285SOL    HW121317   0.505   2.549   3.353  0.8849  0.6214  1.1552
 3285SOL    HW221318   0.418   2.661   3.300 -0.8309  1.4967  1.6343
 3286SOL     OW21319   2.580   0.639   4.475 -0.5051 -0.5442 -0.3666
 3286SOL    HW121320   2.602   0.546   4.472 -0.3942 -0.4651 -2.3437
 3286SOL    HW221321   2.573   0.646   4.570 -1.2121  1.9426 -0.5914
 3287SOL     OW21322   0.517   0.312  16.243  0.0300  0.0968  0.1826
 3287SOL    HW121323   0.596   0.330  16.193 -0.0314  0.7560  0.3132
 3287SOL    HW221324   0.490   0.229  16.204  0.7559  0.5578 -1.2886
 3288SOL     OW21325   0.548   0.837   2.356  0.5229 -0.0273  0.5105
 3288SOL    HW121326   0.542   0.789   2.439 -0.2523  0.0602  0.5094
 3288SOL    HW221327   0.627   0.887   2.375  0.1123  1.1865 -1.0051
 3289SOL     OW21328   3.900   1.906   3.191 -0.0386  0.2706 -0.4302
 3289SOL    HW121329   3.966   1.872   3.131  0.9960  0.8019  0.3933
 3289SOL    HW221330   3.942   1.908   3.277 -1.1913 -1.7269  0.1952
 3290SOL     OW21331   3.448   3.909   2.740 -0.3706  0.1868 -0.1744
 3290SOL    HW121332   3.402   3.869   2.814  0.2185 -0.0061  0.0840
 3290SOL    HW221333   3.409   3.996   2.735  0.6929  0.6360 -0.4725
 3291SOL     OW21334   4.039   3.775   3.875 -1.1838 -0.0458 -0.1629
 3291SOL    HW121335   4.032   3.717   3.800  1.7614 -0.6897  0.0460
 3291SOL    HW221336   4.050   3.855   3.824 -2.7757  0.8260  0.8489
 3292SOL     OW21337   1.909   1.289   4.016  0.6800  0.2056 -0.3686
 3292SOL    HW121338   2.002   1.266   4.015  0.3741 -1.1300  2.0326
 3292SOL    HW221339   1.864   1.224   3.962 -1.4470  0.5360  0.9991
 3293SOL     OW21340   1.484   1.466   3.212 -0.0221  0.0791 -0.5132
 3293SOL    HW121341   1.412   1.447   3.274  0.2226 -2.3955 -0.9711
 3293SOL    HW221342   1.438   1.466   3.128 -2.3780 -0.4968  0.7764
 3294SOL     OW21343   3.220   0.553   6.543  0.0021 -0.5050  1.2131
 3294SOL    HW121344   3.252   0.643   6.546 -1.6265  0.0912  0.4320
 3294SOL    HW221345   3.263   0.512   6.618 -0.5085 -0.1467  1.7056
 3295SOL     OW21346   4.326   0.883   7.602  0.4295  0.2867 -0.1731
 3295SOL    HW121347   4.248   0.828   7.605 -0.0976  1.0894  0.8123
 3295SOL    HW221348   4.315   0.936   7.524 -2.1661  0.4608  0.3082
 3296SOL     OW21349   0.293   1.836  14.399  0.0047  0.0549 -0.2954
 3296SOL    HW121350   0.297   1.824  14.494 -0.0997  1.4649 -0.1113
 3296SOL    HW221351   0.217   1.782  14.379  0.1213 -0.1708 -0.1303
 3297SOL     OW21352   2.546   1.985   3.927 -0.6064 -0.1944 -0.2498
 3297SOL    HW121353   2.605   1.915   3.955 -0.7705 -0.5402 -0.7804
 3297SOL    HW221354   2.484   1.981   4.000 -0.0337  1.8082  0.3486
 3298SOL     OW21355   1.172   0.792   5.036 -0.1369 -0.1277  0.0706
 3298SOL    HW121356   1.201   0.720   5.092 -0.4536  1.1165  1.8507
 3298SOL    HW221357   1.205   0.868   5.084 -1.8266 -1.6103  3.5966
 3299SOL     OW21358   1.374   2.815   4.221 -0.2198  0.2856  0.3815
 3299SOL    HW121359   1.397   2.782   4.308  0.4118 -1.4638 -0.4600
 3299SOL    HW221360   1.422   2.898   4.221 -0.2957  0.3310  0.6722
 3300SOL     OW21361   1.717   3.965   8.249  0.1401 -0.6085  0.3640
 3300SOL    HW121362   1.740   4.058   8.244  0.0625 -0.6447 -0.6521
 3300SOL    HW221363   1.689   3.958   8.340  1.8983 -0.8377  0.8974
 3301SOL     OW21364   2.224   1.128   2.017  0.6957  0.1924 -0.2480
 3301SOL    HW121365   2.200   1.220   2.005  0.9342  0.3326  0.3892
 3301SOL    HW221366   2.206   1.097   1.928 -0.0006 -1.2332  0.3940
 3302SOL     OW21367   4.157   0.907   5.930 -0.0478  0.2432 -0.2614
 3302SOL    HW121368   4.136   0.995   5.899  0.7335  0.7174  0.5449
 3302SOL    HW221369   4.164   0.870   5.842  2.8374  1.9673 -0.7573
 3303SOL     OW21370   2.633   4.476   6.119  0.4776 -0.0602 -0.4345
 3303SOL    HW121371   2.585   4.547   6.076 -1.1292 -0.7448  0.2103
 3303SOL    HW221372   2.576   4.403   6.094  0.6315 -0.4052  0.1961
 3304SOL     OW21373   2.099   2.047   5.920  0.0292 -0.3197 -0.5289
 3304SOL    HW121374   2.128   2.098   5.845 -1.2644  2.3417  0.7542
 3304SOL    HW221375   2.075   1.963   5.881 -0.6835  0.7290 -2.3351
 3305SOL     OW21376   0.920   2.735   1.499 -0.1607 -0.4659  0.1054
 3305SOL    HW121377   0.994   2.727   1.559  0.3074  2.4616 -0.0845
 3305SOL    HW221378   0.920   2.646   1.464  0.5491 -0.4415  0.0393
 3306SOL     OW21379   1.829   4.208  12.390 -0.3439  0.6758  0.8343
 3306SOL    HW121380   1.761   4.200  12.457 -0.4068 -0.2154  0.6691
 3306SOL    HW221381   1.792   4.279  12.338  0.1602 -0.3218 -0.8843
 3307SOL     OW21382   0.238   4.425   3.124  0.5262 -0.2052  0.3108
 3307SOL    HW121383   0.153   4.451   3.090  0.8196 -0.1135 -0.3541
 3307SOL    HW221384   0.255   4.481   3.199  0.3358  0.2973 -0.0239
 3308SOL     OW21385   4.522   3.594  12.898 -0.0112  0.6627 -0.7888
 3308SOL    HW121386   4.540   3.512  12.943  1.3601  1.2797 -0.2124
 3308SOL    HW221387   4.599   3.650  12.907  0.1792  0.2890 -0.1399
 3309SOL     OW21388   1.650   2.962   2.370 -0.5301 -0.1869  0.4064
 3309SOL    HW121389   1.725   3.010   2.334  0.0867 -2.5432 -1.4270
 3309SOL    HW221390   1.599   3.030   2.415 -1.1038  0.0030 -0.5222
 3310SOL     OW21391   2.873   3.949  10.087  0.6112 -0.4543 -0.6855
 3310SOL    HW121392   2.777   3.945  10.079  0.5336  0.2461 -0.1131
 3310SOL    HW221393   2.900   3.902  10.008  2.2495  1.1460 -1.0576
 3311SOL     OW21394   0.468   4.619   0.801  0.0054  0.2256 -0.0857
 3311SOL    HW121395   0.537   4.639   0.864 -1.9693  1.6063  1.6661
 3311SOL    HW221396   0.409   4.566   0.855 -0.6271  1.3888  0.3761
 3312SOL     OW21397   3.078   4.518   3.331 -0.5645  0.4140 -0.2579
 3312SOL    HW121398   3.155   4.491   3.381 -2.2542  0.9218  2.5929
 3312SOL    HW221399   3.016   4.516   3.403  0.2284 -1.2435  0.3970
 3313SOL     OW21400   0.006   0.068   4.997 -0.3654 -0.5628  0.2783
 3313SOL    HW121401   4.715   0.029   4.911 -0.4723 -2.3128  1.0721
 3313SOL    HW221402   4.645   0.062   5.040 -1.0855 -1.8221 -1.3209
 3314SOL     OW21403   4.269   3.583   6.089 -0.2227  0.4369 -0.2318
 3314SOL    HW121404   4.297   3.496   6.119  2.0603  0.7417 -1.4445
 3314SOL    HW221405   4.207   3.603   6.159  0.4319 -0.0714  0.4933
 3315SOL     OW21406   0.202   1.643   6.722 -0.3566 -0.6655  0.1548
 3315SOL    HW121407   0.229   1.688   6.802 -0.0450 -0.7670  0.1101
 3315SOL    HW221408   0.256   1.564   6.716 -0.5337 -0.8218  0.6262
 3316SOL     OW21409   0.756   1.502   3.436  0.7208 -0.0493  0.2663
 3316SOL    HW121410   0.773   1.478   3.527  0.3264  0.7159  0.5378
 3316SOL    HW221411   0.738   1.596   3.431  1.5406  0.0757 -0.3687
 3317SOL     OW21412   1.092   4.269   3.605 -0.1218  0.2189  0.1185
 3317SOL    HW121413   1.138   4.352   3.615 -0.1077  0.5196 -2.3069
 3317SOL    HW221414   1.011   4.288   3.653  0.2045  3.1930 -0.4825
 3318SOL     OW21415   0.091   0.063   3.622  0.0442 -0.1792 -0.3285
 3318SOL    HW121416   0.163   0.104   3.670  0.2961  0.3356 -1.1485
 3318SOL    HW221417   0.065   0.001   3.691  2.1624 -0.7297 -0.0218
 3319SOL     OW21418   1.752   2.943   9.467  0.9502 -0.2547 -0.5058
 3319SOL    HW121419   1.741   3.033   9.436  0.4080  0.5817  2.1688
 3319SOL    HW221420   1.678   2.940   9.528  1.1604 -0.0516 -0.2419
 3320SOL     OW21421   2.711   0.852   1.715 -0.2693 -0.7109 -0.0055
 3320SOL    HW121422   2.730   0.761   1.739 -0.6969 -0.7645  0.1373
 3320SOL    HW221423   2.711   0.851   1.620 -0.1077  0.5649 -0.0152
 3321SOL     OW21424   3.490   0.850  12.816  0.2221  0.9192 -0.2074
 3321SOL    HW121425   3.488   0.776  12.877  2.8885  1.7816  0.9348
 3321SOL    HW221426   3.514   0.801  12.738  1.1763  1.4286 -0.2325
 3322SOL     OW21427   2.787   0.675   6.135 -0.1756  0.1495  0.3011
 3322SOL    HW121428   2.827   0.632   6.210  2.4150  0.1068 -1.0894
 3322SOL    HW221429   2.781   0.595   6.083 -0.0975  0.6881 -0.5501
 3323SOL     OW21430   2.816   3.155  10.007  0.0319  0.3418 -0.7405
 3323SOL    HW121431   2.745   3.186  10.063  1.4347  0.1541  1.1311
 3323SOL    HW221432   2.895   3.185  10.051 -1.4068  1.0107  1.4034
 3324SOL     OW21433   3.586   3.510   4.201  0.9042 -0.1859  0.3057
 3324SOL    HW121434   3.592   3.506   4.296 -0.5118  0.4721  0.4175
 3324SOL    HW221435   3.632   3.429   4.181 -1.5368 -1.4530 -0.1883
 3325SOL     OW21436   4.041   3.549   8.191 -0.0028  0.1403  0.2688
 3325SOL    HW121437   4.030   3.614   8.122  2.6618  0.3360  0.0227
 3325SOL    HW221438   4.125   3.577   8.228  0.6950 -2.7782  0.8762
 3326SOL     OW21439   3.173   2.019   6.666 -0.0510  0.2811 -0.0059
 3326SOL    HW121440   3.144   2.108   6.644  0.0107  0.6464  1.3758
 3326SOL    HW221441   3.241   2.005   6.600  0.7335  0.0326  0.8626
 3327SOL     OW21442   4.105   1.268  12.060  0.5819 -0.6847 -0.4811
 3327SOL    HW121443   4.123   1.362  12.064 -0.2558 -0.5452  0.1203
 3327SOL    HW221444   4.193   1.246  12.030  1.1466  0.0796  0.6470
 3328SOL     OW21445   1.819   2.333  15.143 -0.0470 -0.1339  0.1335
 3328SOL    HW121446   1.771   2.252  15.127 -1.0956  0.5938 -0.3910
 3328SOL    HW221447   1.865   2.342  15.059  1.1290 -0.3464  0.7424
 3329SOL     OW21448   4.398   1.432   2.304 -0.0589  0.5337 -0.0364
 3329SOL    HW121449   4.404   1.352   2.356  2.4762  0.7854  0.0471
 3329SOL    HW221450   4.315   1.418   2.256 -0.3037  0.3258  0.4488
 3330SOL     OW21451   1.518   4.052   5.968  0.1732  0.3166 -0.5885
 3330SOL    HW121452   1.554   4.135   5.997  0.1524 -0.1949  0.8881
 3330SOL    HW221453   1.432   4.032   6.003  0.4843  1.3943  0.7766
 3331SOL     OW21454   0.449   2.686   4.551 -0.3439 -0.4024 -0.6414
 3331SOL    HW121455   0.437   2.649   4.639  0.0275 -0.8409 -0.7747
 3331SOL    HW221456   0.539   2.661   4.530  0.1764  0.4920  0.4875
 3332SOL     OW21457   3.284   0.241   4.331 -0.2299  0.0823  0.0325
 3332SOL    HW121458   3.313   0.324   4.293  0.2736 -0.9661 -1.8733
 3332SOL    HW221459   3.252   0.189   4.257 -1.5340  0.4701  0.3127
 3333SOL     OW21460   4.570   1.197   8.950 -0.2036  0.2621  0.2802
 3333SOL    HW121461   4.525   1.220   9.031 -0.3898  1.7500 -0.2522
 3333SOL    HW221462   4.527   1.244   8.878 -0.3927 -0.0739  0.1717
 3334SOL     OW21463   1.814   0.921   6.203  0.0504 -0.4329 -0.2570
 3334SOL    HW121464   1.882   0.887   6.263 -0.5170 -1.2848 -0.0877
 3334SOL    HW221465   1.801   0.851   6.139  0.2506 -2.0528  1.4470
 3335SOL     OW21466   4.179   1.381  10.818  0.5342 -0.0152 -0.3187
 3335SOL    HW121467   4.219   1.298  10.792  0.5371 -0.6797  1.8062
 3335SOL    HW221468   4.172   1.374  10.913 -0.9362 -0.5943 -0.4759
 3336SOL     OW21469   0.536   1.448   2.215 -0.0647 -0.1080 -0.1036
 3336SOL    HW121470   0.466   1.442   2.280  0.8572 -2.3117  0.6741
 3336SOL    HW221471   0.512   1.361   2.184 -1.9760  1.2388 -2.4273
 3337SOL     OW21472   4.485   2.444  11.209  0.4405 -0.5818 -0.1508
 3337SOL    HW121473   4.464   2.536  11.194 -0.2967 -0.8463 -0.7780
 3337SOL    HW221474   4.580   2.440  11.194  0.3679  0.7563 -0.9544
 3338SOL     OW21475   3.907   2.396  16.848 -1.1071  0.2172  0.0663
 3338SOL    HW121476   3.948   2.482  16.850 -1.2372  0.3078 -0.8188
 3338SOL    HW221477   3.816   2.423  16.833 -1.0170 -0.7295 -2.2932
 3339SOL     OW21478   1.483   2.151   7.460 -0.4813  0.2263 -0.3575
 3339SOL    HW121479   1.506   2.165   7.368  3.3970  0.6932  0.6931
 3339SOL    HW221480   1.554   2.190   7.511 -0.1029 -1.2125  0.1942
 3340SOL     OW21481   3.889   2.960  12.535  0.0575 -0.2465  0.5974
 3340SOL    HW121482   3.984   2.958  12.522 -0.2074 -0.1629 -1.2914
 3340SOL    HW221483   3.879   2.874  12.575  1.3678  0.2647  2.0128
 3341SOL     OW21484   1.515   0.006  13.622 -0.2998 -0.2866 -0.3486
 3341SOL    HW121485   1.452   0.047  13.562 -2.4686 -1.8247  0.8947
 3341SOL    HW221486   1.556   4.678  13.553  1.6154  2.7326 -1.5238
 3342SOL     OW21487   0.023   2.819  14.297  0.1894 -0.1513  0.3078
 3342SOL    HW121488   4.692   2.868  14.359  0.6325 -2.8284  2.8499
 3342SOL    HW221489   4.681   2.786  14.237 -1.2721 -0.4378  2.0551
 3343SOL     OW21490   3.393   3.015   3.091  0.5351 -0.2007  0.1235
 3343SOL    HW121491   3.387   3.072   3.014  0.9538 -0.1194  0.1515
 3343SOL    HW221492   3.326   2.947   3.084  0.9579 -0.2857 -3.0727
 3344SOL     OW21493   2.106   2.632   6.924  0.0007 -0.3299  0.3905
 3344SOL    HW121494   2.149   2.611   7.007  0.9165 -0.6435 -0.1713
 3344SOL    HW221495   2.167   2.689   6.878 -2.7889  0.9851 -1.6696
 3345SOL     OW21496   0.911   1.537   9.026 -0.3058 -0.3821 -0.1774
 3345SOL    HW121497   0.910   1.476   8.952  0.4977 -0.1526 -0.3690
 3345SOL    HW221498   0.853   1.487   9.084 -0.5344 -0.3229 -0.3576
 3346SOL     OW21499   1.276   2.019  13.600  0.3342 -0.3195 -0.0549
 3346SOL    HW121500   1.298   2.098  13.552 -3.8019  0.8233 -0.1411
 3346SOL    HW221501   1.257   2.039  13.692  1.4943 -0.3245  0.1808
 3347SOL     OW21502   1.246   4.435   4.292 -0.1815 -0.2240 -0.4184
 3347SOL    HW121503   1.265   4.364   4.353 -1.3520 -0.6017 -0.4976
 3347SOL    HW221504   1.167   4.461   4.339 -0.5628 -0.0710 -1.1367
 3348SOL     OW21505   3.486   3.894  11.801  0.3255  0.0724  0.5069
 3348SOL    HW121506   3.535   3.954  11.746 -1.8600  1.7202  0.3247
 3348SOL    HW221507   3.518   3.811  11.765 -1.1767  0.6120 -2.0889
 3349SOL     OW21508   0.921   0.261   7.144  0.0162  0.0226 -0.2249
 3349SOL    HW121509   0.900   0.276   7.052  1.7882 -0.3238 -0.6870
 3349SOL    HW221510   0.912   0.347   7.185 -1.9846 -0.0759 -0.4290
 3350SOL     OW21511   1.456   2.868   2.819 -0.0121 -0.4877  0.3172
 3350SOL    HW121512   1.447   2.825   2.734  0.2625 -0.2928  0.1911
 3350SOL    HW221513   1.491   2.795   2.869 -0.4452 -1.2284 -0.4636
 3351SOL     OW21514   0.917   0.536  10.599 -0.0048 -0.8129  0.0348
 3351SOL    HW121515   0.969   0.484  10.661 -1.0850 -0.8305  0.9355
 3351SOL    HW221516   0.837   0.484  10.606  0.3821 -1.0039  3.3805
 3352SOL     OW21517   2.346   3.090   8.147  0.2583 -0.6230  0.6094
 3352SOL    HW121518   2.379   3.137   8.070  2.8158 -2.2065  0.7158
 3352SOL    HW221519   2.253   3.070   8.139  0.0667  1.6405 -2.9294
 3353SOL     OW21520   0.185   2.423   2.687 -0.1575  0.6296 -0.1228
 3353SOL    HW121521   0.262   2.391   2.733 -0.7498 -0.0810  0.3854
 3353SOL    HW221522   0.175   2.370   2.608 -1.5651  0.3587  0.2271
 3354SOL     OW21523   1.247   0.813   8.229 -0.0092 -0.5704  0.4117
 3354SOL    HW121524   1.272   0.741   8.171  2.5315 -0.3061  1.1690
 3354SOL    HW221525   1.217   0.768   8.308 -1.6844 -0.7266 -0.3179
 3355SOL     OW21526   2.201   0.757  16.979 -0.0511 -0.3740  0.3572
 3355SOL    HW121527   2.194   0.669  17.017  0.9070 -0.8420 -0.5546
 3355SOL    HW221528   2.254   0.799  17.047 -0.4064 -1.4228  1.3025
 3356SOL     OW21529   4.379   1.276  11.991 -0.0779  0.3507  0.2690
 3356SOL    HW121530   4.395   1.371  11.994 -2.9442  0.9530 -2.7110
 3356SOL    HW221531   4.339   1.269  11.904 -0.9665  2.4624  0.5064
 3357SOL     OW21532   2.732   2.064  17.687  0.1593 -0.2504  0.1921
 3357SOL    HW121533   2.681   2.136   0.026 -0.1834  0.6337 -2.0454
 3357SOL    HW221534   2.815   2.105  17.662  0.1444 -0.6514 -0.5124
 3358SOL     OW21535   2.551   0.727   7.546 -0.3098  0.2139 -0.0079
 3358SOL    HW121536   2.623   0.787   7.527  0.9516 -1.1148  0.5702
 3358SOL    HW221537   2.478   0.781   7.515 -0.8155 -0.6519 -0.3412
 3359SOL     OW21538   1.353   0.493   1.095 -0.0050 -0.0806  0.4626
 3359SOL    HW121539   1.340   0.431   1.167 -0.4190  0.5845  0.9572
 3359SOL    HW221540   1.358   0.432   1.021 -2.0354 -0.3602  0.5760
 3360SOL     OW21541   1.974   0.941   5.789 -0.0260  0.3118 -0.1675
 3360SOL    HW121542   1.929   0.880   5.731  1.2930 -0.6531 -0.1592
 3360SOL    HW221543   2.036   0.881   5.830 -0.5411  1.1146  1.8088
 3361SOL     OW21544   0.483   3.230  17.307 -0.4415 -0.2398 -0.5321
 3361SOL    HW121545   0.486   3.137  17.283 -0.7843 -0.1800 -0.7900
 3361SOL    HW221546   0.507   3.274  17.225 -0.2538  0.1712 -0.2549
 3362SOL     OW21547   2.921   1.092  17.444 -0.1014 -0.5585  0.3534
 3362SOL    HW121548   2.935   1.027  17.375 -1.4931 -0.9745  0.4740
 3362SOL    HW221549   2.995   1.101  17.504 -0.8362  0.2860  1.1215
 3363SOL     OW21550   0.160   1.029   2.615 -0.8404  0.1552  0.3169
 3363SOL    HW121551   0.071   1.063   2.611 -0.9883 -0.1006  1.4135
 3363SOL    HW221552   0.144   0.935   2.605  1.7217 -0.5712  2.9067
 3364SOL     OW21553   1.110   0.701   1.411 -0.5794  0.8056  0.1846
 3364SOL    HW121554   1.097   0.724   1.319  0.3431  0.8999  0.0721
 3364SOL    HW221555   1.143   0.612   1.397 -2.3516  0.3615 -1.0802
 3365SOL     OW21556   1.198   1.371   5.881  0.0420 -0.3230 -0.2199
 3365SOL    HW121557   1.164   1.380   5.792 -1.1161 -1.1096  0.1507
 3365SOL    HW221558   1.261   1.299   5.873  0.8648  0.4466 -0.6320
 3366SOL     OW21559   1.742   2.706   3.420  0.1598  0.5639  0.2272
 3366SOL    HW121560   1.781   2.791   3.441 -2.7368  1.1386  3.2903
 3366SOL    HW221561   1.797   2.654   3.478  0.9141  1.2763  0.1622
 3367SOL     OW21562   0.008   1.896   5.632 -0.8117  0.1204  0.3453
 3367SOL    HW121563   0.003   1.803   5.654  0.0426 -0.2645 -1.0633
 3367SOL    HW221564   0.050   1.882   5.547  1.1803 -2.2544  1.7088
 3368SOL     OW21565   0.640   0.171   6.467 -0.0330 -0.5008 -0.4363
 3368SOL    HW121566   0.685   0.110   6.408 -0.0534 -1.0351  0.0914
 3368SOL    HW221567   0.568   0.197   6.410  1.4962  0.3090 -1.9875
 3369SOL     OW21568   2.581   1.349  12.077  0.3254  0.8203 -0.2570
 3369SOL    HW121569   2.596   1.257  12.097 -1.3983  0.1657 -1.9855
 3369SOL    HW221570   2.660   1.362  12.024  0.7728 -0.5429  0.0906
 3370SOL     OW21571   1.077   4.597   9.680 -0.4937 -0.1076 -0.6477
 3370SOL    HW121572   0.994   4.579   9.725 -0.7278  2.7351  0.0656
 3370SOL    HW221573   1.075   4.545   9.600  0.5595  0.9635 -1.3766
 3371SOL     OW21574   2.585   4.050  13.917 -0.2208  0.3941 -0.0491
 3371SOL    HW121575   2.493   4.036  13.941 -0.1392 -1.7063 -0.9656
 3371SOL    HW221576   2.595   4.022  13.827 -0.4684  2.0867 -0.6069
 3372SOL     OW21577   2.271   3.192  15.010  0.1574 -0.0844  0.0690
 3372SOL    HW121578   2.251   3.274  14.965  0.2454  0.3336  0.7816
 3372SOL    HW221579   2.352   3.173  14.963 -0.2456 -0.9456 -0.2774
 3373SOL     OW21580   3.319   1.176  10.410 -0.0654  0.2965  0.6603
 3373SOL    HW121581   3.263   1.240  10.365  2.4804  1.0237 -1.4905
 3373SOL    HW221582   3.385   1.238  10.440  0.8375 -0.3111 -0.0837
 3374SOL     OW21583   0.666   4.421  17.630  0.1515 -0.5927  0.9199
 3374SOL    HW121584   0.619   4.420  17.547 -1.1366 -0.7059  1.6593
 3374SOL    HW221585   0.671   4.516  17.646  1.1801 -0.6594  1.0137
 3375SOL     OW21586   3.859   3.379  13.389 -0.0934 -0.3134 -0.3647
 3375SOL    HW121587   3.929   3.314  13.378 -1.5134 -1.6378 -1.4732
 3375SOL    HW221588   3.797   3.349  13.322 -0.4427  0.7100 -0.4962
 3376SOL     OW21589   1.538   3.820   7.342 -0.2121  0.4720  0.2127
 3376SOL    HW121590   1.486   3.824   7.262  0.5883 -0.2228 -0.3373
 3376SOL    HW221591   1.575   3.735   7.320  1.1240  0.9443  0.6403
 3377SOL     OW21592   0.325   0.847  13.481 -0.3954  0.0010 -0.0716
 3377SOL    HW121593   0.278   0.830  13.562  2.7587 -0.8294  1.5919
 3377SOL    HW221594   0.345   0.940  13.494  0.3547 -0.0304 -0.9725
 3378SOL     OW21595   0.654   3.611   9.519 -0.5952 -0.2906 -0.8841
 3378SOL    HW121596   0.623   3.551   9.451 -1.6571 -0.4572 -0.2659
 3378SOL    HW221597   0.634   3.555   9.595  4.1172 -1.0244 -0.2367
 3379SOL     OW21598   2.050   4.438  11.333 -0.1745 -0.0494 -0.0669
 3379SOL    HW121599   2.091   4.509  11.283  0.9766  0.6708  1.8920
 3379SOL    HW221600   1.982   4.410  11.271  1.3386  1.0227 -2.2314
 3380SOL     OW21601   0.267   3.815   1.634 -0.3373 -0.2003 -0.2033
 3380SOL    HW121602   0.325   3.745   1.605  0.6803  1.4245 -2.1408
 3380SOL    HW221603   0.187   3.766   1.652  0.1239 -0.2885  1.5849
 3381SOL     OW21604   0.345   0.556   4.846  0.2914 -0.4922  0.0089
 3381SOL    HW121605   0.384   0.623   4.902 -2.5391  0.5467  0.7330
 3381SOL    HW221606   0.254   0.550   4.875  0.9878  0.6103  2.3815
 3382SOL     OW21607   3.916   3.266   5.984  0.5593  0.3510  0.2980
 3382SOL    HW121608   3.984   3.235   6.045  0.9193 -0.6258 -0.6081
 3382SOL    HW221609   3.892   3.180   5.951  2.1155  0.5166 -1.2985
 3383SOL     OW21610   1.606   2.496   1.555  0.2105 -0.1807  0.3545
 3383SOL    HW121611   1.604   2.422   1.616  2.9441  1.3493  2.3462
 3383SOL    HW221612   1.561   2.450   1.485  1.1020  2.9924 -2.2759
 3384SOL     OW21613   2.523   0.539   4.787 -0.0304 -0.6786 -0.1763
 3384SOL    HW121614   2.434   0.574   4.782  0.0329  0.0795  3.9697
 3384SOL    HW221615   2.568   0.616   4.823 -0.3289 -1.6744  2.2861
 3385SOL     OW21616   0.044   2.772   4.052 -0.1513 -0.3275 -0.4425
 3385SOL    HW121617   0.005   2.687   4.033  0.1933  0.1001 -3.0710
 3385SOL    HW221618   0.125   2.755   4.004  0.9452  1.1893  0.8846
 3386SOL     OW21619   3.421   1.839   5.051  0.3719  0.3633 -0.0376
 3386SOL    HW121620   3.392   1.764   4.998 -0.3293  0.0906  0.7356
 3386SOL    HW221621   3.395   1.911   4.994  1.0184  1.2730  0.8377
 3387SOL     OW21622   2.875   3.723  15.136  0.0253  0.2971  0.2132
 3387SOL    HW121623   2.799   3.735  15.193  0.5810 -0.0462  1.0165
 3387SOL    HW221624   2.927   3.802  15.151 -0.4674  0.8050 -0.7068
 3388SOL     OW21625   4.580   1.115  13.458 -0.5729  0.0577  0.2169
 3388SOL    HW121626   4.651   1.172  13.487 -1.2445  1.3158 -0.6080
 3388SOL    HW221627   4.618   1.043  13.408 -1.5509 -1.0350  1.0445
 3389SOL     OW21628   3.587   0.642  16.718 -0.5488 -0.3948  0.4346
 3389SOL    HW121629   3.581   0.548  16.732 -2.1562 -0.3746 -0.0587
 3389SOL    HW221630   3.659   0.661  16.659 -0.8859  1.5978  0.6398
 3390SOL     OW21631   3.391   1.096  17.299 -0.4951  0.3272  0.2825
 3390SOL    HW121632   3.339   1.168  17.332 -2.6067 -1.5123  0.9641
 3390SOL    HW221633   3.329   1.059  17.236  1.1327 -2.4813  0.3315
 3391SOL     OW21634   1.666   1.501   5.567 -0.2591 -0.0589  0.0557
 3391SOL    HW121635   1.689   1.452   5.488 -0.7206  0.7862 -0.5997
 3391SOL    HW221636   1.630   1.428   5.618  0.7589  0.7797  2.0016
 3392SOL     OW21637   0.776   3.508   7.556 -1.0504 -0.4606  0.4183
 3392SOL    HW121638   0.741   3.553   7.479 -1.4937 -2.5673 -0.5951
 3392SOL    HW221639   0.865   3.495   7.525 -1.3881 -0.3928 -0.6063
 3393SOL     OW21640   4.450   4.106  13.665 -0.0755  0.4759  0.0263
 3393SOL    HW121641   4.371   4.098  13.719 -0.5670 -0.3989 -0.8179
 3393SOL    HW221642   4.504   4.168  13.714  0.0459  1.4188 -1.2775
 3394SOL     OW21643   3.306   1.859  10.091 -0.0425  0.1059  0.9574
 3394SOL    HW121644   3.310   1.941  10.140 -0.5812  1.6029 -1.4830
 3394SOL    HW221645   3.232   1.883  10.035 -1.6957 -3.4319  1.6298
 3395SOL     OW21646   0.377   1.168   4.336 -0.0709  0.3591 -0.1923
 3395SOL    HW121647   0.306   1.229   4.318  0.6010  1.5867  1.3682
 3395SOL    HW221648   0.450   1.198   4.283 -0.9118  0.3383 -1.3443
 3396SOL     OW21649   1.521   0.303   5.071  0.1737  0.0246 -0.1594
 3396SOL    HW121650   1.567   0.244   5.011 -2.4526 -2.4898  0.3257
 3396SOL    HW221651   1.438   0.256   5.070  0.4141 -0.4393  2.7397
 3397SOL     OW21652   0.450   2.134   7.365  0.8129  0.0031  0.1763
 3397SOL    HW121653   0.399   2.120   7.444 -1.2297 -1.0785 -1.3202
 3397SOL    HW221654   0.530   2.177   7.396  2.1232 -1.6360 -0.9213
 3398SOL     OW21655   1.266   2.673  16.163  0.3817  0.2686 -0.1596
 3398SOL    HW121656   1.199   2.608  16.140  1.5097 -0.7132 -0.6434
 3398SOL    HW221657   1.241   2.740  16.099 -1.3591  1.2497  1.5257
 3399SOL     OW21658   0.448   1.786   7.156  0.4903  0.2326  0.3858
 3399SOL    HW121659   0.470   1.790   7.249 -0.3842 -0.9105  0.6367
 3399SOL    HW221660   0.480   1.866   7.113  0.2418  0.9659  1.5635
 3400SOL     OW21661   3.673   1.596   3.801 -0.3088  0.2265  0.0484
 3400SOL    HW121662   3.757   1.630   3.770  0.1345 -3.2629 -2.6124
 3400SOL    HW221663   3.633   1.675   3.836  2.2430  0.9920  1.1900
 3401SOL     OW21664   4.677   0.591   2.777  0.3612 -0.7960 -0.4276
 3401SOL    HW121665   4.594   0.571   2.821 -0.0677 -1.0313 -1.3414
 3401SOL    HW221666   4.719   0.507   2.797  1.5402 -0.5256 -1.8184
 3402SOL     OW21667   3.497   3.171   5.396 -0.2377  0.0009  0.0941
 3402SOL    HW121668   3.509   3.215   5.312 -1.2633 -0.3324 -0.2288
 3402SOL    HW221669   3.464   3.243   5.449  1.0007  0.0269  0.8327
 3403SOL     OW21670   1.892   3.366   6.705 -0.5823 -0.3354 -0.0699
 3403SOL    HW121671   1.821   3.407   6.753 -0.5426 -1.7691  1.2258
 3403SOL    HW221672   1.908   3.308   6.779 -2.4053 -1.5057 -0.5839
 3404SOL     OW21673   0.270   2.790   1.366 -0.4981 -0.5366 -0.2213
 3404SOL    HW121674   0.362   2.801   1.341  0.3347 -0.4585  2.8471
 3404SOL    HW221675   0.248   2.703   1.331 -0.6704 -0.2996 -0.6963
 3405SOL     OW21676   3.153   3.887  17.680  0.4265  0.1779  0.0517
 3405SOL    HW121677   3.180   3.816   0.041  2.4296 -0.0926 -1.2171
 3405SOL    HW221678   3.222   3.947   0.011  0.1887  0.7790 -0.6491
 3406SOL     OW21679   3.004   4.016  12.703 -0.3578  0.5028  0.1214
 3406SOL    HW121680   3.073   3.950  12.692  0.3320  1.5143 -1.5021
 3406SOL    HW221681   2.975   4.035  12.615 -4.4039 -0.6925  1.1999
 3407SOL     OW21682   3.825   3.780   7.301 -0.1629  0.1582 -0.5473
 3407SOL    HW121683   3.835   3.685   7.295  2.5505  0.2762  1.9522
 3407SOL    HW221684   3.855   3.807   7.388  0.0136 -0.1827 -0.5018
 3408SOL     OW21685   3.261   3.523   2.342 -0.1359 -0.7476  1.0299
 3408SOL    HW121686   3.261   3.586   2.270  0.1492 -1.6057  0.2950
 3408SOL    HW221687   3.217   3.448   2.303 -1.2174  1.2893 -1.6893
 3409SOL     OW21688   4.027   0.168   6.138 -0.4566  0.3120 -0.0356
 3409SOL    HW121689   4.034   0.104   6.067 -1.4395 -0.9462  1.0074
 3409SOL    HW221690   3.935   0.190   6.122 -0.0065  1.6717 -0.8023
 3410SOL     OW21691   1.420   1.306   8.884  0.4726  0.5242 -0.1346
 3410SOL    HW121692   1.361   1.373   8.850 -0.4914 -0.2650  0.0115
 3410SOL    HW221693   1.374   1.284   8.964 -0.5643 -1.4787 -1.2939
 3411SOL     OW21694   0.076   2.435  11.608  0.5237 -0.5199  0.1123
 3411SOL    HW121695   0.105   2.347  11.584 -1.2782 -1.3318  0.8987
 3411SOL    HW221696   4.718   2.450  11.561  0.8876  0.4199 -0.2116
 3412SOL     OW21697   0.555   3.370   9.400 -0.8115  0.0955  0.0965
 3412SOL    HW121698   0.512   3.325   9.474  0.2962 -1.4353 -0.1838
 3412SOL    HW221699   0.540   3.306   9.331  1.0283  1.5247 -1.6084
 3413SOL     OW21700   4.063   2.932   1.381 -0.2008  0.0699 -0.1746
 3413SOL    HW121701   4.071   3.003   1.317 -2.6567  0.3155 -0.2402
 3413SOL    HW221702   3.978   2.892   1.359 -0.0980 -0.0416 -0.3637
 3414SOL     OW21703   1.816   0.637   7.054  0.2321  0.1742  0.0855
 3414SOL    HW121704   1.804   0.544   7.036 -1.2084  0.0003  1.9321
 3414SOL    HW221705   1.910   0.655   7.050  0.2955 -0.1641  0.0115
 3415SOL     OW21706   3.745   3.792  15.578 -0.5973  1.1353 -0.0976
 3415SOL    HW121707   3.667   3.781  15.524 -0.3423 -0.9663 -0.0449
 3415SOL    HW221708   3.712   3.749  15.657 -0.1632 -1.3334 -1.2514
 3416SOL     OW21709   3.085   3.089   5.011  0.4629 -0.0625  0.0102
 3416SOL    HW121710   3.149   3.044   4.955  1.0056 -0.9777  1.3577
 3416SOL    HW221711   3.121   3.177   5.013 -2.5843  1.1889  0.3584
 3417SOL     OW21712   0.530   2.002  11.968  0.5993 -0.3066 -0.4084
 3417SOL    HW121713   0.478   2.019  11.890 -0.5903  1.1509  0.6952
 3417SOL    HW221714   0.610   2.054  11.954 -0.5480  1.3606 -0.8126
 3418SOL     OW21715   4.033   1.506  15.697 -0.2065 -0.5939  0.6519
 3418SOL    HW121716   3.946   1.518  15.659  0.2053 -0.2091 -0.1583
 3418SOL    HW221717   4.047   1.417  15.663 -1.6342  0.8955 -3.8274
 3419SOL     OW21718   2.044   3.466   8.090 -0.0180 -0.1460 -0.3150
 3419SOL    HW121719   2.045   3.562   8.089  1.8123 -0.1450  0.4672
 3419SOL    HW221720   2.129   3.455   8.048  1.1638 -2.1666  2.5809
 3420SOL     OW21721   2.250   2.373   1.501 -0.3950  0.8516  0.3849
 3420SOL    HW121722   2.237   2.345   1.592 -0.4104 -1.1357 -0.2206
 3420SOL    HW221723   2.316   2.314   1.465  0.0833  0.4798  1.8802
 3421SOL     OW21724   0.897   2.531   8.694  0.2199  0.0434  0.1897
 3421SOL    HW121725   0.862   2.619   8.682 -1.4732 -0.8564 -1.4366
 3421SOL    HW221726   0.870   2.489   8.612 -1.3720 -1.4745  1.4699
 3422SOL     OW21727   2.473   2.354   3.357 -0.1678 -1.1226  0.7081
 3422SOL    HW121728   2.405   2.328   3.294  0.4152 -1.0588  0.0453
 3422SOL    HW221729   2.415   2.411   3.407 -3.2678 -1.4123 -2.4642
 3423SOL     OW21730   0.257   0.551   4.126 -0.2724 -0.1932 -0.0503
 3423SOL    HW121731   0.302   0.497   4.191 -1.4125  0.3534  1.1795
 3423SOL    HW221732   0.316   0.535   4.052 -2.4770 -0.6376 -1.7024
 3424SOL     OW21733   4.006   1.122   3.908 -0.3786 -0.2047  0.5564
 3424SOL    HW121734   3.946   1.047   3.907  0.6589 -1.0343  0.5083
 3424SOL    HW221735   3.996   1.157   3.996 -0.1681 -1.1896  0.9625
 3425SOL     OW21736   1.707   2.624   9.227 -0.4945  0.5272  0.1984
 3425SOL    HW121737   1.718   2.673   9.308  0.4031  0.9022 -0.1503
 3425SOL    HW221738   1.679   2.536   9.252 -0.4486  0.4442 -0.0445
 3426SOL     OW21739   0.861   0.210   8.789 -0.2820 -0.4389  0.1390
 3426SOL    HW121740   0.910   0.289   8.763 -1.9426  0.7890  0.6951
 3426SOL    HW221741   0.914   0.134   8.764  0.0196  0.3561 -1.6415
 3427SOL     OW21742   4.611   4.094   4.574  0.0723 -0.5321 -0.4584
 3427SOL    HW121743   4.594   4.150   4.649 -0.0904 -2.3563  0.8675
 3427SOL    HW221744   4.690   4.043   4.595 -0.5080 -1.5986 -0.8219
 3428SOL     OW21745   2.202   4.268   7.223  0.0293  0.2957 -0.1970
 3428SOL    HW121746   2.175   4.330   7.155 -0.9569 -0.3101 -0.3644
 3428SOL    HW221747   2.288   4.239   7.193 -0.6435 -1.2431 -0.6348
 3429SOL     OW21748   0.003   1.878   3.469 -0.3258  0.2162  0.4023
 3429SOL    HW121749   0.043   1.859   3.384 -2.5609  1.3849 -0.9085
 3429SOL    HW221750   4.641   1.835   3.463 -0.4655  0.1952  2.6870
 3430SOL     OW21751   3.023   1.661   5.863  0.2829  0.3454 -0.3531
 3430SOL    HW121752   3.022   1.630   5.773  2.4373  0.0651 -0.2698
 3430SOL    HW221753   3.097   1.623   5.911  0.4371 -2.1757 -2.5913
 3431SOL     OW21754   1.211   0.983   4.224  0.2543 -0.1126  0.4678
 3431SOL    HW121755   1.142   0.953   4.282  0.3633  0.5868  0.9597
 3431SOL    HW221756   1.258   0.900   4.229 -0.7359 -0.5645  2.0565
 3432SOL     OW21757   0.609   3.274   4.720  0.4655 -0.4637  0.0523
 3432SOL    HW121758   0.661   3.283   4.641  0.1172  3.3765  0.2393
 3432SOL    HW221759   0.617   3.184   4.751  0.7888  0.1469  1.7542
 3433SOL     OW21760   2.611   4.158  10.558 -0.3010 -0.6922 -0.0336
 3433SOL    HW121761   2.555   4.191  10.628 -1.6363 -0.5084 -1.2034
 3433SOL    HW221762   2.598   4.231  10.498  0.2715  0.4765  1.2607
 3434SOL     OW21763   4.371   2.253   5.625 -0.4502  0.0019 -0.0007
 3434SOL    HW121764   4.347   2.160   5.620  0.5032 -0.2419 -0.0733
 3434SOL    HW221765   4.432   2.261   5.552  0.4080 -0.7199  0.6377
 3435SOL     OW21766   4.720   0.223  16.020 -0.1489  0.4773  0.4088
 3435SOL    HW121767   4.629   0.230  16.049  0.1644  1.8439  1.1071
 3435SOL    HW221768   0.040   0.220  16.105  0.2961  0.1363  0.1697
 3436SOL     OW21769   1.281   0.078  10.267 -0.4437  0.6217  0.1466
 3436SOL    HW121770   1.286   0.108  10.176 -0.6857  0.9597  0.2420
 3436SOL    HW221771   1.239   0.146  10.320  1.1401  2.0645 -0.4553
 3437SOL     OW21772   2.954   2.778  14.878  0.5965 -0.7737  1.1781
 3437SOL    HW121773   3.008   2.730  14.940  2.3748 -0.6084 -0.2367
 3437SOL    HW221774   2.903   2.848  14.921 -0.8782 -0.2590 -1.4291
 3438SOL     OW21775   0.752   1.768   5.635  0.1686  0.2779 -0.7064
 3438SOL    HW121776   0.716   1.825   5.703 -2.2854 -0.3447 -1.5110
 3438SOL    HW221777   0.709   1.794   5.554 -2.4532 -0.7367  0.3731
 3439SOL     OW21778   0.033   0.225  15.521  0.0261  0.7124  0.6379
 3439SOL    HW121779   0.034   0.234  15.425  2.8507 -0.7149  0.5306
 3439SOL    HW221780   4.673   0.180  15.534  1.2260 -1.7714 -0.1281
 3440SOL     OW21781   4.094   2.751   3.826  0.4152 -0.5233  0.0689
 3440SOL    HW121782   4.081   2.723   3.736 -2.8318  0.8152  0.1307
 3440SOL    HW221783   4.188   2.760   3.842  0.3950  0.0420 -0.1356
 3441SOL     OW21784   1.784   1.630   8.433  0.2247  0.3327  0.1821
 3441SOL    HW121785   1.842   1.622   8.357  0.1716  0.9998  0.0682
 3441SOL    HW221786   1.780   1.724   8.450  1.8158  0.1056  1.7631
 3442SOL     OW21787   0.164   0.209   5.191 -0.1011 -0.3247 -0.1504
 3442SOL    HW121788   0.138   0.178   5.104 -3.5454  1.3915  0.2555
 3442SOL    HW221789   0.241   0.257   5.159 -0.8638  0.0140 -1.4685
 3443SOL     OW21790   3.986   2.450   3.922  0.4823  0.4378  0.5594
 3443SOL    HW121791   4.081   2.448   3.912  0.5228  0.6883  0.9031
 3443SOL    HW221792   3.986   2.506   4.000  0.0115  0.8845  0.2360
 3444SOL     OW21793   3.233   0.930   5.665  0.7042 -0.7258 -0.3803
 3444SOL    HW121794   3.147   0.956   5.632 -0.0177  0.2339  2.2509
 3444SOL    HW221795   3.265   0.862   5.605 -0.7784 -2.1776  0.4900
 3445SOL     OW21796   1.000   0.582   2.832  0.7360  0.4779  0.0171
 3445SOL    HW121797   1.028   0.554   2.919 -0.5485  0.0819  0.2948
 3445SOL    HW221798   1.043   0.517   2.777 -1.3003 -0.3444 -0.6004
 3446SOL     OW21799   0.318   4.562   3.857 -0.1776  0.0099 -0.3509
 3446SOL    HW121800   0.376   4.522   3.792 -0.1500  0.4266 -0.5829
 3446SOL    HW221801   0.308   4.493   3.922 -0.8501  1.8303  1.4887
 3447SOL     OW21802   2.144   2.988   8.433 -0.1774  0.0892  0.3476
 3447SOL    HW121803   2.058   3.021   8.457 -1.6713 -3.1285 -0.5163
 3447SOL    HW221804   2.186   3.065   8.396 -0.5127  0.4095  0.6437
 3448SOL     OW21805   0.778   2.967   8.842 -0.1028 -0.2209  0.2919
 3448SOL    HW121806   0.837   2.934   8.774 -0.0577  0.0905  0.1798
 3448SOL    HW221807   0.836   3.021   8.896  0.5396  0.0170 -0.6273
 3449SOL     OW21808   1.392   0.457  14.635 -0.1405 -0.1720  0.5575
 3449SOL    HW121809   1.354   0.539  14.601  1.9246  0.4883 -0.1244
 3449SOL    HW221810   1.333   0.394  14.595 -0.0639  0.3719 -0.4084
 3450SOL     OW21811   1.841   1.539  12.386 -0.0643 -0.6414  0.1891
 3450SOL    HW121812   1.813   1.625  12.354  0.9038 -1.2387 -2.2727
 3450SOL    HW221813   1.928   1.534  12.346 -0.5893  0.4820 -1.1330
 3451SOL     OW21814   2.402   4.137  12.503  0.5217 -0.0039 -0.4726
 3451SOL    HW121815   2.420   4.215  12.449 -0.0616 -0.5285 -1.4243
 3451SOL    HW221816   2.314   4.107  12.481  1.2056 -2.8231  0.7610
 3452SOL     OW21817   4.384   0.465   7.642 -1.1148 -0.3785 -0.3647
 3452SOL    HW121818   4.316   0.532   7.641  0.5298  1.2593 -1.8607
 3452SOL    HW221819   4.425   0.480   7.557 -1.6244  0.4876 -0.4582
 3453SOL     OW21820   1.584   3.971  14.294 -0.0180  0.2635  0.4787
 3453SOL    HW121821   1.567   4.064  14.312  0.4430  0.6269 -1.0058
 3453SOL    HW221822   1.594   3.958  14.200  1.0176  0.3082  0.5787
 3454SOL     OW21823   4.545   0.184  14.577 -0.1203 -0.4246  0.2858
 3454SOL    HW121824   4.473   0.152  14.522  0.7992 -0.2392 -1.0137
 3454SOL    HW221825   4.540   0.119  14.647 -0.4653 -0.7447 -0.0312
 3455SOL     OW21826   1.556   1.191  11.779  0.6931 -0.2212 -0.0852
 3455SOL    HW121827   1.601   1.107  11.778  0.1314 -0.4947 -1.5542
 3455SOL    HW221828   1.501   1.188  11.858  2.5362  2.0612  1.2577
 3456SOL     OW21829   4.276   1.327   0.021  0.3817 -0.0015 -0.1086
 3456SOL    HW121830   4.309   1.307   0.108  0.4970  0.5705 -0.0230
 3456SOL    HW221831   4.230   1.243   0.015  0.3873 -0.3031  3.9662
 3457SOL     OW21832   4.166   2.021  10.244  0.0538 -0.3800 -0.2919
 3457SOL    HW121833   4.206   2.055  10.164  1.2269 -3.6384 -1.0815
 3457SOL    HW221834   4.231   1.956  10.269 -0.4833 -0.5515  0.6973
 3458SOL     OW21835   0.111   2.715   9.436 -0.4038 -0.1583  0.2656
 3458SOL    HW121836   0.065   2.762   9.505 -0.3908 -1.0397  0.8733
 3458SOL    HW221837   0.070   2.629   9.436  0.4496 -0.5599  2.7210
 3459SOL     OW21838   4.056   1.431   9.913  0.6092 -0.1555  0.0369
 3459SOL    HW121839   4.084   1.410   9.824  2.4409  2.2444  0.0705
 3459SOL    HW221840   3.994   1.502   9.897  3.1621  1.8229 -0.8786
 3460SOL     OW21841   1.132   2.403   3.160  0.3391 -0.0729  0.5415
 3460SOL    HW121842   1.158   2.315   3.133  0.2485  0.5534 -1.5648
 3460SOL    HW221843   1.209   2.443   3.200 -0.0623  0.3131  0.9249
 3461SOL     OW21844   2.923   4.673   6.401  0.2000 -0.2111 -0.1869
 3461SOL    HW121845   2.923   4.578   6.412 -0.8393  0.0986  2.3443
 3461SOL    HW221846   2.906   4.695   6.493  0.5756  0.3144 -0.2391
 3462SOL     OW21847   2.699   1.566  15.674  0.4353  0.2876  0.4759
 3462SOL    HW121848   2.698   1.656  15.706 -0.6990 -0.0081  1.2806
 3462SOL    HW221849   2.773   1.569  15.614  0.0939 -0.3476  0.0185
 3463SOL     OW21850   2.112   3.820   3.684  0.1462  0.2686 -0.1144
 3463SOL    HW121851   2.205   3.844   3.686  0.4035 -0.7081 -0.2834
 3463SOL    HW221852   2.118   3.726   3.665 -3.0005  0.0275  0.0826
 3464SOL     OW21853   2.242   3.305   7.678 -0.1564  0.0716 -0.0091
 3464SOL    HW121854   2.294   3.301   7.758  2.9290 -1.4419 -2.1016
 3464SOL    HW221855   2.171   3.357   7.716 -1.3666 -0.0286 -2.1426
 3465SOL     OW21856   2.719   4.189   3.182  0.5294  0.0378 -0.0856
 3465SOL    HW121857   2.643   4.245   3.165 -0.9622 -1.1751  2.4606
 3465SOL    HW221858   2.791   4.248   3.203 -0.0161  1.3558 -1.9351
 3466SOL     OW21859   3.861   0.841   3.196 -0.3006  0.3935  0.1868
 3466SOL    HW121860   3.852   0.745   3.198  0.5539  0.2193 -3.5245
 3466SOL    HW221861   3.771   0.870   3.213 -0.5064 -0.3419  0.3732
 3467SOL     OW21862   3.167   1.162   7.138 -0.3753  0.1116 -0.1007
 3467SOL    HW121863   3.206   1.076   7.126 -0.5132  0.1571 -0.8837
 3467SOL    HW221864   3.210   1.228   7.084  0.2733  0.6439  1.0543
 3468SOL     OW21865   2.882   3.539  11.505 -0.5779  0.0626  0.1011
 3468SOL    HW121866   2.920   3.561  11.590 -1.0836 -4.6194  1.5254
 3468SOL    HW221867   2.881   3.618  11.451 -0.1500 -0.4203 -0.6145
 3469SOL     OW21868   1.192   0.705   7.214 -0.1397  0.0334 -0.1758
 3469SOL    HW121869   1.223   0.618   7.189  1.5440  1.1342 -1.8845
 3469SOL    HW221870   1.277   0.744   7.236 -1.1805  2.1578  0.0998
 3470SOL     OW21871   0.037   3.524   4.577 -0.2486 -0.5976  0.6185
 3470SOL    HW121872   0.034   3.586   4.650 -1.5343 -0.4163  0.4053
 3470SOL    HW221873   4.670   3.504   4.557 -0.6467  1.1889  0.6741
 3471SOL     OW21874   1.201   2.249  13.477  0.3102 -0.0287 -0.5623
 3471SOL    HW121875   1.154   2.255  13.560  0.0825  1.3390 -0.7881
 3471SOL    HW221876   1.130   2.239  13.412  0.4567 -1.0849 -0.5434
 3472SOL     OW21877   3.999   0.112  16.190 -0.6488  0.2838 -0.5428
 3472SOL    HW121878   3.955   0.093  16.108 -0.4273 -1.0558 -0.3497
 3472SOL    HW221879   3.939   0.168  16.239  1.5031  2.5466 -0.4683
 3473SOL     OW21880   2.072   1.671   6.751  0.7422  0.0770 -0.3024
 3473SOL    HW121881   2.058   1.659   6.657 -0.6731 -1.7890  0.1480
 3473SOL    HW221882   2.167   1.661   6.750  0.6771 -0.7115  0.8398
 3474SOL     OW21883   0.368   3.518  16.591  0.3564  0.4508 -0.1544
 3474SOL    HW121884   0.380   3.572  16.669  1.4741  0.1705 -0.1352
 3474SOL    HW221885   0.439   3.454  16.590 -1.9417 -2.0772  0.2191
 3475SOL     OW21886   1.499   0.064   6.596 -0.1549 -0.0475  0.1062
 3475SOL    HW121887   1.571   0.013   6.634  0.7415  0.9388 -0.2524
 3475SOL    HW221888   1.435   0.066   6.668  0.1537 -0.7319  0.4057
 3476SOL     OW21889   4.270   2.863   3.269  0.9136  0.0815  0.0600
 3476SOL    HW121890   4.187   2.877   3.224  1.4514  1.3993 -0.5093
 3476SOL    HW221891   4.291   2.952   3.297 -1.4202  1.0226 -1.1688
 3477SOL     OW21892   1.372   3.529   0.649  0.7002  0.2935 -0.5631
 3477SOL    HW121893   1.388   3.440   0.619  2.5471 -0.3278  2.2807
 3477SOL    HW221894   1.454   3.577   0.636  0.1707  0.5264 -3.0883
 3478SOL     OW21895   0.310   4.194   6.952 -0.2321 -0.0306  0.0919
 3478SOL    HW121896   0.254   4.268   6.971 -1.2929 -0.6094 -0.7822
 3478SOL    HW221897   0.247   4.122   6.950 -3.3165  2.7067 -1.1801
 3479SOL     OW21898   1.510   0.687   7.768  0.2927 -0.2971  0.2435
 3479SOL    HW121899   1.458   0.614   7.801 -0.1464 -0.0029  0.2040
 3479SOL    HW221900   1.439   0.741   7.734  0.6433  0.8922  1.4044
 3480SOL     OW21901   3.141   4.138   3.367 -0.2911  1.0359 -0.3159
 3480SOL    HW121902   3.118   4.188   3.446 -1.6049  1.3038 -0.8642
 3480SOL    HW221903   3.235   4.150   3.353  0.1877 -1.6790  0.5500
 3481SOL     OW21904   3.275   2.807   4.339 -0.0334 -0.5774 -0.3564
 3481SOL    HW121905   3.328   2.814   4.418 -2.5296  1.7573  1.0945
 3481SOL    HW221906   3.231   2.723   4.357  0.0674 -0.8475 -1.3471
 3482SOL     OW21907   3.390   2.625   4.083 -0.4609 -0.0762  0.3051
 3482SOL    HW121908   3.381   2.530   4.093  2.1036 -0.5282 -1.8122
 3482SOL    HW221909   3.382   2.636   3.989  0.2845 -0.1890  0.2287
 3483SOL     OW21910   3.273   2.287   6.250 -0.5002  0.0091  0.4894
 3483SOL    HW121911   3.186   2.247   6.250  0.3784 -1.8779  2.5266
 3483SOL    HW221912   3.269   2.347   6.324 -0.4667  1.4572 -0.6741
 3484SOL     OW21913   2.753   0.219  11.732 -0.2424 -0.0455 -0.1170
 3484SOL    HW121914   2.696   0.236  11.657 -0.4144  1.5155  0.3688
 3484SOL    HW221915   2.779   0.129  11.716  0.0577 -0.0383  0.3235
 3485SOL     OW21916   3.983   2.525   3.563 -0.7523  0.1474  0.4005
 3485SOL    HW121917   4.021   2.457   3.619 -0.6742  1.5246  2.0198
 3485SOL    HW221918   3.895   2.540   3.598 -0.8850 -0.9059  0.5223
 3486SOL     OW21919   3.109   2.208   3.515  0.0249  0.3695 -0.1324
 3486SOL    HW121920   3.200   2.187   3.536 -0.4176 -0.9496  0.4515
 3486SOL    HW221921   3.114   2.228   3.421 -0.1244  1.6623  0.1375
 3487SOL     OW21922   0.014   2.130   4.172  0.0570  0.0293 -0.3090
 3487SOL    HW121923   0.086   2.186   4.199 -1.3986  1.6830  0.1601
 3487SOL    HW221924   0.022   2.136   4.077  1.0257  0.3538 -0.2086
 3488SOL     OW21925   2.667   1.002   5.066 -0.2805  0.1647  0.7669
 3488SOL    HW121926   2.609   0.926   5.058 -0.5401  0.6997 -2.3694
 3488SOL    HW221927   2.608   1.075   5.083  0.4967  0.6760  1.2671
 3489SOL     OW21928   2.879   2.361   7.954 -0.0922 -0.0958 -0.6731
 3489SOL    HW121929   2.860   2.443   7.998 -1.5408  0.5130 -2.4748
 3489SOL    HW221930   2.975   2.350   7.957  0.0118  1.6619  1.9091
 3490SOL     OW21931   1.598   0.630   8.194 -0.1276  0.6489 -0.1509
 3490SOL    HW121932   1.551   0.708   8.165 -0.9096  0.0348 -0.5542
 3490SOL    HW221933   1.531   0.563   8.208  0.6931 -0.4864 -1.6466
 3491SOL     OW21934   0.763   3.951   4.115  0.3966  0.0679 -0.3704
 3491SOL    HW121935   0.721   3.936   4.031  1.7318 -1.2136 -0.8245
 3491SOL    HW221936   0.853   3.976   4.093  0.7303 -1.1646 -0.4087
 3492SOL     OW21937   4.537   3.058   6.187  0.0145 -0.0388  0.5369
 3492SOL    HW121938   4.516   3.074   6.279 -1.1238 -2.3594  0.6738
 3492SOL    HW221939   4.471   2.990   6.176  1.5561 -1.3877 -0.4876
 3493SOL     OW21940   1.859   3.930  14.328  0.0377 -0.2967 -0.2251
 3493SOL    HW121941   1.766   3.941  14.306 -0.1414  1.7908  1.5899
 3493SOL    HW221942   1.878   3.843  14.294 -0.6499 -1.1981  1.6882
 3494SOL     OW21943   1.974   4.198  11.019 -0.0578  0.3224 -0.2813
 3494SOL    HW121944   1.971   4.279  11.070  1.3685  1.8605 -2.6374
 3494SOL    HW221945   1.902   4.207  10.956 -0.1291 -1.5014 -0.4484
 3495SOL     OW21946   0.000   1.310   6.238  0.4965 -0.0893 -0.2200
 3495SOL    HW121947   0.039   1.304   6.326  2.2607  4.7193 -0.6916
 3495SOL    HW221948   0.076   1.274   6.192  1.1055 -0.1613  0.8288
 3496SOL     OW21949   1.691   3.678   0.313  0.9193  0.0448 -0.6415
 3496SOL    HW121950   1.707   3.724   0.231  2.6508  0.1616 -0.2309
 3496SOL    HW221951   1.721   3.755   0.362 -0.2933 -0.4448  0.8940
 3497SOL     OW21952   3.745   4.180   0.399 -0.1031 -0.3391  0.2379
 3497SOL    HW121953   3.706   4.243   0.459  1.6069 -0.1549  1.1415
 3497SOL    HW221954   3.719   4.217   0.314 -0.8210 -1.3073  0.0308
 3498SOL     OW21955   1.801   0.044   3.318  0.0594  0.4182  0.2400
 3498SOL    HW121956   1.787   0.035   3.224 -0.3386  1.7817  0.1699
 3498SOL    HW221957   1.894   0.070   3.318 -0.3038  1.7064 -0.4611
 3499SOL     OW21958   3.341   1.188  11.859 -0.1606  0.7996  0.4757
 3499SOL    HW121959   3.435   1.190  11.840 -0.3130 -2.7504 -0.6704
 3499SOL    HW221960   3.341   1.262  11.918  1.4634 -0.3306  1.9170
 3500SOL     OW21961   0.980   2.767  15.415  0.0602 -0.0937  0.3326
 3500SOL    HW121962   0.957   2.691  15.361 -2.0932  0.4839  0.4654
 3500SOL    HW221963   0.972   2.843  15.358  0.3704 -0.1152  0.2561
 3501SOL     OW21964   2.913   0.123   7.085 -0.2225 -0.2590  0.0923
 3501SOL    HW121965   2.871   0.186   7.145 -2.7535 -1.6539 -0.2025
 3501SOL    HW221966   2.920   0.181   7.009  0.2071 -1.8011 -1.0304
 3502SOL     OW21967   2.847   4.550   7.075 -0.3067 -0.3856  0.2902
 3502SOL    HW121968   2.850   4.646   7.083  0.0823 -0.2589 -1.3813
 3502SOL    HW221969   2.917   4.540   7.011  0.8692 -2.5749  1.9188
 3503SOL     OW21970   2.083   0.812   2.018 -0.5687  0.3219 -0.1469
 3503SOL    HW121971   2.162   0.801   2.072 -0.3952  1.3926 -0.1610
 3503SOL    HW221972   2.060   0.903   2.040  1.0408  1.5952 -3.7140
 3504SOL     OW21973   3.963   3.145   7.877 -0.4354 -0.1470  0.2892
 3504SOL    HW121974   4.057   3.142   7.862 -0.2547  1.5389  1.0707
 3504SOL    HW221975   3.958   3.238   7.902  0.4621  0.1613 -0.6553
 3505SOL     OW21976   4.504   1.943   5.384  0.2028 -0.0530 -0.3599
 3505SOL    HW121977   4.411   1.952   5.366  0.0772  1.2768  0.9886
 3505SOL    HW221978   4.513   1.932   5.479 -0.9648 -0.4395 -0.2889
 3506SOL     OW21979   1.001   3.740   1.333  0.9640 -0.1944  0.1235
 3506SOL    HW121980   1.059   3.667   1.310  2.1258  1.3340 -1.8325
 3506SOL    HW221981   1.026   3.757   1.424  1.2983 -0.5061  0.0926
 3507SOL     OW21982   0.545   4.261   0.114 -0.3920 -0.0018 -0.2922
 3507SOL    HW121983   0.578   4.173   0.095 -2.7324 -0.9401  0.0518
 3507SOL    HW221984   0.624   4.311   0.094 -0.2287 -0.5226 -0.9612
 3508SOL     OW21985   2.840   1.953   7.976  0.2535 -0.5259 -0.2331
 3508SOL    HW121986   2.897   1.898   8.029 -0.5208 -2.1187 -1.0592
 3508SOL    HW221987   2.843   2.028   8.036 -1.0772 -1.7936  1.4033
 3509SOL     OW21988   1.760   0.979   7.464 -0.2632 -0.6630 -0.2818
 3509SOL    HW121989   1.786   0.905   7.409  1.3210  0.3894 -0.9568
 3509SOL    HW221990   1.835   1.039   7.457 -0.4788 -0.3466  0.1457
 3510SOL     OW21991   2.189   0.999   3.205 -0.6085 -0.2652  0.0741
 3510SOL    HW121992   2.115   1.049   3.240 -1.2725  0.5951 -2.6176
 3510SOL    HW221993   2.221   1.050   3.131  2.5619 -0.8664  1.0471
 3511SOL     OW21994   1.531   2.972   0.995  0.4106  0.1307  0.0804
 3511SOL    HW121995   1.458   2.974   1.057  0.1294  2.3068 -0.3179
 3511SOL    HW221996   1.608   2.974   1.052 -0.6071  0.4296  1.4535
 3512SOL     OW21997   0.062   4.491   9.497 -0.0475  0.2181 -0.3753
 3512SOL    HW121998   0.042   4.452   9.582 -0.5633  1.8612  0.2676
 3512SOL    HW221999   4.699   4.471   9.464 -0.3359  0.3848  0.2802
 3513SOL     OW22000   0.572   0.605  11.918 -0.1709 -0.8189  0.5267
 3513SOL    HW122001   0.608   0.591  11.830 -1.1293  1.1160 -0.1829
 3513SOL    HW222002   0.649   0.593  11.973  0.3322  0.0197  0.0165
 3514SOL     OW22003   3.556   2.216   3.752  0.3290 -0.2651 -0.4967
 3514SOL    HW122004   3.624   2.155   3.726  1.2279  0.7940 -0.6419
 3514SOL    HW222005   3.613   2.275   3.802 -1.1122  1.4846 -0.8891
 3515SOL     OW22006   3.226   1.252   1.573 -0.1213 -0.5622  0.8728
 3515SOL    HW122007   3.201   1.307   1.499 -3.0018 -0.5154  1.8945
 3515SOL    HW222008   3.183   1.306   1.639  0.2614  0.1343  0.5607
 3516SOL     OW22009   4.615   0.992   2.809  0.0891  0.1762  0.1950
 3516SOL    HW122010   4.622   1.081   2.775  1.7645  0.0363  0.1767
 3516SOL    HW222011   4.678   0.994   2.881 -0.1423  0.2229  0.3949
 3517SOL     OW22012   2.545   1.123   9.853  0.5154  0.0287 -0.0120
 3517SOL    HW122013   2.612   1.139   9.787  0.1645 -0.4452 -0.4916
 3517SOL    HW222014   2.492   1.065   9.797  2.6896 -1.2780 -0.7303
 3518SOL     OW22015   2.539   0.831   2.492  0.0840  0.4079 -0.3722
 3518SOL    HW122016   2.584   0.889   2.430  0.6607 -2.3463 -2.5116
 3518SOL    HW222017   2.588   0.750   2.494  1.0277  0.9838 -0.1461
 3519SOL     OW22018   1.598   2.271  13.169 -0.5447  0.7500  0.1980
 3519SOL    HW122019   1.590   2.208  13.098 -0.4599  3.2041 -1.9765
 3519SOL    HW222020   1.641   2.346  13.127  1.3106  0.0433  0.8151
 3520SOL     OW22021   2.325   1.308  13.038 -0.1250  0.0909 -0.2292
 3520SOL    HW122022   2.398   1.250  13.014 -0.3980 -0.3680  0.0462
 3520SOL    HW222023   2.263   1.319  12.966  0.7698 -1.7769 -1.3075
 3521SOL     OW22024   2.952   3.757   2.375  0.6252  0.1114  0.0059
 3521SOL    HW122025   2.924   3.684   2.320  1.0943 -0.3747  0.4207
 3521SOL    HW222026   2.887   3.743   2.444  0.9411 -1.0578  0.0621
 3522SOL     OW22027   2.345   1.859  14.434  0.0446 -0.4835 -0.2132
 3522SOL    HW122028   2.414   1.917  14.402 -0.2687  0.4992  0.9120
 3522SOL    HW222029   2.400   1.788  14.467  2.8911  0.5268 -2.7413
 3523SOL     OW22030   0.752   0.712   7.428 -0.0944 -0.0115 -0.0914
 3523SOL    HW122031   0.759   0.753   7.514  1.2150  0.3906 -0.3989
 3523SOL    HW222032   0.718   0.787   7.378 -2.3169  1.1560  3.1949
 3524SOL     OW22033   0.065   3.410  12.185 -0.0989 -0.7376  0.4962
 3524SOL    HW122034   0.098   3.417  12.096 -0.2217  1.5872  0.6408
 3524SOL    HW222035   0.031   3.320  12.180  0.8347 -0.8732 -3.0426
 3525SOL     OW22036   0.159   1.540  11.676 -0.1499 -0.0447 -1.1767
 3525SOL    HW122037   0.194   1.485  11.747  0.5277  0.9984 -0.6983
 3525SOL    HW222038   0.148   1.621  11.725  1.1589 -0.1462 -0.6907
 3526SOL     OW22039   1.806   0.207   5.210  0.2426 -0.3847 -0.1735
 3526SOL    HW122040   1.789   0.113   5.221 -0.5260 -0.2024  0.2515
 3526SOL    HW222041   1.739   0.235   5.148 -0.6708  1.6659  1.7110
 3527SOL     OW22042   1.223   0.414   2.980  0.1543  0.5002 -0.3395
 3527SOL    HW122043   1.297   0.446   3.032 -0.3995  1.8885 -0.4233
 3527SOL    HW222044   1.272   0.382   2.904 -2.0889  1.3140 -2.1138
 3528SOL     OW22045   1.483   4.158   9.784  1.0119 -0.7208 -0.4247
 3528SOL    HW122046   1.474   4.073   9.741  1.4482 -1.5010  1.0242
 3528SOL    HW222047   1.394   4.193   9.788  1.2659 -0.0828 -0.3715
 3529SOL     OW22048   1.483   3.568   5.260 -0.1214  0.2275 -0.1601
 3529SOL    HW122049   1.523   3.534   5.181 -1.4756  1.6752 -1.4712
 3529SOL    HW222050   1.491   3.662   5.242  0.6120  0.3823  0.9788
 3530SOL     OW22051   3.089   4.212  11.708  0.0082 -0.0426  0.1926
 3530SOL    HW122052   3.171   4.163  11.717  0.1362  0.2907  0.8782
 3530SOL    HW222053   3.104   4.290  11.763 -1.6842 -0.2443  0.9323
 3531SOL     OW22054   1.811   1.981   3.579 -0.4377  0.1766 -0.2028
 3531SOL    HW122055   1.832   2.025   3.661 -2.4562  0.3365  0.2458
 3531SOL    HW222056   1.900   1.964   3.548  0.5812  0.3668  2.6586
 3532SOL     OW22057   0.794   3.038   5.732  0.5956  0.0426  0.2565
 3532SOL    HW122058   0.862   3.099   5.762 -0.5234  0.4252  1.9801
 3532SOL    HW222059   0.822   3.016   5.643  0.4100 -1.2071  0.5004
 3533SOL     OW22060   1.229   4.511  10.763 -0.2161  0.1066  0.5529
 3533SOL    HW122061   1.249   4.428  10.721  0.6759  1.6295 -2.0541
 3533SOL    HW222062   1.292   4.573  10.726 -0.6550  0.5009  0.4500
 3534SOL     OW22063   0.699   3.742   9.932 -0.2706  0.4884 -0.3036
 3534SOL    HW122064   0.754   3.764   9.857  0.3025  2.1129  0.5924
 3534SOL    HW222065   0.713   3.647   9.934 -3.0277  0.0466 -2.2264
 3535SOL     OW22066   0.842   2.421   3.279  0.0087  0.0552  0.0323
 3535SOL    HW122067   0.801   2.432   3.193  1.3188  2.2495 -0.3144
 3535SOL    HW222068   0.926   2.467   3.281 -1.7013  3.1267  0.5011
 3536SOL     OW22069   3.144   1.254   2.060  0.1105 -0.8650  0.2773
 3536SOL    HW122070   3.166   1.187   1.994  2.9683  0.0705  0.2842
 3536SOL    HW222071   3.050   1.243   2.076  0.1474 -1.6642 -0.0356
 3537SOL     OW22072   0.611   3.526  10.324 -0.3698 -0.1936  0.0653
 3537SOL    HW122073   0.612   3.524  10.419  0.0945  2.3142  0.0977
 3537SOL    HW222074   0.529   3.486  10.297 -0.1551 -1.5391  1.4332
 3538SOL     OW22075   3.184   1.656  12.841  0.8745  0.7614 -0.0166
 3538SOL    HW122076   3.141   1.609  12.770 -2.1233  1.8391  1.0643
 3538SOL    HW222077   3.200   1.581  12.898 -2.6325  0.1862  0.2646
 3539SOL     OW22078   3.882   1.733  16.496  0.8692 -0.4164 -0.7469
 3539SOL    HW122079   3.834   1.780  16.428  1.1435 -1.0279 -1.3651
 3539SOL    HW222080   3.937   1.804  16.528  1.9599 -1.2927 -0.6560
 3540SOL     OW22081   1.214   0.542  11.982 -0.8419  0.1885  0.1585
 3540SOL    HW122082   1.208   0.533  12.077 -1.6663  3.2842  0.4216
 3540SOL    HW222083   1.267   0.622  11.981  0.8816 -0.9475  0.4649
 3541SOL     OW22084   0.338   4.000   5.928  0.0521 -0.3647 -0.0754
 3541SOL    HW122085   0.273   3.934   5.953  0.4184 -0.9053 -0.5650
 3541SOL    HW222086   0.286   4.075   5.959  1.8887  1.9258 -2.4748
 3542SOL     OW22087   1.340   1.145   7.137 -0.2972 -0.4027 -0.0479
 3542SOL    HW122088   1.330   1.238   7.119  1.2859 -0.3259 -0.5957
 3542SOL    HW222089   1.259   1.116   7.179 -0.0920 -0.0189  0.6056
 3543SOL     OW22090   1.548   2.309   6.450  0.3910  0.1915 -0.6264
 3543SOL    HW122091   1.506   2.282   6.369 -0.7040 -0.1925  0.0649
 3543SOL    HW222092   1.488   2.272   6.516  1.5819 -0.9184 -0.1597
 3544SOL     OW22093   2.825   1.338   7.139 -0.1922 -0.1700  0.4896
 3544SOL    HW122094   2.885   1.393   7.088 -0.5192 -0.3324 -0.0661
 3544SOL    HW222095   2.849   1.257   7.094  0.5315  0.5267 -0.3933
 3545SOL     OW22096   0.482   3.590   6.424 -0.3030  0.3067  0.4678
 3545SOL    HW122097   0.544   3.657   6.393 -0.5145  0.9033  1.3241
 3545SOL    HW222098   0.499   3.578   6.517  2.1844  3.3380  0.4094
 3546SOL     OW22099   0.103   0.700   5.591  0.1228 -0.3379 -0.1920
 3546SOL    HW122100   0.135   0.689   5.680 -1.2906  2.5658  0.6973
 3546SOL    HW222101   0.028   0.640   5.586  0.3619 -0.6039 -0.5942
 3547SOL     OW22102   0.565   3.574  15.042  0.9875 -0.5996 -0.8813
 3547SOL    HW122103   0.544   3.659  15.003 -0.9444 -1.3912 -1.5497
 3547SOL    HW222104   0.479   3.541  15.066 -0.2898  1.9422 -1.9313
 3548SOL     OW22105   1.737   1.725   7.538 -0.5357 -0.3173 -0.3350
 3548SOL    HW122106   1.740   1.813   7.502 -0.6197 -0.1121  0.1578
 3548SOL    HW222107   1.730   1.671   7.460  0.2813 -0.8502 -0.0428
 3549SOL     OW22108   1.644   4.100   5.422 -0.1104 -0.4324  0.3230
 3549SOL    HW122109   1.639   4.083   5.516 -1.9874  2.2536  0.7276
 3549SOL    HW222110   1.736   4.127   5.425 -0.6053  1.1906  1.0742
 3550SOL     OW22111   3.085   4.195   9.692 -0.1420  0.1613 -0.2826
 3550SOL    HW122112   3.093   4.118   9.636 -0.1610  0.0043 -0.0715
 3550SOL    HW222113   3.020   4.176   9.760  0.0449  0.9188  0.1045
 3551SOL     OW22114   3.726   0.486   2.143 -0.3221 -0.2994 -0.0438
 3551SOL    HW122115   3.763   0.520   2.224 -0.3127 -0.1813 -0.0980
 3551SOL    HW222116   3.758   0.395   2.145  0.9482  0.0921 -1.7347
 3552SOL     OW22117   1.385   3.752   3.080 -0.1557 -0.3749 -0.2208
 3552SOL    HW122118   1.348   3.812   3.145 -0.7721  1.1811 -1.9932
 3552SOL    HW222119   1.402   3.694   3.154 -2.4019  0.6025  1.0882
 3553SOL     OW22120   0.905   1.299   6.980  0.1486 -0.3297 -0.5005
 3553SOL    HW122121   0.948   1.308   6.896 -0.7418 -0.7958 -1.0048
 3553SOL    HW222122   0.935   1.374   7.032  0.7922 -1.1009  0.2348
 3554SOL     OW22123   3.342   4.198   4.641  0.1420  0.4752 -0.1968
 3554SOL    HW122124   3.293   4.133   4.691  0.3629  1.3658  1.1636
 3554SOL    HW222125   3.416   4.143   4.613 -0.2446 -0.1418 -0.0067
 3555SOL     OW22126   3.494   4.603   5.972 -0.7279  0.3038 -0.3425
 3555SOL    HW122127   3.552   4.627   5.900  0.7555  2.5840  1.6047
 3555SOL    HW222128   3.555   4.642   6.035 -0.7329 -1.6190  0.8641
 3556SOL     OW22129   3.102   2.409   4.524  0.5387 -0.1349  0.4038
 3556SOL    HW122130   3.083   2.416   4.618 -1.7187 -1.3303  0.0264
 3556SOL    HW222131   3.070   2.323   4.497  2.5548 -0.5341 -0.7298
 3557SOL     OW22132   0.229   2.599   0.978 -0.1339 -0.7564 -0.8983
 3557SOL    HW122133   0.226   2.504   0.992  1.1026 -0.8958 -1.6521
 3557SOL    HW222134   0.310   2.616   1.026  0.6288  0.0316 -2.4699
 3558SOL     OW22135   0.247   2.354   8.697  0.0610  0.1650  0.1652
 3558SOL    HW122136   0.268   2.444   8.721 -2.1471  1.1149 -1.4328
 3558SOL    HW222137   0.317   2.298   8.731  0.8869  0.3071 -1.2526
 3559SOL     OW22138   2.340   0.002   8.190  0.1320  0.0244 -0.3382
 3559SOL    HW122139   2.262   4.691   8.233  0.1218 -0.2624 -0.5917
 3559SOL    HW222140   2.340   4.677   8.108  0.6520  0.2380 -0.4661
 3560SOL     OW22141   2.508   0.138   4.578  0.3563  0.0202 -0.4150
 3560SOL    HW122142   2.442   0.082   4.620 -1.1757  1.3815 -1.0118
 3560SOL    HW222143   2.541   0.077   4.512  1.9315 -0.7866  1.1095
 3561SOL     OW22144   2.951   2.955   7.548  0.3221 -0.2243 -0.2666
 3561SOL    HW122145   2.963   2.878   7.492 -1.1381 -1.0180  0.5312
 3561SOL    HW222146   2.877   3.008   7.519  0.4029 -0.6958 -1.3302
 3562SOL     OW22147   2.348   0.309  17.456 -0.0798  0.1375  0.0824
 3562SOL    HW122148   2.337   0.403  17.472 -2.1600 -0.4973  2.3882
 3562SOL    HW222149   2.270   0.280  17.503  2.6510 -2.9180  2.6742
 3563SOL     OW22150   1.573   0.698   0.628  0.1399  0.4636 -0.3613
 3563SOL    HW122151   1.635   0.760   0.666  1.2489 -1.3651  0.7743
 3563SOL    HW222152   1.509   0.689   0.699  2.5045  0.8231  1.8058
 3564SOL     OW22153   3.749   0.978   8.337 -0.2228  0.1567 -0.4463
 3564SOL    HW122154   3.713   1.027   8.411 -1.9845 -2.7621  0.6392
 3564SOL    HW222155   3.674   0.972   8.278  0.1985 -2.5115 -0.7362
 3565SOL     OW22156   1.142   2.997   2.656  0.7757  0.1328 -0.1055
 3565SOL    HW122157   1.064   2.980   2.604  0.6646 -1.0397  0.4440
 3565SOL    HW222158   1.148   2.922   2.716  1.4193 -0.3619 -0.7886
 3566SOL     OW22159   3.556   3.993   7.625 -0.4686 -0.2161 -0.3011
 3566SOL    HW122160   3.626   4.043   7.585 -1.4254 -0.5703 -2.4087
 3566SOL    HW222161   3.506   4.060   7.673  0.7088  0.7710 -0.4568
 3567SOL     OW22162   4.084   0.576  16.213  0.0275 -0.4047 -0.2672
 3567SOL    HW122163   4.121   0.659  16.183  1.2918 -0.7730  0.2894
 3567SOL    HW222164   4.041   0.549  16.132  1.2358  0.3445 -1.1456
 3568SOL     OW22165   4.244   1.872   5.844  0.1622 -0.0510  1.0543
 3568SOL    HW122166   4.270   1.954   5.886 -0.3238  0.6008  0.0808
 3568SOL    HW222167   4.170   1.846   5.898  0.8475 -1.0727  1.4878
 3569SOL     OW22168   3.713   3.766   6.114  0.2366 -0.6696  0.3339
 3569SOL    HW122169   3.682   3.713   6.040  1.4419 -0.7236 -0.1428
 3569SOL    HW222170   3.666   3.725   6.186  3.1018 -1.3691  1.8281
 3570SOL     OW22171   0.602   2.814  16.446  0.1100 -0.0415  0.3750
 3570SOL    HW122172   0.607   2.746  16.513 -2.1377 -1.3313 -0.7560
 3570SOL    HW222173   0.570   2.893  16.489 -0.3894  0.0054 -0.0733
 3571SOL     OW22174   2.524   2.090  14.085  0.2265 -0.3939 -0.2097
 3571SOL    HW122175   2.443   2.124  14.121  0.8264  0.4649  0.3333
 3571SOL    HW222176   2.489   2.016  14.035 -0.7141 -1.0702  1.4780
 3572SOL     OW22177   2.521   0.983  11.050 -0.2447  0.0710  0.1162
 3572SOL    HW122178   2.564   0.899  11.066  1.2481  0.5554 -1.4068
 3572SOL    HW222179   2.469   0.983  11.131 -1.3177 -2.5840 -0.5675
 3573SOL     OW22180   0.745   3.102   7.077 -0.3704 -0.5202  0.5630
 3573SOL    HW122181   0.739   3.197   7.086  3.9644 -0.1436 -0.5248
 3573SOL    HW222182   0.669   3.068   7.124 -1.1136  2.6017  1.6103
 3574SOL     OW22183   4.444   2.232  16.245 -0.7260  0.1446  0.4454
 3574SOL    HW122184   4.439   2.257  16.153 -1.3519  0.4983  0.5729
 3574SOL    HW222185   4.359   2.201  16.278 -2.2461  1.4041 -2.3661
 3575SOL     OW22186   0.596   0.523  10.816 -0.1579  0.4033  0.4727
 3575SOL    HW122187   0.578   0.441  10.863 -1.5690 -0.6630 -1.8636
 3575SOL    HW222188   0.638   0.478  10.742  1.9895  1.0122  1.3514
 3576SOL     OW22189   3.756   3.353   2.264 -0.1017 -0.3516  0.6869
 3576SOL    HW122190   3.821   3.382   2.200 -0.3152 -0.0836  0.5900
 3576SOL    HW222191   3.782   3.267   2.298 -0.2048 -0.2747  0.9563
 3577SOL     OW22192   3.534   1.452   2.685 -0.5416  0.6966 -1.0324
 3577SOL    HW122193   3.504   1.385   2.622  2.3515 -0.6561 -0.9896
 3577SOL    HW222194   3.555   1.406   2.766 -2.0652  0.7941 -0.5713
 3578SOL     OW22195   3.443   0.007   2.373  0.0546  0.3691  0.6312
 3578SOL    HW122196   3.443   0.096   2.339 -1.1204  0.9625  2.1315
 3578SOL    HW222197   3.476   4.683   2.297  1.5563 -1.1658  2.2250
 3579SOL     OW22198   0.729   3.119   8.537  0.3377  0.4537  0.1556
 3579SOL    HW122199   0.729   3.056   8.465 -1.1239 -1.5007  1.8717
 3579SOL    HW222200   0.636   3.128   8.556  0.3656  0.0215  0.4891
 3580SOL     OW22201   0.280   0.251  10.294  0.3824  0.4109  0.4793
 3580SOL    HW122202   0.238   0.196  10.360 -0.9722  0.4508 -0.3520
 3580SOL    HW222203   0.219   0.321  10.270  1.7667  2.1035  1.8802
 3581SOL     OW22204   3.968   2.114   6.433 -0.2047  0.2092 -0.1689
 3581SOL    HW122205   4.034   2.065   6.482 -1.2558 -0.4446  0.6033
 3581SOL    HW222206   4.005   2.202   6.429  0.2068  0.0543  0.2816
 3582SOL     OW22207   1.695   0.025   2.241 -0.0057  0.8809 -0.1009
 3582SOL    HW122208   1.776   4.700   2.228  0.9857  2.0899  1.5241
 3582SOL    HW222209   1.647   4.703   2.310  0.7510  0.9970  0.4933
 3583SOL     OW22210   0.340   3.302   7.293  0.7334 -0.4355 -0.2368
 3583SOL    HW122211   0.373   3.285   7.382 -0.8292  1.3717  0.6879
 3583SOL    HW222212   0.280   3.374   7.313 -2.7298 -3.0143 -1.3027
 3584SOL     OW22213   1.592   1.236   5.680  0.4815  0.5519 -0.3041
 3584SOL    HW122214   1.672   1.185   5.695  0.3777  0.4854  0.0224
 3584SOL    HW222215   1.562   1.251   5.770  0.5509  0.4292 -0.2602
 3585SOL     OW22216   3.723   0.583   1.396 -0.4793 -0.6401  0.0902
 3585SOL    HW122217   3.669   0.568   1.473  0.6969 -2.1146  0.6290
 3585SOL    HW222218   3.703   0.674   1.372  0.1298 -0.7046 -0.6694
 3586SOL     OW22219   1.626   4.641   4.788  0.0154  0.5783  0.3244
 3586SOL    HW122220   1.566   4.641   4.714 -1.6452  1.1532  1.6552
 3586SOL    HW222221   1.627   4.547   4.807 -0.7794  0.7644  1.3014
 3587SOL     OW22222   1.478   2.728   4.458  0.0633  0.7292 -0.2724
 3587SOL    HW122223   1.440   2.656   4.510  0.7113  0.0026 -0.8015
 3587SOL    HW222224   1.555   2.686   4.420  0.9196  0.4184  1.8386
 3588SOL     OW22225   4.327   4.049   6.658 -0.0098  0.3857 -0.0302
 3588SOL    HW122226   4.365   4.133   6.685  1.5804 -0.8127  1.4270
 3588SOL    HW222227   4.273   4.077   6.584  2.0952  2.1117 -0.9132
 3589SOL     OW22228   3.300   1.148  14.236  0.1363 -0.9129 -0.8161
 3589SOL    HW122229   3.292   1.241  14.258 -0.1525 -1.1052 -0.0841
 3589SOL    HW222230   3.292   1.116  14.326 -0.8631  0.6764 -0.3433
 3590SOL     OW22231   3.564   3.686  15.022 -0.8863  0.3109  0.2530
 3590SOL    HW122232   3.548   3.727  15.107  2.4652  1.5190  0.3255
 3590SOL    HW222233   3.644   3.633  15.030 -0.5456  0.4629 -2.1129
 3591SOL     OW22234   3.093   1.764  14.538 -0.2645  0.0434 -0.0415
 3591SOL    HW122235   3.029   1.731  14.601 -0.1928 -0.4054 -0.2022
 3591SOL    HW222236   3.128   1.676  14.524 -1.0930 -0.1171 -1.1020
 3592SOL     OW22237   2.834   1.662   5.088 -0.1764  0.5064 -0.0408
 3592SOL    HW122238   2.770   1.732   5.101  0.9948  1.7570 -0.8761
 3592SOL    HW222239   2.901   1.667   5.157  0.6866  1.6932 -0.9597
 3593SOL     OW22240   3.450   3.753   5.681  0.1482  0.2361 -0.2261
 3593SOL    HW122241   3.364   3.714   5.694  0.8755 -1.3227 -0.0717
 3593SOL    HW222242   3.502   3.673   5.677 -1.8674 -1.0407 -0.6908
 3594SOL     OW22243   2.540   1.582   0.692 -0.4727  0.0045 -0.3383
 3594SOL    HW122244   2.536   1.607   0.785  1.8908 -1.9223  0.2826
 3594SOL    HW222245   2.557   1.662   0.643 -0.7677  0.7016  0.6997
 3595SOL     OW22246   0.051   3.832  17.135 -0.0721  0.3213 -0.0551
 3595SOL    HW122247   4.693   3.835  17.086 -0.6048  0.8525  0.8483
 3595SOL    HW222248   0.027   3.818  17.227  0.4990  0.6104  0.1378
 3596SOL     OW22249   4.453   4.681  16.259  0.2416 -0.0752 -0.8378
 3596SOL    HW122250   4.386   0.016  16.293  0.1177 -0.3511 -0.6072
 3596SOL    HW222251   4.483   0.013  16.187 -0.4058  0.2402 -0.8610
 3597SOL     OW22252   2.733   1.720   5.891  1.0456  0.2100  0.1866
 3597SOL    HW122253   2.828   1.712   5.880  0.8345 -0.6461 -1.1201
 3597SOL    HW222254   2.724   1.690   5.981  3.4530 -0.8497  0.0740
 3598SOL     OW22255   1.418   3.345  16.958 -0.6787  0.1715  0.1673
 3598SOL    HW122256   1.492   3.404  16.948 -0.8814  0.1688 -1.3086
 3598SOL    HW222257   1.441   3.283  16.889 -0.3672  0.4455  0.0247
 3599SOL     OW22258   1.404   2.046  14.753 -0.1510 -0.1512 -0.1236
 3599SOL    HW122259   1.496   2.026  14.737  0.2710 -0.0718  2.2532
 3599SOL    HW222260   1.362   1.971  14.795 -1.1168  0.4377 -0.0461
 3600SOL     OW22261   2.152   4.610   5.472 -0.8626 -0.2354 -0.2579
 3600SOL    HW122262   2.122   4.691   5.432  0.5308 -0.9513 -2.7463
 3600SOL    HW222263   2.210   4.589   5.399 -0.9199  1.8860 -0.9376
 3601SOL     OW22264   0.657   0.624   3.531  0.5312  0.1626 -0.3736
 3601SOL    HW122265   0.703   0.557   3.481  1.8839  1.4240 -0.8279
 3601SOL    HW222266   0.724   0.670   3.581 -1.0799  0.6222  1.3363
 3602SOL     OW22267   2.954   0.369   9.198  0.0344 -0.3292 -0.2457
 3602SOL    HW122268   2.947   0.387   9.292 -0.0898  0.1527 -0.3483
 3602SOL    HW222269   2.946   0.274   9.197  2.7228 -0.5623  0.9740
 3603SOL     OW22270   2.278   2.213   1.051 -0.2750 -0.0519  0.1985
 3603SOL    HW122271   2.218   2.168   1.110 -1.1270  0.5666 -0.1947
 3603SOL    HW222272   2.249   2.186   0.964  0.3850  0.6696 -0.2464
 3604SOL     OW22273   0.179   4.039   1.409 -0.3027  0.0294 -0.2577
 3604SOL    HW122274   0.148   3.971   1.350  0.7656 -0.8597  0.2134
 3604SOL    HW222275   0.252   3.995   1.452 -0.2877  0.4030  0.1013
 3605SOL     OW22276   2.494   1.137   8.076  0.0565  0.4031 -0.1185
 3605SOL    HW122277   2.484   1.211   8.137  1.2240  0.6448 -0.2187
 3605SOL    HW222278   2.414   1.146   8.023 -0.6355  1.1385  1.0409
 3606SOL     OW22279   0.168   1.498  15.784 -0.2002  0.1581  0.8840
 3606SOL    HW122280   0.100   1.457  15.839  0.5038  0.3188  1.8779
 3606SOL    HW222281   0.147   1.477  15.693 -0.5703  1.2368  0.7268
 3607SOL     OW22282   1.823   1.384   3.144  0.2767 -0.3252 -0.7279
 3607SOL    HW122283   1.845   1.423   3.059  1.2534 -0.6216 -0.6073
 3607SOL    HW222284   1.769   1.307   3.128 -3.5555  1.7939  1.8205
 3608SOL     OW22285   0.527   2.527   1.354 -0.0159  0.1361 -0.0563
 3608SOL    HW122286   0.594   2.546   1.419  1.5990 -2.0452 -1.0907
 3608SOL    HW222287   0.574   2.573   1.285  1.4172  0.4816  1.1522
 3609SOL     OW22288   0.434   3.368   2.995  0.5142 -0.6086  0.5524
 3609SOL    HW122289   0.447   3.340   3.086  1.4338  0.0357  0.6214
 3609SOL    HW222290   0.439   3.462   3.008  1.6109 -0.3715 -1.5349
 3610SOL     OW22291   3.420   3.904   7.976  0.5175  0.7216  0.2908
 3610SOL    HW122292   3.345   3.946   7.935  1.7207  0.2374 -2.3876
 3610SOL    HW222293   3.498   3.931   7.928  0.7699  0.3234  0.4753
 3611SOL     OW22294   3.036   1.485  12.559 -0.3640  0.3616 -0.0130
 3611SOL    HW122295   2.955   1.501  12.510 -0.3878  0.6730  0.1266
 3611SOL    HW222296   3.010   1.401  12.596  0.8851 -0.6260 -1.3487
 3612SOL     OW22297   4.449   1.265  10.532  0.2064 -0.2409 -0.3025
 3612SOL    HW122298   4.526   1.228  10.575  0.7553 -0.1715 -1.2113
 3612SOL    HW222299   4.465   1.357  10.553 -2.0791 -0.0105  0.4273
 3613SOL     OW22300   2.279   0.978  13.884 -0.0318  0.3670  0.7682
 3613SOL    HW122301   2.185   0.996  13.881 -0.4067 -1.7091 -0.1528
 3613SOL    HW222302   2.282   0.968  13.979 -3.7003  0.7172  0.9492
 3614SOL     OW22303   4.432   4.576   5.816  0.1731  0.2418  0.6290
 3614SOL    HW122304   4.437   4.644   5.882 -0.4053  0.2489  0.6586
 3614SOL    HW222305   4.490   4.616   5.751  0.7614  1.0947  1.6753
 3615SOL     OW22306   2.570   4.561  12.064  0.0491  0.7552 -0.0259
 3615SOL    HW122307   2.526   4.531  12.143 -2.9054  2.1468 -1.1246
 3615SOL    HW222308   2.492   4.588  12.015  0.0077  0.7457  0.0353
 3616SOL     OW22309   0.219   1.916  11.717 -0.0500 -0.4940  0.6689
 3616SOL    HW122310   0.171   1.847  11.761 -1.5948 -1.3442 -2.3142
 3616SOL    HW222311   0.149   1.982  11.723  0.3852 -0.0733  1.1237
 3617SOL     OW22312   2.312   1.586   7.194 -0.1344 -0.1006 -0.5933
 3617SOL    HW122313   2.324   1.503   7.148 -1.4746  0.8199 -2.5687
 3617SOL    HW222314   2.309   1.655   7.128 -1.3917  0.7735  0.3574
 3618SOL     OW22315   2.239   1.926  11.631 -0.4365  0.1728  0.0115
 3618SOL    HW122316   2.238   1.954  11.539  2.8242 -2.3246 -0.7608
 3618SOL    HW222317   2.289   1.998  11.671  1.7586 -1.2975 -0.1115
 3619SOL     OW22318   3.068   3.816   6.538 -0.2159  0.0978 -0.0433
 3619SOL    HW122319   3.094   3.789   6.626 -1.1785 -0.6018  0.0234
 3619SOL    HW222320   2.976   3.793   6.526  0.2348 -1.1383 -1.1014
 3620SOL     OW22321   0.244   3.880   4.963 -0.3524  0.0912 -0.4110
 3620SOL    HW122322   0.339   3.883   4.956 -0.2358 -1.1069  0.5793
 3620SOL    HW222323   0.234   3.842   5.050  0.1023  0.8005 -0.0623
 3621SOL     OW22324   2.117   3.888  10.194  0.2350 -0.0980  0.5373
 3621SOL    HW122325   2.200   3.872  10.238  0.6433 -2.7552 -1.2307
 3621SOL    HW222326   2.140   3.957  10.131  0.8927  0.6815  1.6329
 3622SOL     OW22327   3.460   4.472  15.393  0.6499 -0.0181  0.2999
 3622SOL    HW122328   3.483   4.555  15.352  2.3857  0.3911  2.0851
 3622SOL    HW222329   3.549   4.448  15.418  1.1560 -0.5215 -2.0433
 3623SOL     OW22330   3.785   1.796  14.281 -0.1002  0.0212  0.3213
 3623SOL    HW122331   3.764   1.814  14.189 -1.5880 -2.4077  0.1828
 3623SOL    HW222332   3.842   1.719  14.278  1.2616  1.0386  0.4112
 3624SOL     OW22333   4.054   1.039   1.395  0.1844 -0.0480  0.2136
 3624SOL    HW122334   4.048   1.134   1.384  1.4138 -0.3463 -3.1562
 3624SOL    HW222335   4.142   1.039   1.358  0.1002 -1.1991  0.0100
 3625SOL     OW22336   1.829   1.225   1.280 -0.1159 -0.0072 -0.0392
 3625SOL    HW122337   1.863   1.137   1.290 -0.5551  0.0686  2.1551
 3625SOL    HW222338   1.778   1.237   1.360  2.2935  0.6336  1.3997
 3626SOL     OW22339   0.134   3.864   8.160  0.5008 -0.5749  0.0982
 3626SOL    HW122340   0.203   3.833   8.102 -0.3354 -2.0633 -0.1149
 3626SOL    HW222341   0.113   3.950   8.122 -0.1367 -1.6322 -1.9502
 3627SOL     OW22342   1.189   0.895  14.680  0.1244 -0.0619 -0.0356
 3627SOL    HW122343   1.139   0.924  14.757 -2.1105  0.6748 -1.7654
 3627SOL    HW222344   1.268   0.947  14.673 -0.9588  1.9610  2.7064
 3628SOL     OW22345   1.745   0.953   5.068  0.0341 -0.2161  0.1883
 3628SOL    HW122346   1.693   0.882   5.029 -0.9523  0.4167  0.3364
 3628SOL    HW222347   1.819   0.933   5.011  0.3977 -3.7675  1.8865
 3629SOL     OW22348   3.785   1.098   6.012  0.1895  0.3317 -0.1169
 3629SOL    HW122349   3.814   1.007   6.003 -0.9155  0.1602 -1.8765
 3629SOL    HW222350   3.768   1.123   5.921 -0.9909  0.9563  0.2732
 3630SOL     OW22351   3.980   3.835   3.182 -0.4865 -0.2847  0.2122
 3630SOL    HW122352   3.931   3.829   3.263  0.4586  1.8282  0.9419
 3630SOL    HW222353   3.918   3.803   3.116 -0.3394 -0.3528  0.1052
 3631SOL     OW22354   0.587   4.650   2.903  0.7276 -0.4038  0.0026
 3631SOL    HW122355   0.640   4.584   2.858 -0.8561 -2.4419  1.1198
 3631SOL    HW222356   0.646   4.724   2.888  1.3430 -1.0638 -0.8398
 3632SOL     OW22357   0.606   1.808  13.326  0.4498 -0.4078  0.5509
 3632SOL    HW122358   0.576   1.730  13.277 -0.2061  0.3961 -0.3427
 3632SOL    HW222359   0.526   1.849  13.359  0.6010  1.5956 -1.5724
 3633SOL     OW22360   4.235   1.642   3.303 -0.1550 -0.0028  0.1196
 3633SOL    HW122361   4.275   1.708   3.359 -1.4695 -0.2410  1.3542
 3633SOL    HW222362   4.153   1.691   3.297 -0.5397 -0.6924 -0.2629
 3634SOL     OW22363   1.632   0.498   6.459 -0.0404 -0.3751 -0.3369
 3634SOL    HW122364   1.638   0.410   6.422  0.1816 -0.0267 -1.1462
 3634SOL    HW222365   1.725   0.511   6.476 -0.1819  1.9842 -1.3466
 3635SOL     OW22366   3.670   0.929   3.885 -0.3663 -0.0148 -0.2150
 3635SOL    HW122367   3.652   0.920   3.792 -0.5609  1.1629 -0.2898
 3635SOL    HW222368   3.582   0.914   3.920 -0.6301  0.1745 -0.8055
 3636SOL     OW22369   4.478   4.145  12.670 -0.2421  0.3400  0.1005
 3636SOL    HW122370   4.463   4.073  12.733 -1.4763  1.4682  1.0964
 3636SOL    HW222371   4.495   4.086  12.597 -1.8598  0.4448 -0.3635
 3637SOL     OW22372   4.577   3.035   6.777 -0.1972  0.0725  0.4752
 3637SOL    HW122373   4.605   2.963   6.834  0.2107  0.0437  0.2357
 3637SOL    HW222374   4.646   3.061   6.716 -0.5842 -0.6129 -0.2520
 3638SOL     OW22375   1.403   0.204   3.176  0.0048  0.0964  0.4678
 3638SOL    HW122376   1.335   0.262   3.209 -1.4620 -0.8984 -0.8165
 3638SOL    HW222377   1.363   0.136   3.121  0.5373  0.2754 -0.1440
 3639SOL     OW22378   3.576   4.633   6.958  0.6164  0.5627  0.0086
 3639SOL    HW122379   3.653   4.657   7.010 -1.1288  0.0203  2.8338
 3639SOL    HW222380   3.580   4.537   6.960  0.6690  0.5497 -0.7362
 3640SOL     OW22381   1.594   0.019  14.591  0.4725 -0.3311  0.3001
 3640SOL    HW122382   1.662   0.023  14.659  0.7690  1.8867 -0.1024
 3640SOL    HW222383   1.629   4.681  14.527 -0.9925 -0.9206  0.0687
 3641SOL     OW22384   1.588   3.313   7.159  0.8189  0.3602  0.2278
 3641SOL    HW122385   1.597   3.277   7.248 -0.3424  0.4473  0.3852
 3641SOL    HW222386   1.547   3.249   7.101  0.8988 -0.6693  1.2983
 3642SOL     OW22387   2.868   4.536  11.786 -0.4296 -0.2015  0.1397
 3642SOL    HW122388   2.830   4.587  11.715 -2.2499 -2.2934 -0.3752
 3642SOL    HW222389   2.946   4.501  11.743  0.5212 -0.5272  2.1128
 3643SOL     OW22390   0.016   2.489   7.472 -0.8578  0.0363 -0.0073
 3643SOL    HW122391   0.004   2.532   7.557  1.0806  0.4359  0.0591
 3643SOL    HW222392   0.104   2.454   7.483 -0.9014 -0.0756 -0.0194
 3644SOL     OW22393   4.428   2.625   0.265  0.1115  0.2421 -0.1151
 3644SOL    HW122394   4.376   2.570   0.207  2.0932 -0.3764 -1.3258
 3644SOL    HW222395   4.355   2.641   0.325 -0.5369 -0.6887 -0.6562
 3645SOL     OW22396   0.100   0.980   7.057  0.0415 -0.1568  0.2151
 3645SOL    HW122397   0.091   0.986   7.152 -0.2651  1.4255  0.0959
 3645SOL    HW222398   0.167   1.047   7.042  0.7171 -0.3582  2.3693
 3646SOL     OW22399   2.475   0.911   6.552  0.3957  0.2694 -0.3434
 3646SOL    HW122400   2.430   0.988   6.516  0.5038  0.6442  0.3129
 3646SOL    HW222401   2.401   0.870   6.596  3.4284 -2.0885  2.5752
 3647SOL     OW22402   3.190   0.642   3.154 -0.3134  0.0249  0.5008
 3647SOL    HW122403   3.252   0.568   3.156  0.1832  0.4285  0.0069
 3647SOL    HW222404   3.150   0.620   3.238 -1.2441 -0.3966 -0.0527
 3648SOL     OW22405   1.924   4.572  14.093 -0.3072 -0.2979 -0.0806
 3648SOL    HW122406   1.835   4.591  14.123  0.6341  0.4748  2.2436
 3648SOL    HW222407   1.957   4.659  14.068 -1.6735 -0.4873 -2.5515
 3649SOL     OW22408   3.849   1.552  13.228  0.1595 -0.2801 -0.4888
 3649SOL    HW122409   3.826   1.545  13.320 -0.4505  1.7070 -0.4784
 3649SOL    HW222410   3.829   1.459  13.227  1.3986 -0.5552  0.6272
 3650SOL     OW22411   2.067   1.101   5.235 -0.2640  0.2340 -0.1076
 3650SOL    HW122412   2.031   1.120   5.322  1.3185  2.7784 -0.0074
 3650SOL    HW222413   2.093   1.010   5.244 -0.2149  0.3705  1.0836
 3651SOL     OW22414   1.935   2.613   7.238  0.5720 -0.8707  0.0070
 3651SOL    HW122415   1.894   2.645   7.158 -2.3166 -0.5985  1.6233
 3651SOL    HW222416   2.025   2.640   7.219  1.7615 -1.4947  4.6818
 3652SOL     OW22417   0.183   1.731   1.210 -0.5048  0.1027 -0.3183
 3652SOL    HW122418   0.088   1.733   1.193 -0.6787  0.2010  0.6823
 3652SOL    HW222419   0.216   1.704   1.124 -1.3844 -1.0026 -0.3116
 3653SOL     OW22420   4.137   3.017  13.501  0.9872 -0.0231 -0.2571
 3653SOL    HW122421   4.120   3.043  13.592  0.2621 -1.3038 -0.0360
 3653SOL    HW222422   4.220   2.976  13.527  1.9809  1.8505 -0.4828
 3654SOL     OW22423   0.190   1.869   7.416 -0.3554  0.1167  0.9839
 3654SOL    HW122424   0.162   1.896   7.328  0.9300  0.5574  0.6999
 3654SOL    HW222425   0.284   1.861   7.397 -0.0518  0.4768  2.3298
 3655SOL     OW22426   2.277   2.516   5.222  0.2574 -0.5725  0.0718
 3655SOL    HW122427   2.289   2.470   5.305 -0.1991  1.6526  1.3650
 3655SOL    HW222428   2.360   2.487   5.183  0.3594  0.9708 -0.8662
 3656SOL     OW22429   2.883   0.429   0.851  0.4210  0.4200 -0.2743
 3656SOL    HW122430   2.916   0.484   0.922  2.0802 -1.6837  0.5885
 3656SOL    HW222431   2.788   0.441   0.844  0.6657  3.2022  1.0396
 3657SOL     OW22432   4.677   3.225  13.565  0.3640 -0.0412  0.0421
 3657SOL    HW122433   4.720   3.285  13.625  0.6145 -3.0758  2.9193
 3657SOL    HW222434   0.030   3.186  13.524 -0.2227  0.5270 -1.6152
 3658SOL     OW22435   0.115   3.165   2.797 -0.0578 -0.4132 -0.2645
 3658SOL    HW122436   0.042   3.104   2.790 -1.4942  1.3759 -0.8206
 3658SOL    HW222437   0.084   3.243   2.749  0.0887  0.5846  1.2654
 3659SOL     OW22438   2.785   1.569   9.749 -0.4973 -0.3611  0.0964
 3659SOL    HW122439   2.751   1.487   9.785 -1.5234  0.1130  0.2051
 3659SOL    HW222440   2.877   1.547   9.731 -0.2927 -1.6825  2.6445
 3660SOL     OW22441   4.354   0.237  11.614 -0.5617 -0.4807 -0.3747
 3660SOL    HW122442   4.311   0.318  11.588  0.3344  0.4825  1.1238
 3660SOL    HW222443   4.447   0.245  11.590 -0.4582 -1.5027 -0.3017
 3661SOL     OW22444   0.717   3.722   7.756 -0.3058  0.3910  0.2710
 3661SOL    HW122445   0.776   3.761   7.691 -1.3897 -1.5202 -1.8661
 3661SOL    HW222446   0.640   3.778   7.741 -0.3779  0.0592 -0.5876
 3662SOL     OW22447   4.332   4.525   8.674 -0.7692 -0.6870  0.0568
 3662SOL    HW122448   4.339   4.582   8.752 -0.7498 -2.3805  1.2838
 3662SOL    HW222449   4.423   4.496   8.674  0.4615  3.0621  2.3786
 3663SOL     OW22450   0.957   1.845   5.989 -0.1199 -0.2779 -0.6508
 3663SOL    HW122451   1.032   1.860   5.932  1.2611  1.5050  1.5953
 3663SOL    HW222452   0.923   1.767   5.945  2.4424 -0.1322 -2.8977
 3664SOL     OW22453   3.114   3.222  12.239  0.1217  0.1266 -0.7159
 3664SOL    HW122454   3.203   3.256  12.246 -0.4596  1.7588 -1.4334
 3664SOL    HW222455   3.074   3.244  12.323  0.1019  2.7820 -1.4174
 3665SOL     OW22456   2.793   2.237   0.246 -0.2970 -0.3726  1.0316
 3665SOL    HW122457   2.802   2.332   0.243  0.1052 -0.3963  1.5155
 3665SOL    HW222458   2.707   2.223   0.205  0.5158 -0.5534 -0.6258
 3666SOL     OW22459   2.408   3.261   7.939 -0.4269  0.0695  0.6594
 3666SOL    HW122460   2.381   3.341   7.984  3.4462  1.4495  0.5628
 3666SOL    HW222461   2.496   3.289   7.913 -0.6401 -0.2581 -0.4055
 3667SOL     OW22462   3.625   4.375   5.353  0.5787  0.1346 -0.1513
 3667SOL    HW122463   3.610   4.284   5.329  0.1311  0.7796 -2.2480
 3667SOL    HW222464   3.601   4.419   5.271 -2.4717 -1.7515 -0.2717
 3668SOL     OW22465   2.107   1.268   6.392  0.0300 -0.2365  0.0741
 3668SOL    HW122466   2.020   1.243   6.422 -0.6247 -0.8963 -2.4245
 3668SOL    HW222467   2.094   1.245   6.300 -0.1436 -0.0535  0.0539
 3669SOL     OW22468   2.317   2.636   3.228 -0.3718 -0.6045  0.2178
 3669SOL    HW122469   2.242   2.695   3.218 -0.0698  0.3722  3.7408
 3669SOL    HW222470   2.294   2.613   3.318 -2.3467  1.2982  0.2054
 3670SOL     OW22471   3.018   2.277   7.023  0.0545  0.3598 -0.5140
 3670SOL    HW122472   3.079   2.343   7.058  1.6841 -1.6857  0.5551
 3670SOL    HW222473   3.073   2.221   6.968 -0.8313  0.3660 -1.3919
 3671SOL     OW22474   1.624   3.667   2.011 -0.6813 -0.4163 -0.4982
 3671SOL    HW122475   1.676   3.611   1.955 -0.2780  0.3405 -0.8810
 3671SOL    HW222476   1.640   3.625   2.096  0.8827  1.1740  0.0021
 3672SOL     OW22477   2.200   3.163   4.387  0.0672 -0.2330  0.3811
 3672SOL    HW122478   2.140   3.204   4.325  0.3037 -0.5892 -0.0878
 3672SOL    HW222479   2.276   3.220   4.376  0.1587 -0.3399  0.4574
 3673SOL     OW22480   1.837   2.599   6.249  0.5323 -0.1867 -0.2577
 3673SOL    HW122481   1.824   2.628   6.339  1.5981  1.4560 -0.6436
 3673SOL    HW222482   1.840   2.504   6.255 -0.7661 -0.3208 -1.7156
 3674SOL     OW22483   1.540   2.877   6.028  0.1625  0.1369 -0.3101
 3674SOL    HW122484   1.548   2.784   6.048 -1.8409 -0.3669 -1.9765
 3674SOL    HW222485   1.624   2.883   5.983  0.4886 -2.0847  0.0231
 3675SOL     OW22486   0.345   1.010   3.174 -0.1322  0.3904  0.2611
 3675SOL    HW122487   0.315   1.101   3.175  0.7011  0.6849 -0.9615
 3675SOL    HW222488   0.422   1.011   3.117  1.1563  0.4910  2.0097
 3676SOL     OW22489   4.391   2.250   0.360  0.1206 -0.5691  0.1736
 3676SOL    HW122490   4.454   2.277   0.293  1.3192 -2.2845  0.6342
 3676SOL    HW222491   4.440   2.196   0.421 -2.4098 -0.9196  1.8868
 3677SOL     OW22492   1.887   2.811  13.345  0.0505  0.7005 -0.7219
 3677SOL    HW122493   1.850   2.898  13.336  0.6532  0.9386 -0.8828
 3677SOL    HW222494   1.821   2.745  13.324 -0.0296  0.8499 -0.9337
 3678SOL     OW22495   1.093   1.472   6.643  0.8598 -0.1395  0.5409
 3678SOL    HW122496   1.118   1.443   6.731  0.7072  2.4555  1.4269
 3678SOL    HW222497   1.027   1.408   6.617 -0.1592  0.9739  0.4287
 3679SOL     OW22498   4.262   2.599   7.387  0.1846  0.1859 -0.0081
 3679SOL    HW122499   4.328   2.628   7.451 -0.9266  1.2499  0.6611
 3679SOL    HW222500   4.279   2.505   7.382 -0.1613  0.1855 -1.0596
 3680SOL     OW22501   2.618   3.040   3.720 -0.2482 -0.2295 -0.4482
 3680SOL    HW122502   2.709   3.068   3.723 -0.9886  2.1853  0.2178
 3680SOL    HW222503   2.629   2.957   3.766 -1.4482  0.3445  0.8624
 3681SOL     OW22504   1.831   4.378   8.569 -1.0133 -0.1127  0.0831
 3681SOL    HW122505   1.833   4.388   8.664  2.5558 -0.2945  0.0247
 3681SOL    HW222506   1.901   4.439   8.544 -1.5440  1.0575  1.4496
 3682SOL     OW22507   1.874   4.396   3.627 -0.4427  0.5534 -0.0354
 3682SOL    HW122508   1.856   4.432   3.714 -0.0333 -1.0410  0.7116
 3682SOL    HW222509   1.827   4.457   3.571  0.9163  1.3205 -0.3418
 3683SOL     OW22510   3.847   4.613   0.343  0.2185  0.4136  0.1814
 3683SOL    HW122511   3.836   4.667   0.265 -1.9557 -1.3862 -0.7787
 3683SOL    HW222512   3.798   4.650   0.416 -2.0158  0.2471 -1.2169
 3684SOL     OW22513   0.609   1.736   5.961 -0.0404  0.0371 -0.4235
 3684SOL    HW122514   0.658   1.663   5.925  0.5992  0.0330  0.4662
 3684SOL    HW222515   0.614   1.723   6.055 -0.5168 -0.6944 -0.4959
 3685SOL     OW22516   1.384   4.614   7.752 -0.3664  0.0323  0.2842
 3685SOL    HW122517   1.313   4.561   7.789 -0.1775  0.2550  0.9794
 3685SOL    HW222518   1.450   4.546   7.768 -0.2306 -0.0779 -0.7793
 3686SOL     OW22519   0.991   4.275   6.926 -0.2872 -0.2392  0.1267
 3686SOL    HW122520   0.983   4.200   6.867  1.1004 -1.6765  1.7473
 3686SOL    HW222521   0.972   4.350   6.870 -0.4490 -1.6103 -1.6461
 3687SOL     OW22522   1.820   0.520  12.817  0.4079  0.0410  0.3533
 3687SOL    HW122523   1.741   0.542  12.866 -0.8768 -0.8446 -1.3081
 3687SOL    HW222524   1.878   0.492  12.888 -1.3528  1.3327  2.3001
 3688SOL     OW22525   1.039   4.516   4.428  0.6035 -1.0333 -0.3935
 3688SOL    HW122526   1.017   4.504   4.521 -2.2368  1.4627 -0.7483
 3688SOL    HW222527   0.951   4.542   4.399  0.7799  1.2425  1.1069
 3689SOL     OW22528   1.479   4.374   4.088  0.4637 -1.0316 -0.7501
 3689SOL    HW122529   1.421   4.355   4.162  1.3452 -2.2786 -0.3825
 3689SOL    HW222530   1.417   4.347   4.020  1.5903 -2.8854 -1.0593
 3690SOL     OW22531   4.367   3.387   7.104 -0.2996  0.4373 -0.3192
 3690SOL    HW122532   4.443   3.330   7.100 -0.1405  0.4227  3.2250
 3690SOL    HW222533   4.291   3.334   7.080 -0.4495  1.2519 -1.6933
 3691SOL     OW22534   1.158   0.129  10.575 -0.2344  0.4160 -0.1468
 3691SOL    HW122535   1.100   0.167  10.641  0.4146 -1.7516  1.6545
 3691SOL    HW222536   1.169   0.202  10.514 -1.1248 -0.9550 -1.9164
 3692SOL     OW22537   3.453   3.356   7.080 -0.0532 -0.1433  0.3864
 3692SOL    HW122538   3.510   3.344   7.004 -0.8124  3.0476 -0.7006
 3692SOL    HW222539   3.466   3.449   7.096 -0.6924  0.0382 -0.1208
 3693SOL     OW22540   3.200   1.820  16.306  0.4402 -0.3426  0.4140
 3693SOL    HW122541   3.129   1.865  16.352 -2.0270 -1.4496 -2.3225
 3693SOL    HW222542   3.160   1.734  16.293  0.9568 -0.5157 -0.0067
 3694SOL     OW22543   2.483   1.878   6.216 -0.0857  0.4202 -0.0564
 3694SOL    HW122544   2.558   1.820   6.228 -0.6283 -0.2241  0.2283
 3694SOL    HW222545   2.423   1.847   6.284  0.4686 -1.2276 -0.3372
 3695SOL     OW22546   2.329   3.066   9.352  0.0337  0.7650  0.7272
 3695SOL    HW122547   2.424   3.072   9.347  0.1234 -2.7555 -2.6085
 3695SOL    HW222548   2.298   3.140   9.301 -0.2214  0.4191  0.3749
 3696SOL     OW22549   0.985   4.230   8.284  0.0948  0.2962  0.2421
 3696SOL    HW122550   0.971   4.154   8.227 -0.7617  1.8204 -1.5846
 3696SOL    HW222551   0.908   4.230   8.341 -1.3179  2.3221 -1.6680
 3697SOL     OW22552   0.975   0.333   5.690  0.0439 -0.1325  0.1238
 3697SOL    HW122553   0.973   0.375   5.776  1.2343  1.1243 -0.4651
 3697SOL    HW222554   0.942   0.246   5.714 -0.9723 -0.2291 -1.6323
 3698SOL     OW22555   4.512   2.076  15.842 -0.0710  0.1604 -0.7407
 3698SOL    HW122556   4.466   1.999  15.874 -1.5830  1.1370 -0.5450
 3698SOL    HW222557   4.445   2.138  15.871 -0.3972 -0.5574  0.0408
 3699SOL     OW22558   3.047   1.096  14.826  0.0423 -0.4630  0.4271
 3699SOL    HW122559   2.988   1.158  14.868 -0.1583 -0.3841  0.0355
 3699SOL    HW222560   3.013   1.014  14.860  0.0415 -1.5190 -2.0834
 3700SOL     OW22561   2.840   3.542   8.734  0.1611  0.2963  0.6397
 3700SOL    HW122562   2.810   3.451   8.723  3.9795 -0.7769 -0.9701
 3700SOL    HW222563   2.934   3.535   8.716 -0.0039  2.3584 -0.9064
 3701SOL     OW22564   2.999   3.889   7.080 -0.7698 -0.0237 -0.1987
 3701SOL    HW122565   2.956   3.945   7.145  1.2342  0.4293  0.7304
 3701SOL    HW222566   3.052   3.839   7.143 -1.5327 -0.9533 -0.2773
 3702SOL     OW22567   4.454   0.788  12.023 -0.0425  0.1603 -0.4824
 3702SOL    HW122568   4.377   0.734  12.040  1.5475 -2.2528 -0.9588
 3702SOL    HW222569   4.526   0.726  12.015 -1.3785 -1.1790 -2.1074
 3703SOL     OW22570   1.800   4.091   9.086 -0.5208 -0.1105  0.5884
 3703SOL    HW122571   1.792   4.110   9.180 -0.2853 -0.0270  0.5903
 3703SOL    HW222572   1.827   3.999   9.082 -1.7590 -0.4087 -1.0208
 3704SOL     OW22573   1.577   0.177   6.964 -0.0383 -0.1223 -0.1012
 3704SOL    HW122574   1.631   0.113   7.010 -0.0077  1.3146  1.8374
 3704SOL    HW222575   1.491   0.163   7.004  0.5836 -1.2105  0.8546
 3705SOL     OW22576   0.190   0.180  10.705 -0.1450 -0.3827 -0.4734
 3705SOL    HW122577   0.238   0.102  10.735  2.2090  0.2429 -2.6274
 3705SOL    HW222578   0.190   0.159  10.612  1.9097  1.0889 -0.8043
 3706SOL     OW22579   0.457   1.438   4.853 -0.9396 -0.1796  0.0422
 3706SOL    HW122580   0.528   1.477   4.904 -2.7732 -0.2761  2.6762
 3706SOL    HW222581   0.505   1.392   4.785  1.8041  0.6902  1.4241
 3707SOL     OW22582   1.381   2.514   9.352 -0.6917  0.6773  0.1211
 3707SOL    HW122583   1.397   2.499   9.259 -2.6875 -0.9186  0.0319
 3707SOL    HW222584   1.421   2.601   9.356 -1.3708  0.9650  0.5490
 3708SOL     OW22585   1.744   0.400   5.949 -0.4883 -0.5713  0.0890
 3708SOL    HW122586   1.696   0.367   6.025 -0.7099  0.2619  0.3126
 3708SOL    HW222587   1.705   0.487   5.937 -1.3482 -1.0770 -0.7504
 3709SOL     OW22588   3.509   2.531   8.167  0.0373  0.6893 -0.3329
 3709SOL    HW122589   3.579   2.591   8.140  1.2024 -0.6173 -0.1922
 3709SOL    HW222590   3.534   2.512   8.258  0.7276 -0.0947 -0.6893
 3710SOL     OW22591   2.316   4.600   3.687 -0.0568  0.1101  0.6938
 3710SOL    HW122592   2.339   4.664   3.754  1.0404 -1.5443  1.9129
 3710SOL    HW222593   2.229   4.630   3.661 -0.5001 -0.4249  1.5758
 3711SOL     OW22594   4.076   3.948   3.639 -0.2495 -0.1664  0.3510
 3711SOL    HW122595   4.108   3.888   3.571  1.9250  2.1077 -0.6526
 3711SOL    HW222596   4.157   3.980   3.677  0.3990  0.4347 -1.5024
 3712SOL     OW22597   2.343   2.833   7.004 -0.1039 -0.0840  0.6585
 3712SOL    HW122598   2.308   2.892   7.072 -1.1197  0.1431 -0.0654
 3712SOL    HW222599   2.404   2.895   6.964  0.1928 -0.3210  0.7428
 3713SOL     OW22600   3.277   3.515   3.772  0.2293 -0.8028 -0.4468
 3713SOL    HW122601   3.187   3.543   3.755 -0.2459 -2.1731 -0.1560
 3713SOL    HW222602   3.294   3.550   3.859 -0.7244 -2.1533  0.2825
 3714SOL     OW22603   0.645   2.335  10.176 -0.4071 -0.4742  0.1757
 3714SOL    HW122604   0.657   2.370  10.264 -0.5454  0.8258 -0.3224
 3714SOL    HW222605   0.554   2.305  10.186 -0.8076  0.5224 -0.4590
 3715SOL     OW22606   4.166   3.992  15.693 -0.7478 -0.4172  0.4801
 3715SOL    HW122607   4.199   3.927  15.631  0.3003 -0.5837  1.2202
 3715SOL    HW222608   4.079   4.008  15.655 -0.7462 -1.9723 -0.1907
 3716SOL     OW22609   0.902   0.005   1.016 -0.0708  0.0145  0.1129
 3716SOL    HW122610   0.953   4.649   1.025 -0.9161 -0.7781 -2.1363
 3716SOL    HW222611   0.840   4.715   0.945 -0.9606  0.5246  0.7780
 3717SOL     OW22612   0.563   2.009   8.843 -0.0398  0.3812 -0.2728
 3717SOL    HW122613   0.541   1.923   8.877 -1.2884  0.8651  0.1515
 3717SOL    HW222614   0.604   2.001   8.757  0.2156  1.8652 -0.2934
 3718SOL     OW22615   1.742   3.232  13.884 -0.1994  0.0363 -0.4308
 3718SOL    HW122616   1.699   3.208  13.966  0.8807  0.7518  0.3544
 3718SOL    HW222617   1.659   3.237  13.837  0.4909 -0.5115 -1.7097
 3719SOL     OW22618   3.681   0.402   6.379  0.0584 -0.5218 -0.0069
 3719SOL    HW122619   3.672   0.484   6.330 -1.2315  0.8398  2.5106
 3719SOL    HW222620   3.612   0.346   6.345 -1.5739  1.1502  0.5340
 3720SOL     OW22621   2.451   4.600   2.652 -0.1253  0.1505  0.5447
 3720SOL    HW122622   2.393   4.587   2.576 -0.9072 -0.6030  1.2719
 3720SOL    HW222623   2.538   4.587   2.614 -0.1775 -2.6084  1.4327
 3721SOL     OW22624   2.020   2.679  12.252  0.0493  0.1042  0.1184
 3721SOL    HW122625   2.019   2.597  12.301  0.4867  1.2071  1.9902
 3721SOL    HW222626   1.944   2.729  12.280 -0.9759 -1.2120 -0.3170
 3722SOL     OW22627   0.836   3.247  17.661 -0.0752  0.5028 -0.5114
 3722SOL    HW122628   0.760   3.190  17.668 -0.1115  0.4616 -1.3005
 3722SOL    HW222629   0.908   3.203   0.007 -1.1019 -0.8187 -0.1631
 3723SOL     OW22630   2.206   3.598   6.556 -0.7836  0.2301 -0.1174
 3723SOL    HW122631   2.197   3.581   6.650  1.4428 -2.9880 -0.4724
 3723SOL    HW222632   2.279   3.656   6.573  0.3047 -0.9139 -0.8964
 3724SOL     OW22633   2.651   2.488   2.759 -0.4669  0.1581  0.0070
 3724SOL    HW122634   2.674   2.580   2.759 -0.5281  0.1683 -2.1923
 3724SOL    HW222635   2.670   2.474   2.852  0.4619  1.3289 -0.0082
 3725SOL     OW22636   4.396   3.368   9.044  0.2465 -0.4942  0.4265
 3725SOL    HW122637   4.435   3.346   9.129  0.2017 -0.8156  0.3643
 3725SOL    HW222638   4.449   3.441   9.013  1.8552 -2.1831 -0.7752
 3726SOL     OW22639   4.315   2.548  10.008  0.4402 -0.2695 -0.1310
 3726SOL    HW122640   4.273   2.627   9.975  0.5034  0.5695  1.8225
 3726SOL    HW222641   4.382   2.586  10.065  0.7360  1.4242 -1.6237
 3727SOL     OW22642   2.350   1.383   4.349  0.0760  0.1696 -0.2355
 3727SOL    HW122643   2.410   1.341   4.411 -1.0170 -3.5478 -1.6541
 3727SOL    HW222644   2.272   1.328   4.339  0.4992 -0.8312  2.0484
 3728SOL     OW22645   1.791   3.523   5.359  0.5109 -0.2453  0.1884
 3728SOL    HW122646   1.802   3.529   5.264 -0.3280 -0.9218  0.0497
 3728SOL    HW222647   1.719   3.460   5.359  1.7570 -1.6808 -1.0327
 3729SOL     OW22648   4.375   3.084   8.091 -0.4547 -0.1433  0.0378
 3729SOL    HW122649   4.419   3.156   8.135  0.0132  0.5286 -1.5116
 3729SOL    HW222650   4.304   3.057   8.149  1.4142 -0.5008  2.1240
 3730SOL     OW22651   2.583   4.440   0.195 -0.2243  0.1931 -0.1564
 3730SOL    HW122652   2.545   4.458   0.108  0.1113  1.0171 -0.1298
 3730SOL    HW222653   2.514   4.380   0.224 -0.0884  0.7725  1.3597
 3731SOL     OW22654   4.560   3.290   5.264 -0.9494  0.0553  0.3997
 3731SOL    HW122655   4.584   3.279   5.356  0.3119 -1.4229 -0.0970
 3731SOL    HW222656   4.464   3.289   5.269 -1.0268  1.7397 -0.7461
 3732SOL     OW22657   1.964   2.384  11.376  0.1983 -0.3280  0.5533
 3732SOL    HW122658   1.936   2.368  11.286 -2.3425  0.4412  1.2012
 3732SOL    HW222659   1.897   2.449  11.394  0.6690  0.2787  0.1173
 3733SOL     OW22660   4.091   1.214   3.421  0.3900  0.1643 -0.5592
 3733SOL    HW122661   4.092   1.123   3.390 -2.1650 -0.9336  2.5761
 3733SOL    HW222662   4.162   1.226   3.485  0.2292  2.0131 -0.7230
 3734SOL     OW22663   2.762   3.324   2.965 -0.0392  0.3984 -0.3644
 3734SOL    HW122664   2.788   3.321   2.873 -3.6378  1.8576 -1.4429
 3734SOL    HW222665   2.830   3.383   2.997  1.1677 -0.7809 -0.7868
 3735SOL     OW22666   4.585   4.340   1.043 -0.0330 -0.3080 -0.1488
 3735SOL    HW122667   4.588   4.277   0.970  0.0500 -0.6917  0.1875
 3735SOL    HW222668   4.498   4.374   1.021 -0.4425 -0.6994  0.8840
 3736SOL     OW22669   4.651   1.930   8.850 -0.6706 -0.2880  0.1708
 3736SOL    HW122670   4.657   1.852   8.906  2.2831 -0.1538  0.0726
 3736SOL    HW222671   4.565   1.910   8.815 -0.3116 -1.5186 -0.0252
 3737SOL     OW22672   3.356   0.950   3.932  0.3029 -0.0070 -0.3689
 3737SOL    HW122673   3.265   0.972   3.952 -0.4647 -2.6276 -0.9969
 3737SOL    HW222674   3.366   0.944   3.837 -0.2006  1.0061 -0.4834
 3738SOL     OW22675   3.634   1.478   7.901  0.2929 -0.0495  0.1246
 3738SOL    HW122676   3.657   1.537   7.973 -0.5625 -0.9036  1.0990
 3738SOL    HW222677   3.541   1.500   7.895  1.1530  3.4083 -0.7377
 3739SOL     OW22678   1.178   0.338   7.959  0.5096 -0.1931 -0.0454
 3739SOL    HW122679   1.086   0.329   7.982 -0.6084 -1.9187 -5.0679
 3739SOL    HW222680   1.173   0.282   7.881 -0.6985  1.0972 -0.9055
 3740SOL     OW22681   2.468   4.347   5.737 -0.9212 -0.1417  0.4109
 3740SOL    HW122682   2.560   4.324   5.726 -0.2288  1.1679  3.6842
 3740SOL    HW222683   2.459   4.434   5.697  2.0166 -0.9673 -2.1178
 3741SOL     OW22684   1.441   0.329   0.855  0.0233 -0.4616 -0.2188
 3741SOL    HW122685   1.508   0.289   0.800  0.2264  1.0669 -1.0591
 3741SOL    HW222686   1.386   0.253   0.875 -0.4380  0.2321  1.1222
 3742SOL     OW22687   0.174   3.509   5.548 -0.1764  0.0122  0.2830
 3742SOL    HW122688   0.084   3.516   5.517 -0.2231  1.3905  0.7389
 3742SOL    HW222689   0.177   3.500   5.643  1.5868 -1.4604  0.0811
 3743SOL     OW22690   1.655   3.493  12.164  0.0453  0.1511  0.5559
 3743SOL    HW122691   1.613   3.544  12.232 -0.1773 -2.0909  2.1047
 3743SOL    HW222692   1.574   3.483  12.115 -1.6718  0.4699  3.3531
 3744SOL     OW22693   3.411   2.285   4.883  0.3736  0.5249 -0.3683
 3744SOL    HW122694   3.405   2.323   4.971 -3.1561  2.6839 -1.4981
 3744SOL    HW222695   3.479   2.338   4.842  1.0351 -0.4403 -0.5037
 3745SOL     OW22696   1.883   1.976   4.258 -0.5224 -0.5340  0.3923
 3745SOL    HW122697   1.869   1.914   4.186  0.1451  1.2949 -1.3000
 3745SOL    HW222698   1.912   1.909   4.321  0.6883  1.0683  1.5387
 3746SOL     OW22699   3.608   4.434   3.744  0.2516 -0.4949  0.2152
 3746SOL    HW122700   3.579   4.377   3.672  0.8700 -0.1561 -0.3029
 3746SOL    HW222701   3.578   4.381   3.818  1.2697  0.1619  1.1021
 3747SOL     OW22702   2.870   3.607   3.293  0.0076  0.1665 -0.7478
 3747SOL    HW122703   2.932   3.539   3.319 -0.4642  0.1163  0.2322
 3747SOL    HW222704   2.876   3.663   3.370  1.0698 -0.9999  0.0316
 3748SOL     OW22705   2.283   3.424   9.433  0.0509 -0.0569  0.0737
 3748SOL    HW122706   2.243   3.498   9.387  1.8590 -0.0965 -1.5494
 3748SOL    HW222707   2.259   3.350   9.378 -2.0106 -0.6754  1.7928
 3749SOL     OW22708   4.037   4.287  16.105 -0.5619 -0.4824  0.0429
 3749SOL    HW122709   4.103   4.240  16.053 -0.0189 -0.9553  1.1575
 3749SOL    HW222710   4.056   4.380  16.113 -0.5029 -0.6263  1.5274
 3750SOL     OW22711   0.450   4.337   1.802 -0.2146  0.2148  0.2882
 3750SOL    HW122712   0.534   4.372   1.833  0.1723 -1.9601  1.7173
 3750SOL    HW222713   0.485   4.266   1.748  0.0294  0.0425  0.6726
 3751SOL     OW22714   2.290   0.087   2.371 -0.0044  0.4387  0.3881
 3751SOL    HW122715   2.242   0.136   2.437  0.2834  1.7995 -0.4151
 3751SOL    HW222716   2.296   4.723   2.409  1.3328 -0.1047 -1.0677
 3752SOL     OW22717   2.831   3.777   7.527 -0.2693  0.6324 -0.4991
 3752SOL    HW122718   2.829   3.709   7.460  1.6511  1.6167 -1.5638
 3752SOL    HW222719   2.905   3.835   7.510 -0.1549  0.8547  0.8021
 3753SOL     OW22720   4.224   1.269  11.763 -0.0905  0.2479 -0.5554
 3753SOL    HW122721   4.135   1.281  11.729 -0.4149  0.2504  0.2845
 3753SOL    HW222722   4.257   1.196  11.711 -0.9966 -0.0542 -0.7120
 3754SOL     OW22723   2.957   3.488   6.145  0.3536 -0.2376  0.1787
 3754SOL    HW122724   2.881   3.454   6.099 -0.2179  2.9719 -1.2912
 3754SOL    HW222725   2.953   3.434   6.224  1.7482 -1.7740 -0.8099
 3755SOL     OW22726   0.672   1.915   2.887  0.3510  0.2619  0.9910
 3755SOL    HW122727   0.623   1.993   2.860 -2.0146 -1.0066  1.6676
 3755SOL    HW222728   0.610   1.872   2.946 -0.3993 -1.1235 -0.8134
 3756SOL     OW22729   0.495   4.721   8.852  0.0182 -0.2059  0.2380
 3756SOL    HW122730   0.492   4.701   8.946 -1.6418  0.3584  0.3075
 3756SOL    HW222731   0.407   4.689   8.835 -0.6642  1.8586 -0.0700
 3757SOL     OW22732   1.445   2.562  12.407 -0.3438  0.1591 -0.0603
 3757SOL    HW122733   1.368   2.610  12.378 -2.2391 -1.9894  1.5096
 3757SOL    HW222734   1.504   2.633  12.434 -1.7743  1.1970  0.3067
 3758SOL     OW22735   1.614   3.732   2.640 -0.4313  0.0926  0.1093
 3758SOL    HW122736   1.593   3.819   2.675  2.1848  0.6145  0.3993
 3758SOL    HW222737   1.561   3.677   2.697 -2.0351  1.8228  0.3122
 3759SOL     OW22738   2.601   1.089   1.817  0.4357 -0.6050 -0.1169
 3759SOL    HW122739   2.527   1.090   1.756  0.7307 -3.1344 -0.4934
 3759SOL    HW222740   2.641   1.007   1.790  1.3288 -0.3767  0.5145
 3760SOL     OW22741   3.004   1.077   2.394 -0.5717  0.0408  0.0076
 3760SOL    HW122742   3.077   1.020   2.370  0.0715  1.2290 -0.8750
 3760SOL    HW222743   2.956   1.001   2.426 -0.3765 -0.7048 -1.4460
 3761SOL     OW22744   1.298   1.028   0.576  0.0515 -0.1676 -0.1018
 3761SOL    HW122745   1.220   1.080   0.555 -0.1893 -0.3978  0.2219
 3761SOL    HW222746   1.264   0.939   0.564  1.2339 -0.4734 -1.2898
 3762SOL     OW22747   2.024   0.187   1.877 -0.0029  0.2040 -0.0765
 3762SOL    HW122748   2.104   0.179   1.825  0.5958  1.2583  0.6883
 3762SOL    HW222749   2.052   0.168   1.966  0.7912 -2.3573 -0.8675
 3763SOL     OW22750   3.401   2.968   6.641 -0.7069  0.1489  0.3367
 3763SOL    HW122751   3.341   3.004   6.576  0.0869  0.9580  0.0339
 3763SOL    HW222752   3.460   3.040   6.665 -0.4060 -1.1460  3.5462
 3764SOL     OW22753   0.081   1.767   9.245 -0.2045 -0.2994  0.3833
 3764SOL    HW122754   0.121   1.723   9.320  1.6978  0.3130 -0.2924
 3764SOL    HW222755   0.111   1.711   9.174  1.0497 -0.8889  1.3766
 3765SOL     OW22756   1.369   2.040   1.091  0.2122 -0.4786 -0.4926
 3765SOL    HW122757   1.383   2.084   1.007 -0.5330 -3.8364 -2.3898
 3765SOL    HW222758   1.451   2.003   1.121  0.6075  0.0872 -0.8686
 3766SOL     OW22759   1.092   2.359   8.041 -0.4563  0.3584  0.0353
 3766SOL    HW122760   1.185   2.383   8.048  0.7952 -4.5694  0.1277
 3766SOL    HW222761   1.096   2.267   8.068  0.1856  0.7380  1.2763
 3767SOL     OW22762   2.595   2.956   7.945  0.5336 -0.3039 -0.0334
 3767SOL    HW122763   2.686   2.939   7.971  0.1154 -2.3660  0.0269
 3767SOL    HW222764   2.559   2.951   8.033 -0.4252 -0.9865 -0.4768
 3768SOL     OW22765   1.261   0.560  10.434  0.0760  0.2363 -0.2217
 3768SOL    HW122766   1.185   0.586  10.382 -0.0766 -2.3048 -1.2600
 3768SOL    HW222767   1.282   0.637  10.487  0.4463 -0.1767  0.2421
 3769SOL     OW22768   4.370   3.900   8.233  0.5122  0.2677  0.2395
 3769SOL    HW122769   4.355   3.874   8.142 -2.0687 -0.2189  0.8034
 3769SOL    HW222770   4.285   3.935   8.260  0.0014 -0.2634 -0.6779
 3770SOL     OW22771   0.056   2.117   3.888 -0.3530 -0.3727 -0.1169
 3770SOL    HW122772   0.034   2.150   3.802 -0.7780 -1.6064 -0.4859
 3770SOL    HW222773   0.146   2.086   3.879  0.0448  0.6978  0.1976
 3771SOL     OW22774   3.417   4.104   4.282  0.2137  0.1094  0.1126
 3771SOL    HW122775   3.354   4.174   4.296  1.4305  1.0384  0.9250
 3771SOL    HW222776   3.394   4.031   4.340  1.2733 -1.9640 -2.0645
 3772SOL     OW22777   1.066   0.018   5.176 -0.1008  0.3184  0.2502
 3772SOL    HW122778   1.080   0.010   5.270 -1.1970 -0.6907  0.3385
 3772SOL    HW222779   1.015   4.662   5.160  0.4453  0.1922 -0.8297
 3773SOL     OW22780   3.338   2.638   5.982  0.1398  0.0244 -0.2567
 3773SOL    HW122781   3.321   2.545   6.000 -1.5878  0.9708  3.0029
 3773SOL    HW222782   3.331   2.676   6.070  0.6075 -2.8625  1.0599
 3774SOL     OW22783   1.278   3.978  10.340  0.4203 -0.2596  0.2305
 3774SOL    HW122784   1.209   3.940  10.285  1.7116 -0.9792 -0.8920
 3774SOL    HW222785   1.227   4.042  10.389 -0.4809  0.3451 -1.4835
 3775SOL     OW22786   3.903   3.594   5.120 -0.0777  0.7606 -0.4935
 3775SOL    HW122787   3.942   3.680   5.104  0.9750  0.3196 -0.3459
 3775SOL    HW222788   3.824   3.630   5.161 -0.3885 -0.7912  0.2920
 3776SOL     OW22789   4.365   1.042   3.279 -0.4474  0.0573 -0.2710
 3776SOL    HW122790   4.384   1.125   3.324  1.6773 -0.9748  0.7285
 3776SOL    HW222791   4.455   1.011   3.268 -0.7708 -1.0874  0.2977
 3777SOL     OW22792   1.307   1.044   6.175 -0.5055 -0.2717  0.1491
 3777SOL    HW122793   1.251   1.006   6.107 -1.1981  0.2031  0.4485
 3777SOL    HW222794   1.374   1.098   6.133  0.0375 -2.9595 -2.4121
 3778SOL     OW22795   3.422   3.360  14.589  0.4302  0.3321 -0.5710
 3778SOL    HW122796   3.472   3.413  14.652 -0.3351  1.5147 -0.9453
 3778SOL    HW222797   3.340   3.352  14.637  0.4579 -0.9524 -0.7564
 3779SOL     OW22798   2.714   1.274   9.056 -0.9861  0.6581  0.0853
 3779SOL    HW122799   2.619   1.277   9.060 -0.9970  1.2725 -0.8720
 3779SOL    HW222800   2.732   1.279   9.150 -0.1344 -0.7010 -0.0031
 3780SOL     OW22801   3.538   3.085   3.777  0.1214 -0.1237 -0.3149
 3780SOL    HW122802   3.474   3.144   3.737 -0.9495 -0.1333  1.4010
 3780SOL    HW222803   3.601   3.149   3.812  0.0088 -1.4716  2.3321
 3781SOL     OW22804   4.349   1.106   1.587  0.3147  0.2163 -0.7227
 3781SOL    HW122805   4.381   1.034   1.532  0.8119 -2.0396  2.4737
 3781SOL    HW222806   4.411   1.089   1.659 -1.6636 -0.8127  0.7429
 3782SOL     OW22807   3.637   1.711   8.409  0.2131  0.1284 -0.0063
 3782SOL    HW122808   3.622   1.677   8.321 -1.2131  1.2537 -0.2042
 3782SOL    HW222809   3.550   1.721   8.447  0.7205 -0.0115  1.1678
 3783SOL     OW22810   0.336   0.849   4.301  0.2529 -0.0423  0.3103
 3783SOL    HW122811   0.281   0.915   4.260  0.7532  0.8230  1.0285
 3783SOL    HW222812   0.326   0.891   4.387  2.4938  0.1080  0.4998
 3784SOL     OW22813   2.286   3.585   4.484  0.4768  0.5204 -0.4043
 3784SOL    HW122814   2.219   3.651   4.472 -1.1444 -1.0197  0.2815
 3784SOL    HW222815   2.287   3.572   4.578 -0.2124 -0.8128 -0.5753
 3785SOL     OW22816   0.788   1.456  13.322 -0.6046  0.0445  0.0814
 3785SOL    HW122817   0.876   1.420  13.313 -0.5479  0.2887 -0.3965
 3785SOL    HW222818   0.796   1.544  13.360  0.8778 -0.0007 -0.1154
 3786SOL     OW22819   0.205   1.413   4.769 -0.0387  0.2499 -0.1134
 3786SOL    HW122820   0.232   1.328   4.735  2.3476  0.8468  0.3145
 3786SOL    HW222821   0.288   1.455   4.793  0.4533  0.3784 -2.0609
 3787SOL     OW22822   3.994   3.142   1.191  0.1564 -0.5711  0.2274
 3787SOL    HW122823   3.925   3.190   1.145  0.7317 -1.5498 -1.6790
 3787SOL    HW222824   4.045   3.113   1.116 -0.2697  1.5496 -0.8778
 3788SOL     OW22825   2.000   4.010   9.466  0.0843  0.3441  0.1278
 3788SOL    HW122826   1.980   4.011   9.560 -0.7744  2.3337 -0.0886
 3788SOL    HW222827   1.919   4.051   9.436  0.6905  0.8544 -0.7982
 3789SOL     OW22828   0.651   0.980   6.434 -0.1159  0.6703 -0.1316
 3789SOL    HW122829   0.651   0.890   6.467 -2.2180  0.3954 -0.8775
 3789SOL    HW222830   0.716   0.974   6.364  0.8729 -0.7179  0.9159
 3790SOL     OW22831   1.899   3.799   9.277  0.2146 -0.1125 -0.0030
 3790SOL    HW122832   1.910   3.846   9.360  1.2746 -1.0765  0.4027
 3790SOL    HW222833   1.805   3.810   9.264  0.1308  0.1601  0.8116
 3791SOL     OW22834   1.585   2.046   1.936  0.0336 -0.6413 -0.1906
 3791SOL    HW122835   1.554   2.137   1.938 -4.2767 -2.1262 -0.2809
 3791SOL    HW222836   1.671   2.066   1.973 -0.4012 -0.2938  0.6218
 3792SOL     OW22837   1.654   2.843   7.284  0.0911  0.4571  0.1119
 3792SOL    HW122838   1.582   2.800   7.331  0.3356  1.7491  1.6358
 3792SOL    HW222839   1.735   2.816   7.327 -1.1849 -0.9011  1.6668
 3793SOL     OW22840   3.499   1.473   6.448 -0.0654  0.0049  0.3273
 3793SOL    HW122841   3.472   1.544   6.506  1.0259  1.0863 -0.4743
 3793SOL    HW222842   3.422   1.417   6.454 -0.4410  0.3110 -1.9004
 3794SOL     OW22843   3.352   0.875   6.518 -0.0204 -0.6718  0.5505
 3794SOL    HW122844   3.258   0.892   6.520 -0.5799 -3.5088 -1.7795
 3794SOL    HW222845   3.358   0.835   6.431  1.3984  0.6194  0.0334
 3795SOL     OW22846   4.099   2.698  12.459  0.2592  0.5973 -0.1891
 3795SOL    HW122847   4.150   2.657  12.530  0.3248  1.7215  0.4090
 3795SOL    HW222848   4.180   2.732  12.420  0.2267 -0.5337 -1.2715
 3796SOL     OW22849   3.659   1.997   4.834  0.0479 -0.5853 -0.2770
 3796SOL    HW122850   3.754   1.990   4.843  0.3554  1.3023 -2.0511
 3796SOL    HW222851   3.655   2.085   4.873 -0.9207 -0.7968  0.0934
 3797SOL     OW22852   1.537   1.135   0.469 -0.3864  0.2315 -0.2855
 3797SOL    HW122853   1.450   1.108   0.500  0.6675 -0.4615  2.1386
 3797SOL    HW222854   1.520   1.155   0.377 -1.0172  1.2439  0.0567
 3798SOL     OW22855   0.790   4.625   8.832 -0.1590 -0.0159  0.1337
 3798SOL    HW122856   0.755   4.564   8.767 -0.0840 -0.4410  0.4858
 3798SOL    HW222857   0.884   4.606   8.825 -0.1998 -0.0643 -0.2579
 3799SOL     OW22858   4.428   0.003  11.771  0.4983  0.4886  0.3494
 3799SOL    HW122859   4.385   4.645  11.745  0.0529  0.6804  0.4721
 3799SOL    HW222860   4.371   0.072  11.736 -1.4286 -1.0911  0.3980
 3800SOL     OW22861   1.222   0.931   5.928 -0.4267  0.1556  0.3381
 3800SOL    HW122862   1.219   0.836   5.920 -1.3321  0.3909 -2.1697
 3800SOL    HW222863   1.130   0.956   5.939  0.5010  2.9310  1.8468
 3801SOL     OW22864   3.079   0.807   7.746 -0.5879  0.3885  0.0770
 3801SOL    HW122865   3.156   0.790   7.800 -1.4721  0.6848  1.4360
 3801SOL    HW222866   3.113   0.868   7.680  1.0685  1.0170  1.5206
 3802SOL     OW22867   4.554   2.936  16.123  0.0954 -0.1640 -0.2225
 3802SOL    HW122868   4.522   2.869  16.063  0.5909 -0.7136  0.1367
 3802SOL    HW222869   4.553   3.018  16.073  1.4719 -0.4066 -0.6163
 3803SOL     OW22870   0.375   0.463   3.906 -0.3257 -0.1573 -0.1823
 3803SOL    HW122871   0.460   0.465   3.862 -0.5791  0.1207 -0.6622
 3803SOL    HW222872   0.317   0.441   3.833 -0.5784  1.2498 -0.3990
 3804SOL     OW22873   4.564   0.376   1.175  0.5475 -0.1116  0.2290
 3804SOL    HW122874   4.656   0.397   1.191 -0.0897  2.6443  0.2524
 3804SOL    HW222875   4.542   0.437   1.105  0.3920 -0.0360  0.3443
 3805SOL     OW22876   1.927   1.297   6.061 -0.4234 -0.6660 -0.1861
 3805SOL    HW122877   1.865   1.370   6.065  2.3125  1.4933  3.3382
 3805SOL    HW222878   1.874   1.239   6.115  1.4619 -2.1069  0.0983
 3806SOL     OW22879   3.008   4.612   5.933  0.5887 -0.4332  0.5386
 3806SOL    HW122880   3.094   4.601   5.972  0.4890 -1.0852  0.5648
 3806SOL    HW222881   2.972   4.528   5.960 -2.5423  1.0602  1.0970
 3807SOL     OW22882   2.471   0.368   6.075 -0.5823 -0.1729  0.1763
 3807SOL    HW122883   2.517   0.339   5.996 -2.8722  1.2534 -1.6729
 3807SOL    HW222884   2.472   0.461   6.053  1.2754  0.3139  2.2311
 3808SOL     OW22885   2.468   3.327   3.040 -0.0869 -0.4311 -0.6411
 3808SOL    HW122886   2.446   3.242   3.003 -0.8180  0.6572 -2.7417
 3808SOL    HW222887   2.557   3.350   3.015 -0.0513 -1.5910 -1.5493
 3809SOL     OW22888   2.680   4.270   3.516  0.2836 -0.0408 -0.2031
 3809SOL    HW122889   2.767   4.261   3.477  0.6098  0.0629  0.5085
 3809SOL    HW222890   2.664   4.197   3.576 -1.2357  1.1381  0.8116
 3810SOL     OW22891   2.985   1.056   9.406 -0.0544  0.5512 -0.5514
 3810SOL    HW122892   3.003   0.971   9.365  0.3718  1.0309 -1.3578
 3810SOL    HW222893   3.034   1.066   9.488 -0.3153 -2.3331 -0.0466
 3811SOL     OW22894   4.004   3.319   7.064 -0.2822 -0.3566 -0.0528
 3811SOL    HW122895   4.080   3.270   7.033  1.0360  1.1330  0.8116
 3811SOL    HW222896   4.009   3.324   7.159 -0.4221  1.2984 -0.1298
 3812SOL     OW22897   4.492   0.810   4.344 -0.2914  0.2265  0.0218
 3812SOL    HW122898   4.488   0.816   4.440 -1.7938  1.2533 -0.1180
 3812SOL    HW222899   4.539   0.728   4.329 -2.1022 -0.0453 -4.1348
 3813SOL     OW22900   4.329   0.190   5.746  0.2268 -0.0153 -0.4082
 3813SOL    HW122901   4.386   0.267   5.738  0.0268  0.5404  3.2935
 3813SOL    HW222902   4.375   0.118   5.703  1.5801  0.9380 -0.5522
 3814SOL     OW22903   3.101   2.966   3.091  0.4577  0.0296  0.4238
 3814SOL    HW122904   3.006   2.963   3.089  0.4351  1.3026 -1.3481
 3814SOL    HW222905   3.115   2.886   3.141 -1.2392  1.5535  3.3258
 3815SOL     OW22906   0.438   3.864  10.580 -0.6365 -0.1635 -0.3673
 3815SOL    HW122907   0.368   3.858  10.515  1.1226 -2.2373 -2.0792
 3815SOL    HW222908   0.395   3.813  10.648 -1.2116 -0.9271 -1.2957
 3816SOL     OW22909   2.068   1.316   4.380  0.2656 -0.3166  0.6072
 3816SOL    HW122910   2.003   1.330   4.311  0.1072 -1.4316  0.5200
 3816SOL    HW222911   2.079   1.403   4.418  0.8967 -0.4948  0.8400
 3817SOL     OW22912   0.026   2.634   6.570  0.0478 -0.0086 -0.4913
 3817SOL    HW122913   0.088   2.700   6.540 -1.0026  0.9310 -0.6008
 3817SOL    HW222914   0.086   2.568   6.604 -1.2828 -0.5868  0.7086
 3818SOL     OW22915   4.382   1.805   0.977 -0.1266  0.4914  0.4604
 3818SOL    HW122916   4.418   1.872   1.036 -0.9731  0.6068  0.8516
 3818SOL    HW222917   4.293   1.839   0.969  0.2103  1.1652 -0.4498
 3819SOL     OW22918   4.334   4.193   6.103 -0.2692 -0.5400  0.5528
 3819SOL    HW122919   4.398   4.162   6.167 -0.0038  0.3964  0.7355
 3819SOL    HW222920   4.289   4.112   6.078 -1.6532  0.3159  0.2750
 3820SOL     OW22921   4.009   3.538   7.434  0.2451  0.0395  0.0256
 3820SOL    HW122922   3.954   3.535   7.512  0.4055 -1.5738  0.0923
 3820SOL    HW222923   3.977   3.472   7.373  1.4599 -0.6535  0.1400
 3821SOL     OW22924   1.542   2.269  12.041  0.2671 -0.3638  0.6783
 3821SOL    HW122925   1.622   2.260  12.093  1.8281 -0.5985 -1.8071
 3821SOL    HW222926   1.569   2.269  11.950 -2.6596  1.8685 -0.2145
 3822SOL     OW22927   2.457   1.940   3.452  0.1782 -0.4727 -0.0152
 3822SOL    HW122928   2.439   1.965   3.362 -0.0504  2.1082  0.7324
 3822SOL    HW222929   2.547   1.908   3.451  0.4532  0.3126 -0.5967
 3823SOL     OW22930   1.340   0.131  14.147 -0.0044 -0.4519 -0.4477
 3823SOL    HW122931   1.413   0.139  14.208 -1.9950 -0.3488  1.9157
 3823SOL    HW222932   1.354   0.211  14.096 -0.2240  0.4633  0.9187
 3824SOL     OW22933   2.576   0.919  16.899  0.2560  0.2613  0.1899
 3824SOL    HW122934   2.538   0.839  16.936  0.0395 -0.0727 -0.7555
 3824SOL    HW222935   2.649   0.889  16.846  0.7212 -0.7897  1.4404
 3825SOL     OW22936   1.719   0.054   9.099 -0.0771 -0.5240  0.0348
 3825SOL    HW122937   1.802   0.033   9.056  0.2852 -2.1615  1.5146
 3825SOL    HW222938   1.745   0.132   9.147 -0.0667 -1.8033  2.1239
 3826SOL     OW22939   4.124   2.646   1.110 -0.1877  0.5931 -0.1663
 3826SOL    HW122940   4.104   2.671   1.019  0.3187  1.2931 -0.0879
 3826SOL    HW222941   4.119   2.551   1.097  0.6914  0.6858 -1.2231
 3827SOL     OW22942   3.713   3.185   6.281  0.2183 -0.4855  0.1092
 3827SOL    HW122943   3.714   3.139   6.197 -0.0005  1.3945 -0.9029
 3827SOL    HW222944   3.799   3.159   6.314 -0.4533 -1.5370  1.0748
 3828SOL     OW22945   0.353   0.399  14.053 -0.4203  0.1672 -0.1519
 3828SOL    HW122946   0.302   0.471  14.015  2.0514  0.9106 -2.0480
 3828SOL    HW222947   0.385   0.437  14.135  0.6932  0.5065 -0.7435
 3829SOL     OW22948   0.553   0.037  11.726 -0.3093  0.2079  0.1265
 3829SOL    HW122949   0.472   0.061  11.682 -0.2707  0.5836  0.2651
 3829SOL    HW222950   0.523   4.713  11.804  3.3211 -2.3266 -0.0463
 3830SOL     OW22951   3.087   3.747   6.799 -0.1882 -0.3100 -0.2023
 3830SOL    HW122952   3.009   3.727   6.851  0.0504  0.1959  0.3540
 3830SOL    HW222953   3.135   3.809   6.854 -1.0668  0.4060 -0.2509
 3831SOL     OW22954   1.471   3.858   4.338  0.0423  0.2877  0.1552
 3831SOL    HW122955   1.524   3.843   4.260 -0.5839  0.9988 -0.4061
 3831SOL    HW222956   1.404   3.790   4.329  0.6777 -0.7905  3.5983
 3832SOL     OW22957   2.133   0.421   2.201  0.0676  0.2968  0.0801
 3832SOL    HW122958   2.052   0.455   2.239  0.3598  0.2420  0.7647
 3832SOL    HW222959   2.098   0.344   2.158 -1.0549  0.2710  1.0325
 3833SOL     OW22960   2.133   0.213   2.563  0.2385 -0.2409  0.0243
 3833SOL    HW122961   2.093   0.189   2.647  1.1772 -1.3348  0.1590
 3833SOL    HW222962   2.054   0.235   2.515 -0.5564  0.8172  1.7943
 3834SOL     OW22963   2.822   0.232   0.659 -0.1240 -0.1231 -0.2272
 3834SOL    HW122964   2.846   0.149   0.701 -0.5365  1.3314  2.8292
 3834SOL    HW222965   2.830   0.298   0.727 -1.1680  0.2133 -0.4384
 3835SOL     OW22966   2.081   2.219   8.932  0.0256 -0.2987  0.3465
 3835SOL    HW122967   2.167   2.196   8.968 -0.6839 -0.7953  1.7330
 3835SOL    HW222968   2.037   2.261   9.006 -1.0754  1.4888 -1.3375
 3836SOL     OW22969   4.576   1.576   6.209 -0.0707  0.0534 -0.1750
 3836SOL    HW122970   4.589   1.528   6.127  0.4602  0.9076 -0.5833
 3836SOL    HW222971   4.575   1.498   6.265  3.2303  0.9357  1.0754
 3837SOL     OW22972   3.015   1.584   3.876 -0.0136 -0.1880  0.0786
 3837SOL    HW122973   3.000   1.670   3.914 -2.4202 -0.6568  0.2512
 3837SOL    HW222974   3.032   1.534   3.956 -0.6336  0.0488  0.3607
 3838SOL     OW22975   3.942   0.757   6.029  0.5088 -0.0363  0.5541
 3838SOL    HW122976   3.972   0.673   5.993  0.5626 -0.2735  1.1460
 3838SOL    HW222977   4.004   0.814   5.982 -0.1344 -0.4326 -0.7767
 3839SOL     OW22978   0.899   3.543   4.825  0.2068 -0.1741 -0.3190
 3839SOL    HW122979   0.961   3.580   4.888 -0.3274  0.6112 -0.2561
 3839SOL    HW222980   0.938   3.575   4.744  2.4954  1.3981  1.3893
 3840SOL     OW22981   0.094   2.230  14.758 -1.0229  0.2592  0.5148
 3840SOL    HW122982   0.009   2.254  14.721 -0.4869  1.1064 -0.1828
 3840SOL    HW222983   0.138   2.170  14.697  1.0024  1.2675  0.9809
 3841SOL     OW22984   4.410   0.578   4.236  0.0217 -0.1011  0.0905
 3841SOL    HW122985   4.369   0.650   4.189  0.7160  0.2171 -0.0299
 3841SOL    HW222986   4.429   0.512   4.169 -0.3140  0.4309 -0.5212
 3842SOL     OW22987   1.003   0.566   7.614 -0.8960 -0.7041 -0.1905
 3842SOL    HW122988   0.920   0.518   7.614 -1.2292 -0.1248 -1.7231
 3842SOL    HW222989   1.066   0.505   7.575  0.3296 -0.5837  1.5965
 3843SOL     OW22990   2.424   0.643   6.020 -0.0838 -0.4683  0.2505
 3843SOL    HW122991   2.483   0.675   5.952 -0.2827  1.1786  0.8734
 3843SOL    HW222992   2.456   0.695   6.093  0.2133  0.1930 -0.3523
 3844SOL     OW22993   3.456   3.522   8.475  0.6079 -0.2282 -0.3923
 3844SOL    HW122994   3.479   3.462   8.546 -1.0741  0.7046  0.9244
 3844SOL    HW222995   3.371   3.488   8.448  0.4109  1.0220 -1.2964
 3845SOL     OW22996   2.460   3.872   7.053  0.3550 -0.2268  0.5047
 3845SOL    HW122997   2.465   3.787   7.008  0.1140 -0.6184  1.2268
 3845SOL    HW222998   2.388   3.911   7.002  1.8447  2.2021  0.2364
 3846SOL     OW22999   3.292   0.974   9.270 -0.2645  0.9960  0.1654
 3846SOL    HW123000   3.219   0.985   9.331 -0.1312 -1.2527  0.7254
 3846SOL    HW223001   3.250   0.958   9.185  2.2692  3.5268 -1.5696
 3847SOL     OW23002   4.266   0.315   8.427  0.3967 -0.3178  0.2280
 3847SOL    HW123003   4.183   0.297   8.471 -0.0959 -1.4168 -1.1500
 3847SOL    HW223004   4.271   0.406   8.455  0.7369  0.2475 -1.6429
 3848SOL     OW23005   1.657   0.406   1.260  0.5161  0.0444  0.0728
 3848SOL    HW123006   1.638   0.324   1.305 -0.1861 -0.8946 -1.9029
 3848SOL    HW223007   1.707   0.376   1.184 -0.1588 -3.8400  1.1805
 3849SOL     OW23008   3.192   0.711   8.621  0.8639 -0.5549  0.3350
 3849SOL    HW123009   3.138   0.640   8.587 -0.2283 -0.1577  1.2465
 3849SOL    HW223010   3.135   0.787   8.606 -0.1572 -1.6618 -1.4131
 3850SOL     OW23011   1.953   1.705   6.511 -0.0503  1.1843  0.1254
 3850SOL    HW123012   1.858   1.699   6.503  0.1706 -2.2414  0.0681
 3850SOL    HW223013   1.965   1.800   6.515 -0.0759  1.1281  1.7505
 3851SOL     OW23014   1.024   2.770   6.279  0.4663 -0.0173 -0.6174
 3851SOL    HW123015   0.935   2.770   6.244 -0.5123 -4.1231  1.7362
 3851SOL    HW223016   1.024   2.836   6.349 -3.0714  1.9859 -2.5108
 3852SOL     OW23017   4.030   1.178   6.333  0.4378  0.1198 -0.1017
 3852SOL    HW123018   4.011   1.177   6.427 -0.7990 -0.7826 -0.3511
 3852SOL    HW223019   4.021   1.084   6.319  0.4643 -0.0576  1.0764
 3853SOL     OW23020   2.705   2.853   2.780 -0.5870  0.2834 -0.1228
 3853SOL    HW123021   2.732   2.904   2.856  0.9084  0.8028 -0.9992
 3853SOL    HW223022   2.651   2.793   2.831  1.5413 -1.5827 -0.0486
 3854SOL     OW23023   0.032   3.106   6.586  0.8224  0.3128 -0.3068
 3854SOL    HW123024   0.083   3.098   6.506  2.4590  0.1660  0.7395
 3854SOL    HW223025   0.059   3.195   6.608 -1.7214  0.6981  1.3628
 3855SOL     OW23026   1.308   3.259   9.252  0.7721 -0.1574  0.5768
 3855SOL    HW123027   1.308   3.282   9.345  0.5546 -1.0437  0.7898
 3855SOL    HW223028   1.370   3.313   9.203  1.0805  1.8667  3.2149
 3856SOL     OW23029   3.805   2.770   5.658 -0.0040  0.1200 -0.3150
 3856SOL    HW123030   3.739   2.710   5.625 -0.6957  0.6003  0.1847
 3856SOL    HW223031   3.786   2.844   5.601  0.8652 -1.3527 -2.4812
 3857SOL     OW23032   2.744   2.785  10.152  0.4657  0.1035 -0.0569
 3857SOL    HW123033   2.653   2.815  10.157  0.6325  0.2590  1.8767
 3857SOL    HW223034   2.726   2.693  10.132 -0.5057  0.4471 -0.7647
 3858SOL     OW23035   0.046   1.194   7.871 -0.6088  0.2201  0.7374
 3858SOL    HW123036   4.719   1.127   7.917 -0.7035 -0.2165 -0.0086
 3858SOL    HW223037   4.704   1.262   7.858 -1.6379 -0.8067  0.5884
 3859SOL     OW23038   2.120   4.491  11.034 -0.2267  0.1055 -0.4614
 3859SOL    HW123039   2.031   4.497  11.068  0.7374  0.1938  2.0136
 3859SOL    HW223040   2.116   4.463  10.942  1.4071  0.2779 -0.5912
 3860SOL     OW23041   3.260   1.198   8.869  0.6826  0.6156  0.4912
 3860SOL    HW123042   3.212   1.170   8.947  1.8090  0.9904  1.3204
 3860SOL    HW223043   3.246   1.128   8.805  3.7112 -0.4398  1.0051
 3861SOL     OW23044   4.673   3.394   8.039 -0.3220 -0.1774 -0.3971
 3861SOL    HW123045   4.643   3.376   8.128 -1.2273 -2.0889 -1.0848
 3861SOL    HW223046   4.686   3.488   8.045 -1.1766 -0.1571  1.0918
 3862SOL     OW23047   3.739   3.975   2.781  0.0789  0.6213  0.0162
 3862SOL    HW123048   3.652   3.940   2.760 -0.3832  1.4137  0.6305
 3862SOL    HW223049   3.724   3.998   2.872  0.9901 -1.6447  0.7291
 3863SOL     OW23050   3.225   0.732  16.399 -0.1611  0.3271  0.1922
 3863SOL    HW123051   3.298   0.766  16.451  0.1763 -1.7588  1.0389
 3863SOL    HW223052   3.152   0.742  16.460  1.9688  1.8982  2.5058
 3864SOL     OW23053   1.916   0.269  15.196 -0.3341 -0.3967  0.1868
 3864SOL    HW123054   1.953   0.330  15.132 -2.8753 -1.4933 -2.3467
 3864SOL    HW223055   1.994   0.263  15.251  1.5310  1.7930 -2.2083
 3865SOL     OW23056   3.438   1.401   5.377 -0.1717 -0.5839  0.1401
 3865SOL    HW123057   3.525   1.362   5.374  0.1820  0.2846 -0.6734
 3865SOL    HW223058   3.399   1.326   5.424  0.7718 -0.5754  0.9433
 3866SOL     OW23059   3.422   0.916   5.335 -0.4250  0.3924 -0.1799
 3866SOL    HW123060   3.483   0.956   5.398  1.2970 -1.2047 -0.8519
 3866SOL    HW223061   3.467   0.834   5.316 -2.7082 -1.2080  1.3615
 3867SOL     OW23062   0.251   4.646  14.397 -0.7011  0.1511 -0.1682
 3867SOL    HW123063   0.158   4.636  14.416 -0.5292  0.7363  1.0091
 3867SOL    HW223064   0.238   4.707  14.324 -1.5473 -0.5819 -0.6252
 3868SOL     OW23065   3.447   4.233   3.879 -0.7998 -0.0032  0.2561
 3868SOL    HW123066   3.373   4.203   3.827  0.0465 -0.1874 -0.8417
 3868SOL    HW223067   3.405   4.274   3.955  2.4912  0.1555  1.9878
 3869SOL     OW23068   0.023   4.075   8.684  0.0822  0.4287  0.2557
 3869SOL    HW123069   4.676   4.038   8.631 -1.3977  0.1591  2.4029
 3869SOL    HW223070   0.076   4.120   8.618 -1.2244  2.3147  0.5121
 3870SOL     OW23071   1.035   4.221   5.608  0.0921  0.4404  0.1765
 3870SOL    HW123072   1.093   4.212   5.684  1.1699 -0.1670 -0.7042
 3870SOL    HW223073   1.075   4.166   5.539 -2.1404  1.5574 -1.9902
 3871SOL     OW23074   0.067   0.786   7.688 -0.4575 -0.2698  0.5297
 3871SOL    HW123075   0.078   0.765   7.595 -0.1160  0.8941  0.3053
 3871SOL    HW223076   0.145   0.747   7.729 -0.6958 -0.6256  0.6397
 3872SOL     OW23077   3.364   4.591   3.673  0.0238 -0.3950 -0.1946
 3872SOL    HW123078   3.323   4.588   3.760 -1.2229  1.9580 -0.6785
 3872SOL    HW223079   3.429   4.660   3.686 -0.8080  0.0268  1.7179
 3873SOL     OW23080   1.764   2.207  15.805 -0.1868 -0.4887 -0.6730
 3873SOL    HW123081   1.698   2.160  15.755  0.2675 -2.1407  0.2621
 3873SOL    HW223082   1.747   2.186  15.897 -3.7500  0.8868 -1.0145
 3874SOL     OW23083   3.549   4.545   2.543 -0.0812  0.2163 -0.0185
 3874SOL    HW123084   3.526   4.617   2.484  0.8511  0.7317  0.2583
 3874SOL    HW223085   3.471   4.491   2.530  1.4160 -2.2339  1.1274
 3875SOL     OW23086   2.104   2.715   8.717  0.8732 -0.0654 -0.2552
 3875SOL    HW123087   2.010   2.709   8.736  0.5823  1.7009 -1.1048
 3875SOL    HW223088   2.142   2.657   8.783 -1.6388 -0.4842  0.8431
 3876SOL     OW23089   2.887   1.212   4.251  0.1635  0.6528 -0.3201
 3876SOL    HW123090   2.832   1.164   4.312  1.8712 -1.7606 -0.6791
 3876SOL    HW223091   2.939   1.138   4.219 -1.8492 -1.3963  1.1234
 3877SOL     OW23092   2.811   1.742   6.763  0.3501  0.7650  0.4743
 3877SOL    HW123093   2.740   1.704   6.814  0.0058 -0.3833 -0.8554
 3877SOL    HW223094   2.799   1.835   6.781  1.4010  0.6242  1.9406
 3878SOL     OW23095   4.272   2.285   6.994 -0.0370 -0.2632  0.1110
 3878SOL    HW123096   4.314   2.210   7.038 -1.0456 -0.1957  1.1792
 3878SOL    HW223097   4.177   2.287   7.004 -0.1611  1.1576 -1.3766
 3879SOL     OW23098   2.549   2.874   8.219  0.2264 -0.3235 -0.1812
 3879SOL    HW123099   2.526   2.832   8.302  1.3303 -1.2678 -0.3583
 3879SOL    HW223100   2.495   2.815   8.167  1.0716  0.3357 -1.8114
 3880SOL     OW23101   3.771   0.745   5.082  0.0039 -0.3397 -0.2478
 3880SOL    HW123102   3.726   0.827   5.102 -0.5838 -0.4863 -0.9750
 3880SOL    HW223103   3.770   0.713   5.173  0.4069  2.5475  0.7596
 3881SOL     OW23104   3.886   2.816  16.144  0.6607  0.0616  0.3021
 3881SOL    HW123105   3.846   2.895  16.108 -1.6889 -0.2610  2.2102
 3881SOL    HW223106   3.929   2.778  16.067 -2.6610 -3.7333  0.3655
 3882SOL     OW23107   4.658   1.563   3.991  0.1599  0.5545 -0.0042
 3882SOL    HW123108   0.017   1.516   3.989 -0.4485 -0.4578 -1.1706
 3882SOL    HW223109   4.589   1.498   3.977  0.5966  0.1146 -0.0770
 3883SOL     OW23110   1.166   3.845   7.016 -0.3129  0.3770 -0.1445
 3883SOL    HW123111   1.075   3.825   6.992  0.0642 -1.3892 -0.0937
 3883SOL    HW223112   1.158   3.940   7.028  1.4395  0.6195 -1.0485
 3884SOL     OW23113   0.122   0.644   0.930  0.6160  0.0298  0.5207
 3884SOL    HW123114   0.174   0.694   0.867 -0.1940 -0.0175 -0.1892
 3884SOL    HW223115   0.076   0.713   0.978  0.1147 -0.7669  1.1685
 3885SOL     OW23116   2.172   0.794   5.888 -0.3469 -0.4624 -0.0224
 3885SOL    HW123117   2.204   0.838   5.966 -0.0536  0.1173 -0.4684
 3885SOL    HW223118   2.251   0.778   5.836  0.5018 -2.6469  1.9114
 3886SOL     OW23119   3.105   2.254   6.565 -0.0882 -0.0120  0.1656
 3886SOL    HW123120   3.157   2.327   6.532  1.0860 -1.3032 -0.8566
 3886SOL    HW223121   3.058   2.288   6.641 -0.9493  0.1228 -0.4158
 3887SOL     OW23122   2.388   2.613   6.045  0.2505  0.1931  0.5029
 3887SOL    HW123123   2.408   2.527   6.081 -0.9693 -0.9033 -1.4873
 3887SOL    HW223124   2.345   2.654   6.120 -1.5370 -0.3708 -0.2196
 3888SOL     OW23125   3.522   0.710   8.657 -0.1920  0.1595  0.0104
 3888SOL    HW123126   3.513   0.770   8.584  0.8416  1.7368  1.1764
 3888SOL    HW223127   3.559   0.768   8.724 -0.1085 -1.4164  1.3251
 3889SOL     OW23128   4.330   3.192   0.808  0.0473  0.3007 -0.6082
 3889SOL    HW123129   4.359   3.237   0.728 -1.9649  0.6337 -1.1653
 3889SOL    HW223130   4.396   3.125   0.826 -0.3838 -0.8118 -3.0738
 3890SOL     OW23131   3.314   2.946  14.277 -0.4397  0.0549 -0.1717
 3890SOL    HW123132   3.347   2.913  14.193  1.1099  2.6169 -0.5739
 3890SOL    HW223133   3.255   2.876  14.306 -0.9043 -0.0598 -1.3961
 3891SOL     OW23134   4.259   3.898   6.138 -0.9425 -0.1623  0.3344
 3891SOL    HW123135   4.220   3.819   6.175  1.6173 -2.4221 -1.8260
 3891SOL    HW223136   4.265   3.873   6.046  2.4091 -0.4278  0.6134
 3892SOL     OW23137   0.239   2.711   3.222  0.0831 -0.3299 -0.1526
 3892SOL    HW123138   0.153   2.673   3.204  0.3095  0.4602 -2.9207
 3892SOL    HW223139   0.289   2.696   3.142  1.0793 -0.4961  0.4985
 3893SOL     OW23140   3.599   4.659   8.036 -0.2023 -0.1552  0.7549
 3893SOL    HW123141   3.683   4.617   8.057  0.3750 -0.5802 -2.3734
 3893SOL    HW223142   3.544   4.615   8.101 -0.9653  1.1095  0.9504
 3894SOL     OW23143   0.776   3.698   2.169  0.3399 -0.4210 -0.4258
 3894SOL    HW123144   0.789   3.785   2.131 -3.5534  0.6205  0.6418
 3894SOL    HW223145   0.865   3.681   2.201 -0.5482 -0.9671  1.7783
 3895SOL     OW23146   1.464   0.091  12.371 -0.1142 -0.0843  0.4129
 3895SOL    HW123147   1.520   0.022  12.333  0.7100  1.1763 -0.6755
 3895SOL    HW223148   1.476   0.058  12.460 -0.2865 -1.4406 -0.0594
 3896SOL     OW23149   4.232   2.876   4.607 -0.3065 -0.4321 -0.2766
 3896SOL    HW123150   4.206   2.809   4.670  0.3868  1.3936  1.9361
 3896SOL    HW223151   4.143   2.905   4.587  0.6358  0.7773 -2.7753
 3897SOL     OW23152   0.669   2.868   1.770  0.2204  0.3353 -0.0272
 3897SOL    HW123153   0.583   2.868   1.812  0.0663 -0.3674 -0.3529
 3897SOL    HW223154   0.717   2.824   1.839  1.2883 -0.7624 -1.4703
 3898SOL     OW23155   2.416   0.573  17.272 -0.1180  0.0916 -0.5640
 3898SOL    HW123156   2.362   0.523  17.211  0.0339 -1.6544  0.7146
 3898SOL    HW223157   2.352   0.634  17.309 -1.5228 -2.1289  0.6721
 3899SOL     OW23158   4.201   0.503   4.433 -0.4326  0.2419  0.0680
 3899SOL    HW123159   4.274   0.555   4.400  0.3975 -1.9352 -1.5083
 3899SOL    HW223160   4.161   0.578   4.477 -0.8552 -0.2005  0.4310
 3900SOL     OW23161   3.879   4.114   5.624  0.1965  0.2085 -0.5356
 3900SOL    HW123162   3.927   4.127   5.706  0.1575  2.4938 -0.8680
 3900SOL    HW223163   3.876   4.018   5.620  1.9050  0.0541  1.6617
 3901SOL     OW23164   3.814   2.771  11.084 -0.0784 -0.4897 -0.5410
 3901SOL    HW123165   3.766   2.766  11.167  0.7246 -2.4502 -0.1879
 3901SOL    HW223166   3.813   2.866  11.076 -0.2612 -0.4804 -0.3900
 3902SOL     OW23167   1.842   2.068   1.584  0.5020  0.5446 -0.2953
 3902SOL    HW123168   1.938   2.067   1.581  0.4973 -0.4427 -0.2066
 3902SOL    HW223169   1.814   2.022   1.505  3.9041  0.9728 -1.7650
 3903SOL     OW23170   0.660   0.661  13.131 -0.1039  0.3818 -0.2923
 3903SOL    HW123171   0.672   0.755  13.121  2.6645 -0.0914 -1.2817
 3903SOL    HW223172   0.584   0.659  13.190 -0.2113 -0.9123 -0.4767
 3904SOL     OW23173   0.074   3.424  13.666 -0.6616  0.4974  0.2406
 3904SOL    HW123174   4.720   3.475  13.645 -1.6412 -1.1274 -0.0248
 3904SOL    HW223175   0.122   3.494  13.710  0.6807  0.2025 -0.7376
 3905SOL     OW23176   2.547   1.826   1.197 -0.2342  0.5312 -0.0417
 3905SOL    HW123177   2.551   1.756   1.131  1.0571  0.8813 -0.3434
 3905SOL    HW223178   2.456   1.853   1.200 -0.6841 -1.3275  2.4845
 3906SOL     OW23179   0.498   2.204   8.536 -0.1823  0.0907  0.0367
 3906SOL    HW123180   0.545   2.274   8.580  0.8330  0.6663 -1.9575
 3906SOL    HW223181   0.464   2.260   8.467 -2.1041 -1.1376 -0.0137
 3907SOL     OW23182   0.275   1.180   4.642 -1.0043 -0.1705  0.5011
 3907SOL    HW123183   0.190   1.137   4.642 -1.8649  1.5345  1.9121
 3907SOL    HW223184   0.306   1.170   4.552 -0.9365  0.1168  0.4936
 3908SOL     OW23185   4.085   4.668  12.914  0.7203  0.6546 -0.2439
 3908SOL    HW123186   4.116   0.031  12.938  3.3146  0.0252 -1.3210
 3908SOL    HW223187   4.159   4.628  12.869 -1.0906 -2.2568 -0.6309
 3909SOL     OW23188   1.583   2.701   4.094  0.6799 -0.0966 -0.4310
 3909SOL    HW123189   1.502   2.744   4.120  0.8387  0.3285 -0.6430
 3909SOL    HW223190   1.559   2.616   4.057  1.4800  0.0865 -1.3834
 3910SOL     OW23191   1.982   1.351   7.260  0.5311 -0.5484 -0.2484
 3910SOL    HW123192   1.958   1.442   7.241 -0.6858 -0.6553  0.7884
 3910SOL    HW223193   1.950   1.305   7.183  0.0102  0.6724 -0.7489
 3911SOL     OW23194   2.663   1.388   7.819 -0.1895  0.4330 -0.1687
 3911SOL    HW123195   2.689   1.393   7.727  0.2159  1.1285 -0.0205
 3911SOL    HW223196   2.622   1.302   7.828  0.4372  0.1665  0.1567
 3912SOL     OW23197   4.099   4.638   6.581  0.0867 -0.4732  0.2018
 3912SOL    HW123198   4.180   4.608   6.539  0.4536  0.5518  0.1696
 3912SOL    HW223199   4.034   4.640   6.512  0.7631  2.1635 -0.3595
 3913SOL     OW23200   3.580   2.354   6.784  0.7610 -0.3709 -0.0989
 3913SOL    HW123201   3.664   2.349   6.829 -1.9158 -2.5351  4.6590
 3913SOL    HW223202   3.546   2.414   6.851  1.2481 -2.1427  1.7107
 3914SOL     OW23203   3.709   2.073   4.242  0.1758 -0.0372  0.0673
 3914SOL    HW123204   3.736   2.034   4.159  1.1326  3.0514 -1.0528
 3914SOL    HW223205   3.644   2.133   4.207 -0.7987 -2.2466 -1.9302
 3915SOL     OW23206   3.021   2.671   4.454  0.3155 -0.1163  0.0094
 3915SOL    HW123207   3.059   2.733   4.515 -0.4001  0.3491 -0.0181
 3915SOL    HW223208   3.045   2.585   4.490  0.6290 -0.3665 -0.7801
 3916SOL     OW23209   1.386   0.852   6.730 -0.3720  0.0740 -0.2829
 3916SOL    HW123210   1.379   0.776   6.672 -0.2295 -1.2382  1.4145
 3916SOL    HW223211   1.341   0.822   6.809 -2.6081  3.1359 -0.3928
 3917SOL     OW23212   0.937   4.589   6.102  0.5569  0.1678 -0.5710
 3917SOL    HW123213   1.012   4.647   6.116  0.5955  0.2851 -1.2589
 3917SOL    HW223214   0.979   4.507   6.077 -0.1471 -0.8250  1.5031
 3918SOL     OW23215   1.782   1.932   1.344  0.4470 -0.0903  0.5170
 3918SOL    HW123216   1.738   2.008   1.306 -2.5606 -1.7627  0.6733
 3918SOL    HW223217   1.731   1.860   1.307 -0.2514  0.5988  0.1428
 3919SOL     OW23218   4.451   2.708   5.591  0.3577  0.2140 -0.0659
 3919SOL    HW123219   4.367   2.662   5.583  0.3058  0.3594 -0.3627
 3919SOL    HW223220   4.511   2.641   5.559  1.0722 -0.0429  1.8223
 3920SOL     OW23221   2.117   1.618   1.058  0.5261  0.3985  0.2149
 3920SOL    HW123222   2.118   1.694   1.117  0.8710 -1.3756  2.5033
 3920SOL    HW223223   2.037   1.572   1.084 -0.1813  1.2295 -0.4920
 3921SOL     OW23224   0.342   3.510   7.887 -0.6812 -0.1463 -0.3135
 3921SOL    HW123225   0.373   3.484   7.800 -1.6164  0.0879 -0.7228
 3921SOL    HW223226   0.293   3.429   7.903  1.6423 -1.2920  1.0140
 3922SOL     OW23227   4.665   0.942   9.019  0.1941  0.7421 -0.5588
 3922SOL    HW123228   4.653   1.036   9.026 -1.8066  0.6108 -2.3014
 3922SOL    HW223229   4.671   0.932   8.924 -0.1434 -0.8426 -0.4209
 3923SOL     OW23230   0.498   4.376   8.383 -0.2342  0.3080  0.3114
 3923SOL    HW123231   0.511   4.458   8.336 -0.6569  0.0427 -0.2759
 3923SOL    HW223232   0.431   4.331   8.331  0.8057  0.2246 -0.9605
 3924SOL     OW23233   1.980   0.783   4.850 -0.6357 -0.1106  0.2282
 3924SOL    HW123234   1.892   0.751   4.871 -0.5283  0.8731  2.1964
 3924SOL    HW223235   2.015   0.708   4.801 -0.1995  0.3807 -0.2176
 3925SOL     OW23236   2.818   1.254  17.073 -0.6027 -0.2935  0.2164
 3925SOL    HW123237   2.890   1.271  17.133 -0.9389  2.3029 -0.1124
 3925SOL    HW223238   2.862   1.251  16.987 -0.1751  2.4601  0.3204
 3926SOL     OW23239   3.701   3.878   8.891  0.0036 -0.1864 -0.1111
 3926SOL    HW123240   3.735   3.838   8.972 -0.4726 -1.5288 -0.5709
 3926SOL    HW223241   3.606   3.883   8.900  0.0728  0.5615  0.1751
 3927SOL     OW23242   3.263   3.880  12.624 -0.4162 -0.1357 -0.1008
 3927SOL    HW123243   3.344   3.832  12.605  0.7532  2.5806 -1.9136
 3927SOL    HW223244   3.296   3.950  12.680 -1.0026 -0.4466  0.6324
 3928SOL     OW23245   0.698   1.612   2.817 -0.3406 -0.5121  0.5427
 3928SOL    HW123246   0.756   1.687   2.816 -0.5850 -0.3326 -0.0132
 3928SOL    HW223247   0.614   1.653   2.840 -0.0185 -0.0185  0.8413
 3929SOL     OW23248   2.249   0.538  17.659  0.7696 -0.4479 -0.1835
 3929SOL    HW123249   2.329   0.498  17.693  0.6099  0.0152  0.7535
 3929SOL    HW223250   2.189   0.518   0.033 -0.2558  1.1181 -0.5988
 3930SOL     OW23251   0.365   0.183   5.430 -0.0394 -0.5478 -0.1666
 3930SOL    HW123252   0.309   0.235   5.372  3.6575  3.2491 -0.3756
 3930SOL    HW223253   0.355   0.099   5.387  1.0056 -0.8818  0.2366
 3931SOL     OW23254   1.697   3.249   0.626  0.1480 -0.0265 -0.0852
 3931SOL    HW123255   1.602   3.241   0.621  0.3269 -2.0222 -0.0995
 3931SOL    HW223256   1.716   3.164   0.666 -1.5363 -0.6816 -0.6694
 3932SOL     OW23257   2.656   4.015  17.076  0.1027 -0.0775 -0.5598
 3932SOL    HW123258   2.648   3.998  17.170 -1.8511  1.9188 -0.3706
 3932SOL    HW223259   2.678   3.929  17.041 -0.9348  0.3603 -2.2901
 3933SOL     OW23260   4.617   1.602   4.262  0.3632  0.4816 -0.2097
 3933SOL    HW123261   4.621   1.609   4.167 -1.0107  1.4556 -0.2016
 3933SOL    HW223262   4.526   1.573   4.266  0.0171  1.4112 -1.4577
 3934SOL     OW23263   0.756   4.296  10.235  0.3069 -0.0979 -0.4650
 3934SOL    HW123264   0.775   4.233  10.306 -1.7506 -2.5542 -2.0897
 3934SOL    HW223265   0.786   4.382  10.263 -0.1614  0.4787 -1.7545
 3935SOL     OW23266   0.134   3.919  10.880  0.0326 -0.5783 -0.1221
 3935SOL    HW123267   0.091   3.973  10.813  0.7570 -0.7555 -0.7326
 3935SOL    HW223268   0.073   3.939  10.951 -0.1815 -1.6872  0.0050
 3936SOL     OW23269   1.137   2.496  12.618  0.6734  0.0346 -0.4038
 3936SOL    HW123270   1.225   2.529  12.635 -0.3046  0.9513  2.8413
 3936SOL    HW223271   1.160   2.404  12.599  0.3681  0.2446 -1.7599
 3937SOL     OW23272   4.602   2.125   5.934 -0.4321  0.0713  0.1850
 3937SOL    HW123273   4.619   2.031   5.941 -0.3877 -0.1591 -2.8298
 3937SOL    HW223274   4.663   2.140   5.862 -0.2759  2.3571  0.8171
 3938SOL     OW23275   3.915   3.833   6.915  0.8096 -0.1670 -0.6605
 3938SOL    HW123276   3.925   3.742   6.941  1.5514  0.1775  0.2689
 3938SOL    HW223277   4.009   3.849   6.907  0.3875  2.5405 -0.2829
 3939SOL     OW23278   0.882   4.504   6.793  0.1165  0.6138 -0.5578
 3939SOL    HW123279   0.901   4.597   6.779  1.5111  0.3621 -0.3006
 3939SOL    HW223280   0.823   4.502   6.718 -0.5409  0.6595 -0.0402
 3940SOL     OW23281   3.105   3.609   8.645  0.1131 -0.0365 -0.4119
 3940SOL    HW123282   3.172   3.567   8.593  1.3752  0.0090  1.1780
 3940SOL    HW223283   3.099   3.695   8.603 -0.5418  0.1170 -0.0137
 3941SOL     OW23284   3.879   2.450   1.078 -0.3263  0.2201  0.8890
 3941SOL    HW123285   3.836   2.473   1.161 -1.5162 -1.9129  0.8607
 3941SOL    HW223286   3.865   2.357   1.064  0.4452 -0.0313  1.8177
 3942SOL     OW23287   2.898   3.222  11.986  0.2825 -0.5960  0.1339
 3942SOL    HW123288   2.922   3.130  11.998  1.4518  0.0961  3.1037
 3942SOL    HW223289   2.876   3.226  11.893  1.6391 -0.9239 -0.1985
 3943SOL     OW23290   2.936   2.616   5.753 -0.7477  0.1662 -0.4148
 3943SOL    HW123291   2.991   2.538   5.754 -1.6919 -0.5113 -1.6113
 3943SOL    HW223292   2.853   2.578   5.723 -0.6687  0.3113 -0.8149
 3944SOL     OW23293   0.066   2.222   7.297  0.4589  0.0466 -0.3633
 3944SOL    HW123294   0.113   2.268   7.367  0.9199  1.6056 -1.7134
 3944SOL    HW223295   4.704   2.264   7.306  0.1612 -0.5624 -0.3683
 3945SOL     OW23296   0.264   2.304   6.871 -0.7949 -0.7781  0.3214
 3945SOL    HW123297   0.227   2.326   6.786  3.6038  0.7260 -1.2075
 3945SOL    HW223298   0.255   2.385   6.920 -0.2675 -0.0415 -0.8053
 3946SOL     OW23299   4.085   0.627   6.748  0.3126 -0.3243  0.3725
 3946SOL    HW123300   4.123   0.705   6.709  0.6107 -1.2746 -1.2385
 3946SOL    HW223301   4.022   0.602   6.680  0.9300 -0.4971 -0.1285
 3947SOL     OW23302   4.123   2.555   4.409 -0.4011 -0.3112  0.3543
 3947SOL    HW123303   4.191   2.623   4.409 -0.8436  0.1319  0.8207
 3947SOL    HW223304   4.152   2.489   4.346 -0.1568 -1.2360  1.4176
 3948SOL     OW23305   1.279   1.387   3.604  0.0214 -0.1841  0.0397
 3948SOL    HW123306   1.265   1.293   3.593  0.5532 -0.2297 -0.2588
 3948SOL    HW223307   1.248   1.403   3.515 -1.9118  0.6669  0.8550
 3949SOL     OW23308   1.902   4.176   5.081  0.4314  0.3481  0.0316
 3949SOL    HW123309   1.938   4.264   5.082 -1.3466  1.0768 -1.3330
 3949SOL    HW223310   1.980   4.124   5.100 -1.2647 -2.3140 -0.2385
 3950SOL     OW23311   3.988   1.043  10.545 -0.5015 -0.4310  0.4968
 3950SOL    HW123312   3.961   1.041  10.637  1.4668 -0.7165  1.0780
 3950SOL    HW223313   4.081   1.025  10.556 -0.4480 -1.2965 -1.4254
 3951SOL     OW23314   3.159   3.657   6.176 -0.2099 -0.3441  0.4396
 3951SOL    HW123315   3.090   3.594   6.159 -0.1713 -0.2963  0.1160
 3951SOL    HW223316   3.224   3.610   6.228 -0.0119 -0.1963  0.3277
 3952SOL     OW23317   3.040   0.887   7.426 -0.0231  0.1565  0.2477
 3952SOL    HW123318   3.092   0.938   7.488  1.3009  0.5451 -1.1624
 3952SOL    HW223319   3.007   0.952   7.363  0.6923 -1.1177 -1.4508
 3953SOL     OW23320   3.835   3.347   8.512 -0.2731  0.9620  0.7239
 3953SOL    HW123321   3.775   3.320   8.582  1.2951  0.7867  1.9852
 3953SOL    HW223322   3.865   3.431   8.547 -2.5589  2.1476 -0.1630
 3954SOL     OW23323   0.649   3.378   5.526  0.0454  0.6601  0.2557
 3954SOL    HW123324   0.632   3.372   5.620  0.6325 -0.7208  0.2799
 3954SOL    HW223325   0.567   3.362   5.479  0.9657 -2.3507 -0.3692
 3955SOL     OW23326   1.438   1.527   4.339 -0.3361  0.3874  0.0134
 3955SOL    HW123327   1.513   1.578   4.369 -0.2145  0.6285 -0.6948
 3955SOL    HW223328   1.469   1.483   4.259 -0.3818 -2.5603  1.6069
 3956SOL     OW23329   3.164   2.055   7.220  0.3255 -0.1049 -0.6043
 3956SOL    HW123330   3.195   2.082   7.133  0.2484 -2.3013 -1.3086
 3956SOL    HW223331   3.126   1.967   7.213 -1.4036  0.7980 -2.7525
 3957SOL     OW23332   3.815   0.039   0.800  0.0080  0.4818  0.2813
 3957SOL    HW123333   3.725   0.035   0.770  0.5314  1.8405 -1.4497
 3957SOL    HW223334   3.794   0.084   0.883  0.4996 -1.0140  1.2198
 3958SOL     OW23335   3.626   3.595   6.942  0.3605  0.3330  0.7099
 3958SOL    HW123336   3.702   3.624   6.992  2.4377 -4.4596  0.3652
 3958SOL    HW223337   3.665   3.580   6.856 -1.3718 -1.1487  0.1895
 3959SOL     OW23338   4.051   0.477   8.021 -0.8235 -0.2967  0.1263
 3959SOL    HW123339   4.125   0.524   8.059  0.1882  0.0808 -2.3223
 3959SOL    HW223340   4.047   0.407   8.086 -0.9902  0.5801  1.0632
 3960SOL     OW23341   3.849   1.728   7.750 -0.2126  0.3255  0.5014
 3960SOL    HW123342   3.786   1.696   7.685  0.8625 -0.6952 -0.0464
 3960SOL    HW223343   3.797   1.804   7.773 -0.9265 -0.0276  0.0576
 3961SOL     OW23344   3.235   3.527   7.502 -0.3291 -0.4039 -0.0361
 3961SOL    HW123345   3.245   3.434   7.522  0.9562 -0.0657  0.8571
 3961SOL    HW223346   3.186   3.563   7.576  2.0323  2.9503 -0.1414
 3962SOL     OW23347   2.554   0.532   7.308 -0.2546 -0.6256 -0.2447
 3962SOL    HW123348   2.567   0.538   7.403 -1.4896  0.2568 -0.1307
 3962SOL    HW223349   2.640   0.509   7.273 -0.5731 -2.3785  0.1332
 3963SOL     OW23350   1.645   3.609   0.578  0.6773  0.7803  0.0131
 3963SOL    HW123351   1.724   3.659   0.599 -0.1458  1.9324  0.4023
 3963SOL    HW223352   1.637   3.616   0.483  1.2355  0.7699 -0.0307
 3964SOL     OW23353   3.636   1.417   2.334 -0.0019  0.0199  0.0316
 3964SOL    HW123354   3.567   1.440   2.272  0.7044  1.9559 -0.0271
 3964SOL    HW223355   3.585   1.384   2.407 -1.6923 -0.2430 -1.2757
 3965SOL     OW23356   3.834   2.718  12.359 -0.2627  0.7128 -1.0485
 3965SOL    HW123357   3.837   2.690  12.268  1.4173 -2.9137  0.1251
 3965SOL    HW223358   3.927   2.716  12.383 -1.1142 -0.0584  2.2075
 3966SOL     OW23359   1.998   4.625  17.228  0.1612  0.2752 -0.3900
 3966SOL    HW123360   1.905   4.617  17.249 -0.0709  1.8840 -0.8095
 3966SOL    HW223361   2.005   4.707  17.180 -1.3869  0.3540 -0.4762
 3967SOL     OW23362   3.324   1.022  17.026  0.1103 -0.2013  0.0734
 3967SOL    HW123363   3.405   0.999  16.981 -0.0543  0.9961 -0.8361
 3967SOL    HW223364   3.275   1.077  16.965 -0.7395 -1.4710 -0.3855
 3968SOL     OW23365   2.426   2.407  15.997 -0.0839  0.1455 -0.0099
 3968SOL    HW123366   2.386   2.321  15.984 -2.1335  0.7992  1.9682
 3968SOL    HW223367   2.350   2.461  16.020 -0.7273  0.1648 -2.1578
 3969SOL     OW23368   1.658   4.619  14.179  0.0741 -0.0059  0.2471
 3969SOL    HW123369   1.595   4.594  14.112 -0.5686 -0.6368  1.0882
 3969SOL    HW223370   1.611   4.571  14.248 -0.8825 -0.5505 -0.7932
 3970SOL     OW23371   0.752   2.846   6.225  0.0128  0.3960 -0.0371
 3970SOL    HW123372   0.765   2.888   6.141 -0.0404 -0.5977 -0.5490
 3970SOL    HW223373   0.721   2.912   6.287 -1.4731  0.4621 -0.8573
 3971SOL     OW23374   2.772   3.135   1.729 -0.9732  0.1601 -0.4023
 3971SOL    HW123375   2.704   3.074   1.758 -1.3618  1.4004  1.3296
 3971SOL    HW223376   2.732   3.193   1.664 -1.0765 -0.8292 -1.2237
 3972SOL     OW23377   4.300   1.204   3.597 -0.0658  0.2331 -0.2581
 3972SOL    HW123378   4.378   1.252   3.625  0.0535 -0.6428  0.9345
 3972SOL    HW223379   4.327   1.117   3.624  0.8899  1.1104  1.6725
 3973SOL     OW23380   2.143   1.976   7.234  0.2108 -0.4104 -0.3506
 3973SOL    HW123381   2.201   1.945   7.165  0.0249 -0.9096 -0.2807
 3973SOL    HW223382   2.076   1.907   7.237 -0.0070 -0.1241  1.6381
 3974SOL     OW23383   3.389   4.213   2.396 -0.1635 -0.2159 -0.2688
 3974SOL    HW123384   3.307   4.168   2.413  0.4836 -1.8283 -1.3251
 3974SOL    HW223385   3.383   4.301   2.433  0.4819 -0.7128  1.0166
 3975SOL     OW23386   4.589   3.825   5.034 -0.2572  0.4734 -0.1027
 3975SOL    HW123387   4.583   3.733   5.058  0.5362  0.4775  0.1176
 3975SOL    HW223388   4.575   3.861   5.122  2.3863 -2.7760  1.6340
 3976SOL     OW23389   4.252   1.756  13.845  0.3842  0.2732 -0.0266
 3976SOL    HW123390   4.275   1.683  13.902 -0.3088 -0.1911 -0.3423
 3976SOL    HW223391   4.156   1.753  13.845  0.3960  0.0790  0.9732
 3977SOL     OW23392   2.206   0.650   2.825  0.7042 -0.5780 -0.1367
 3977SOL    HW123393   2.193   0.740   2.856 -2.4022 -0.9572 -0.3198
 3977SOL    HW223394   2.236   0.674   2.738  0.6684 -2.0997 -0.5669
 3978SOL     OW23395   1.513   3.585   6.096  0.7133 -0.1942  0.0680
 3978SOL    HW123396   1.448   3.654   6.111  0.2278 -0.4020 -1.1071
 3978SOL    HW223397   1.580   3.627   6.042 -0.4442  1.9549  0.2714
 3979SOL     OW23398   3.623   1.010   1.880  0.6329 -0.4903  0.5930
 3979SOL    HW123399   3.592   0.977   1.796 -2.6183 -1.1787  2.0634
 3979SOL    HW223400   3.700   1.059   1.853 -0.8417  1.7986  0.5781
 3980SOL     OW23401   3.197   3.149   6.730 -0.4414  0.3125 -0.4306
 3980SOL    HW123402   3.258   3.098   6.783 -1.4263 -0.3090  0.0933
 3980SOL    HW223403   3.262   3.195   6.677 -0.7154 -0.6512 -1.6052
 3981SOL     OW23404   4.113   2.804   9.864  0.0798 -1.1135 -0.4256
 3981SOL    HW123405   4.041   2.837   9.812 -1.4090 -0.5998  1.9714
 3981SOL    HW223406   4.153   2.886   9.894 -1.2207 -0.6929  0.1264
 3982SOL     OW23407   0.235   4.625   9.297  0.4154  0.2287 -0.4138
 3982SOL    HW123408   0.177   4.701   9.292  0.6270  0.1633 -3.3628
 3982SOL    HW223409   0.192   4.582   9.372 -1.0890  0.1688 -1.2977
 3983SOL     OW23410   2.459   2.015   0.867 -0.4424  0.2265  0.0454
 3983SOL    HW123411   2.460   2.055   0.954  1.2135  1.0769 -0.3575
 3983SOL    HW223412   2.511   2.077   0.816  0.9992 -0.7612  0.3385
 3984SOL     OW23413   4.540   4.087   7.031  0.8558  0.3246 -0.4066
 3984SOL    HW123414   4.446   4.102   7.028  1.0813  1.6236 -0.8586
 3984SOL    HW223415   4.524   3.995   7.053 -0.7547  0.8164  0.4685
 3985SOL     OW23416   0.260   1.066  13.672 -0.1789 -0.3222 -0.0611
 3985SOL    HW123417   0.288   1.139  13.618 -0.9182 -1.2115 -1.6546
 3985SOL    HW223418   0.165   1.071  13.686 -0.0993  1.0090  0.0089
 3986SOL     OW23419   3.655   3.039   3.210 -0.4343 -0.7582 -0.3823
 3986SOL    HW123420   3.570   2.995   3.212 -0.2834 -1.0101  0.7130
 3986SOL    HW223421   3.660   3.052   3.116 -2.7818  0.5681 -0.3318
 3987SOL     OW23422   2.541   2.292  15.469 -0.0762 -0.9240 -0.6794
 3987SOL    HW123423   2.484   2.339  15.408  0.0713  0.3042  0.1384
 3987SOL    HW223424   2.584   2.225  15.415  0.7708  1.0861 -2.5118
 3988SOL     OW23425   2.548   4.224   6.649  0.0316  0.5632 -0.7745
 3988SOL    HW123426   2.466   4.175   6.656 -0.4276  1.6871  1.3719
 3988SOL    HW223427   2.540   4.315   6.676  1.9848  1.2552 -2.5660
 3989SOL     OW23428   2.050   3.985   3.472 -0.2423 -0.2170 -0.0238
 3989SOL    HW123429   2.107   3.940   3.410 -0.3489 -1.0501  0.4752
 3989SOL    HW223430   2.034   3.922   3.542 -3.0882  0.8249  0.2528
 3990SOL     OW23431   3.220   0.618   2.478 -0.2916  0.3865 -0.0811
 3990SOL    HW123432   3.239   0.584   2.391  0.1686  0.6290 -0.0757
 3990SOL    HW223433   3.271   0.557   2.531  1.1472  1.8540  0.2502
 3991SOL     OW23434   1.899   1.242   7.043 -0.1031 -0.2292 -0.2956
 3991SOL    HW123435   1.977   1.254   6.989 -1.0451 -0.1836 -1.6630
 3991SOL    HW223436   1.832   1.260   6.976 -2.8146  1.4195  2.8457
 3992SOL     OW23437   3.812   1.887   1.045 -0.0457  0.1191 -0.7020
 3992SOL    HW123438   3.722   1.894   1.078 -0.1282  4.6359 -1.9311
 3992SOL    HW223439   3.813   1.794   1.025  0.7755 -0.0069 -0.0648
 3993SOL     OW23440   1.260   0.610  15.589 -0.2159  0.0382  0.6745
 3993SOL    HW123441   1.168   0.596  15.567 -0.3061 -0.9406  1.6495
 3993SOL    HW223442   1.305   0.623  15.505 -2.3219 -0.1516 -0.4956
 3994SOL     OW23443   0.185   3.675   9.457  0.4032  0.1491 -0.0457
 3994SOL    HW123444   0.205   3.692   9.549 -1.0261 -0.9547  0.4609
 3994SOL    HW223445   0.216   3.585   9.444 -2.5553 -0.7042 -1.1796
 3995SOL     OW23446   2.439   4.266  10.753 -0.7524  0.4190  0.0107
 3995SOL    HW123447   2.345   4.285  10.756 -0.6724  1.0192 -1.8099
 3995SOL    HW223448   2.441   4.175  10.781  0.6091  0.0300 -1.3722
 3996SOL     OW23449   0.447   4.438   9.278 -0.0010 -0.3055 -0.2301
 3996SOL    HW123450   0.379   4.505   9.267  0.5240  0.1473 -0.6731
 3996SOL    HW223451   0.454   4.412   9.186  2.3522 -0.4876  0.0179
 3997SOL     OW23452   1.089   2.564   4.628 -0.6742  0.1149  0.2761
 3997SOL    HW123453   1.178   2.533   4.644 -0.6799 -0.4864 -0.8763
 3997SOL    HW223454   1.094   2.602   4.540 -0.6819  0.5128  0.4451
 3998SOL     OW23455   3.868   1.563   4.793 -0.9472 -0.5482 -0.3237
 3998SOL    HW123456   3.819   1.645   4.791  0.7685  0.4992  0.2107
 3998SOL    HW223457   3.881   1.541   4.701  0.0384  0.4997 -0.4346
 3999SOL     OW23458   0.331   2.831  10.776 -0.0207 -0.1294 -0.2899
 3999SOL    HW123459   0.415   2.824  10.730  0.9080 -0.4258  1.4156
 3999SOL    HW223460   0.356   2.866  10.862  1.4395  1.9378 -1.5547
 4000SOL     OW23461   2.864   2.332   3.290  0.4470 -0.0627 -1.1518
 4000SOL    HW123462   2.818   2.248   3.283 -0.5669  0.3153  1.3377
 4000SOL    HW223463   2.951   2.312   3.253  0.3742 -0.6703 -0.9946
 4001SOL     OW23464   4.326   3.745   6.468  0.2108 -0.1987 -0.1757
 4001SOL    HW123465   4.326   3.726   6.562 -0.3684 -2.0426 -0.5424
 4001SOL    HW223466   4.403   3.706   6.427 -0.0018  0.0808 -0.8391
 4002SOL     OW23467   3.889   0.631   2.315  0.2765  0.1145  0.0487
 4002SOL    HW123468   3.975   0.591   2.318  1.0688  1.8151  0.2408
 4002SOL    HW223469   3.889   0.697   2.385 -2.7764  0.0579  0.1341
 4003SOL     OW23470   4.313   2.642  14.043  0.0924  0.2091 -0.1132
 4003SOL    HW123471   4.271   2.641  13.957  4.4613 -1.0740 -2.2199
 4003SOL    HW223472   4.236   2.629  14.099  2.1292 -2.9743  1.9520
 4004SOL     OW23473   3.739   1.718   3.046 -0.1924 -0.8907  0.5557
 4004SOL    HW123474   3.688   1.784   2.999  1.0184  1.5830  2.7036
 4004SOL    HW223475   3.774   1.765   3.122  1.3593 -1.1819  0.0137
 4005SOL     OW23476   1.167   3.392  17.116  0.0012  0.3871  0.1276
 4005SOL    HW123477   1.209   3.371  17.032 -1.6039 -0.1778 -0.5396
 4005SOL    HW223478   1.165   3.301  17.146 -1.7530  0.1392 -0.7498
 4006SOL     OW23479   1.922   2.139   3.820 -0.1006  0.0895  0.4366
 4006SOL    HW123480   1.992   2.098   3.870 -0.2832  0.6328  1.1444
 4006SOL    HW223481   1.843   2.088   3.837  0.8234 -0.0957  4.3637
 4007SOL     OW23482   2.077   3.744   4.443 -0.3261 -0.2129  0.0969
 4007SOL    HW123483   2.065   3.701   4.528 -0.0627  0.4070  0.4424
 4007SOL    HW223484   1.986   3.730   4.417  0.1560 -2.5650 -0.3056
 4008SOL     OW23485   1.567   1.666   1.188  0.2896  0.5096  0.6580
 4008SOL    HW123486   1.654   1.630   1.173  0.2204  1.6894 -2.4793
 4008SOL    HW223487   1.525   1.619   1.117  0.2408  1.7181 -0.1167
 4009SOL     OW23488   0.612   3.365   0.380 -0.1217  0.7806  0.4156
 4009SOL    HW123489   0.634   3.361   0.473  1.1862 -2.4744 -0.0136
 4009SOL    HW223490   0.697   3.386   0.341 -0.6665 -0.3190 -1.4218
 4010SOL     OW23491   3.061   2.881  15.160  0.9574 -0.1121  0.2700
 4010SOL    HW123492   3.075   2.792  15.127  1.2901  0.2008 -0.4596
 4010SOL    HW223493   2.969   2.889  15.136  1.2348 -0.0394 -0.8010
 4011SOL     OW23494   4.508   3.935   3.558 -0.9638  0.1900 -0.4223
 4011SOL    HW123495   4.494   3.956   3.465 -0.4956  1.4071 -0.2129
 4011SOL    HW223496   4.600   3.955   3.576 -1.2035 -0.1983  1.1647
 4012SOL     OW23497   2.658   1.080  10.101 -0.3064 -0.9149  0.0078
 4012SOL    HW123498   2.754   1.076  10.098 -0.3199 -0.4249 -0.9954
 4012SOL    HW223499   2.636   1.110  10.013  0.2736 -1.2011 -0.2379
 4013SOL     OW23500   0.477   3.589   2.163 -0.6837  0.8812  0.2239
 4013SOL    HW123501   0.463   3.663   2.105 -1.4298  0.8440  0.3580
 4013SOL    HW223502   0.397   3.587   2.216 -0.2222 -2.6469  0.8016
 4014SOL     OW23503   1.037   3.821   2.103  0.4295 -0.0240  0.2261
 4014SOL    HW123504   1.056   3.758   2.034 -2.8819  0.6189 -1.2903
 4014SOL    HW223505   1.031   3.765   2.181 -3.6152  0.7691  0.4965
 4015SOL     OW23506   2.640   3.944   6.700 -0.3075  0.3307 -0.1839
 4015SOL    HW123507   2.717   3.936   6.757 -1.4121 -2.5204  0.9065
 4015SOL    HW223508   2.624   4.038   6.708  0.7738  0.5313 -0.3520
 4016SOL     OW23509   0.373   2.808   9.464  0.4606  0.4008  0.2175
 4016SOL    HW123510   0.280   2.788   9.456  0.6945 -1.1502  1.3958
 4016SOL    HW223511   0.419   2.735   9.506 -0.9429 -0.7818 -0.3062
 4017SOL     OW23512   0.656   4.448   8.610 -0.1069  0.2540 -0.1428
 4017SOL    HW123513   0.609   4.416   8.533  0.2463 -0.4125 -0.0796
 4017SOL    HW223514   0.639   4.379   8.673 -1.8352  1.0101  0.2340
 4018SOL     OW23515   1.749   2.456   5.191  0.5518 -0.9650  0.4748
 4018SOL    HW123516   1.715   2.521   5.130  2.4200  0.6247  1.1159
 4018SOL    HW223517   1.715   2.500   5.269 -0.9939 -1.5876  0.1480
 4019SOL     OW23518   2.910   1.667   7.741 -0.2834 -0.2681  0.1507
 4019SOL    HW123519   2.825   1.711   7.746 -1.6212 -2.8960  0.0064
 4019SOL    HW223520   2.946   1.683   7.654 -0.5184 -0.9413 -0.0647
 4020SOL     OW23521   3.862   1.449   2.750  0.0515 -0.5552 -0.5247
 4020SOL    HW123522   3.798   1.381   2.769 -1.1389 -0.0033 -2.4292
 4020SOL    HW223523   3.942   1.399   2.733 -0.6065 -3.0163  3.8158
 4021SOL     OW23524   0.477   0.914  13.864 -0.0867 -0.3283 -0.1993
 4021SOL    HW123525   0.450   0.923  13.773 -0.6929  0.8402  0.0911
 4021SOL    HW223526   0.481   1.005  13.896  0.8525 -0.7356  0.8520
 4022SOL     OW23527   2.001   3.973   7.229  0.6475 -0.2505 -0.2271
 4022SOL    HW123528   1.972   3.945   7.316 -0.4054 -2.5161 -1.3097
 4022SOL    HW223529   2.093   3.994   7.243  0.2757  0.1527  1.7343
 4023SOL     OW23530   1.647   4.194  10.037  0.1684  0.1110  0.3960
 4023SOL    HW123531   1.583   4.223  10.102 -0.1896 -1.3217  0.6857
 4023SOL    HW223532   1.598   4.205   9.955  0.4177 -2.7051 -0.1386
 4024SOL     OW23533   1.038   2.386   7.232 -0.3294  0.1056 -0.2533
 4024SOL    HW123534   1.115   2.346   7.273  0.0280  1.3246  0.2438
 4024SOL    HW223535   1.018   2.457   7.293 -0.0683  0.3621 -0.4638
 4025SOL     OW23536   2.515   1.104  12.893  0.3085 -0.7767 -0.2389
 4025SOL    HW123537   2.558   1.061  12.967 -1.8153  3.1592  3.3166
 4025SOL    HW223538   2.433   1.062  12.868  0.7471 -1.5055 -0.4395
 4026SOL     OW23539   2.357   2.062   5.477  0.2647 -0.0771  0.1682
 4026SOL    HW123540   2.284   2.078   5.418  0.8707  0.1027 -0.5258
 4026SOL    HW223541   2.326   2.103   5.558 -0.8453 -2.0257  0.7224
 4027SOL     OW23542   1.727   0.596  12.152  0.3727  0.4993 -0.1869
 4027SOL    HW123543   1.635   0.613  12.175  0.7053 -1.3624  2.4792
 4027SOL    HW223544   1.725   0.504  12.126  0.5699  0.2723  0.6077
 4028SOL     OW23545   1.407   2.758   6.884  0.0158 -0.0659 -0.7337
 4028SOL    HW123546   1.377   2.848   6.870  0.1047 -0.0840 -1.0513
 4028SOL    HW223547   1.502   2.772   6.874  0.3475  0.4572  3.3130
 4029SOL     OW23548   0.792   4.442  15.495  0.3945 -0.1202  0.1687
 4029SOL    HW123549   0.797   4.382  15.421  2.6370 -2.8809  2.5478
 4029SOL    HW223550   0.867   4.427  15.553  0.2487  0.5211  0.5226
 4030SOL     OW23551   0.781   3.441  11.488 -0.0844 -0.0719 -0.1032
 4030SOL    HW123552   0.774   3.491  11.569 -0.3882 -1.3311  0.6331
 4030SOL    HW223553   0.860   3.481  11.450  0.9210 -2.1527 -0.2277
 4031SOL     OW23554   3.076   2.576   3.080 -0.0669 -0.1300 -0.3502
 4031SOL    HW123555   3.069   2.517   3.005 -1.6479  1.0735 -1.1539
 4031SOL    HW223556   2.989   2.608   3.102  0.4551  0.5428  0.6952
 4032SOL     OW23557   2.210   4.492   3.346 -0.7498  0.3121 -0.1848
 4032SOL    HW123558   2.305   4.504   3.355 -0.8367  0.3840  0.6587
 4032SOL    HW223559   2.191   4.568   3.292 -1.1082  0.3928  0.0549
 4033SOL     OW23560   1.166   4.489  11.467  0.2221  0.1378  0.0459
 4033SOL    HW123561   1.186   4.483  11.561  0.4921  1.9400  0.1123
 4033SOL    HW223562   1.071   4.494  11.475  0.0923  0.4279 -1.7418
 4034SOL     OW23563   4.696   0.814   3.664 -0.1649  0.3949 -0.0449
 4034SOL    HW123564   4.699   0.831   3.759  0.1563 -2.1166  0.3990
 4034SOL    HW223565   4.604   0.790   3.654 -0.5042  1.2698  0.9884
 4035SOL     OW23566   1.222   1.601   9.326  0.0438 -0.1494  0.2169
 4035SOL    HW123567   1.204   1.617   9.233 -1.4275 -0.1081  0.5214
 4035SOL    HW223568   1.318   1.593   9.324  0.0164  0.1104 -2.3076
 4036SOL     OW23569   0.568   0.680   4.700  0.4818 -0.3427 -0.1075
 4036SOL    HW123570   0.553   0.662   4.607  1.2928 -0.1006 -0.2781
 4036SOL    HW223571   0.492   0.632   4.733 -0.0742  0.5082 -0.1541
 4037SOL     OW23572   2.800   3.045  17.094 -0.2806 -0.0752  0.1646
 4037SOL    HW123573   2.720   3.046  17.147 -1.9767 -3.6739 -2.3326
 4037SOL    HW223574   2.754   3.033  17.011 -1.0268 -1.6868  0.8127
 4038SOL     OW23575   0.303   3.045   6.691 -0.1173  0.1697 -0.0700
 4038SOL    HW123576   0.213   3.035   6.661 -1.2602  2.5449  2.5800
 4038SOL    HW223577   0.284   3.007   6.777 -0.0560 -0.7382 -0.4624
 4039SOL     OW23578   1.501   2.918   9.883  0.5517 -0.3969  0.2530
 4039SOL    HW123579   1.528   2.853   9.949 -1.4349 -0.2793  1.1918
 4039SOL    HW223580   1.583   2.968   9.877  0.8296 -0.7444  1.1516
 4040SOL     OW23581   2.742   2.299  17.472  0.1426 -0.5189  0.1659
 4040SOL    HW123582   2.705   2.362  17.534 -0.9811 -1.1506  0.1347
 4040SOL    HW223583   2.815   2.259  17.519  0.3884 -0.7805 -0.4388
 4041SOL     OW23584   3.920   0.444   2.665  0.2442 -0.5086 -0.0631
 4041SOL    HW123585   3.998   0.481   2.625 -0.1794  0.4415 -0.0102
 4041SOL    HW223586   3.878   0.516   2.712  2.7558 -0.0880  1.5181
 4042SOL     OW23587   2.198   1.203   6.098  0.5718  0.0463  0.3472
 4042SOL    HW123588   2.283   1.244   6.113  0.1258  0.8610  0.5862
 4042SOL    HW223589   2.128   1.267   6.106 -0.8628 -1.3855 -0.6114
 4043SOL     OW23590   1.314   2.727   8.838 -0.1453 -0.1798  0.0478
 4043SOL    HW123591   1.249   2.743   8.907 -2.7181 -2.6306 -1.8381
 4043SOL    HW223592   1.380   2.788   8.873 -1.6946 -0.1636  2.9730
 4044SOL     OW23593   4.532   2.741  15.928 -0.1277 -0.0501 -0.1532
 4044SOL    HW123594   4.450   2.709  15.891  0.2057  0.9131 -1.7498
 4044SOL    HW223595   4.604   2.717  15.870 -0.3254  1.2125 -0.9403
 4045SOL     OW23596   1.804   3.094  11.553  0.7124 -0.2514 -0.2842
 4045SOL    HW123597   1.817   3.059  11.641 -0.0540  1.9192  0.6903
 4045SOL    HW223598   1.807   3.189  11.565 -1.8622 -0.2274  0.2725
 4046SOL     OW23599   4.125   1.463   4.192 -0.3151  0.1921 -0.0329
 4046SOL    HW123600   4.091   1.376   4.169  0.6991 -0.4773  0.9642
 4046SOL    HW223601   4.062   1.529   4.163  0.4793  2.0671  2.5562
 4047SOL     OW23602   1.727   4.106  17.605 -0.1855 -0.6157  0.5896
 4047SOL    HW123603   1.806   4.070  17.645 -1.0873 -0.7055  2.2853
 4047SOL    HW223604   1.668   4.116  17.680 -0.7869 -0.6316  0.1128
 4048SOL     OW23605   4.444   2.164   8.972 -0.0502  0.0933 -0.2639
 4048SOL    HW123606   4.534   2.140   8.994 -0.2855 -1.3521 -0.8513
 4048SOL    HW223607   4.423   2.101   8.904  1.0517  0.4868 -0.9759
 4049SOL     OW23608   2.004   0.038   9.046  0.2347 -0.5373  0.2323
 4049SOL    HW123609   2.049   0.102   8.991  1.5363 -0.5444  1.2886
 4049SOL    HW223610   2.064   4.688   9.045  0.6257 -0.1619 -3.0723
 4050SOL     OW23611   2.194   1.154   2.730 -0.0242 -0.2997  0.5731
 4050SOL    HW123612   2.176   1.233   2.679  0.6784 -0.2664  0.3831
 4050SOL    HW223613   2.163   1.090   2.667  2.8075  0.6872 -1.8078
 4051SOL     OW23614   0.951   1.865   6.878 -0.6861  0.2252 -0.2630
 4051SOL    HW123615   0.947   1.847   6.784 -1.1492  0.5369 -0.3003
 4051SOL    HW223616   0.921   1.954   6.861  0.1621  0.6207  0.2564
 4052SOL     OW23617   2.273   2.650  16.219 -0.3359  0.0448  0.2158
 4052SOL    HW123618   2.227   2.623  16.140  1.8884 -0.4415 -0.9196
 4052SOL    HW223619   2.340   2.700  16.172  1.2801 -0.5848  1.8458
 4053SOL     OW23620   0.926   4.397   1.934  0.3176 -0.1165  0.2412
 4053SOL    HW123621   0.861   4.461   1.904 -1.4587 -1.5442  1.0242
 4053SOL    HW223622   0.924   4.330   1.865  1.7369 -1.1177  1.1607
 4054SOL     OW23623   3.001   3.205  10.202 -0.1043 -0.1808 -0.9454
 4054SOL    HW123624   3.014   3.111  10.215  0.9594  0.2659  1.2368
 4054SOL    HW223625   2.959   3.235  10.283 -2.0249 -1.1199 -1.5879
 4055SOL     OW23626   2.081   4.625   3.541  0.0832 -0.3128  0.2182
 4055SOL    HW123627   2.114   4.576   3.466 -3.0388 -0.9338 -0.7349
 4055SOL    HW223628   2.018   4.565   3.581 -1.5485  0.9466 -0.4507
 4056SOL     OW23629   1.688   2.403  14.799 -0.0661 -0.3252  0.7069
 4056SOL    HW123630   1.595   2.388  14.789 -0.3777  0.2665  2.7906
 4056SOL    HW223631   1.728   2.346  14.733  0.4175 -0.0694  0.7722
 4057SOL     OW23632   2.306   4.005   4.799  0.0405 -0.3856 -0.3575
 4057SOL    HW123633   2.361   3.942   4.846 -1.5758  0.3286  2.4770
 4057SOL    HW223634   2.233   3.949   4.774 -0.2220 -0.1046 -0.2204
 4058SOL     OW23635   2.057   1.560   0.297 -0.6540 -0.2228 -0.2335
 4058SOL    HW123636   1.961   1.558   0.289 -0.7958  1.6810  1.1556
 4058SOL    HW223637   2.070   1.503   0.373 -2.1800  1.0488  0.9842
 4059SOL     OW23638   0.091   2.557   5.158 -0.3281 -0.0581  0.1149
 4059SOL    HW123639   0.126   2.626   5.214 -0.0959  0.2091 -0.3523
 4059SOL    HW223640   0.062   2.617   5.089 -1.2016  0.1353  0.6598
 4060SOL     OW23641   2.982   1.639   8.775  0.4211 -0.3371  0.4431
 4060SOL    HW123642   2.943   1.699   8.710  0.5628 -1.7742 -0.9782
 4060SOL    HW223643   2.933   1.559   8.758  0.4332 -0.1683 -0.3898
 4061SOL     OW23644   0.810   4.009   0.994  0.1376  0.2838 -0.4603
 4061SOL    HW123645   0.834   4.015   1.087 -1.6100 -0.8328  0.0865
 4061SOL    HW223646   0.714   4.000   1.000  0.0176  0.2999 -2.3461
 4062SOL     OW23647   3.343   1.583   8.179  0.2141 -0.5248  0.1286
 4062SOL    HW123648   3.333   1.559   8.271  0.5703  0.4670  0.4271
 4062SOL    HW223649   3.318   1.675   8.168 -0.3360 -0.6016  0.7767
 4063SOL     OW23650   4.221   3.186   6.984  0.8021 -0.0722 -0.4178
 4063SOL    HW123651   4.266   3.189   6.899  0.6559 -1.3826 -0.5449
 4063SOL    HW223652   4.207   3.097   7.017 -2.7851  0.7497  0.2698
 4064SOL     OW23653   0.780   2.384   5.609  0.1728  0.6029 -0.1083
 4064SOL    HW123654   0.860   2.430   5.587  0.7685  0.1082  1.0228
 4064SOL    HW223655   0.723   2.459   5.623 -1.1243 -0.3948 -0.0057
 4065SOL     OW23656   3.552   0.255   4.860  0.5022  0.0327  0.0295
 4065SOL    HW123657   3.549   0.182   4.799  0.3161  0.0502  0.0152
 4065SOL    HW223658   3.567   0.326   4.798  0.5791  0.1163  0.1437
 4066SOL     OW23659   1.881   2.229   8.259 -0.2462 -0.1653  0.9694
 4066SOL    HW123660   1.884   2.155   8.199 -1.1095  1.8129 -1.5274
 4066SOL    HW223661   1.917   2.189   8.338 -0.1537 -0.9982  0.5008
 4067SOL     OW23662   2.173   0.166  17.593  0.0254  0.0748 -0.0847
 4067SOL    HW123663   2.172   0.090  17.534 -0.2859  0.4715 -0.5915
 4067SOL    HW223664   2.236   0.135  17.658 -0.9994  0.1323  0.9282
 4068SOL     OW23665   0.103   2.487   4.479 -0.2668  0.7657  0.0370
 4068SOL    HW123666   0.173   2.431   4.510  0.6821  3.0280  1.9643
 4068SOL    HW223667   0.118   2.566   4.531 -1.3053 -0.2778  1.8961
 4069SOL     OW23668   3.174   2.953  13.184  0.5057  0.0016  0.8678
 4069SOL    HW123669   3.110   2.969  13.253  0.8052  0.6619  0.9850
 4069SOL    HW223670   3.118   2.959  13.106  3.0259  0.7144 -0.9099
 4070SOL     OW23671   0.944   4.332   9.994 -0.1199  0.1211  0.2711
 4070SOL    HW123672   0.956   4.396  10.064 -1.7677  0.5117  0.2054
 4070SOL    HW223673   0.850   4.338   9.978 -0.2091  1.1064  1.1808
 4071SOL     OW23674   0.010   0.652  16.023 -0.0448  0.3987  0.3695
 4071SOL    HW123675   0.017   0.584  16.090 -0.8117 -0.8762 -0.8644
 4071SOL    HW223676   0.028   0.597  15.948  0.8418  2.8023 -1.1776
 4072SOL     OW23677   4.286   4.632   4.330 -0.0274 -0.5929  0.1514
 4072SOL    HW123678   4.228   4.614   4.257 -0.0421 -1.2039  0.3112
 4072SOL    HW223679   4.265   4.718   4.367 -1.8427 -1.2925  0.7345
 4073SOL     OW23680   1.003   2.615   3.547 -0.3025 -0.2678  0.1477
 4073SOL    HW123681   0.976   2.658   3.629  1.9113  2.0054 -0.3053
 4073SOL    HW223682   0.951   2.657   3.478  0.0253 -0.6429 -0.3296
 4074SOL     OW23683   4.235   4.171  13.467  0.1553  0.6748 -0.3449
 4074SOL    HW123684   4.274   4.102  13.521 -0.1748 -1.6820 -3.0730
 4074SOL    HW223685   4.218   4.245  13.524 -0.6214 -0.9745  1.5668
 4075SOL     OW23686   4.416   3.160  13.502  0.0393 -0.1127 -0.3060
 4075SOL    HW123687   4.498   3.190  13.540 -0.5961 -0.5076  1.3918
 4075SOL    HW223688   4.444   3.069  13.489  0.3419 -0.2854  1.5395
 4076SOL     OW23689   1.962   3.869   9.028  0.2947 -0.5239 -0.3773
 4076SOL    HW123690   1.961   3.817   9.108 -2.2151  0.6612  0.3706
 4076SOL    HW223691   1.950   3.813   8.952 -1.4452 -0.1710 -0.3703
 4077SOL     OW23692   2.412   3.741   7.847  0.2819 -0.5019 -0.4624
 4077SOL    HW123693   2.491   3.776   7.807  0.3591 -2.5270 -2.0524
 4077SOL    HW223694   2.356   3.817   7.866  0.0984 -0.4025 -1.3920
 4078SOL     OW23695   2.163   2.867   3.732 -0.1975 -0.3480  0.3953
 4078SOL    HW123696   2.162   2.772   3.717 -2.0507 -0.3266  0.4495
 4078SOL    HW223697   2.258   2.878   3.725 -0.4073  0.8965 -0.5781
 4079SOL     OW23698   2.090   3.354   6.470  0.0844  0.0584 -0.2512
 4079SOL    HW123699   2.105   3.449   6.472 -2.3090  0.4122  1.3357
 4079SOL    HW223700   2.009   3.346   6.521 -0.0108  0.2465 -0.3723
 4080SOL     OW23701   0.776   4.568   4.379  0.4341  0.1002  0.1391
 4080SOL    HW123702   0.725   4.633   4.331  0.4362  2.5255  3.3954
 4080SOL    HW223703   0.705   4.527   4.429 -1.2180  1.1036 -1.3657
 4081SOL     OW23704   4.101   0.161  10.343 -0.5791  0.0097 -0.4530
 4081SOL    HW123705   4.079   0.236  10.398  1.8510  0.2630  0.2141
 4081SOL    HW223706   4.032   0.168  10.278 -0.2823 -0.8208 -0.8642
 4082SOL     OW23707   3.531   2.492   7.070 -0.0800 -0.2678  0.4314
 4082SOL    HW123708   3.535   2.482   7.165 -0.8039 -0.0678  0.4851
 4082SOL    HW223709   3.482   2.572   7.053 -1.5079 -1.0828  0.7142
 4083SOL     OW23710   3.757   3.470  10.762 -0.3576 -0.1634  0.1510
 4083SOL    HW123711   3.761   3.409  10.688  1.2228  1.5159 -1.1398
 4083SOL    HW223712   3.717   3.414  10.828  0.8627 -0.6023  0.5182
 4084SOL     OW23713   3.956   0.529  10.370 -0.5261 -0.4183  0.4896
 4084SOL    HW123714   3.900   0.607  10.374  1.2895  0.8956  0.2722
 4084SOL    HW223715   3.917   0.470  10.434  1.0661 -0.4012  1.4698
 4085SOL     OW23716   0.075   1.732   5.371 -0.2303 -0.6084 -0.2405
 4085SOL    HW123717   0.077   1.689   5.285 -0.9123 -0.4900 -0.3160
 4085SOL    HW223718   0.167   1.751   5.386 -0.8715  0.9070  1.7532
 4086SOL     OW23719   2.024   3.161  12.014  0.1634 -0.3479  0.6435
 4086SOL    HW123720   1.950   3.166  12.074 -0.8680 -0.1177 -0.6461
 4086SOL    HW223721   2.051   3.070  12.029 -1.7700 -1.1553 -0.7647
 4087SOL     OW23722   2.489   1.352   1.274 -0.2182 -0.0527  1.0002
 4087SOL    HW123723   2.401   1.389   1.285  0.3328  1.6378 -0.3116
 4087SOL    HW223724   2.537   1.412   1.217 -0.8838  0.2397  0.7398
 4088SOL     OW23725   0.659   0.962   7.322 -0.6135 -0.2542 -0.1788
 4088SOL    HW123726   0.728   0.986   7.261 -0.9990  2.3859  0.4245
 4088SOL    HW223727   0.636   1.051   7.350 -0.9859 -0.8223  1.3361
 4089SOL     OW23728   0.479   0.112   5.939 -0.1025  0.1556 -0.1059
 4089SOL    HW123729   0.499   0.084   5.850  2.1569 -1.1260  0.7971
 4089SOL    HW223730   0.426   0.041   5.975  1.2127 -0.7460  0.0702
 4090SOL     OW23731   2.674   3.893  13.424 -0.0365  0.2314  0.4283
 4090SOL    HW123732   2.606   3.949  13.386 -0.9604 -0.8075  0.5498
 4090SOL    HW223733   2.746   3.921  13.367 -1.4782 -0.1386 -1.6152
 4091SOL     OW23734   0.484   2.315   4.798  0.3582  0.0591  0.4065
 4091SOL    HW123735   0.436   2.396   4.788  0.1765  0.1609  2.1673
 4091SOL    HW223736   0.548   2.347   4.862 -0.4923 -1.9672  2.2710
 4092SOL     OW23737   1.523   1.306   0.244  0.1611 -0.2008 -0.4564
 4092SOL    HW123738   1.485   1.374   0.189  1.4951 -0.4957 -1.7394
 4092SOL    HW223739   1.616   1.317   0.225  0.5811  0.6690  2.1127
 4093SOL     OW23740   2.662   1.357   8.554  0.4113  0.0512 -0.3862
 4093SOL    HW123741   2.751   1.374   8.521  0.0075 -0.9842 -2.0015
 4093SOL    HW223742   2.637   1.441   8.591  0.5793  0.4024 -1.0660
 4094SOL     OW23743   3.577   1.714  10.124  0.2615  0.3490 -0.0495
 4094SOL    HW123744   3.491   1.679  10.146  1.2425 -2.1426 -0.1057
 4094SOL    HW223745   3.581   1.786  10.187 -2.4813  0.9007 -0.4983
 4095SOL     OW23746   3.599   0.880   6.658 -0.6062  0.1339  0.7517
 4095SOL    HW123747   3.509   0.863   6.631 -0.1204  0.7458 -1.2639
 4095SOL    HW223748   3.601   0.976   6.657 -1.0177  0.1347 -1.9958
 4096SOL     OW23749   2.906   3.231   2.336 -0.1256 -0.2342 -0.2363
 4096SOL    HW123750   2.817   3.231   2.370  0.0925 -1.7148  0.3361
 4096SOL    HW223751   2.939   3.143   2.354  0.3938  0.4247  2.0605
 4097SOL     OW23752   1.742   0.318  12.057 -0.0188 -0.2967 -0.2788
 4097SOL    HW123753   1.753   0.278  12.143  1.5008  3.2476  1.2171
 4097SOL    HW223754   1.689   0.249  12.019 -0.0520 -1.4222  1.8063
 4098SOL     OW23755   2.972   1.024   5.608 -0.1068  0.0583  0.6331
 4098SOL    HW123756   2.934   1.046   5.693 -1.6235  0.4889 -0.1584
 4098SOL    HW223757   2.945   1.103   5.560 -0.1948 -1.2186 -1.3993
 4099SOL     OW23758   3.065   2.847   4.680 -0.8667  0.5829  0.3576
 4099SOL    HW123759   3.102   2.848   4.768  1.8022  1.7101 -0.7423
 4099SOL    HW223760   3.089   2.934   4.647 -0.4225  0.7890  1.2358
 4100SOL     OW23761   0.036   3.638  14.098  0.0747  0.7138 -0.8811
 4100SOL    HW123762   4.670   3.632  14.065 -0.4460 -1.1007  0.8845
 4100SOL    HW223763   0.049   3.729  14.069 -4.7159  2.0460  1.1531
 4101SOL     OW23764   0.873   3.763   5.423  0.4175 -0.1819 -0.2320
 4101SOL    HW123765   0.968   3.758   5.433  0.2896  0.6428  1.3671
 4101SOL    HW223766   0.860   3.669   5.410 -3.0032  0.4752 -1.5709
 4102SOL     OW23767   3.672   1.321   0.170 -0.0923 -0.4279  0.3199
 4102SOL    HW123768   3.712   1.355   0.091 -0.9547 -2.4208 -0.9809
 4102SOL    HW223769   3.598   1.382   0.175 -0.6288 -1.0034 -0.5507
 4103SOL     OW23770   0.828   1.275   5.970 -0.5279 -0.1497 -0.0859
 4103SOL    HW123771   0.788   1.228   5.897  0.4772 -0.3688 -0.4908
 4103SOL    HW223772   0.746   1.290   6.017 -0.6419  1.3008 -0.7578
 4104SOL     OW23773   2.888   3.190   2.743  0.6096 -0.1772  0.3733
 4104SOL    HW123774   2.955   3.168   2.808 -1.1534  0.5335  2.4121
 4104SOL    HW223775   2.949   3.235   2.684 -0.2632  1.0620  0.4276
 4105SOL     OW23776   3.867   0.244   6.516  0.3083 -0.1238  0.2504
 4105SOL    HW123777   3.939   0.198   6.474  0.6285  1.0211 -0.4495
 4105SOL    HW223778   3.828   0.299   6.448 -1.4905  1.3294  2.4370
 4106SOL     OW23779   1.589   3.913  14.041 -0.3669 -0.1683 -0.2574
 4106SOL    HW123780   1.633   3.948  13.963  1.4774  1.2049  1.3994
 4106SOL    HW223781   1.504   3.887  14.006 -0.5280  0.2513 -0.1743
 4107SOL     OW23782   2.016   4.445  15.072 -0.4997  0.1455  0.0086
 4107SOL    HW123783   2.016   4.399  14.988 -0.4331  0.0218  0.0765
 4107SOL    HW223784   1.994   4.383  15.142 -3.1760 -0.5442 -1.4287
 4108SOL     OW23785   0.973   0.369   4.582  0.8834 -0.0812  0.5476
 4108SOL    HW123786   0.992   0.380   4.675 -2.0690 -1.4263  1.3012
 4108SOL    HW223787   0.917   0.447   4.574  2.1759  0.8719  0.7293
 4109SOL     OW23788   3.944   2.703   1.322 -0.4208 -0.3053  0.2019
 4109SOL    HW123789   3.883   2.633   1.298 -0.1845 -0.7692  0.9624
 4109SOL    HW223790   4.008   2.703   1.251 -0.9114 -1.1365 -0.2377
 4110SOL     OW23791   3.103   4.124   9.266  0.3955  0.1508  0.4324
 4110SOL    HW123792   3.067   4.099   9.352 -2.6253 -1.7279 -1.3997
 4110SOL    HW223793   3.060   4.056   9.214 -1.4021  0.7148  1.1760
 4111SOL     OW23794   0.914   4.247  14.774  0.0048  0.1467 -0.1648
 4111SOL    HW123795   0.861   4.273  14.849 -0.2301  1.6511 -0.8442
 4111SOL    HW223796   0.968   4.177  14.811 -0.7619  0.3137  1.2820
 4112SOL     OW23797   0.210   0.496  11.335  0.1962 -0.4977  0.1374
 4112SOL    HW123798   0.150   0.431  11.299  0.5172 -1.6783  1.7550
 4112SOL    HW223799   0.187   0.568  11.276 -1.8622 -1.1698  0.1114
 4113SOL     OW23800   0.353   0.833   8.686  0.2889  0.6446  0.0033
 4113SOL    HW123801   0.325   0.903   8.745  1.7740 -0.7211  2.3086
 4113SOL    HW223802   0.284   0.823   8.621  1.7138  0.1694 -1.4289
 4114SOL     OW23803   1.830   0.392   3.930 -0.4043  0.3135 -0.8097
 4114SOL    HW123804   1.744   0.359   3.902 -0.6513  1.1436 -1.0347
 4114SOL    HW223805   1.853   0.432   3.846  1.3040 -1.0427 -0.9905
 4115SOL     OW23806   3.749   0.366   7.912  0.1413 -0.1998  0.2987
 4115SOL    HW123807   3.748   0.335   8.003  0.1265  2.2058  1.1163
 4115SOL    HW223808   3.733   0.284   7.865 -2.2949  0.7153 -0.5069
 4116SOL     OW23809   3.205   3.463   6.851  0.4827  0.2962  0.6475
 4116SOL    HW123810   3.171   3.466   6.762  2.9376  3.2244 -0.1550
 4116SOL    HW223811   3.273   3.526   6.830 -1.5021  2.0897 -0.4316
 4117SOL     OW23812   1.405   2.232   6.930  0.3916  0.1472  0.2311
 4117SOL    HW123813   1.432   2.299   6.867 -0.6232  1.1605  0.8617
 4117SOL    HW223814   1.326   2.277   6.959  0.8840  0.9963  0.2713
 4118SOL     OW23815   4.427   0.290   8.658 -0.2443  0.1595 -0.0754
 4118SOL    HW123816   4.453   0.200   8.636  0.1511  0.3923 -0.5437
 4118SOL    HW223817   4.441   0.343   8.580 -2.2047  0.0591 -0.4971
 4119SOL     OW23818   0.401   3.516  10.810 -0.1531  0.2631 -0.0898
 4119SOL    HW123819   0.318   3.472  10.788  0.5504 -0.9937 -0.2333
 4119SOL    HW223820   0.369   3.601  10.840 -0.6048 -0.5421  1.6697
 4120SOL     OW23821   3.806   0.787  10.348 -0.0015 -0.0020 -0.0401
 4120SOL    HW123822   3.824   0.881  10.346 -0.8021  0.0857 -3.0912
 4120SOL    HW223823   3.773   0.783  10.438 -2.7547  1.0587 -0.9981
 4121SOL     OW23824   4.172   4.137   5.067 -0.0357  0.1632 -0.0500
 4121SOL    HW123825   4.177   4.056   5.118  0.8045 -0.2546 -0.8157
 4121SOL    HW223826   4.247   4.173   5.114 -0.7770  1.5029  0.0985
 4122SOL     OW23827   1.397   4.538  12.498 -0.3870 -0.3754  0.5406
 4122SOL    HW123828   1.456   4.528  12.423 -1.6038  0.3591 -0.5112
 4122SOL    HW223829   1.451   4.588  12.559 -1.6982  0.3007  1.1493
 4123SOL     OW23830   4.586   2.549   1.743  0.4073  0.0085  0.0758
 4123SOL    HW123831   4.616   2.634   1.710 -1.5983  0.2662 -1.1134
 4123SOL    HW223832   4.625   2.485   1.685 -0.9772  1.2938 -2.2872
 4124SOL     OW23833   3.420   1.179   1.769 -0.2890  0.5225 -0.5015
 4124SOL    HW123834   3.368   1.121   1.824 -1.2499  0.2216 -1.7435
 4124SOL    HW223835   3.362   1.213   1.700 -0.5602 -0.8425 -0.9460
 4125SOL     OW23836   0.239   4.442   8.579  0.2455 -0.1722 -0.0320
 4125SOL    HW123837   0.180   4.368   8.593 -0.5884  0.6539  0.7468
 4125SOL    HW223838   0.321   4.398   8.556  1.5810  2.5030 -0.4058
 4126SOL     OW23839   1.162   2.580  11.529 -0.5419 -0.5942 -0.2430
 4126SOL    HW123840   1.081   2.579  11.580 -2.1965  0.3710 -2.8836
 4126SOL    HW223841   1.163   2.499  11.478 -0.0335 -0.4461 -0.4796
 4127SOL     OW23842   0.401   0.481   6.921 -0.0363  0.3846 -0.1165
 4127SOL    HW123843   0.354   0.466   6.839 -2.3338  0.0022  1.2720
 4127SOL    HW223844   0.401   0.577   6.925 -1.3241  0.3242  1.2349
 4128SOL     OW23845   1.722   2.997   0.301  0.0583  0.1345  0.1902
 4128SOL    HW123846   1.786   3.064   0.326 -0.3633 -0.3683  2.6430
 4128SOL    HW223847   1.726   3.000   0.206 -0.6712 -1.7302  0.1067
 4129SOL     OW23848   4.577   1.372  17.468 -0.9076 -0.5265 -0.4633
 4129SOL    HW123849   4.664   1.376  17.429 -0.3868  1.2712  0.9006
 4129SOL    HW223850   4.575   1.454  17.516  1.4134 -0.3887 -0.6062
 4130SOL     OW23851   0.797   0.530   6.638 -0.4294 -0.1816 -0.1937
 4130SOL    HW123852   0.714   0.486   6.659  0.5765 -3.0751 -2.2557
 4130SOL    HW223853   0.812   0.566   6.725 -1.1090 -0.3699  0.0004
 4131SOL     OW23854   2.323   4.085   5.848 -0.4403 -0.3899 -0.3448
 4131SOL    HW123855   2.291   4.058   5.934 -2.0165 -0.8126 -1.0758
 4131SOL    HW223856   2.410   4.095   5.888 -1.3713  0.2939  1.4814
 4132SOL     OW23857   0.374   0.041   0.484 -0.0544 -0.1803 -0.2489
 4132SOL    HW123858   0.342   0.050   0.573 -0.8363 -2.2094 -0.3082
 4132SOL    HW223859   0.435   4.692   0.484 -1.3661 -1.2755  2.4078
 4133SOL     OW23860   2.563   1.757  14.737  0.1475 -0.0656 -0.1108
 4133SOL    HW123861   2.632   1.691  14.732  1.6758  1.5352 -0.2818
 4133SOL    HW223862   2.499   1.717  14.678  0.7380  0.7998 -1.3378
 4134SOL     OW23863   0.528   3.016   4.270 -0.3663  0.0072  0.1106
 4134SOL    HW123864   0.446   3.002   4.223  0.9797  0.3721 -2.3605
 4134SOL    HW223865   0.573   2.932   4.262 -2.8151 -1.3595  0.8635
 4135SOL     OW23866   0.691   1.333   3.868 -0.8196 -0.2454 -0.0238
 4135SOL    HW123867   0.668   1.264   3.806  1.6029  0.1296 -1.3148
 4135SOL    HW223868   0.616   1.334   3.929 -1.3747 -3.2032 -0.6358
 4136SOL     OW23869   3.435   4.496   9.574  1.1759  0.3998  0.5397
 4136SOL    HW123870   3.523   4.513   9.607  0.4718  1.2260  2.0340
 4136SOL    HW223871   3.392   4.441   9.639 -1.8967 -0.4465 -2.2191
 4137SOL     OW23872   2.712   4.497   4.610  0.3631 -0.7553  0.1544
 4137SOL    HW123873   2.761   4.571   4.646 -1.8558 -0.1805  2.0123
 4137SOL    HW223874   2.714   4.436   4.684 -1.9352 -0.2344  0.6406
 4138SOL     OW23875   0.296   3.777   7.985 -0.3678 -0.2473  0.9149
 4138SOL    HW123876   0.314   3.683   7.987 -2.5821 -0.7361 -1.1720
 4138SOL    HW223877   0.261   3.789   7.896  0.4761 -1.1192  0.4683
 4139SOL     OW23878   3.358   0.699   6.309  0.0929 -0.5314  0.0885
 4139SOL    HW123879   3.330   0.763   6.243  1.1400 -0.7462 -0.5588
 4139SOL    HW223880   3.314   0.621   6.276  0.4433 -1.4714  1.8534
 4140SOL     OW23881   3.807   2.634  12.112 -0.1963  0.1120  1.3792
 4140SOL    HW123882   3.865   2.560  12.093 -1.4054 -0.4638 -0.0589
 4140SOL    HW223883   3.723   2.590  12.127  0.5877 -1.8545  0.0032
 4141SOL     OW23884   4.592   0.927  11.192 -0.0801 -0.4216  0.5158
 4141SOL    HW123885   4.666   0.917  11.133 -2.5734  2.0792 -3.0584
 4141SOL    HW223886   4.543   0.855  11.152 -1.2115  1.4785 -1.5323
 4142SOL     OW23887   3.921   2.065   7.372 -0.1599  0.7495  0.5419
 4142SOL    HW123888   3.952   2.153   7.395  0.1788  0.9371 -0.6358
 4142SOL    HW223889   3.828   2.051   7.388 -0.1388 -1.7120 -1.6248
 4143SOL     OW23890   0.232   3.480   9.141  0.0075  0.4006 -0.0986
 4143SOL    HW123891   0.197   3.451   9.226  0.8745  1.7959  0.7284
 4143SOL    HW223892   0.307   3.524   9.180  0.6036 -0.2572 -0.5122
 4144SOL     OW23893   1.028   0.449   8.745  0.5709 -0.1608  0.5826
 4144SOL    HW123894   0.962   0.516   8.732  0.8798  0.2194  0.9679
 4144SOL    HW223895   1.067   0.466   8.831 -0.7685  0.8495  0.9750
 4145SOL     OW23896   2.488   3.636   4.275 -0.5249 -0.7790 -1.1971
 4145SOL    HW123897   2.418   3.636   4.340 -0.5821  1.8589 -1.2669
 4145SOL    HW223898   2.468   3.550   4.238 -0.6896 -0.9067 -0.8134
 4146SOL     OW23899   3.395   1.505  17.627 -0.1201 -0.8362 -0.5231
 4146SOL    HW123900   3.483   1.481  17.598  0.6181  2.1341 -0.6683
 4146SOL    HW223901   3.410   1.505   0.024 -0.2784 -1.5679 -0.4920
 4147SOL     OW23902   0.834   3.952   3.284 -0.3196  0.3081  0.4211
 4147SOL    HW123903   0.840   3.938   3.378  1.7631 -0.3314  0.1824
 4147SOL    HW223904   0.806   3.867   3.250  0.2308  0.2889  0.0222
 4148SOL     OW23905   2.879   2.891  11.702 -0.4993 -0.3005  0.0233
 4148SOL    HW123906   2.788   2.901  11.728 -1.1129 -0.0905 -2.2179
 4148SOL    HW223907   2.878   2.916  11.609 -1.1397  2.9584  0.8751
 4149SOL     OW23908   4.355   2.049   6.012 -0.2851  0.6056 -0.1845
 4149SOL    HW123909   4.446   2.078   5.998  0.2704 -1.5536 -1.0199
 4149SOL    HW223910   4.370   1.966   6.056 -1.4873  0.9236  0.8051
 4150SOL     OW23911   3.845   4.183  16.881 -0.3450  0.0394 -0.5729
 4150SOL    HW123912   3.870   4.188  16.789  2.0954 -3.1914 -0.0839
 4150SOL    HW223913   3.825   4.094  16.908  0.3917 -0.1297 -0.5982
 4151SOL     OW23914   0.610   0.924  11.710 -0.2291 -0.3059 -0.1745
 4151SOL    HW123915   0.534   0.943  11.655  0.8934  2.0387 -0.9344
 4151SOL    HW223916   0.633   1.013  11.737 -2.4153  0.5208 -1.0429
 4152SOL     OW23917   1.749   0.890   0.703  0.1012 -0.0246 -0.6599
 4152SOL    HW123918   1.727   0.924   0.790  0.0408  2.0089 -1.4744
 4152SOL    HW223919   1.728   0.976   0.667 -0.5082  0.9954  2.1828
 4153SOL     OW23920   3.680   3.346  14.843 -0.3795  0.5945  0.3576
 4153SOL    HW123921   3.748   3.330  14.908 -2.2367 -0.9347  1.9444
 4153SOL    HW223922   3.728   3.339  14.761  0.0865  0.1618  0.6617
 4154SOL     OW23923   0.904   1.805   3.596 -0.4655  0.6051 -0.6669
 4154SOL    HW123924   0.921   1.815   3.502 -2.0763 -0.1989 -1.0547
 4154SOL    HW223925   0.898   1.899   3.612  2.8922  0.3649  1.9365
 4155SOL     OW23926   0.620   0.811  15.952 -0.0094 -0.2214 -0.3417
 4155SOL    HW123927   0.600   0.757  16.028 -2.3476  1.7384  0.4191
 4155SOL    HW223928   0.632   0.755  15.875 -0.1630 -1.3442  0.4616
 4156SOL     OW23929   1.344   0.266   2.743  0.2718  1.1483  0.1267
 4156SOL    HW123930   1.286   0.287   2.670 -0.4582 -1.5849 -0.1073
 4156SOL    HW223931   1.418   0.237   2.689  0.4615  1.2476  0.3345
 4157SOL     OW23932   2.797   4.390  12.014  0.3196  0.5769  0.2515
 4157SOL    HW123933   2.839   4.440  11.943 -0.1035  0.4907 -0.0609
 4157SOL    HW223934   2.724   4.451  12.022 -1.2759 -1.3470  0.3482
 4158SOL     OW23935   2.257   1.389  14.581  0.4138  0.0617 -0.0218
 4158SOL    HW123936   2.265   1.325  14.510  0.6685 -0.7199  0.7187
 4158SOL    HW223937   2.288   1.341  14.657  2.3264  0.6242 -0.4417
 4159SOL     OW23938   4.223   3.890   7.310 -0.5044  1.3440  0.4387
 4159SOL    HW123939   4.237   3.825   7.379 -1.2303  2.0890  1.2869
 4159SOL    HW223940   4.130   3.909   7.320 -1.3012 -0.8845 -2.7911
 4160SOL     OW23941   1.793   3.865   6.400  0.1860  0.3766 -0.0581
 4160SOL    HW123942   1.701   3.866   6.375  0.4663  1.3129 -1.0790
 4160SOL    HW223943   1.803   3.959   6.417 -1.1425  0.6211 -0.6433
 4161SOL     OW23944   4.609   1.458   8.251 -0.1221  0.7646 -0.1223
 4161SOL    HW123945   4.698   1.452   8.217  0.4755  0.6130  1.4936
 4161SOL    HW223946   4.565   1.465   8.166 -0.3743  0.8363  0.0146
 4162SOL     OW23947   3.389   2.843   7.919  0.2138  0.1327  0.4531
 4162SOL    HW123948   3.353   2.803   7.840  0.0819  2.0010 -0.4233
 4162SOL    HW223949   3.392   2.937   7.905  1.4306 -0.1194 -0.9804
 4163SOL     OW23950   0.401   3.824   6.847  0.3553  0.3378  0.2156
 4163SOL    HW123951   0.463   3.862   6.909  1.8427 -0.1617 -0.9799
 4163SOL    HW223952   0.368   3.899   6.796  1.8138  1.4124  0.8430
 4164SOL     OW23953   1.532   0.861   8.036  0.1025  0.2769  0.4545
 4164SOL    HW123954   1.614   0.905   8.017  0.3995 -1.8859 -3.1357
 4164SOL    HW223955   1.521   0.829   7.947 -0.2989  1.3480  0.1134
 4165SOL     OW23956   4.488   0.237   0.715 -0.0539  0.2710  0.0920
 4165SOL    HW123957   4.450   0.209   0.797  1.4383 -0.4862  0.5185
 4165SOL    HW223958   4.556   0.293   0.754  1.1833 -0.9069 -0.3653
 4166SOL     OW23959   1.744   2.167   8.773  0.1023 -0.3370 -0.0634
 4166SOL    HW123960   1.778   2.078   8.767  0.7329 -0.0294 -0.9433
 4166SOL    HW223961   1.716   2.169   8.865 -1.0884  0.2908 -0.4452
 4167SOL     OW23962   3.241   2.261   8.222 -0.1988  0.1546 -0.0206
 4167SOL    HW123963   3.263   2.271   8.130  1.9590  1.6451  0.6443
 4167SOL    HW223964   3.199   2.347   8.232  1.7118  1.0900 -0.0161
 4168SOL     OW23965   0.603   4.232   5.073 -0.3163  0.4574 -0.1494
 4168SOL    HW123966   0.617   4.289   5.149  0.9866  0.1703 -0.1760
 4168SOL    HW223967   0.692   4.210   5.048 -1.2063 -3.0106 -0.2172
 4169SOL     OW23968   4.350   1.171   2.431 -0.1280  0.5195 -0.1076
 4169SOL    HW123969   4.323   1.133   2.514 -2.5614 -0.8055 -1.5089
 4169SOL    HW223970   4.440   1.140   2.420 -0.4383  1.0541 -4.4453
 4170SOL     OW23971   1.637   1.200   3.062 -0.5110  0.2283  0.1880
 4170SOL    HW123972   1.559   1.203   3.118  0.5813 -0.8157  1.7536
 4170SOL    HW223973   1.645   1.104   3.057  0.2849  0.4246 -2.3414
 4171SOL     OW23974   2.768   4.303   0.357  0.8964  0.1876 -0.4902
 4171SOL    HW123975   2.723   4.336   0.279  1.3796 -1.1279 -1.3221
 4171SOL    HW223976   2.766   4.209   0.340 -2.1523  0.1698 -0.0571
 4172SOL     OW23977   4.576   4.476   4.207  0.1975  0.4618 -0.3545
 4172SOL    HW123978   4.489   4.496   4.240 -0.0607  0.9338 -1.3198
 4172SOL    HW223979   4.614   4.451   4.291 -0.7545  1.2659  0.3077
 4173SOL     OW23980   2.121   2.181  10.868  0.0762  0.1086 -0.4481
 4173SOL    HW123981   2.211   2.204  10.847 -0.1365  1.9508  0.6488
 4173SOL    HW223982   2.086   2.268  10.888 -0.5891 -0.0843 -0.7667
 4174SOL     OW23983   4.010   2.339   5.187  0.7921 -0.2757 -0.6568
 4174SOL    HW123984   4.095   2.325   5.145  0.0297 -1.7678 -1.7354
 4174SOL    HW223985   4.041   2.396   5.257 -1.3820  0.6704 -0.4734
 4175SOL     OW23986   1.079   0.286  10.061  0.7938 -0.1233 -0.3101
 4175SOL    HW123987   1.095   0.375  10.031 -0.2801 -1.1266 -3.7738
 4175SOL    HW223988   1.083   0.242   9.976  1.8132 -1.8425  0.5989
 4176SOL     OW23989   1.631   4.467   7.844 -0.0430 -0.3255 -0.6509
 4176SOL    HW123990   1.604   4.386   7.801  0.2099 -1.1081  0.6532
 4176SOL    HW223991   1.571   4.452   7.917  1.4561 -1.0411  0.4365
 4177SOL     OW23992   4.704   0.687  14.338 -0.4244  0.1139 -0.2799
 4177SOL    HW123993   4.707   0.676  14.243 -2.0370 -1.4941 -0.1460
 4177SOL    HW223994   0.021   0.773  14.343  0.1803 -0.2746  1.3826
 4178SOL     OW23995   4.630   3.456  12.407 -0.3971 -0.2653  0.6715
 4178SOL    HW123996   4.593   3.372  12.380 -0.5910 -0.5380  1.8131
 4178SOL    HW223997   4.696   3.474  12.340  1.5827 -2.1237  2.1068
 4179SOL     OW23998   3.341   0.371   3.467 -0.4055  0.1605  0.4522
 4179SOL    HW123999   3.341   0.360   3.372  0.6736 -0.2313  0.4956
 4179SOL    HW224000   3.420   0.424   3.477 -1.5034  2.2682 -2.4910
 4180SOL     OW24001   1.322   4.705  12.820 -0.1998  1.1065  0.1189
 4180SOL    HW124002   1.296   0.072  12.808  1.8453  1.7983  1.0559
 4180SOL    HW224003   1.400   4.698  12.766 -1.1390 -2.1840 -0.8119
 4181SOL     OW24004   0.481   1.029   5.196 -0.1896 -0.0250  0.0348
 4181SOL    HW124005   0.434   0.999   5.274  1.3583  1.2733  1.4671
 4181SOL    HW224006   0.455   0.966   5.129 -0.8467  0.1488  0.1298
 4182SOL     OW24007   2.052   0.775   0.252 -0.8840  0.0677  0.8631
 4182SOL    HW124008   2.084   0.686   0.235 -0.8777  0.1015  0.7004
 4182SOL    HW224009   1.986   0.761   0.320 -1.4942 -0.8299  0.0839
 4183SOL     OW24010   0.633   0.992  11.300 -0.1585  0.5925 -0.3341
 4183SOL    HW124011   0.568   1.033  11.357  1.1883 -0.8814  2.2794
 4183SOL    HW224012   0.632   0.900  11.329  1.9168  0.3235 -1.0806
 4184SOL     OW24013   1.927   2.503   4.759 -0.4703  0.2164  0.3566
 4184SOL    HW124014   2.010   2.511   4.805 -1.3093  1.7097  1.6069
 4184SOL    HW224015   1.897   2.593   4.768 -2.1725 -0.6452  3.0555
 4185SOL     OW24016   2.951   1.174   7.712 -0.3284  0.2947  0.8693
 4185SOL    HW124017   2.892   1.119   7.763  0.7448 -0.9548  0.7789
 4185SOL    HW224018   2.971   1.249   7.768 -2.6716  0.8010  1.0049
 4186SOL     OW24019   4.493   1.089  17.568 -0.3772  0.1218  0.3545
 4186SOL    HW124020   4.499   1.090  17.664  1.8635  1.8401  0.1855
 4186SOL    HW224021   4.557   1.154  17.539  0.3482 -1.5926 -1.8323
 4187SOL     OW24022   3.359   2.560   5.350 -0.6187  0.4798 -0.8953
 4187SOL    HW124023   3.363   2.493   5.419  0.6829  0.6671 -0.7860
 4187SOL    HW224024   3.282   2.614   5.365  0.8388  2.4051 -0.3703
 4188SOL     OW24025   0.536   0.680  14.070  0.4806  0.2382 -0.0324
 4188SOL    HW124026   0.531   0.728  14.153  1.1710 -0.2881  0.3146
 4188SOL    HW224027   0.609   0.618  14.075 -0.5237 -0.7862  1.9771
 4189SOL     OW24028   2.375   0.583   6.876  0.0272  0.5571  0.5290
 4189SOL    HW124029   2.354   0.598   6.969  0.8067  1.2440  0.5970
 4189SOL    HW224030   2.444   0.646   6.856  0.8977 -0.2835  0.8758
 4190SOL     OW24031   3.102   3.183   5.582 -0.2604  0.0863  0.0632
 4190SOL    HW124032   3.154   3.125   5.527  0.4367 -0.0922  0.9123
 4190SOL    HW224033   3.099   3.149   5.671 -0.9301  2.0083  0.7961
 4191SOL     OW24034   1.342   2.607   9.834 -0.3061 -0.0381  0.2856
 4191SOL    HW124035   1.369   2.696   9.813 -2.0263 -0.2931 -3.0030
 4191SOL    HW224036   1.418   2.550   9.823 -1.4264 -1.2536 -1.1630
 4192SOL     OW24037   3.534   0.672   5.325  0.0074 -0.1539  0.5946
 4192SOL    HW124038   3.579   0.675   5.409  1.7604 -0.3754 -0.3356
 4192SOL    HW224039   3.559   0.581   5.305 -1.3694 -0.5035  0.4948
 4193SOL     OW24040   3.977   1.788   6.381 -0.0148  0.1723 -0.1573
 4193SOL    HW124041   3.941   1.807   6.467  1.5404  0.3420  0.4393
 4193SOL    HW224042   3.897   1.781   6.329  0.1386  1.6935 -0.6041
 4194SOL     OW24043   1.795   1.882   6.796 -0.0600  0.4320  0.1558
 4194SOL    HW124044   1.708   1.845   6.810 -1.1922  2.8395 -0.3592
 4194SOL    HW224045   1.785   1.933   6.715 -1.1273 -1.1544 -0.7130
 4195SOL     OW24046   2.633   3.035   3.191  0.1933  0.4483 -0.7072
 4195SOL    HW124047   2.551   3.023   3.143 -0.7751 -1.4027  1.3935
 4195SOL    HW224048   2.628   2.992   3.277 -1.3191  2.7255  0.3268
 4196SOL     OW24049   3.100   0.254   2.604  0.4677 -0.1203 -0.5640
 4196SOL    HW124050   3.048   0.304   2.540 -0.9127 -0.4714  0.3050
 4196SOL    HW224051   3.071   0.296   2.685 -0.5611 -1.8496 -0.0479
 4197SOL     OW24052   4.140   0.965   0.372  0.4024 -0.0707 -0.2007
 4197SOL    HW124053   4.090   0.975   0.292 -0.1274  2.6312  0.4768
 4197SOL    HW224054   4.143   1.049   0.418  0.9212 -0.7402  0.9943
 4198SOL     OW24055   3.565   2.723  13.843  0.5612  0.1055  0.1144
 4198SOL    HW124056   3.524   2.686  13.764  1.2737 -1.5791  0.5385
 4198SOL    HW224057   3.601   2.806  13.811  2.2739 -0.2895  0.9958
 4199SOL     OW24058   2.321   1.135   5.852 -0.0578 -0.4936 -0.6444
 4199SOL    HW124059   2.297   1.217   5.809 -0.0669 -0.6994 -1.0324
 4199SOL    HW224060   2.248   1.124   5.914  0.7228 -0.5475  0.2576
 4200SOL     OW24061   0.671   1.434   9.186 -0.2436  1.0878  0.2942
 4200SOL    HW124062   0.684   1.343   9.212  0.7267  1.3747  0.7928
 4200SOL    HW224063   0.727   1.475   9.251  0.1386  0.5208  0.3222
 4201SOL     OW24064   0.267   2.501   1.284  0.1954 -0.3318  0.2407
 4201SOL    HW124065   0.357   2.514   1.316  0.3102 -1.2471  0.2721
 4201SOL    HW224066   0.272   2.449   1.204 -0.5950 -0.1480  0.0714
 4202SOL     OW24067   2.065   1.210  14.884 -0.8450 -0.5413  0.2677
 4202SOL    HW124068   2.132   1.218  14.952 -1.4273  1.8458  0.5691
 4202SOL    HW224069   1.984   1.192  14.931 -2.1707  0.1527 -1.7920
 4203SOL     OW24070   4.164   2.929   0.629 -0.0307  0.4756 -0.6456
 4203SOL    HW124071   4.242   2.968   0.668 -0.3066 -2.8590  3.2816
 4203SOL    HW224072   4.182   2.932   0.535  3.4764  0.1306  0.0059
 4204SOL     OW24073   0.466   2.884  14.258 -0.1305  0.2940 -0.1489
 4204SOL    HW124074   0.424   2.871  14.173 -0.0268 -3.4666  0.4030
 4204SOL    HW224075   0.410   2.957  14.285 -0.9924 -0.1115 -0.8367
 4205SOL     OW24076   1.484   3.254   3.369  0.0304 -0.0025 -0.2570
 4205SOL    HW124077   1.541   3.321   3.405 -0.6464  0.1505  0.5379
 4205SOL    HW224078   1.439   3.213   3.443  1.0948  1.0211  0.9468
 4206SOL     OW24079   3.578   4.453   7.601  0.2873 -0.3460  0.0145
 4206SOL    HW124080   3.622   4.498   7.529 -1.8485  0.4019 -0.8416
 4206SOL    HW224081   3.642   4.452   7.671 -1.0786 -0.3793  1.2648
 4207SOL     OW24082   4.642   1.976   5.152 -0.4592  0.2784  0.0501
 4207SOL    HW124083   4.662   2.066   5.177  0.8685  0.1099 -0.4143
 4207SOL    HW224084   4.584   1.951   5.224 -0.8566 -0.4554 -0.5223
 4208SOL     OW24085   1.554   0.972   8.970  0.5007 -0.5952 -0.3249
 4208SOL    HW124086   1.571   0.878   8.968  1.2025 -0.5139  1.8878
 4208SOL    HW224087   1.537   0.974   9.064 -0.2957  1.5969 -0.5192
 4209SOL     OW24088   1.027   3.221   5.799 -0.2022  0.2447  0.4105
 4209SOL    HW124089   1.105   3.266   5.765 -0.3937  0.7599  0.6494
 4209SOL    HW224090   1.064   3.134   5.813  1.1471  0.8603  0.7072
 4210SOL     OW24091   0.604   4.053   8.641 -0.1329  0.1656 -0.4602
 4210SOL    HW124092   0.602   3.958   8.627 -2.6298  0.1454  0.1666
 4210SOL    HW224093   0.513   4.069   8.666  0.1614 -2.2671  2.1944
 4211SOL     OW24094   0.563   3.919   7.097 -0.2930 -0.3353 -0.4127
 4211SOL    HW124095   0.592   4.010   7.103  0.0366 -0.4106 -0.9075
 4211SOL    HW224096   0.638   3.884   7.049 -0.4532 -0.5854 -0.4825
 4212SOL     OW24097   1.342   1.225   5.080  0.3275  0.3451  0.2333
 4212SOL    HW124098   1.436   1.225   5.065  0.3043  0.5838  0.0949
 4212SOL    HW224099   1.303   1.246   4.995  1.8298  1.9195 -0.0633
 4213SOL     OW24100   3.660   3.823   5.531  0.6542  0.4059  0.0477
 4213SOL    HW124101   3.589   3.824   5.595 -1.7447  0.5491 -2.6376
 4213SOL    HW224102   3.742   3.818   5.580  0.9512 -0.0627 -0.4995
 4214SOL     OW24103   3.766   1.191   2.246 -0.3182 -0.5750  0.1345
 4214SOL    HW124104   3.745   1.273   2.291  1.4203  0.2499 -0.5419
 4214SOL    HW224105   3.685   1.159   2.207 -0.0996 -2.0907  0.9523
 4215SOL     OW24106   1.460   4.580   9.447 -0.7773  0.4841 -0.3845
 4215SOL    HW124107   1.540   4.528   9.439 -0.7933  0.1626  1.5400
 4215SOL    HW224108   1.407   4.525   9.389 -1.9100  1.5875 -0.3919
 4216SOL     OW24109   3.174   4.626   0.791 -0.0175 -0.1205 -0.4358
 4216SOL    HW124110   3.152   4.551   0.846  0.2549  0.5932  0.6360
 4216SOL    HW224111   3.220   4.674   0.859  0.4598 -1.0262 -0.1173
 4217SOL     OW24112   2.042   2.009  11.069 -0.5229 -0.1762  0.1060
 4217SOL    HW124113   1.960   1.978  11.030  0.7385 -1.8590 -1.2289
 4217SOL    HW224114   2.088   2.047  10.995  0.6876  0.4170  1.1737
 4218SOL     OW24115   2.938   1.141   7.016  0.3731 -0.1391 -0.3096
 4218SOL    HW124116   2.938   1.076   6.947  0.4688 -0.6765  0.1975
 4218SOL    HW224117   3.028   1.154   7.044 -0.0816  2.3240  0.0541
 4219SOL     OW24118   1.111   0.392   4.265 -0.8100 -0.4580 -0.0314
 4219SOL    HW124119   1.050   0.465   4.262  1.6920  1.4670 -4.0560
 4219SOL    HW224120   1.049   0.324   4.238  1.7052 -1.8677 -2.2587
 4220SOL     OW24121   3.586   2.569   6.224 -0.6300  0.9931  0.6283
 4220SOL    HW124122   3.678   2.552   6.248  0.1384 -1.1637 -3.7636
 4220SOL    HW224123   3.555   2.479   6.238  0.1124  0.6927  0.3592
 4221SOL     OW24124   0.768   4.197   5.454  0.0365  0.1014  0.4744
 4221SOL    HW124125   0.848   4.168   5.498 -0.6476  0.9674  2.3234
 4221SOL    HW224126   0.785   4.164   5.366 -1.8337  0.7438 -0.1356
 4222SOL     OW24127   1.071   4.182  14.492  0.1641 -0.6982  0.1881
 4222SOL    HW124128   1.149   4.173  14.546  0.3252 -1.7040 -0.2281
 4222SOL    HW224129   1.016   4.249  14.534  1.5019  0.0581  0.7096
 4223SOL     OW24130   0.700   4.678   5.339 -0.0465 -0.4760  0.0452
 4223SOL    HW124131   0.745   4.686   5.423 -2.0386  0.1741  1.0520
 4223SOL    HW224132   0.704   0.045   5.313  0.5573  0.3668  3.1287
 4224SOL     OW24133   0.521   0.577   2.898  0.5041 -0.3281  0.0043
 4224SOL    HW124134   0.464   0.566   2.974  0.6034 -0.7169  0.0223
 4224SOL    HW224135   0.604   0.549   2.936 -0.3387 -1.4444  0.9864
 4225SOL     OW24136   4.684   4.464   5.876 -0.2710  0.0953 -0.9011
 4225SOL    HW124137   4.589   4.472   5.871 -0.3329  0.4157  0.6894
 4225SOL    HW224138   4.698   4.433   5.966 -2.2445 -1.1308 -1.0083
 4226SOL     OW24139   4.181   0.485   4.935 -0.3767  0.0728 -0.0262
 4226SOL    HW124140   4.163   0.404   4.889 -0.7163 -0.6990  1.4677
 4226SOL    HW224141   4.093   0.520   4.942 -0.4112  0.3694 -1.8832
 4227SOL     OW24142   4.714   2.077  11.720 -0.7770  0.4577 -0.2260
 4227SOL    HW124143   4.639   2.112  11.671 -2.1413  0.1410  1.5972
 4227SOL    HW224144   4.705   2.139  11.792  1.9068  0.5317  0.0093
 4228SOL     OW24145   2.061   1.707   7.868  0.0842  0.1956 -0.5515
 4228SOL    HW124146   2.089   1.620   7.895 -1.2896  0.3885  1.4954
 4228SOL    HW224147   2.148   1.745   7.853  1.9582 -3.8961 -0.0593
 4229SOL     OW24148   4.475   0.659   3.372 -0.2196 -0.5431  0.3276
 4229SOL    HW124149   4.485   0.659   3.467  0.0923 -2.9775  0.2946
 4229SOL    HW224150   4.565   0.664   3.340 -0.9809  2.9999 -1.2317
 4230SOL     OW24151   3.087   2.064  14.599 -0.3049  0.0997 -0.0776
 4230SOL    HW124152   3.089   1.976  14.562  2.9885 -1.3130  3.4052
 4230SOL    HW224153   3.040   2.051  14.681 -1.3394  1.4404 -0.4421
 4231SOL     OW24154   2.786   2.140  15.823  0.3015 -0.0207  0.5203
 4231SOL    HW124155   2.699   2.179  15.809  0.8862  1.1346  0.1806
 4231SOL    HW224156   2.759   2.050  15.803  0.2485 -0.0116  0.5507
 4232SOL     OW24157   2.669   2.617   5.676 -0.1153 -1.3105 -0.0830
 4232SOL    HW124158   2.641   2.665   5.755  2.8006 -0.5177  0.4552
 4232SOL    HW224159   2.606   2.545   5.680 -2.7963  1.0332 -0.0649
 4233SOL     OW24160   2.461   2.273   6.426  0.5501 -0.2671  0.1100
 4233SOL    HW124161   2.500   2.190   6.397 -0.2355 -0.7713  0.5164
 4233SOL    HW224162   2.369   2.249   6.426  0.7267 -0.9831 -2.2396
 4234SOL     OW24163   3.923   4.034  15.604  0.5324  0.3660 -0.1862
 4234SOL    HW124164   3.836   4.033  15.645  0.5155  2.9148 -0.1481
 4234SOL    HW224165   3.896   3.969  15.539  2.1170 -1.5077  1.0489
 4235SOL     OW24166   1.063   1.063   3.001  0.2444  0.4012  0.6777
 4235SOL    HW124167   1.079   1.011   2.922  3.5493  0.7551  1.1016
 4235SOL    HW224168   0.993   1.008   3.034 -0.9410  0.3794 -1.8636
 4236SOL     OW24169   0.614   1.526   5.409 -0.0317 -0.4569  0.2066
 4236SOL    HW124170   0.629   1.479   5.327  2.8480  0.6970  0.0580
 4236SOL    HW224171   0.593   1.610   5.371 -2.5266 -1.1145  0.1684
 4237SOL     OW24172   0.180   0.394   7.383 -0.4480 -0.2370 -0.0283
 4237SOL    HW124173   0.160   0.364   7.471 -0.2016  0.7375  0.3474
 4237SOL    HW224174   0.275   0.391   7.372 -0.4112 -0.3650  0.3360
 4238SOL     OW24175   4.459   2.489  14.674  0.0337  0.1616 -0.6348
 4238SOL    HW124176   4.522   2.422  14.700  0.2002  1.0912  1.3788
 4238SOL    HW224177   4.520   2.558  14.649  0.8387 -1.2372 -2.4884
 4239SOL     OW24178   3.355   1.730   0.699 -0.2712 -0.2951 -0.4789
 4239SOL    HW124179   3.427   1.681   0.740 -1.1089 -1.6783 -0.6859
 4239SOL    HW224180   3.310   1.756   0.779  2.0521 -1.4214  1.2142
 4240SOL     OW24181   3.716   1.098   1.207 -0.1683  0.4293  0.0937
 4240SOL    HW124182   3.790   1.157   1.218  0.0938 -0.1458  1.3049
 4240SOL    HW224183   3.754   1.026   1.156  0.3009 -0.7602  2.1483
 4241SOL     OW24184   2.175   0.754   0.555  0.2024  0.0651 -0.0259
 4241SOL    HW124185   2.173   0.820   0.625 -1.0393  0.3308 -0.3175
 4241SOL    HW224186   2.081   0.751   0.536  0.4112  0.4787 -1.1104
 4242SOL     OW24187   1.387   1.423   8.100 -0.1449  0.7952 -0.1271
 4242SOL    HW124188   1.325   1.462   8.039 -1.8026 -3.6437 -1.3047
 4242SOL    HW224189   1.437   1.497   8.134  0.7693  0.1162  0.0201
 4243SOL     OW24190   2.511   2.574   4.778 -0.8512  0.0758 -0.4046
 4243SOL    HW124191   2.551   2.657   4.753 -0.4190 -0.3812 -1.2189
 4243SOL    HW224192   2.586   2.520   4.801 -0.3714  0.4435 -1.1201
 4244SOL     OW24193   2.296   1.821   4.308 -0.0774 -0.5130  0.1059
 4244SOL    HW124194   2.293   1.879   4.384 -1.8672  1.2171 -1.3129
 4244SOL    HW224195   2.328   1.739   4.347 -0.6001 -0.8077 -0.0702
 4245SOL     OW24196   0.350   1.082   4.895  0.0528 -0.4291 -0.2802
 4245SOL    HW124197   0.380   1.165   4.933 -2.2671 -1.3079  3.5420
 4245SOL    HW224198   0.292   1.111   4.824 -2.5329 -0.8018  1.6429
 4246SOL     OW24199   3.039   0.527   5.912  0.0302  0.2040  0.4824
 4246SOL    HW124200   3.118   0.516   5.859 -1.0708 -0.1079 -1.1044
 4246SOL    HW224201   3.049   0.621   5.928 -0.0372  0.3832 -0.4888
 4247SOL     OW24202   3.580   1.457   1.280 -0.0219  0.1558 -0.4042
 4247SOL    HW124203   3.558   1.403   1.355 -0.1383 -0.5676 -0.9576
 4247SOL    HW224204   3.671   1.488   1.291  0.4579 -1.0094 -1.0976
 4248SOL     OW24205   2.705   2.438   3.030  0.4865 -0.1414 -0.1644
 4248SOL    HW124206   2.724   2.346   3.011  0.3260 -0.5976  1.7887
 4248SOL    HW224207   2.667   2.417   3.116 -1.9763  0.2113 -1.1816
 4249SOL     OW24208   0.336   3.786  10.833  0.2438 -0.5972  0.2306
 4249SOL    HW124209   0.386   3.864  10.856  0.4331 -1.0178  1.2383
 4249SOL    HW224210   0.250   3.826  10.845  0.4228 -0.2136  0.2314
 4250SOL     OW24211   1.388   3.728   7.097  0.3971  0.0357  0.6640
 4250SOL    HW124212   1.448   3.732   7.024 -3.9516 -0.2128 -2.9419
 4250SOL    HW224213   1.307   3.771   7.068  0.3688 -0.1157  0.5224
 4251SOL     OW24214   4.591   2.684  13.128 -0.4290  0.1463  0.4195
 4251SOL    HW124215   4.642   2.639  13.060  0.8364  1.3694  0.5747
 4251SOL    HW224216   4.523   2.618  13.142  0.2532 -0.9727 -1.5564
 4252SOL     OW24217   2.543   1.611   7.396  0.4846  0.1385 -0.0506
 4252SOL    HW124218   2.487   1.689   7.401 -1.7390 -1.3978 -0.7533
 4252SOL    HW224219   2.614   1.648   7.448  0.8986  1.1505 -1.3336
 4253SOL     OW24220   0.013   4.309   0.417 -0.6566  0.0884 -0.0190
 4253SOL    HW124221   0.023   4.402   0.437  0.6093 -0.2945  1.1491
 4253SOL    HW224222   0.003   4.311   0.322 -0.8514  0.2003  0.0051
 4254SOL     OW24223   2.646   1.412   6.001 -0.2299  0.7021 -0.1546
 4254SOL    HW124224   2.698   1.410   5.921 -0.0850 -0.4196 -0.0329
 4254SOL    HW224225   2.707   1.411   6.075  0.5389  0.1228 -0.8020
 4255SOL     OW24226   0.265   2.357   1.043  0.0585 -0.3453 -0.4178
 4255SOL    HW124227   0.346   2.332   0.998 -0.2492 -0.4293 -0.9263
 4255SOL    HW224228   0.214   2.276   1.036 -1.6189  0.7242 -0.6224
 4256SOL     OW24229   3.872   3.136  14.347  0.2181 -0.5695 -0.3843
 4256SOL    HW124230   3.822   3.172  14.420  0.6146 -0.6175 -0.0906
 4256SOL    HW224231   3.829   3.177  14.272 -0.7417 -1.4299 -0.3067
 4257SOL     OW24232   3.015   0.718   8.263 -0.3530  0.0836 -0.2498
 4257SOL    HW124233   3.080   0.648   8.270 -0.2029  0.2402 -0.1090
 4257SOL    HW224234   2.969   0.682   8.186 -0.1826  0.1247 -0.3704
 4258SOL     OW24235   3.474   4.294   7.981  0.4579  0.1401  0.0387
 4258SOL    HW124236   3.469   4.291   8.076  1.2101 -1.4343  0.0238
 4258SOL    HW224237   3.414   4.366   7.962 -0.2723 -0.7268 -1.0005
 4259SOL     OW24238   0.879   0.803  12.480  0.0328  0.2834 -0.0012
 4259SOL    HW124239   0.810   0.737  12.471  0.0038  0.2887  0.1797
 4259SOL    HW224240   0.867   0.835  12.570  1.2464  1.9335 -0.4141
 4260SOL     OW24241   2.112   2.130   0.852  0.2946 -0.6403  0.4212
 4260SOL    HW124242   2.109   2.053   0.795  1.5293 -0.4375  0.0829
 4260SOL    HW224243   2.083   2.203   0.797  0.1925  0.3895  1.8278
 4261SOL     OW24244   4.201   3.393   3.248 -0.2533  0.7315  0.4347
 4261SOL    HW124245   4.190   3.448   3.170  1.6873 -1.4397 -1.3572
 4261SOL    HW224246   4.116   3.350   3.261 -0.2482  0.2200 -1.2181
 4262SOL     OW24247   0.261   0.407   3.211  0.1386  0.2898 -0.6900
 4262SOL    HW124248   0.276   0.493   3.171  1.0643  0.1844 -0.5874
 4262SOL    HW224249   0.174   0.408   3.250  1.3422  0.3376  2.0199
 4263SOL     OW24250   2.598   4.589   7.575  0.4494  0.2690 -0.4980
 4263SOL    HW124251   2.543   4.512   7.568 -0.0584  0.6134 -0.2941
 4263SOL    HW224252   2.618   4.612   7.484 -2.0810 -1.2329 -1.4197
 4264SOL     OW24253   3.237   4.500   6.037  0.5840 -0.3476 -0.0172
 4264SOL    HW124254   3.232   4.540   6.124  0.0342 -1.6458  0.5402
 4264SOL    HW224255   3.317   4.545   6.007 -0.7577  3.0357  1.4382
 4265SOL     OW24256   3.983   1.753  13.882 -0.3754  0.0861  0.0033
 4265SOL    HW124257   3.977   1.677  13.940  0.2988  0.1923  0.2128
 4265SOL    HW224258   3.938   1.730  13.801 -2.1598 -0.7757  1.2480
 4266SOL     OW24259   4.347   0.303   0.002 -0.5076  0.5369 -0.4021
 4266SOL    HW124260   4.414   0.255  17.652  0.0483  0.0253  0.8943
 4266SOL    HW224261   4.366   0.272   0.091  1.7862 -2.5409 -1.9648
 4267SOL     OW24262   0.220   2.583  10.338 -0.7648 -0.8634  1.0791
 4267SOL    HW124263   0.273   2.661  10.329 -1.7012 -0.4008 -0.4087
 4267SOL    HW224264   0.266   2.537  10.409  0.3320  1.7035  2.0246
 4268SOL     OW24265   3.890   2.334   2.812 -0.1199 -0.1435 -0.0653
 4268SOL    HW124266   3.910   2.386   2.734  1.8965 -0.2301  0.4014
 4268SOL    HW224267   3.957   2.370   2.870 -1.8855  1.1374  1.2002
 4269SOL     OW24268   0.061   1.323   6.750  0.0551  0.2992 -0.1249
 4269SOL    HW124269   4.711   1.278   6.789  0.5395 -1.3543 -1.1243
 4269SOL    HW224270   0.021   1.403   6.715 -0.2424  0.8484  1.4685
 4270SOL     OW24271   4.547   3.570   8.936  0.0203  0.7810  0.1479
 4270SOL    HW124272   4.534   3.665   8.943  2.3369  1.2472 -1.6079
 4270SOL    HW224273   4.625   3.571   8.880 -0.9255  0.0561 -1.1977
 4271SOL     OW24274   0.899   0.221   6.283  0.0440  0.0237  0.0437
 4271SOL    HW124275   0.960   0.180   6.221 -3.5175 -1.9308 -2.1556
 4271SOL    HW224276   0.809   0.209   6.254 -0.4768 -0.8682  2.0605
 4272SOL     OW24277   2.752   4.085   7.894 -0.3139  0.9613 -0.1934
 4272SOL    HW124278   2.684   4.148   7.871 -1.0076  0.7370  1.2298
 4272SOL    HW224279   2.822   4.121   7.838 -1.0570 -1.0133 -2.3714
 4273SOL     OW24280   3.170   1.036   7.625  0.1267 -0.4345  0.0603
 4273SOL    HW124281   3.226   1.080   7.560 -0.9250  1.3650  0.3812
 4273SOL    HW224282   3.110   1.101   7.662 -0.1230 -0.4765 -0.2715
 4274SOL     OW24283   4.331   0.122   3.383 -0.3237 -0.0758 -0.1322
 4274SOL    HW124284   4.373   0.064   3.320  0.4937 -1.8058  1.9697
 4274SOL    HW224285   4.403   0.118   3.446 -0.8605 -0.2443  0.4669
 4275SOL     OW24286   2.722   3.833   9.169 -0.2151  0.3598 -0.0122
 4275SOL    HW124287   2.703   3.758   9.113  0.6811  0.4317 -0.4261
 4275SOL    HW224288   2.631   3.862   9.174 -0.1207  0.9205 -1.3006
 4276SOL     OW24289   0.014   2.629  15.728  0.1776  0.1874 -0.0271
 4276SOL    HW124290   0.036   2.546  15.770 -0.2655  1.5640  2.9067
 4276SOL    HW224291   4.716   2.602  15.639 -1.7151  0.2081  0.4383
 4277SOL     OW24292   3.073   2.989   8.373 -0.4106 -0.2361 -0.4613
 4277SOL    HW124293   3.152   2.938   8.389  0.6699  2.1196  1.8221
 4277SOL    HW224294   3.096   3.021   8.286  0.1355 -1.1857 -0.6585
 4278SOL     OW24295   4.264   2.088   6.771 -0.1921 -0.7332 -0.3173
 4278SOL    HW124296   4.212   2.168   6.776  2.2303  0.8164  0.5179
 4278SOL    HW224297   4.351   2.128   6.760 -1.0002  0.7560 -1.2336
 4279SOL     OW24298   1.616   2.022   6.528 -0.1161  0.4779  0.1508
 4279SOL    HW124299   1.529   2.031   6.568 -0.4884 -2.0116 -0.0666
 4279SOL    HW224300   1.627   2.109   6.490 -0.9451  0.2267 -0.6724
 4280SOL     OW24301   4.548   0.187   7.254  0.3393  0.1632 -0.1466
 4280SOL    HW124302   4.457   0.161   7.244 -0.5245  2.4081  1.6975
 4280SOL    HW224303   4.550   0.272   7.210 -2.8245 -0.0267 -0.6133
 4281SOL     OW24304   0.361   2.631   8.045 -0.0799  0.8525  0.2270
 4281SOL    HW124305   0.350   2.718   8.007 -0.3490  0.4081 -0.7113
 4281SOL    HW224306   0.304   2.645   8.121 -1.0750 -1.0806 -0.1540
 4282SOL     OW24307   0.117   1.613   8.456  0.3034  0.2634 -0.7049
 4282SOL    HW124308   0.088   1.689   8.507  0.7395 -0.3533  0.4856
 4282SOL    HW224309   0.151   1.659   8.380  0.2504  0.0052 -0.8837
 4283SOL     OW24310   0.701   2.500   3.989  0.4884  0.1173 -0.4490
 4283SOL    HW124311   0.659   2.485   3.905 -0.0869  0.3149 -0.1913
 4283SOL    HW224312   0.626   2.485   4.047  0.6266  1.5036  0.0938
 4284SOL     OW24313   2.450   0.054   7.043 -0.2874 -0.4982 -0.6478
 4284SOL    HW124314   2.490   0.098   7.118 -3.2591  2.1953 -0.6373
 4284SOL    HW224315   2.428   0.136   6.999  0.6947 -0.2582 -0.6864
 4285SOL     OW24316   2.413   3.467   6.812  0.1494  0.1966 -0.0157
 4285SOL    HW124317   2.402   3.562   6.814 -0.3834  0.2238 -3.7667
 4285SOL    HW224318   2.348   3.442   6.877  1.1928 -0.9537  0.5919
 4286SOL     OW24319   2.899   3.959  11.959 -0.3121  0.3048 -0.0061
 4286SOL    HW124320   2.967   3.898  11.989 -0.1033  0.9084  0.7271
 4286SOL    HW224321   2.923   4.042  11.998  2.5559 -0.8027  0.5883
 4287SOL     OW24322   4.302   4.194   7.111  0.0947 -0.3513  0.0371
 4287SOL    HW124323   4.269   4.284   7.102 -0.4134 -0.6384 -0.9594
 4287SOL    HW224324   4.329   4.198   7.203 -1.0942  2.0221  0.2978
 4288SOL     OW24325   2.996   1.519   6.485  0.3218 -0.4710 -0.1538
 4288SOL    HW124326   3.054   1.577   6.435 -0.3423  0.5470  0.2505
 4288SOL    HW224327   3.008   1.445   6.426 -2.6632  0.1844 -1.5990
 4289SOL     OW24328   0.619   4.410   4.196  0.3011  0.6406 -0.4291
 4289SOL    HW124329   0.592   4.459   4.118 -0.5519 -1.6544 -1.5792
 4289SOL    HW224330   0.706   4.444   4.215 -0.4152  1.6327  1.1246
 4290SOL     OW24331   2.576   1.734   6.535 -0.2096 -0.0417 -0.4329
 4290SOL    HW124332   2.513   1.687   6.590  0.7784 -0.7969  0.0506
 4290SOL    HW224333   2.549   1.823   6.557 -2.3210 -0.8453  0.3107
 4291SOL     OW24334   0.588   0.057   2.626  0.4445  0.4928 -0.0685
 4291SOL    HW124335   0.593   0.135   2.571 -1.0533  1.0569  0.6155
 4291SOL    HW224336   0.670   0.016   2.596  0.2607 -0.4941  0.7680
 4292SOL     OW24337   2.636   0.831   3.774 -0.2146 -0.2339  0.5475
 4292SOL    HW124338   2.575   0.803   3.842  0.1712 -2.8159 -0.1578
 4292SOL    HW224339   2.603   0.916   3.745 -0.4941 -0.5310 -0.0155
 4293SOL     OW24340   3.171   4.040   8.312 -0.1002 -0.0719  0.0507
 4293SOL    HW124341   3.163   3.995   8.396  2.3068 -1.7506 -0.5963
 4293SOL    HW224342   3.111   4.113   8.322  0.6860  0.6083 -0.2215
 4294SOL     OW24343   3.511   3.931   3.968 -0.4747 -0.0314  0.1231
 4294SOL    HW124344   3.535   3.913   3.877  0.0453  0.9229  0.0673
 4294SOL    HW224345   3.513   4.027   3.958  2.3383  0.0178  0.9719
 4295SOL     OW24346   0.280   3.473   8.685  0.5486 -0.1175 -0.2934
 4295SOL    HW124347   0.288   3.401   8.747 -0.0080  1.1564  1.2502
 4295SOL    HW224348   0.206   3.515   8.728  0.9811 -1.0051  1.3364
 4296SOL     OW24349   0.811   3.244  16.765  0.4067  0.4148  0.4915
 4296SOL    HW124350   0.881   3.284  16.715  1.4235  1.3623  2.6945
 4296SOL    HW224351   0.755   3.320  16.781 -1.9629 -1.6596  2.1019
 4297SOL     OW24352   4.244   3.676   7.459 -0.3082  0.5321 -0.1493
 4297SOL    HW124353   4.165   3.622   7.459 -0.5281  0.8542 -0.4964
 4297SOL    HW224354   4.311   3.608   7.452 -1.2365 -0.5096  1.1511
 4298SOL     OW24355   1.805   4.000   2.004 -0.5732 -0.0191  0.1929
 4298SOL    HW124356   1.808   4.094   1.987 -1.7479 -0.1207 -0.5277
 4298SOL    HW224357   1.722   3.981   1.962 -0.6699 -0.2966  0.5059
 4299SOL     OW24358   2.744   3.203  14.071  0.0193  0.0846  0.3012
 4299SOL    HW124359   2.675   3.163  14.016  0.9113 -1.5639  0.3715
 4299SOL    HW224360   2.702   3.214  14.156 -1.5769 -1.6383 -0.2458
 4300SOL     OW24361   3.094   3.977   5.427  0.3105  0.6041 -0.5372
 4300SOL    HW124362   3.060   3.999   5.514 -0.4568  0.4888 -0.8050
 4300SOL    HW224363   3.085   4.062   5.383  1.2535  2.6421  3.1774
 4301SOL     OW24364   2.201   0.475   5.871  0.5073  0.2396  0.0089
 4301SOL    HW124365   2.291   0.456   5.845 -0.0659  0.0430 -1.8706
 4301SOL    HW224366   2.215   0.549   5.929  1.4654  0.7327 -0.8439
 4302SOL     OW24367   2.768   2.249   5.885  0.0306 -0.3523  0.0446
 4302SOL    HW124368   2.799   2.174   5.935  0.1672 -0.4331 -0.1628
 4302SOL    HW224369   2.750   2.309   5.957  0.1847 -0.6709  0.3489
 4303SOL     OW24370   2.899   3.055   4.153  0.4448  0.1251  0.2861
 4303SOL    HW124371   2.892   2.960   4.141  4.7366 -0.3191  1.3498
 4303SOL    HW224372   2.938   3.063   4.240 -0.7347 -0.2492  0.8472
 4304SOL     OW24373   1.351   2.675   2.182  0.3353 -0.0889  0.5561
 4304SOL    HW124374   1.328   2.693   2.273  1.6135 -1.6876  1.2074
 4304SOL    HW224375   1.405   2.748   2.153 -2.0296  1.1337 -0.8123
 4305SOL     OW24376   3.887   3.294   7.374  0.0770  0.4471  0.5931
 4305SOL    HW124377   3.946   3.221   7.359  2.9079  2.6504  1.0498
 4305SOL    HW224378   3.818   3.244   7.418 -0.7571 -0.6747 -1.9895
 4306SOL     OW24379   0.549   4.263   2.097 -0.5895 -0.5131 -0.3441
 4306SOL    HW124380   0.531   4.253   2.190 -0.6047 -2.2045 -0.5265
 4306SOL    HW224381   0.494   4.336   2.068  0.7362 -0.0882 -1.7978
 4307SOL     OW24382   2.186   3.697  15.031  0.3959  0.0887  0.3822
 4307SOL    HW124383   2.125   3.677  15.102 -0.2352  3.8013  0.8703
 4307SOL    HW224384   2.144   3.772  14.987 -0.1480 -0.2417  0.3365
 4308SOL     OW24385   3.458   0.374  12.194 -0.0332 -0.1099 -0.3183
 4308SOL    HW124386   3.503   0.290  12.199 -2.5376 -1.2769  2.4401
 4308SOL    HW224387   3.424   0.368  12.105  0.8356 -0.7129 -0.6035
 4309SOL     OW24388   1.179   0.310  10.362 -0.0396 -0.0195  0.0791
 4309SOL    HW124389   1.209   0.331  10.274 -1.3878  1.0076 -0.1335
 4309SOL    HW224390   1.239   0.375  10.399  0.3054 -0.0248 -0.4717
 4310SOL     OW24391   2.646   1.582   0.090  0.0692 -0.0147 -0.0308
 4310SOL    HW124392   2.694   1.661   0.114 -0.4402  0.9434 -2.1963
 4310SOL    HW224393   2.657   1.523   0.166 -0.7447  2.0878  1.7196
 4311SOL     OW24394   3.822   3.504   7.204 -0.0260 -0.0262  0.6554
 4311SOL    HW124395   3.786   3.455   7.278  0.0484 -1.3071 -0.1521
 4311SOL    HW224396   3.844   3.437   7.139 -0.9102 -1.3427  1.7153
 4312SOL     OW24397   1.541   1.115   4.423 -0.2267  0.5562  0.1511
 4312SOL    HW124398   1.521   1.077   4.509  0.7533  0.1544  0.2060
 4312SOL    HW224399   1.599   1.186   4.452  1.2189 -0.8263  0.7077
 4313SOL     OW24400   1.519   4.662   8.487 -0.4316 -0.1589  0.7117
 4313SOL    HW124401   1.476   0.016   8.452  2.7318  1.5525  0.5971
 4313SOL    HW224402   1.599   4.698   8.525 -0.0371  0.3522 -0.6117
 4314SOL     OW24403   0.415   1.593   8.053 -0.0628 -0.0210 -0.6774
 4314SOL    HW124404   0.510   1.583   8.061 -0.3066 -1.1890  0.8060
 4314SOL    HW224405   0.392   1.502   8.072  2.0958 -0.8240 -1.9138
 4315SOL     OW24406   1.711   2.087  15.082 -0.1754  0.4381  0.1328
 4315SOL    HW124407   1.723   2.037  15.000  0.4103 -2.3323  1.9008
 4315SOL    HW224408   1.628   2.047  15.108  0.5391 -0.2282  1.3720
 4316SOL     OW24409   4.646   2.493  17.238 -0.1088  0.7774 -0.6088
 4316SOL    HW124410   4.628   2.470  17.147 -1.8512  2.1317 -0.6118
 4316SOL    HW224411   0.003   2.445  17.255  0.6756  2.3228 -0.0058
 4317SOL     OW24412   4.698   1.236  12.551  0.2204 -0.2431  0.2375
 4317SOL    HW124413   0.025   1.163  12.587  1.9140  1.7254  1.8442
 4317SOL    HW224414   0.001   1.232  12.459  0.4369 -1.9524  0.3648
 4318SOL     OW24415   3.842   0.267   0.382  0.1211  0.4945 -0.7236
 4318SOL    HW124416   3.764   0.315   0.409 -0.3411 -1.1164  0.8120
 4318SOL    HW224417   3.812   0.219   0.304 -1.9537  0.7274 -0.0593
 4319SOL     OW24418   0.621   4.312   2.448 -0.3109  0.7728  0.3132
 4319SOL    HW124419   0.688   4.300   2.515 -0.7431 -1.3728  0.3547
 4319SOL    HW224420   0.678   4.299   2.372 -1.4842 -0.3524 -0.3712
 4320SOL     OW24421   4.089   4.026  13.721  0.2566 -0.2281 -0.0711
 4320SOL    HW124422   4.127   3.970  13.653  1.7582 -0.5945  1.0688
 4320SOL    HW224423   4.085   4.110  13.676 -0.3277  0.5928  1.5017
 4321SOL     OW24424   4.716   2.865   7.784 -0.0270 -0.1392 -0.1222
 4321SOL    HW124425   4.668   2.894   7.706 -0.0072  1.1390  0.3321
 4321SOL    HW224426   4.651   2.887   7.851  1.1914  2.3737  0.2567
 4322SOL     OW24427   4.620   0.982   5.192 -0.2989  0.5432  0.9127
 4322SOL    HW124428   4.556   0.947   5.129 -0.0947  0.1822  0.9062
 4322SOL    HW224429   4.560   1.048   5.228 -0.9344  0.4385  0.0468
 4323SOL     OW24430   3.535   2.667   7.547 -0.2718 -0.5156  0.4146
 4323SOL    HW124431   3.591   2.744   7.538  1.1924 -1.7177 -0.7092
 4323SOL    HW224432   3.453   2.693   7.590  0.4406  1.1925  0.7134
 4324SOL     OW24433   3.809   3.678  17.132  0.2593  0.2038  0.4775
 4324SOL    HW124434   3.759   3.713  17.206 -2.9425  1.2486 -2.2269
 4324SOL    HW224435   3.817   3.584  17.143  0.7006  0.0806 -0.8974
 4325SOL     OW24436   3.040   1.770   7.227  0.0218 -0.2943  0.3584
 4325SOL    HW124437   2.951   1.787   7.196 -0.3827 -0.2620  1.5241
 4325SOL    HW224438   3.073   1.736   7.144  1.8148 -1.3092  1.4875
 4326SOL     OW24439   2.181   2.285   4.655  0.2100 -0.8659 -0.1333
 4326SOL    HW124440   2.204   2.361   4.709 -1.1793 -0.0650 -0.6732
 4326SOL    HW224441   2.107   2.327   4.612  0.9377 -0.1321 -0.6977
 4327SOL     OW24442   0.013   2.908   6.091  0.6411 -0.2485 -0.1771
 4327SOL    HW124443   0.007   2.820   6.126 -0.6987  0.1727  0.6471
 4327SOL    HW224444   4.670   2.961   6.134 -0.8050 -1.3432 -1.1060
 4328SOL     OW24445   1.812   1.767   0.955  0.1351  0.0028 -0.2198
 4328SOL    HW124446   1.825   1.672   0.963 -0.0732 -0.1667 -1.8387
 4328SOL    HW224447   1.893   1.794   0.910  0.3675  1.0945  0.8475
 4329SOL     OW24448   1.214   0.441   7.454  0.5915 -0.6006  0.8712
 4329SOL    HW124449   1.293   0.390   7.439  0.8723 -0.4860  1.9460
 4329SOL    HW224450   1.155   0.366   7.444 -0.6729  0.3405  1.2368
 4330SOL     OW24451   0.280   0.207   8.664 -0.0536  0.3793 -0.0451
 4330SOL    HW124452   0.284   0.113   8.678  1.0322  0.7938  2.4393
 4330SOL    HW224453   0.287   0.208   8.569  3.3569  1.1706  0.2184
 4331SOL     OW24454   0.026   0.204  15.239 -0.0183 -0.4011 -0.0623
 4331SOL    HW124455   0.075   0.257  15.176  0.1997 -0.3670  0.1367
 4331SOL    HW224456   4.670   0.202  15.188  0.6564  0.7204 -1.1637
 4332SOL     OW24457   0.530   3.113  12.141 -0.0385 -0.1670  0.3309
 4332SOL    HW124458   0.497   3.080  12.225  0.1046 -1.4622 -0.1331
 4332SOL    HW224459   0.469   3.187  12.139  0.0362 -0.0928  0.7946
 4333SOL     OW24460   1.656   3.345   9.732 -0.1936  0.3324 -0.2305
 4333SOL    HW124461   1.574   3.346   9.780 -0.8700  2.1149 -1.4269
 4333SOL    HW224462   1.709   3.353   9.811 -0.5641  0.9665 -0.0518
 4334SOL     OW24463   1.058   0.778   7.774 -0.0094  0.6269 -0.6237
 4334SOL    HW124464   1.069   0.684   7.757  2.8374  1.2575 -2.2333
 4334SOL    HW224465   0.977   0.795   7.727 -0.3895  0.1188 -0.1459
 4335SOL     OW24466   2.442   1.111  17.620 -0.2929 -0.5268 -0.0594
 4335SOL    HW124467   2.516   1.058  17.590  1.1053  0.2424  2.0638
 4335SOL    HW224468   2.470   1.185  17.566 -2.4729  0.6200  0.3821
 4336SOL     OW24469   0.766   3.805   4.793 -0.6416 -0.0208  0.0491
 4336SOL    HW124470   0.776   3.840   4.705  0.0198  0.1204  0.1846
 4336SOL    HW224471   0.803   3.717   4.787  0.3755  0.3201  1.2574
 4337SOL     OW24472   0.815   3.850  16.984 -0.0061  0.2445 -0.5108
 4337SOL    HW124473   0.812   3.771  16.930  0.7492  1.2252 -1.9807
 4337SOL    HW224474   0.722   3.869  17.000 -0.0503  0.6934 -1.3357
 4338SOL     OW24475   2.396   0.375   2.880  0.0197 -0.2502 -0.4549
 4338SOL    HW124476   2.310   0.390   2.840 -0.0582  0.2242 -0.1096
 4338SOL    HW224477   2.387   0.282   2.860  1.9709 -0.2498 -1.3371
 4339SOL     OW24478   4.340   4.449   3.373 -0.6765  0.1524  0.3591
 4339SOL    HW124479   4.346   4.401   3.456  0.8189 -0.3289 -0.0299
 4339SOL    HW224480   4.256   4.493   3.380  0.0018  1.5675 -0.3782
 4340SOL     OW24481   2.129   1.011   2.516 -0.1648  0.3427  0.0936
 4340SOL    HW124482   2.141   0.916   2.524 -2.9679  0.0410  0.6865
 4340SOL    HW224483   2.190   1.039   2.448 -1.1908  1.7644 -0.2454
 4341SOL     OW24484   0.660   2.652  13.792  0.2324 -0.2289 -0.3202
 4341SOL    HW124485   0.697   2.737  13.768  0.0790  0.7912  3.1519
 4341SOL    HW224486   0.741   2.607  13.815  0.4568  0.3946  0.0724
 4342SOL     OW24487   0.782   4.113  10.454 -0.0514  0.3355  0.6526
 4342SOL    HW124488   0.749   4.127  10.543 -0.9123 -1.2269  0.5710
 4342SOL    HW224489   0.758   4.022  10.437  0.7314  0.1485  0.5691
 4343SOL     OW24490   0.617   2.558   8.901  0.0699  0.2905  0.2823
 4343SOL    HW124491   0.574   2.615   8.965  0.8107 -0.6048  1.5809
 4343SOL    HW224492   0.585   2.475   8.936  2.9564 -1.0788 -0.3390
 4344SOL     OW24493   3.900   1.977   5.608 -0.4953  0.0937 -0.3398
 4344SOL    HW124494   3.847   2.044   5.652 -0.3089  0.7706 -1.1465
 4344SOL    HW224495   3.836   1.963   5.537 -0.3548 -1.6298 -0.1151
 4345SOL     OW24496   4.277   0.822   3.149 -0.4348  0.3671 -0.4125
 4345SOL    HW124497   4.333   0.761   3.197 -2.2891  0.4527  1.9053
 4345SOL    HW224498   4.304   0.904   3.190 -1.3801  0.3544  0.2460
 4346SOL     OW24499   3.303   4.028   3.707  0.5417 -0.0994  0.5692
 4346SOL    HW124500   3.321   3.944   3.663  2.1305  0.1311  0.7894
 4346SOL    HW224501   3.207   4.037   3.708  0.4773 -1.1131  2.5693
 4347SOL     OW24502   1.416   2.810   8.546  0.0492 -0.1079  0.3196
 4347SOL    HW124503   1.383   2.727   8.580  1.6966 -0.4349  1.1138
 4347SOL    HW224504   1.474   2.840   8.616  1.4576  0.2616 -1.0055
 4348SOL     OW24505   3.006   3.540  16.231  0.0599  0.0542  0.9238
 4348SOL    HW124506   2.983   3.529  16.138  1.7671  1.7455  0.3167
 4348SOL    HW224507   2.939   3.601  16.261 -1.2488 -1.3159  0.7956
 4349SOL     OW24508   1.139   0.084   8.729 -0.1123 -0.0490  0.1218
 4349SOL    HW124509   1.209   0.020   8.722  1.9223  2.0386  1.6207
 4349SOL    HW224510   1.072   0.044   8.673 -0.4515  0.3644  0.2318
 4350SOL     OW24511   0.463   0.912  10.650 -0.1835  0.5393  0.4527
 4350SOL    HW124512   0.528   0.918  10.581 -1.8896  1.7706 -1.0446
 4350SOL    HW224513   0.491   0.981  10.710  1.6165  0.0126  0.2241
 4351SOL     OW24514   3.287   3.561   8.861  0.4984  0.3076  0.0717
 4351SOL    HW124515   3.224   3.573   8.790 -0.1625 -2.5653  0.1771
 4351SOL    HW224516   3.349   3.502   8.820 -2.2848  0.2835 -4.1202
 4352SOL     OW24517   4.308   2.122   0.148 -0.0843  0.4378  0.3101
 4352SOL    HW124518   4.331   2.161   0.232  1.5908 -0.9943  0.5066
 4352SOL    HW224519   4.232   2.067   0.166 -0.4027  1.0103  0.7187
 4353SOL     OW24520   1.224   0.171  14.770 -0.4159  0.4123 -0.1983
 4353SOL    HW124521   1.308   0.212  14.788  0.5780 -0.8314 -2.1426
 4353SOL    HW224522   1.172   0.251  14.759  1.6098  1.5592 -1.3722
 4354SOL     OW24523   0.828   4.336   2.283  0.0252 -0.4008  0.0845
 4354SOL    HW124524   0.814   4.426   2.255 -0.3740 -0.2333  0.8197
 4354SOL    HW224525   0.920   4.335   2.257  0.2616 -1.2007  0.9479
 4355SOL     OW24526   0.687   0.691   0.676  0.4847 -0.3382 -0.2673
 4355SOL    HW124527   0.654   0.781   0.673  0.9587 -0.2211 -1.7247
 4355SOL    HW224528   0.780   0.711   0.663  0.2075  1.9923  1.4146
 4356SOL     OW24529   2.257   4.602   6.400  0.8587  0.2438 -0.0708
 4356SOL    HW124530   2.344   4.564   6.412  1.2277  1.1318  0.0579
 4356SOL    HW224531   2.239   4.583   6.308 -1.2403  1.2809  0.1226
 4357SOL     OW24532   0.696   2.984   1.281 -0.0447  0.1320 -0.0806
 4357SOL    HW124533   0.680   3.019   1.194  0.0837 -1.2514 -0.6711
 4357SOL    HW224534   0.788   2.961   1.277  0.6318  2.9496 -0.3936
 4358SOL     OW24535   1.329   4.490   6.501 -0.3038  0.1699  0.3982
 4358SOL    HW124536   1.245   4.493   6.547 -0.4138  2.3082  0.0420
 4358SOL    HW224537   1.388   4.537   6.560 -0.5630  0.2486  0.5950
 4359SOL     OW24538   4.692   1.415  14.449  0.1672  0.3424  0.6664
 4359SOL    HW124539   0.033   1.484  14.441 -1.3167  1.8990  1.8999
 4359SOL    HW224540   4.723   1.353  14.383  2.1412  2.3399 -0.2698
 4360SOL     OW24541   1.427   1.087   2.872  0.6411 -0.2549 -0.0421
 4360SOL    HW124542   1.509   1.088   2.822  0.4042 -0.4935 -0.4393
 4360SOL    HW224543   1.361   1.141   2.829  2.3865  0.7262 -1.4774
 4361SOL     OW24544   2.667   1.125   2.555  0.3414  0.2642  0.1201
 4361SOL    HW124545   2.586   1.115   2.506  0.0836  2.7867  0.0357
 4361SOL    HW224546   2.736   1.138   2.490 -0.4653  0.3669 -0.7077
 4362SOL     OW24547   1.044   0.428   1.454  0.5822 -0.2915 -0.0130
 4362SOL    HW124548   0.968   0.402   1.402 -1.7256  2.4801  1.9966
 4362SOL    HW224549   1.011   0.406   1.541 -0.8951  0.1602 -0.4468
 4363SOL     OW24550   4.610   3.895   2.819  0.2231  0.3304  0.4418
 4363SOL    HW124551   4.680   3.957   2.842  1.2077 -0.6619  0.1187
 4363SOL    HW224552   4.644   3.815   2.859  1.7017  0.1365 -1.2152
 4364SOL     OW24553   2.750   2.118   5.107 -0.7541  0.8715  0.2128
 4364SOL    HW124554   2.694   2.139   5.032  0.6918 -0.7208 -1.3143
 4364SOL    HW224555   2.706   2.131   5.192 -2.8507 -1.2734 -0.5586
 4365SOL     OW24556   3.904   4.185  15.005 -0.0208 -0.2842  0.1261
 4365SOL    HW124557   3.929   4.167  14.915 -1.5562 -4.1280  0.4701
 4365SOL    HW224558   3.811   4.208  14.999  0.2313  1.0058  1.1360
 4366SOL     OW24559   0.994   1.758   7.727 -0.3310 -0.6421  0.7959
 4366SOL    HW124560   0.964   1.842   7.691 -0.1195 -0.5978  0.7222
 4366SOL    HW224561   0.917   1.717   7.765  1.2893 -2.6405  1.8776
 4367SOL     OW24562   4.020   2.765  15.048  0.0374 -0.1320  0.2126
 4367SOL    HW124563   3.968   2.773  14.968 -2.0353  1.8447  1.7536
 4367SOL    HW224564   4.085   2.699  15.024 -0.5877 -0.2822 -1.0927
 4368SOL     OW24565   0.048   0.860  13.760 -0.3053 -0.5925  0.0423
 4368SOL    HW124566   4.719   0.831  13.685 -1.8278  2.3406 -0.0161
 4368SOL    HW224567   0.121   0.798  13.760 -1.2283 -1.6680  0.7891
 4369SOL     OW24568   4.698   2.482   2.832  0.8599  0.0553 -0.5453
 4369SOL    HW124569   0.041   2.459   2.768 -0.7853 -1.1143 -1.8214
 4369SOL    HW224570   4.651   2.550   2.785  1.3132  1.4755  1.0352
 4370SOL     OW24571   3.785   0.963   4.115  0.5672 -0.3752 -0.8148
 4370SOL    HW124572   3.757   0.979   4.025 -0.8930 -1.5795 -0.5707
 4370SOL    HW224573   3.754   0.874   4.130 -0.7930 -0.0545 -1.7680
 4371SOL     OW24574   0.693   0.478  16.677 -0.1020 -0.0636  0.8520
 4371SOL    HW124575   0.745   0.513  16.749  3.1249  1.2676 -2.1364
 4371SOL    HW224576   0.676   0.559  16.629 -1.2495 -2.1686 -2.3846
 4372SOL     OW24577   3.107   3.947   4.632  0.1175  0.1362  0.6043
 4372SOL    HW124578   3.156   3.948   4.714  3.0148  1.1436 -1.1221
 4372SOL    HW224579   3.173   3.902   4.579 -3.5691 -0.6453 -3.3012
 4373SOL     OW24580   1.104   4.203  14.225 -0.3450 -0.0512  0.0992
 4373SOL    HW124581   1.105   4.203  14.321  0.1674  0.1381  0.0967
 4373SOL    HW224582   1.125   4.114  14.198 -2.7791 -0.5586 -0.0996
 4374SOL     OW24583   2.344   1.171   0.194  0.5002 -0.0095 -0.0330
 4374SOL    HW124584   2.287   1.244   0.169  2.4346  0.9818 -1.5818
 4374SOL    HW224585   2.365   1.146   0.104  0.0967  0.7332 -0.3326
 4375SOL     OW24586   2.558   3.307   3.856  0.2649  0.3515  0.4269
 4375SOL    HW124587   2.614   3.306   3.779  0.9693 -0.6964  0.9598
 4375SOL    HW224588   2.611   3.263   3.922 -0.5873 -0.4064  0.5979
 4376SOL     OW24589   4.543   0.240  16.448 -0.3187 -0.6450 -0.3596
 4376SOL    HW124590   4.605   0.258  16.377 -0.5609 -1.5333 -0.7859
 4376SOL    HW224591   4.601   0.191  16.506  0.1586  0.1271 -0.1798
 4377SOL     OW24592   3.904   3.691   8.410  0.5589  0.1545 -0.0941
 4377SOL    HW124593   3.952   3.630   8.354 -0.8575  1.9901 -3.3089
 4377SOL    HW224594   3.821   3.690   8.362  0.2556  1.1304  0.3954
 4378SOL     OW24595   3.911   1.273   3.684  0.0731  0.6673  0.0399
 4378SOL    HW124596   3.920   1.211   3.756 -0.1641  0.3230 -0.2293
 4378SOL    HW224597   3.963   1.222   3.622  0.5788 -0.6869  1.5902
 4379SOL     OW24598   2.033   3.557   4.625 -0.7075  0.2837  0.2757
 4379SOL    HW124599   1.974   3.572   4.698 -0.2593  0.5404  0.5806
 4379SOL    HW224600   2.043   3.467   4.654 -0.5146  0.3122  0.2959
 4380SOL     OW24601   0.183   0.883   3.909 -0.3386  0.1428 -0.1741
 4380SOL    HW124602   0.270   0.843   3.918  0.8449  2.4441 -1.5601
 4380SOL    HW224603   0.193   0.943   3.835 -1.3714 -0.4992 -0.8248
 4381SOL     OW24604   1.184   3.878   1.777  0.6603  0.9007 -0.5759
 4381SOL    HW124605   1.173   3.955   1.833 -0.1436 -1.5540  2.6610
 4381SOL    HW224606   1.232   3.825   1.841 -0.5049 -1.7271 -1.8811
 4382SOL     OW24607   0.459   4.254   9.878  1.0672 -0.0887 -0.0969
 4382SOL    HW124608   0.446   4.168   9.837 -0.6293  0.8010 -1.4343
 4382SOL    HW224609   0.467   4.226   9.969  1.5690 -1.3315 -0.5190
 4383SOL     OW24610   0.813   0.907  10.419  0.1423 -0.3750 -0.2730
 4383SOL    HW124611   0.738   0.953  10.381 -1.5857 -0.6597  2.7739
 4383SOL    HW224612   0.828   0.947  10.506 -0.5855 -1.5730  0.3989
 4384SOL     OW24613   4.595   2.989   7.544  0.1683 -0.4175  0.0776
 4384SOL    HW124614   4.614   2.957   7.456  0.1010 -2.1119  0.6875
 4384SOL    HW224615   4.506   2.958   7.560  0.8695 -2.0376  0.8558
 4385SOL     OW24616   3.473   0.025   4.158  0.1894 -0.0073  0.1686
 4385SOL    HW124617   3.515   0.104   4.127 -0.5319 -0.2353 -1.3715
 4385SOL    HW224618   3.387   0.047   4.123 -0.1025  0.2904  1.0657
 4386SOL     OW24619   1.638   3.521  16.957  0.4494  0.1371 -0.8482
 4386SOL    HW124620   1.657   3.611  16.983 -1.3130  0.6345 -1.2360
 4386SOL    HW224621   1.690   3.466  17.015 -0.7949  0.7762  0.8649
 4387SOL     OW24622   3.859   2.151   1.058 -0.1886  0.6275 -0.5318
 4387SOL    HW124623   3.829   2.071   1.013 -0.6688 -0.0746  1.0473
 4387SOL    HW224624   3.793   2.158   1.127  1.6464 -0.6027  1.3298
 4388SOL     OW24625   0.227   2.718   8.264  0.0598 -0.3890  0.0885
 4388SOL    HW124626   0.179   2.665   8.327  1.9932 -1.0223  1.0195
 4388SOL    HW224627   0.149   2.772   8.248  1.0371  0.7053 -0.9632
 4389SOL     OW24628   3.709   2.680  17.054 -0.4686  0.2498 -0.5369
 4389SOL    HW124629   3.685   2.732  17.130 -0.2986  0.5919 -0.7156
 4389SOL    HW224630   3.777   2.622  17.087 -1.1047  0.6623  1.4647
 4390SOL     OW24631   1.219   0.303   2.088  0.1474  0.8548  0.0649
 4390SOL    HW124632   1.300   0.354   2.101 -0.1886  1.5539 -0.6223
 4390SOL    HW224633   1.200   0.263   2.173  1.1291  1.1178  0.4169
 4391SOL     OW24634   1.447   3.646   2.850 -0.1311 -0.5305 -0.5217
 4391SOL    HW124635   1.446   3.555   2.878 -0.9488 -0.9834 -2.0635
 4391SOL    HW224636   1.432   3.697   2.930  3.5124  0.0761 -0.1915
 4392SOL     OW24637   4.207   2.561  12.670  0.0526 -0.0636 -0.3826
 4392SOL    HW124638   4.270   2.615  12.718 -1.4357  2.1114 -0.8524
 4392SOL    HW224639   4.151   2.522  12.737 -1.8460 -0.1057 -1.9770
 4393SOL     OW24640   4.092   2.443   9.166  0.2439 -0.2825  0.2317
 4393SOL    HW124641   3.999   2.463   9.161  0.0241 -1.3749 -0.0783
 4393SOL    HW224642   4.128   2.481   9.086  0.8418  1.2822  1.2571
 4394SOL     OW24643   2.731   0.445  14.639 -0.0874  0.2736 -0.7570
 4394SOL    HW124644   2.794   0.407  14.700  0.3003 -0.0386 -1.3582
 4394SOL    HW224645   2.682   0.493  14.706  2.5970  1.8858  0.0761
 4395SOL     OW24646   1.288   3.096   6.479 -0.7626  0.4337  0.0909
 4395SOL    HW124647   1.343   3.037   6.427 -2.2352  1.0168 -2.1521
 4395SOL    HW224648   1.221   3.037   6.515  1.4248 -0.7131  2.2606
 4396SOL     OW24649   3.346   0.662   3.964  0.4013 -0.1616  0.0349
 4396SOL    HW124650   3.258   0.625   3.955  1.1372 -2.2513  1.4003
 4396SOL    HW224651   3.320   0.752   3.984  0.4588  0.3920 -2.3310
 4397SOL     OW24652   0.255   4.655   8.729 -0.0387  0.0161  0.4000
 4397SOL    HW124653   0.162   4.645   8.750  0.1749 -0.1449  1.2677
 4397SOL    HW224654   0.272   4.579   8.674 -1.3145 -0.3547  0.5220
 4398SOL     OW24655   3.660   3.272   8.286  0.2742 -0.7271  0.2476
 4398SOL    HW124656   3.612   3.354   8.283  0.0158 -0.8740  0.3603
 4398SOL    HW224657   3.716   3.282   8.363 -1.9869 -2.2375  2.0949
 4399SOL     OW24658   2.556   4.359   8.473 -0.2892  0.1760  0.0146
 4399SOL    HW124659   2.539   4.297   8.544 -1.8023 -0.0784 -0.5695
 4399SOL    HW224660   2.467   4.361   8.439 -1.2915  0.5076  2.6510
 4400SOL     OW24661   2.331   1.131   5.501  0.1160  0.2089 -0.2186
 4400SOL    HW124662   2.374   1.122   5.416  1.1033 -2.0790  0.5276
 4400SOL    HW224663   2.380   1.207   5.533  0.2099 -0.4910  1.3154
 4401SOL     OW24664   3.126   0.969   9.055 -0.4823 -0.5582 -0.0927
 4401SOL    HW124665   3.044   1.019   9.046  0.3440  0.3528 -2.8357
 4401SOL    HW224666   3.139   0.954   8.961  3.3787  1.2845  0.1426
 4402SOL     OW24667   2.818   0.064  17.583  0.0768 -0.1072  0.1991
 4402SOL    HW124668   2.814   0.135  17.646  0.8397 -0.0436  0.1730
 4402SOL    HW224669   2.872   0.105  17.516 -0.5493  0.1804 -0.1298
 4403SOL     OW24670   3.735   0.031  15.481 -0.1609  0.2539 -0.1293
 4403SOL    HW124671   3.735   0.120  15.448  1.3447  0.1888 -0.2756
 4403SOL    HW224672   3.676   4.716  15.416  0.2134  2.0888 -1.5572
 4404SOL     OW24673   0.827   4.669   2.505  0.1915  0.1194 -0.2721
 4404SOL    HW124674   0.877   4.686   2.425 -0.1604 -0.3155 -0.5795
 4404SOL    HW224675   0.795   4.580   2.494  1.7833 -0.1298 -2.8401
 4405SOL     OW24676   1.818   3.299   9.964 -0.6154  0.2550 -0.0440
 4405SOL    HW124677   1.798   3.390   9.944 -1.0524  0.4405  1.2286
 4405SOL    HW224678   1.912   3.306   9.984 -0.4895  1.4480 -1.0626
 4406SOL     OW24679   2.174   3.320   8.756  0.3071  0.1409  0.4202
 4406SOL    HW124680   2.136   3.233   8.747 -2.0379  1.3899 -1.6241
 4406SOL    HW224681   2.216   3.321   8.670  1.7777 -3.3316  1.0837
 4407SOL     OW24682   0.629   1.389   2.995  0.2665 -0.1368  1.3357
 4407SOL    HW124683   0.664   1.308   2.958 -1.5115 -0.3851  0.1673
 4407SOL    HW224684   0.664   1.449   2.929 -0.8549 -0.7071  0.2117
 4408SOL     OW24685   1.587   3.554  11.650 -0.1704 -0.1554 -0.0938
 4408SOL    HW124686   1.676   3.579  11.674 -0.0622 -1.4420  0.8290
 4408SOL    HW224687   1.589   3.583  11.559  0.8247 -1.4809 -0.4938
 4409SOL     OW24688   3.421   2.778   6.221 -0.1397  0.1643 -0.1060
 4409SOL    HW124689   3.383   2.787   6.309  0.6065 -0.2864  0.2589
 4409SOL    HW224690   3.478   2.701   6.224  0.0191  0.2190 -1.6285
 4410SOL     OW24691   3.269   1.349   4.162  0.3199 -0.2657 -0.0834
 4410SOL    HW124692   3.314   1.345   4.078 -1.5763  0.6169 -1.1330
 4410SOL    HW224693   3.222   1.432   4.169  0.1739 -0.4075  0.6797
 4411SOL     OW24694   1.795   0.193   4.163 -0.4812  0.5915 -0.7166
 4411SOL    HW124695   1.825   0.260   4.101 -0.7814  1.5947  0.2170
 4411SOL    HW224696   1.803   0.115   4.109  1.5960  0.7731 -0.6856
 4412SOL     OW24697   3.598   2.436   2.354  1.0097  0.0374  0.1457
 4412SOL    HW124698   3.645   2.353   2.361 -0.6381 -0.7395  1.8829
 4412SOL    HW224699   3.619   2.473   2.440 -1.6573 -1.3859  1.4092
 4413SOL     OW24700   0.153   1.876   0.900  0.6111 -0.3868 -0.4594
 4413SOL    HW124701   0.211   1.800   0.897 -2.8020 -3.0507  0.0948
 4413SOL    HW224702   0.069   1.841   0.870  1.7266 -1.8822 -1.8040
 4414SOL     OW24703   2.811   3.662   5.839 -0.2224 -0.0309  0.2111
 4414SOL    HW124704   2.808   3.697   5.928 -3.2755  1.9360 -0.6753
 4414SOL    HW224705   2.906   3.672   5.827 -0.5022  1.4966 -0.6724
 4415SOL     OW24706   3.258   1.772  17.414  0.0860  0.2475 -0.1928
 4415SOL    HW124707   3.258   1.852  17.465  4.2124 -0.7217  1.3710
 4415SOL    HW224708   3.295   1.802  17.331  0.5823  0.1567 -0.0070
 4416SOL     OW24709   1.202   4.246   9.578 -0.8454  0.2951  0.0492
 4416SOL    HW124710   1.239   4.160   9.555  2.0429  2.0320 -1.8923
 4416SOL    HW224711   1.215   4.256   9.672 -0.2016  0.6088 -0.0725
 4417SOL     OW24712   1.109   3.085  16.155  0.3728  0.3788  0.4784
 4417SOL    HW124713   1.049   3.034  16.208 -0.1396  1.3691  0.8620
 4417SOL    HW224714   1.045   3.139  16.108 -0.6776 -0.8187  0.5359
 4418SOL     OW24715   4.349   1.025   5.005  0.0925 -0.2219  0.5877
 4418SOL    HW124716   4.321   1.055   4.918  2.3345 -0.8556 -0.3541
 4418SOL    HW224717   4.407   1.095   5.037  0.3164 -0.0951 -0.0856
 4419SOL     OW24718   2.091   3.478  11.310 -0.0017  0.2837  0.7794
 4419SOL    HW124719   2.134   3.418  11.249  1.1598  0.9879  0.9069
 4419SOL    HW224720   2.051   3.419  11.374  1.1195 -0.8429  0.4442
 4420SOL     OW24721   0.880   2.415   8.987 -0.2154 -0.1560 -0.5513
 4420SOL    HW124722   0.909   2.488   9.041  0.4263 -1.7205  1.2076
 4420SOL    HW224723   0.826   2.459   8.922 -1.6144 -0.3431  0.4803
 4421SOL     OW24724   2.949   1.397   0.140  0.0520 -0.3593 -0.0319
 4421SOL    HW124725   2.860   1.417   0.168 -0.9504 -1.5844 -2.3064
 4421SOL    HW224726   2.929   1.377   0.048 -0.8775  2.9167 -0.5690
 4422SOL     OW24727   0.736   0.310   4.363 -0.7915  0.6834 -0.7517
 4422SOL    HW124728   0.672   0.265   4.419  0.9530 -1.3003 -0.3608
 4422SOL    HW224729   0.819   0.292   4.407 -1.4831 -1.4209 -0.2850
 4423SOL     OW24730   3.531   0.466   5.805  0.2412 -0.0774  0.2888
 4423SOL    HW124731   3.447   0.424   5.789 -0.2928  0.7626  0.8944
 4423SOL    HW224732   3.547   0.450   5.898 -0.4440 -0.2248  0.3770
 4424SOL     OW24733   1.539   1.487   8.490 -0.2309 -0.5082  0.8912
 4424SOL    HW124734   1.523   1.544   8.414  1.1708  0.7887  1.5785
 4424SOL    HW224735   1.617   1.518   8.535 -0.1239 -0.7632  0.8770
 4425SOL     OW24736   2.595   2.740   5.921 -0.1773  0.0590 -0.4619
 4425SOL    HW124737   2.589   2.827   5.958  0.5935 -0.1519  0.1552
 4425SOL    HW224738   2.529   2.695   5.974  0.9090  0.9640  1.6326
 4426SOL     OW24739   1.066   3.564   9.285 -0.0832 -0.3661 -0.2219
 4426SOL    HW124740   1.030   3.476   9.295 -1.1773  0.3567  2.1621
 4426SOL    HW224741   0.999   3.630   9.302 -0.8533 -1.5445  1.2513
 4427SOL     OW24742   0.311   4.431   4.652  0.3057  0.7365  0.2284
 4427SOL    HW124743   0.377   4.470   4.594  0.2922 -1.0158 -0.9476
 4427SOL    HW224744   0.238   4.466   4.600 -1.9119 -0.9286  2.2416
 4428SOL     OW24745   0.544   0.716   9.622 -0.0537  0.1044 -0.8850
 4428SOL    HW124746   0.582   0.693   9.537 -1.5499  0.8435 -1.7587
 4428SOL    HW224747   0.546   0.630   9.663  1.7273 -1.3226 -3.9903
 4429SOL     OW24748   0.636   2.897   7.248 -0.0627  1.2933 -0.5530
 4429SOL    HW124749   0.550   2.905   7.288  1.0867  0.4622  2.0780
 4429SOL    HW224750   0.636   2.803   7.262 -0.1843  1.4502  0.4832
 4430SOL     OW24751   3.287   0.508   4.253 -0.6615  0.0078 -0.1495
 4430SOL    HW124752   3.377   0.498   4.224 -0.0494  0.9706  1.4464
 4430SOL    HW224753   3.290   0.595   4.292 -2.1042  1.2431 -2.8299
 4431SOL     OW24754   0.464   0.508  17.580  0.1248 -0.5858 -0.2721
 4431SOL    HW124755   0.426   0.438  17.633 -2.2198  0.8725 -0.0308
 4431SOL    HW224756   0.531   0.460  17.532 -1.2609  0.0866 -2.8641
 4432SOL     OW24757   3.873   2.941   8.794 -0.4264 -0.1106 -0.2229
 4432SOL    HW124758   3.811   3.013   8.792  0.8152  0.9482 -0.6127
 4432SOL    HW224759   3.879   2.920   8.887 -0.1329 -2.5425 -0.7781
 4433SOL     OW24760   2.152   0.277   9.462  0.1146 -0.0810  0.0934
 4433SOL    HW124761   2.137   0.192   9.421  0.4034  0.6817 -1.6103
 4433SOL    HW224762   2.170   0.329   9.383 -1.4950 -0.3058 -0.4172
 4434SOL     OW24763   3.626   1.171   4.932  0.4699 -0.6098 -0.4588
 4434SOL    HW124764   3.658   1.126   5.010  2.7046  1.8126 -0.0103
 4434SOL    HW224765   3.668   1.256   4.937  1.3172 -0.8464 -3.4199
 4435SOL     OW24766   0.415   1.818   7.909  0.3380 -0.4976 -0.2052
 4435SOL    HW124767   0.503   1.829   7.873  1.1218  0.2667  1.9296
 4435SOL    HW224768   0.423   1.730   7.946  0.5335  0.0146  0.9532
 4436SOL     OW24769   1.841   2.764   0.908 -0.0670  0.0000  0.3530
 4436SOL    HW124770   1.840   2.721   0.994  1.8331 -1.5285 -0.3913
 4436SOL    HW224771   1.923   2.812   0.903 -0.4358  0.5780 -0.0404
 4437SOL     OW24772   3.590   1.331   5.616  0.1093  0.1607 -0.0537
 4437SOL    HW124773   3.531   1.256   5.630  0.1230  0.2470  0.4707
 4437SOL    HW224774   3.546   1.395   5.672  1.3894  0.2581  0.8438
 4438SOL     OW24775   1.175   0.566   2.382 -0.3049 -0.4476 -0.5700
 4438SOL    HW124776   1.095   0.520   2.354  0.9909 -1.5379 -2.4849
 4438SOL    HW224777   1.215   0.563   2.295 -3.2771 -1.0678 -1.9124
 4439SOL     OW24778   1.761   3.839   7.075 -0.0311  0.2520  0.0448
 4439SOL    HW124779   1.820   3.765   7.088 -0.2971 -0.1868 -1.1717
 4439SOL    HW224780   1.776   3.889   7.155  1.2586  0.3588 -0.2613
 4440SOL     OW24781   2.012   4.485   6.654  0.1733  0.4095 -0.3493
 4440SOL    HW124782   2.062   4.408   6.683 -1.0760 -0.1774  0.2223
 4440SOL    HW224783   1.963   4.509   6.732 -0.5320  1.9744 -1.2774
 4441SOL     OW24784   1.501   4.065  12.262  0.7166  0.4215 -0.7117
 4441SOL    HW124785   1.412   4.047  12.291  0.2176 -1.9595 -3.6754
 4441SOL    HW224786   1.493   4.159  12.247  1.6671  0.6899  0.4748
 4442SOL     OW24787   2.833   3.199   4.451 -0.3304  0.0544  0.1488
 4442SOL    HW124788   2.877   3.272   4.408 -1.0638 -1.1953 -2.6754
 4442SOL    HW224789   2.903   3.137   4.469  0.5660  0.8414 -0.6354
 4443SOL     OW24790   4.272   1.419   1.241 -0.2936  0.1964 -0.0771
 4443SOL    HW124791   4.201   1.464   1.288 -1.8053 -0.3846 -1.8096
 4443SOL    HW224792   4.281   1.483   1.171 -0.5978 -1.0161 -1.2296
 4444SOL     OW24793   3.318   3.189   8.525  0.1852  0.2945 -0.1125
 4444SOL    HW124794   3.340   3.151   8.440  1.1867  0.3225  0.1389
 4444SOL    HW224795   3.388   3.164   8.584  2.3236 -1.1714 -3.2670
 4445SOL     OW24796   2.462   3.474   2.183 -0.4288 -0.1841  0.0132
 4445SOL    HW124797   2.520   3.407   2.146  0.4296  1.0633 -0.8996
 4445SOL    HW224798   2.414   3.491   2.102  2.7404  1.0792 -1.5899
 4446SOL     OW24799   2.721   1.322   6.758 -0.5653 -0.0434 -0.1043
 4446SOL    HW124800   2.695   1.371   6.679 -0.8611 -0.7226 -0.4245
 4446SOL    HW224801   2.805   1.366   6.770 -1.1273  0.4441  1.9275
 4447SOL     OW24802   3.575   4.317   3.205 -0.4466 -0.2069  0.2059
 4447SOL    HW124803   3.639   4.358   3.147 -0.2956 -0.4878  0.1748
 4447SOL    HW224804   3.507   4.275   3.152 -1.6455 -0.1919  1.7079
 4448SOL     OW24805   3.034   4.034  16.121 -0.3705 -0.1861  0.1627
 4448SOL    HW124806   2.943   4.053  16.144 -0.2587  1.0578 -0.4061
 4448SOL    HW224807   3.067   4.023  16.210  1.2644 -0.0679 -0.4234
 4449SOL     OW24808   1.071   0.688   0.241 -0.8269  0.0086 -0.3041
 4449SOL    HW124809   1.057   0.681   0.335 -2.1092 -2.2995 -0.6606
 4449SOL    HW224810   1.101   0.600   0.217  1.8532  1.1068 -0.9960
 4450SOL     OW24811   0.874   4.263   7.929 -0.3201 -0.5679  0.5614
 4450SOL    HW124812   0.783   4.278   7.955  0.3632  3.2420  0.8892
 4450SOL    HW224813   0.880   4.305   7.843 -0.0413 -1.0284  0.3602
 4451SOL     OW24814   1.040   2.354   8.430  0.1087 -0.0714  0.4175
 4451SOL    HW124815   1.114   2.381   8.375 -0.8575  1.7870  0.0245
 4451SOL    HW224816   1.080   2.333   8.514 -1.5633 -2.3803  0.6605
 4452SOL     OW24817   2.389   0.727   8.785 -0.7000 -0.0327  0.1376
 4452SOL    HW124818   2.365   0.787   8.855  0.5362  1.0664 -0.3935
 4452SOL    HW224819   2.387   0.786   8.710 -1.2785 -0.3891 -0.1263
 4453SOL     OW24820   1.189   1.846  15.221  0.2319  0.0959  0.7606
 4453SOL    HW124821   1.271   1.797  15.215  0.8714  1.1171  1.1254
 4453SOL    HW224822   1.139   1.789  15.279  1.5222 -0.9361  0.8501
 4454SOL     OW24823   2.835   0.775   5.777 -0.4928 -0.4312  0.0583
 4454SOL    HW124824   2.820   0.717   5.703  2.7396 -0.0354 -0.9105
 4454SOL    HW224825   2.767   0.739   5.834 -0.7766 -1.3462 -0.8722
 4455SOL     OW24826   0.687   4.540  17.209 -0.0865  0.7236  0.0935
 4455SOL    HW124827   0.653   4.485  17.138 -1.3346  0.2320  1.0714
 4455SOL    HW224828   0.777   4.510  17.204 -0.3517 -0.2290  1.1170
 4456SOL     OW24829   4.467   2.745   9.371  0.5804  0.0629  0.4654
 4456SOL    HW124830   4.526   2.762   9.444 -2.0722  0.1445  2.5915
 4456SOL    HW224831   4.450   2.653   9.393 -0.2649 -0.0040 -0.4773
 4457SOL     OW24832   4.073   4.380   6.922 -0.3850  0.1196 -0.1320
 4457SOL    HW124833   4.082   4.417   7.010  0.5350  1.1454 -0.6431
 4457SOL    HW224834   4.031   4.456   6.880  0.2820  1.5340  1.7580
 4458SOL     OW24835   3.418   1.213   6.317  0.3657  0.2307  0.4837
 4458SOL    HW124836   3.483   1.173   6.260 -1.5031 -0.2436 -1.2765
 4458SOL    HW224837   3.340   1.214   6.263 -0.5762  0.5310  1.8502
 4459SOL     OW24838   0.634   4.065  10.660  0.0325 -0.1109 -0.0607
 4459SOL    HW124839   0.582   4.003  10.608 -0.8804  0.9124 -0.3695
 4459SOL    HW224840   0.568   4.126  10.693  1.3867  1.5269 -0.3909
 4460SOL     OW24841   0.492   0.035  16.185  0.2354 -0.3689  0.4639
 4460SOL    HW124842   0.442   0.062  16.108 -0.6107  0.9452  1.4660
 4460SOL    HW224843   0.425   0.021  16.253  0.2009  1.3001  0.7575
 4461SOL     OW24844   0.396   2.652   6.065 -0.5303 -0.2260 -0.3363
 4461SOL    HW124845   0.475   2.628   6.113 -1.8637 -1.7154  1.0983
 4461SOL    HW224846   0.390   2.599   5.985  2.1876  3.3253 -2.8727
 4462SOL     OW24847   1.234   3.972  10.770  0.3550 -0.3333  0.1776
 4462SOL    HW124848   1.272   4.035  10.831  1.2160 -1.8684  1.2433
 4462SOL    HW224849   1.171   3.930  10.829  0.0883 -1.0826 -0.6344
 4463SOL     OW24850   2.685   0.091   5.830  0.1435 -0.8186  0.1689
 4463SOL    HW124851   2.686   0.018   5.768 -1.1832 -1.6495  1.1377
 4463SOL    HW224852   2.765   0.136   5.804  0.1303 -1.2365 -0.6204
 4464SOL     OW24853   0.845   4.179  10.857 -0.1812  0.1472  0.4199
 4464SOL    HW124854   0.873   4.131  10.779 -0.0611 -0.4581  0.8405
 4464SOL    HW224855   0.806   4.107  10.906  1.0097  0.7007  2.1526
 4465SOL     OW24856   2.347   3.942   9.989 -0.2114  0.3719  0.0317
 4465SOL    HW124857   2.415   3.931  10.056 -0.8436 -0.0344  0.6214
 4465SOL    HW224858   2.332   4.035   9.975 -0.9837  0.1021 -0.9370
 4466SOL     OW24859   3.809   1.072  14.649 -0.4262  0.0560 -0.1634
 4466SOL    HW124860   3.898   1.099  14.626  0.3834 -0.7717  1.9157
 4466SOL    HW224861   3.755   1.136  14.603 -3.0561 -2.5648 -0.7196
 4467SOL     OW24862   4.506   1.921   6.940  0.3043  0.0401 -0.4327
 4467SOL    HW124863   4.523   1.842   6.990  0.1679  1.1918  1.4619
 4467SOL    HW224864   4.435   1.880   6.891  1.8458  0.4304 -2.9993
 4468SOL     OW24865   2.197   2.336   1.767 -0.5556 -0.3827 -0.1578
 4468SOL    HW124866   2.102   2.345   1.781 -0.1954  0.2763  1.9015
 4468SOL    HW224867   2.234   2.389   1.838 -0.3156 -0.6066 -0.1187
 4469SOL     OW24868   2.630   3.104   5.423 -0.1570  0.6038  0.0512
 4469SOL    HW124869   2.684   3.047   5.368 -0.3088  2.3546 -1.9280
 4469SOL    HW224870   2.601   3.172   5.362 -0.7930 -0.1324 -0.4693
 4470SOL     OW24871   1.730   2.129  16.059 -0.1230 -0.6092  0.7873
 4470SOL    HW124872   1.735   2.051  16.114 -0.2538 -1.0475  0.1796
 4470SOL    HW224873   1.690   2.196  16.115  0.1703 -0.7651  1.1818
 4471SOL     OW24874   1.117   2.820   8.666 -0.2910  0.2211  0.5891
 4471SOL    HW124875   1.186   2.770   8.711 -0.6904 -0.4057  0.5037
 4471SOL    HW224876   1.156   2.907   8.673  0.3695 -0.2447  2.8546
 4472SOL     OW24877   2.166   0.437   3.679 -0.1605 -0.6904  0.1514
 4472SOL    HW124878   2.177   0.357   3.731 -0.2895  1.3456  3.2773
 4472SOL    HW224879   2.073   0.444   3.655 -0.0070 -0.7555 -0.4620
 4473SOL     OW24880   3.620   0.653   6.214 -0.0304 -0.0380 -0.5044
 4473SOL    HW124881   3.533   0.679   6.245 -0.3401 -1.2219 -0.3794
 4473SOL    HW224882   3.674   0.701   6.277 -0.2608 -0.9448  0.3864
 4474SOL     OW24883   1.345   2.429   5.032  0.4744 -0.5504  0.2137
 4474SOL    HW124884   1.258   2.431   5.071  0.2935  0.2075 -0.2328
 4474SOL    HW224885   1.370   2.337   5.039  0.6637 -0.4845  0.4229
 4475SOL     OW24886   4.358   0.762   4.039 -0.2073 -0.0552  0.4345
 4475SOL    HW124887   4.445   0.734   4.067  1.0802  0.3598 -3.0704
 4475SOL    HW224888   4.378   0.829   3.973  1.0642 -0.2581  0.6182
 4476SOL     OW24889   1.746   3.479   4.343  0.4376  0.6943 -0.1836
 4476SOL    HW124890   1.728   3.573   4.341 -0.5387  0.5240  0.5823
 4476SOL    HW224891   1.742   3.475   4.439 -0.4352 -0.1055 -0.2613
 4477SOL     OW24892   4.552   3.571   7.592  0.7011 -0.1605  0.2592
 4477SOL    HW124893   4.506   3.541   7.514  0.6676 -0.9454  0.5796
 4477SOL    HW224894   4.607   3.493   7.601  2.5838  1.2589  1.0835
 4478SOL     OW24895   2.813   1.155   0.450 -0.4244  0.0956  0.1826
 4478SOL    HW124896   2.763   1.094   0.504  1.2440 -0.5093  1.0606
 4478SOL    HW224897   2.746   1.221   0.434  0.6380  1.0791 -0.2410
 4479SOL     OW24898   0.650   3.700   3.858 -0.1968 -0.5128  0.1505
 4479SOL    HW124899   0.740   3.682   3.887  0.1076 -0.5843 -0.8514
 4479SOL    HW224900   0.590   3.627   3.874  0.3465 -1.1602 -0.8103
 4480SOL     OW24901   4.195   2.080   8.244 -1.1847  0.5023 -0.1082
 4480SOL    HW124902   4.228   1.990   8.248  0.0444  0.9467 -0.0579
 4480SOL    HW224903   4.122   2.060   8.186  0.7513  0.1260 -2.4363
 4481SOL     OW24904   2.173   4.674   5.724  0.2705 -0.5371  0.2075
 4481SOL    HW124905   2.266   4.696   5.724 -0.1372  1.1871 -1.9315
 4481SOL    HW224906   2.145   4.661   5.633 -0.0121  1.9570 -0.0637
 4482SOL     OW24907   0.924   3.435   2.650  0.3214 -0.2599 -0.5385
 4482SOL    HW124908   0.859   3.499   2.679 -0.0709 -2.2030  2.8632
 4482SOL    HW224909   0.907   3.443   2.556  1.1053  0.9753 -0.5861
 4483SOL     OW24910   3.031   1.617   3.074 -0.2338 -0.1770  0.0597
 4483SOL    HW124911   3.046   1.707   3.043  2.6421 -0.9078 -0.7298
 4483SOL    HW224912   2.942   1.599   3.045 -0.9953  0.1307  2.1836
 4484SOL     OW24913   4.401   0.613   7.892  0.0861 -0.5232 -0.2077
 4484SOL    HW124914   4.476   0.673   7.896  0.0798 -0.5954  0.8225
 4484SOL    HW224915   4.422   0.570   7.809  1.7350  1.4256 -0.8203
 4485SOL     OW24916   2.619   0.022   5.175 -0.2447 -0.3434 -0.1485
 4485SOL    HW124917   2.591   0.109   5.204 -3.5761 -0.9476 -1.5915
 4485SOL    HW224918   2.553   4.717   5.113 -0.3979  1.7943 -0.9814
 4486SOL     OW24919   1.152   2.793  15.918  0.2921 -0.2865 -0.5380
 4486SOL    HW124920   1.121   2.797  15.827 -1.8491 -0.0619  0.2162
 4486SOL    HW224921   1.222   2.729  15.907 -0.6756 -1.3634 -0.3721
 4487SOL     OW24922   0.073   4.643   2.718 -0.1011 -0.6328  0.0704
 4487SOL    HW124923   0.168   4.654   2.717 -0.0134 -0.9955  3.0539
 4487SOL    HW224924   0.041   0.009   2.719 -0.6502 -0.8093 -2.4407
 4488SOL     OW24925   3.321   0.424   4.883  0.1552 -0.1468  0.2168
 4488SOL    HW124926   3.359   0.443   4.797 -0.2554  2.1540  0.5555
 4488SOL    HW224927   3.324   0.329   4.891  1.8465 -0.0614  0.6222
 4489SOL     OW24928   1.506   0.700  13.494  0.1385  0.0002 -0.3273
 4489SOL    HW124929   1.495   0.620  13.546  2.0132 -0.1257 -0.1131
 4489SOL    HW224930   1.465   0.759  13.557  1.3093  1.0551 -0.5575
 4490SOL     OW24931   2.068   0.435   6.316  0.6097 -0.0636 -0.4649
 4490SOL    HW124932   2.041   0.524   6.295  0.9381 -0.3112 -1.9220
 4490SOL    HW224933   2.122   0.397   6.247 -0.7046 -4.2145  0.7562
 4491SOL     OW24934   3.275   4.527   9.949 -0.0317 -0.2912  0.9090
 4491SOL    HW124935   3.302   4.452   9.895 -1.2509  0.3867 -0.6573
 4491SOL    HW224936   3.316   4.600   9.902 -1.1515  0.3134  0.8752
 4492SOL     OW24937   4.606   3.481  13.135  0.2190 -0.1634 -0.1756
 4492SOL    HW124938   4.701   3.483  13.137  0.1781  0.7574  1.4354
 4492SOL    HW224939   4.588   3.447  13.223  0.1158 -1.7354 -0.8176
 4493SOL     OW24940   0.981   0.945   4.410 -0.2787 -0.5071  0.8267
 4493SOL    HW124941   0.896   0.902   4.420 -0.4216 -0.5438 -0.5319
 4493SOL    HW224942   1.006   0.966   4.500 -0.2091  0.5343  0.5591
 4494SOL     OW24943   4.614   1.107   4.072 -0.0368 -0.3166 -0.2611
 4494SOL    HW124944   4.529   1.132   4.109  1.0403  2.6170  0.2736
 4494SOL    HW224945   4.670   1.107   4.149 -0.1820  0.3517 -0.1498
 4495SOL     OW24946   0.641   3.350   1.514 -0.5362 -0.5255 -0.2675
 4495SOL    HW124947   0.621   3.365   1.606  0.9174 -2.2020  0.3271
 4495SOL    HW224948   0.678   3.434   1.486 -2.7176  0.9314  1.2623
 4496SOL     OW24949   3.231   3.577   5.608 -0.2268  0.0686  0.1964
 4496SOL    HW124950   3.257   3.574   5.516 -1.3312  0.7694 -0.1294
 4496SOL    HW224951   3.144   3.543   5.590  0.4737 -1.1893 -0.8381
 4497SOL     OW24952   0.070   1.969  10.151  0.4147  0.1802  0.4497
 4497SOL    HW124953   0.165   1.981  10.146  0.8739 -3.0017  1.0032
 4497SOL    HW224954   0.036   2.049  10.191  2.5404  0.6112  1.3872
 4498SOL     OW24955   1.908   0.775   7.319 -0.1449  0.2055 -0.5156
 4498SOL    HW124956   1.996   0.761   7.354  0.1152  1.3950 -0.7166
 4498SOL    HW224957   1.872   0.686   7.325 -0.1480  0.0126 -3.2426
 4499SOL     OW24958   4.419   2.672   7.611  0.2524 -0.1543 -0.0900
 4499SOL    HW124959   4.441   2.725   7.687  1.5688 -0.0700 -0.5367
 4499SOL    HW224960   4.489   2.607   7.618 -1.4818 -1.9362  0.8286
 4500SOL     OW24961   2.754   2.731   7.453 -1.0327 -0.1436 -0.8185
 4500SOL    HW124962   2.740   2.729   7.548 -0.5384  0.7926 -0.7243
 4500SOL    HW224963   2.839   2.690   7.441 -0.1405  1.6269 -0.5395
 4501SOL     OW24964   2.827   0.752   2.271 -0.3592 -0.0242  0.4678
 4501SOL    HW124965   2.895   0.775   2.208 -0.0682  0.4209  0.9449
 4501SOL    HW224966   2.751   0.727   2.218 -0.5305  0.1171  0.6487
 4502SOL     OW24967   0.867   3.101   6.325  0.3431 -0.0692 -0.1891
 4502SOL    HW124968   0.932   3.171   6.329 -0.6166  0.8590 -0.8675
 4502SOL    HW224969   0.895   3.052   6.247 -1.3706 -1.3461  0.0042
 4503SOL     OW24970   1.609   1.714   3.403  0.1170 -0.2796 -0.0840
 4503SOL    HW124971   1.605   1.724   3.498 -0.0476 -0.1851 -0.0999
 4503SOL    HW224972   1.623   1.806   3.380 -1.1336 -0.2032 -0.5559
 4504SOL     OW24973   0.923   2.378   4.131 -0.0398 -0.2634 -0.3964
 4504SOL    HW124974   1.001   2.372   4.076  0.7639  1.0886  0.6095
 4504SOL    HW224975   0.856   2.408   4.070 -1.2874 -2.0924  0.0709
 4505SOL     OW24976   1.426   3.299   7.493  0.0705  0.3782  0.2177
 4505SOL    HW124977   1.357   3.335   7.548  0.8579  0.4805  1.1466
 4505SOL    HW224978   1.485   3.375   7.502  1.6414 -0.8194  0.0491
 4506SOL     OW24979   0.713   1.537   5.773  0.3604  0.1323  0.2268
 4506SOL    HW124980   0.704   1.471   5.704 -1.4103 -1.0860  1.6361
 4506SOL    HW224981   0.737   1.613   5.720  2.5211  0.9484  2.3924
 4507SOL     OW24982   3.304   0.500  15.419 -0.2154 -0.2413 -0.0067
 4507SOL    HW124983   3.312   0.405  15.424 -0.3340 -0.2137  0.7359
 4507SOL    HW224984   3.370   0.530  15.356  0.0456 -0.2799  0.2468
 4508SOL     OW24985   1.836   1.855  15.913  0.1998 -0.0039 -0.5670
 4508SOL    HW124986   1.747   1.843  15.945  0.6181 -2.3679 -0.3003
 4508SOL    HW224987   1.831   1.819  15.824 -1.8813 -1.7683  0.2747
 4509SOL     OW24988   1.321   0.096   0.850 -0.0583  0.5924 -0.2560
 4509SOL    HW124989   1.234   0.105   0.811  0.5545  0.1647 -1.7234
 4509SOL    HW224990   1.327   0.002   0.864  0.9058  0.6720 -0.0920
 4510SOL     OW24991   1.946   3.711   3.919  0.5456 -0.3807  0.4033
 4510SOL    HW124992   1.894   3.760   3.982  1.2510  1.8572 -0.7587
 4510SOL    HW224993   1.978   3.782   3.863 -1.6582  0.1052 -0.2130
 4511SOL     OW24994   3.877   3.820   5.677 -0.3183  0.0031  0.2024
 4511SOL    HW124995   3.963   3.787   5.650  0.5800  1.3410  1.4183
 4511SOL    HW224996   3.859   3.777   5.761 -0.3635  2.5883  1.5352
 4512SOL     OW24997   3.050   3.020  12.053  0.4474 -0.5342 -0.1107
 4512SOL    HW124998   3.135   3.035  12.011  0.3283 -0.4623 -0.3223
 4512SOL    HW224999   3.060   3.058  12.140  2.2623  0.4517 -0.7421
 4513SOL     OW25000   3.325   0.229   3.869  0.1674 -0.5407  0.1719
 4513SOL    HW125001   3.405   0.203   3.822  0.0674 -0.0093 -0.2841
 4513SOL    HW225002   3.281   0.283   3.804  0.5046 -1.5183 -0.8887
 4514SOL     OW25003   4.716   2.244  16.145  0.2785  0.2521 -0.0032
 4514SOL    HW125004   0.026   2.174  16.090  0.1757 -1.0658  1.6178
 4514SOL    HW225005   4.673   2.191  16.212  2.4234  0.2257  1.3424
 4515SOL     OW25006   0.983   4.569   8.564  0.2455 -0.1625  0.3321
 4515SOL    HW125007   1.037   4.514   8.507  1.9933 -0.2138  2.0301
 4515SOL    HW225008   0.908   4.580   8.506 -0.6512  0.6558  1.6460
 4516SOL     OW25009   4.089   3.242   4.468 -0.1581  0.4414  0.1982
 4516SOL    HW125010   3.997   3.240   4.493 -0.0865  0.4884  0.4595
 4516SOL    HW225011   4.075   3.194   4.386 -0.3984 -1.1210  1.1614
 4517SOL     OW25012   0.510   2.080   4.464 -0.1079 -1.0894  0.8074
 4517SOL    HW125013   0.603   2.057   4.455  0.6726  2.4502 -0.5751
 4517SOL    HW225014   0.481   2.073   4.373 -0.1793 -1.3455  0.8502
 4518SOL     OW25015   3.052   2.414  10.922 -0.0883 -0.4103  0.7057
 4518SOL    HW125016   2.990   2.368  10.865 -0.1955 -0.2952  0.7283
 4518SOL    HW225017   3.052   2.504  10.891 -0.5623 -0.9473 -0.8498
 4519SOL     OW25018   0.721   3.903   7.545  0.9871  0.0546 -0.5561
 4519SOL    HW125019   0.792   3.966   7.533 -0.5544  2.4897  3.1277
 4519SOL    HW225020   0.660   3.947   7.604  0.6870 -3.3021  1.6207
 4520SOL     OW25021   2.828   0.828  10.882  0.2439 -0.3816  0.7500
 4520SOL    HW125022   2.868   0.905  10.842  0.2580 -0.0717  1.3557
 4520SOL    HW225023   2.822   0.764  10.811 -0.8518  0.9618 -0.3621
 4521SOL     OW25024   2.532   2.188   4.254  0.5352  0.1419  0.4067
 4521SOL    HW125025   2.544   2.255   4.187 -1.3249 -0.6679 -0.7402
 4521SOL    HW225026   2.585   2.221   4.326  2.4459 -1.3769 -0.2968
 4522SOL     OW25027   2.029   4.365   3.119 -0.0112 -1.1084  1.3140
 4522SOL    HW125028   2.029   4.431   3.188  0.2732 -0.2827  0.5315
 4522SOL    HW225029   2.086   4.400   3.050 -1.9459 -0.1305  0.2068
 4523SOL     OW25030   2.567   2.021  14.393 -0.2183  0.5276  0.0990
 4523SOL    HW125031   2.655   2.044  14.362  0.0173 -0.8576 -0.2929
 4523SOL    HW225032   2.583   2.034  14.486  1.1393  1.4748 -0.2639
 4524SOL     OW25033   4.281   3.910   2.151 -0.3735  0.6355 -0.0917
 4524SOL    HW125034   4.369   3.896   2.114  0.3710  1.8612  1.2163
 4524SOL    HW225035   4.295   3.944   2.239 -1.1571 -0.6428  0.5180
 4525SOL     OW25036   4.684   3.020   9.385  0.7432 -0.2151  0.0972
 4525SOL    HW125037   4.691   3.115   9.399  1.0259 -0.4209  1.3358
 4525SOL    HW225038   4.702   2.980   9.470 -2.7156 -1.7821  0.0939
 4526SOL     OW25039   1.449   1.161   3.366  0.0733  0.6506 -0.5832
 4526SOL    HW125040   1.384   1.131   3.429  0.7103 -1.7799 -1.0887
 4526SOL    HW225041   1.393   1.149   3.289 -0.4773  1.1261 -0.2533
 4527SOL     OW25042   1.621   0.813  11.258  0.2245 -0.2519 -0.2054
 4527SOL    HW125043   1.691   0.752  11.281  1.2292 -0.1289 -2.8819
 4527SOL    HW225044   1.637   0.822  11.164  0.6672  0.5558 -0.0529
 4528SOL     OW25045   2.565   2.769   2.577 -0.3466 -0.2429 -0.0158
 4528SOL    HW125046   2.491   2.822   2.609 -1.5593 -2.1091  0.2980
 4528SOL    HW225047   2.635   2.789   2.639 -0.3524  0.3329 -0.1915
 4529SOL     OW25048   3.332   0.562  12.346  0.2338  0.3587 -0.0965
 4529SOL    HW125049   3.396   0.502  12.308  0.8788 -0.0687  1.7107
 4529SOL    HW225050   3.343   0.636  12.287  1.4914 -0.1444 -0.4915
 4530SOL     OW25051   0.372   0.920   4.588 -0.1655 -0.4638 -0.5647
 4530SOL    HW125052   0.406   0.836   4.620  2.1417  1.3846  1.8207
 4530SOL    HW225053   0.443   0.978   4.562  2.2108 -3.0708  0.0697
 4531SOL     OW25054   4.293   0.081   7.254  0.3885 -0.7269 -0.0660
 4531SOL    HW125055   4.245   0.073   7.172 -0.6962  3.2658  0.1941
 4531SOL    HW225056   4.224   0.080   7.321  1.2136 -0.7462  0.7767
 4532SOL     OW25057   0.752   0.790   5.425 -0.4316 -0.7293  0.3105
 4532SOL    HW125058   0.815   0.858   5.452 -0.6957 -0.6937  0.8277
 4532SOL    HW225059   0.806   0.713   5.442  0.3614 -0.7108 -2.0400
 4533SOL     OW25060   0.007   0.335   8.160 -0.1979 -0.1120  0.5357
 4533SOL    HW125061   4.708   0.334   8.253  1.4572  0.0885  0.9372
 4533SOL    HW225062   4.683   0.256   8.135 -0.6359 -0.2217  1.7083
 4534SOL     OW25063   4.368   0.195   1.266 -0.6581  0.3745  0.3072
 4534SOL    HW125064   4.311   0.164   1.195 -1.2300  0.7431  0.6035
 4534SOL    HW225065   4.431   0.254   1.223 -2.4004  1.0012 -1.3845
 4535SOL     OW25066   2.403   4.365   1.022 -0.1925 -0.6780  0.0843
 4535SOL    HW125067   2.398   4.457   1.045  0.3695 -0.9953  1.4188
 4535SOL    HW225068   2.458   4.371   0.943 -0.2028  0.2338  0.1507
 4536SOL     OW25069   3.382   1.678   5.400 -0.1213  0.7848 -0.4942
 4536SOL    HW125070   3.395   1.691   5.494  2.0058 -1.4395 -0.4785
 4536SOL    HW225071   3.424   1.592   5.397  1.1069  1.3979 -1.0815
 4537SOL     OW25072   3.055   4.657  13.674 -0.0956 -0.0287  0.2782
 4537SOL    HW125073   3.039   4.599  13.599 -2.2887 -0.7995  1.3329
 4537SOL    HW225074   3.027   0.016  13.635 -0.1862  0.3196  1.0663
 4538SOL     OW25075   0.138   2.000   6.156  0.5028 -0.6110 -0.1852
 4538SOL    HW125076   0.100   1.919   6.122  0.7032 -1.2072  1.0229
 4538SOL    HW225077   0.063   2.048   6.191  0.6302 -0.9898  0.5998
 4539SOL     OW25078   4.138   1.863   3.032 -0.3997  0.0863  0.6174
 4539SOL    HW125079   4.114   1.804   2.960 -1.8657 -0.3752  1.4927
 4539SOL    HW225080   4.233   1.858   3.028 -0.4851 -2.1643  1.4802
 4540SOL     OW25081   4.276   0.340  16.471  0.2839 -0.2367 -0.2987
 4540SOL    HW125082   4.271   0.309  16.561  0.0378 -2.5803 -1.1138
 4540SOL    HW225083   4.370   0.342  16.455  0.2581 -1.6937 -0.5636
 4541SOL     OW25084   4.614   3.434   6.956 -0.2882 -0.1990 -0.8932
 4541SOL    HW125085   4.644   3.462   7.043  0.7329  0.5969 -1.5036
 4541SOL    HW225086   4.596   3.346   6.987  0.3178  0.7742  2.2218
 4542SOL     OW25087   1.715   2.600   4.411 -0.2111  0.1726 -0.2129
 4542SOL    HW125088   1.773   2.667   4.445 -1.1116  1.0715 -0.4563
 4542SOL    HW225089   1.766   2.571   4.335  1.4103  1.1112  0.5305
 4543SOL     OW25090   2.385   0.794   0.055 -0.2323 -0.2072  0.3282
 4543SOL    HW125091   2.462   0.738   0.060 -0.8303 -1.1016 -0.3743
 4543SOL    HW225092   2.397   0.853   0.129  3.1284 -0.1675 -0.2591
 4544SOL     OW25093   2.794   1.511   2.197 -0.2228  0.1149 -0.2584
 4544SOL    HW125094   2.715   1.535   2.150  0.0179  0.2350 -0.6015
 4544SOL    HW225095   2.810   1.421   2.170 -2.2352  0.0640 -1.2214
 4545SOL     OW25096   0.014   2.236  10.210  0.0690 -0.2313 -0.0266
 4545SOL    HW125097   4.645   2.239  10.230  0.1843  0.0397  0.4758
 4545SOL    HW225098   0.021   2.282  10.127  0.5828  0.2004  0.2531
 4546SOL     OW25099   1.067   0.122   0.739 -0.1003  0.2534  0.4314
 4546SOL    HW125100   1.064   0.060   0.665 -2.1053  0.9146 -0.0388
 4546SOL    HW225101   1.085   0.202   0.689 -1.4363  0.8609  0.9220
 4547SOL     OW25102   2.766   3.999   8.857 -0.1318  0.5609  0.1859
 4547SOL    HW125103   2.746   3.926   8.798  0.3707  0.1425  0.5284
 4547SOL    HW225104   2.762   4.072   8.794  0.5343 -0.7421 -1.3839
 4548SOL     OW25105   2.841   3.613   4.083 -0.3660  0.0899 -0.0605
 4548SOL    HW125106   2.787   3.688   4.060  1.9175  1.9133  0.4956
 4548SOL    HW225107   2.828   3.553   4.010  2.4798 -0.2086 -0.3325
 4549SOL     OW25108   0.825   3.632   9.093  0.1955  0.4876  0.2443
 4549SOL    HW125109   0.761   3.685   9.045 -1.2923 -0.2155  1.4219
 4549SOL    HW225110   0.864   3.705   9.141  1.1457 -0.4869  0.9297
 4550SOL     OW25111   4.047   1.562   5.497  0.4681  0.1974 -0.5442
 4550SOL    HW125112   4.031   1.570   5.403  0.0921  1.0941 -0.4041
 4550SOL    HW225113   4.117   1.626   5.511  0.6876 -1.0596  3.8179
 4551SOL     OW25114   2.601   3.617   6.138  0.3235  0.3795 -0.2602
 4551SOL    HW125115   2.527   3.623   6.078  1.1286 -2.4023 -1.5238
 4551SOL    HW225116   2.606   3.521   6.137 -0.8056  0.3441 -1.6581
 4552SOL     OW25117   0.645   1.096   3.331 -0.0642  0.0622 -0.0708
 4552SOL    HW125118   0.619   1.188   3.323  3.2318  0.8985 -1.2260
 4552SOL    HW225119   0.684   1.094   3.244  1.6396  0.0851  0.7020
 4553SOL     OW25120   2.740   0.926   7.565 -0.0243 -0.2043 -0.4845
 4553SOL    HW125121   2.721   1.016   7.592 -0.2958 -0.2022 -0.6984
 4553SOL    HW225122   2.836   0.928   7.572 -0.0392 -0.1260 -0.2815
 4554SOL     OW25123   0.370   4.237   8.767 -0.2971  0.1156  0.2134
 4554SOL    HW125124   0.361   4.143   8.786  2.9780 -0.2261  0.1151
 4554SOL    HW225125   0.323   4.242   8.684 -1.5916  1.9437  1.0578
 4555SOL     OW25126   1.298   4.170   2.333 -0.4555  0.1669  0.2066
 4555SOL    HW125127   1.337   4.106   2.273  1.9211  0.5916  1.3332
 4555SOL    HW225128   1.299   4.247   2.276 -0.2881  0.1213  0.1481
 4556SOL     OW25129   1.360   0.100   7.121 -0.0342 -0.6474  0.2299
 4556SOL    HW125130   1.415   0.039   7.171  0.9241  3.0589  3.6513
 4556SOL    HW225131   1.274   0.078   7.156 -0.0290  0.1137  0.6985
 4557SOL     OW25132   3.050   1.142  16.238  0.0164 -0.6371 -0.1039
 4557SOL    HW125133   3.106   1.215  16.264  0.7234 -1.4560  0.6709
 4557SOL    HW225134   2.968   1.181  16.206  0.4169 -1.6398 -2.3541
 4558SOL     OW25135   0.003   2.634   6.174  0.3277 -0.1487  0.4273
 4558SOL    HW125136   0.047   2.626   6.258  0.6599  0.2262  0.2925
 4558SOL    HW225137   0.037   2.562   6.120  1.0332 -0.5605  1.4310
 4559SOL     OW25138   2.423   0.297   9.009  0.0078  0.2364  0.0336
 4559SOL    HW125139   2.515   0.275   9.025  0.4443  2.8593  1.1074
 4559SOL    HW225140   2.432   0.392   9.000 -0.3449  0.3538  0.8851
 4560SOL     OW25141   0.975   4.571  14.740 -0.0084 -0.0822 -0.3450
 4560SOL    HW125142   0.995   4.524  14.659  0.6985 -0.0080 -0.2107
 4560SOL    HW225143   1.058   4.563  14.787  0.3234 -0.8595 -1.0603
 4561SOL     OW25144   2.641   3.555   9.339  0.1057 -0.0973 -0.1118
 4561SOL    HW125145   2.606   3.571   9.251 -0.6477  0.4912  0.2954
 4561SOL    HW225146   2.577   3.594   9.398  2.2396  3.2850 -0.0242
 4562SOL     OW25147   3.461   3.169   5.953 -0.0796 -0.1112  0.2393
 4562SOL    HW125148   3.518   3.120   6.013  2.3333  1.5856 -0.7014
 4562SOL    HW225149   3.518   3.174   5.877 -0.2410 -2.0642 -0.0216
 4563SOL     OW25150   2.563   0.071  16.993 -0.3334 -0.0107  0.2103
 4563SOL    HW125151   2.624   0.111  16.930 -0.3854  0.3668  0.4020
 4563SOL    HW225152   2.481   0.073  16.944  1.1074  2.8118 -2.1259
 4564SOL     OW25153   0.173   3.312   7.914 -0.0293  0.3040 -0.8650
 4564SOL    HW125154   0.088   3.313   7.959  0.5723  0.0881  0.2526
 4564SOL    HW225155   0.206   3.225   7.934  0.4416  0.0491 -2.7000
 4565SOL     OW25156   4.669   0.188   3.908 -0.4340 -0.2380  0.3559
 4565SOL    HW125157   0.025   0.240   3.893  0.3569 -1.4099  0.4925
 4565SOL    HW225158   4.706   0.115   3.958  0.4991  0.5577  0.8233
 4566SOL     OW25159   0.816   1.769   8.580  0.1971  0.5002  0.4852
 4566SOL    HW125160   0.747   1.720   8.537 -0.1139  1.3963 -0.0461
 4566SOL    HW225161   0.780   1.857   8.588 -0.7429  0.2992 -1.4728
 4567SOL     OW25162   0.592   4.615   8.252  0.2020  0.1465 -0.6519
 4567SOL    HW125163   0.603   4.659   8.336 -1.8941  0.3673 -0.4753
 4567SOL    HW225164   0.672   4.646   8.209 -0.1054  0.0717 -1.2817
 4568SOL     OW25165   3.022   3.145  13.553  0.3177  0.2314  0.6813
 4568SOL    HW125166   2.939   3.116  13.590 -1.0529  2.2284 -0.7859
 4568SOL    HW225167   3.050   3.055  13.536  1.4026  0.4135  1.4939
 4569SOL     OW25168   3.328   3.931   5.291  0.0052  0.2226  0.0041
 4569SOL    HW125169   3.246   3.921   5.339 -0.4876  1.2771 -0.6073
 4569SOL    HW225170   3.312   3.907   5.200 -1.2202  0.0561  0.2661
 4570SOL     OW25171   2.792   1.523   2.987 -0.2191 -0.1734 -0.0342
 4570SOL    HW125172   2.783   1.429   2.974 -1.9424  0.3900 -2.8321
 4570SOL    HW225173   2.741   1.555   2.913  1.6268  0.2401 -1.1216
 4571SOL     OW25174   0.411   0.907  12.951  0.5944  0.5637  0.0960
 4571SOL    HW125175   0.403   0.812  12.945 -2.3003  0.6871  1.7183
 4571SOL    HW225176   0.400   0.923  12.857 -1.5429  1.2004  0.4536
 4572SOL     OW25177   3.026   2.643   6.719 -0.6335 -0.1245  0.0953
 4572SOL    HW125178   3.103   2.699   6.728 -0.2912 -0.6405  0.3901
 4572SOL    HW225179   2.965   2.672   6.788  1.1031  0.7435  1.2684
 4573SOL     OW25180   0.914   2.153   6.831 -0.4299 -0.4459 -0.5634
 4573SOL    HW125181   0.917   2.237   6.878  0.2315  0.5927 -2.4687
 4573SOL    HW225182   0.821   2.149   6.810 -0.0321 -1.6471 -2.0398
 4574SOL     OW25183   1.372   3.514   5.504  0.3535 -0.4359 -0.7281
 4574SOL    HW125184   1.390   3.600   5.542 -0.1930 -0.6717  0.0629
 4574SOL    HW225185   1.384   3.539   5.412 -0.2674  0.6731 -0.5115
 4575SOL     OW25186   0.509   0.819   8.924 -0.3177 -0.7103 -0.2419
 4575SOL    HW125187   0.456   0.765   8.982  1.7495 -1.9972  0.4540
 4575SOL    HW225188   0.498   0.779   8.837 -0.6221  1.5268 -1.2288
 4576SOL     OW25189   2.722   4.503   2.639  0.3755 -0.3934  0.2461
 4576SOL    HW125190   2.814   4.485   2.623  1.1383  3.5729 -0.0217
 4576SOL    HW225191   2.702   4.456   2.720  0.9926 -0.0716  0.5882
 4577SOL     OW25192   1.452   4.024   7.939  0.1604  0.0664  0.8539
 4577SOL    HW125193   1.414   3.961   7.999  0.8156  0.2732  1.4799
 4577SOL    HW225194   1.510   3.967   7.889  1.3653  1.6211  0.4508
 4578SOL     OW25195   3.770   3.880   1.696 -0.4146 -0.2191 -0.0605
 4578SOL    HW125196   3.823   3.897   1.619  0.0750 -1.2370  0.0592
 4578SOL    HW225197   3.701   3.826   1.659  0.0798  0.7115 -2.2995
 4579SOL     OW25198   1.641   1.024   7.016 -0.3141  0.3568 -1.1105
 4579SOL    HW125199   1.629   0.944   6.965 -1.0178  2.6070 -4.5252
 4579SOL    HW225200   1.580   1.080   6.968 -0.8623 -0.7258 -1.6574
 4580SOL     OW25201   1.072   2.117   4.977  0.2676 -0.1001 -0.0483
 4580SOL    HW125202   1.059   2.115   4.882 -0.4728  0.8724  0.0303
 4580SOL    HW225203   1.056   2.024   4.995  0.3856  0.1659  1.4138
 4581SOL     OW25204   4.018   0.051   7.430 -0.5563  0.3564 -0.3744
 4581SOL    HW125205   4.010   4.680   7.442  0.7016  0.4779  1.4248
 4581SOL    HW225206   4.004   0.072   7.337 -0.2678 -0.1146 -0.5285
 4582SOL     OW25207   2.696   3.267   6.490  0.5582  0.2112 -0.7631
 4582SOL    HW125208   2.712   3.231   6.578 -1.1401 -0.1979 -0.6121
 4582SOL    HW225209   2.624   3.326   6.514  1.5049  0.7451  0.7910
 4583SOL     OW25210   3.021   3.284  14.966 -0.0701  0.2281  0.3125
 4583SOL    HW125211   2.928   3.279  14.986 -0.5497  1.0716 -1.7223
 4583SOL    HW225212   3.061   3.221  15.026 -0.1817 -0.4206 -0.2857
 4584SOL     OW25213   4.458   1.087  12.500  0.2635  0.5976 -0.1198
 4584SOL    HW125214   4.518   1.161  12.511 -0.3664  0.9885  0.6973
 4584SOL    HW225215   4.370   1.124  12.503  0.6807  1.4857  1.1233
 4585SOL     OW25216   1.188   3.350   9.919 -0.1336 -0.2916  0.4498
 4585SOL    HW125217   1.237   3.269   9.912  0.8893  0.3796 -0.0875
 4585SOL    HW225218   1.104   3.322   9.881  1.1018  0.0471 -2.5368
 4586SOL     OW25219   1.182   1.306  10.826 -0.6260  0.6233  0.2404
 4586SOL    HW125220   1.260   1.260  10.858 -0.4064 -0.0995 -1.2987
 4586SOL    HW225221   1.120   1.236  10.802  0.3488 -0.7683  1.7333
 4587SOL     OW25222   4.715   4.707   5.439 -0.2489  0.3023 -0.0765
 4587SOL    HW125223   0.000   4.612   5.449  0.2199  0.4798  1.2064
 4587SOL    HW225224   0.060   0.007   5.377 -0.5383 -1.5963 -1.1372
 4588SOL     OW25225   0.627   1.832   8.242 -0.3010  0.0252 -0.8108
 4588SOL    HW125226   0.551   1.882   8.272 -2.1680 -1.1807 -3.4344
 4588SOL    HW225227   0.698   1.891   8.267 -0.4966  0.2814 -0.8539
 4589SOL     OW25228   0.793   1.613   7.871 -0.6259 -0.1712 -0.2191
 4589SOL    HW125229   0.775   1.528   7.833 -0.0093 -0.3559 -0.1038
 4589SOL    HW225230   0.772   1.605   7.964  1.7718 -1.5038  0.2245
 4590SOL     OW25231   1.666   2.232  11.807  0.6601 -0.9062  0.5652
 4590SOL    HW125232   1.753   2.199  11.831  1.3096  0.8752  0.6380
 4590SOL    HW225233   1.667   2.216  11.712 -1.6364  0.6384  0.2893
 4591SOL     OW25234   0.707   1.480   6.612  0.2233  0.2840 -0.4094
 4591SOL    HW125235   0.743   1.528   6.687  0.1464  1.0433 -0.8510
 4591SOL    HW225236   0.752   1.396   6.613 -0.1571  0.1017  1.3741
 4592SOL     OW25237   2.810   0.939   7.187 -0.4006  0.3173  0.7861
 4592SOL    HW125238   2.742   0.980   7.241 -1.0790  0.3418 -0.0917
 4592SOL    HW225239   2.846   1.014   7.140  0.5121  1.6289  3.5606
 4593SOL     OW25240   1.609   4.164   6.924 -0.2224 -0.2838  0.0790
 4593SOL    HW125241   1.699   4.159   6.893 -0.7847  0.2350 -1.6779
 4593SOL    HW225242   1.558   4.184   6.845  1.1289  3.5100  0.1311
 4594SOL     OW25243   0.544   1.359  13.689  0.2909 -0.1185 -0.3665
 4594SOL    HW125244   0.551   1.264  13.680  2.6553  0.1023 -0.7939
 4594SOL    HW225245   0.638   1.361  13.704  0.0302  1.3916  1.0481
 4595SOL     OW25246   1.795   4.313  12.045 -0.0328  0.1953 -0.6130
 4595SOL    HW125247   1.749   4.389  12.009  1.3863  0.7633 -1.2409
 4595SOL    HW225248   1.764   4.318  12.136 -0.1672 -1.2757 -0.5855
 4596SOL     OW25249   3.403   2.020   6.492 -0.2822 -0.3529 -0.5210
 4596SOL    HW125250   3.499   2.012   6.490 -0.2897 -0.7155  0.7356
 4596SOL    HW225251   3.385   2.113   6.507 -0.5097 -0.2732 -1.2909
 4597SOL     OW25252   3.653   3.709   7.661  0.7317 -0.5528  0.1729
 4597SOL    HW125253   3.645   3.804   7.651  0.4665 -0.3009  2.6563
 4597SOL    HW225254   3.565   3.693   7.695  0.9748 -2.3775 -0.0734
 4598SOL     OW25255   0.778   3.867   6.914 -0.5009 -0.2560 -0.6303
 4598SOL    HW125256   0.863   3.909   6.898 -1.4665  1.3121 -1.6842
 4598SOL    HW225257   0.764   3.832   6.826 -2.1303  1.2104 -0.9591
 4599SOL     OW25258   3.746   4.018  10.069 -0.4377 -0.4046  0.3748
 4599SOL    HW125259   3.659   4.055  10.081 -0.5654 -0.5843  0.0078
 4599SOL    HW225260   3.762   3.985  10.157  1.9833 -1.7349 -0.5701
 4600SOL     OW25261   3.383   3.473  16.839 -0.2856 -0.0666 -0.5121
 4600SOL    HW125262   3.476   3.493  16.852 -0.9797  1.2890  2.2914
 4600SOL    HW225263   3.363   3.530  16.766  0.6172 -2.1406 -2.3796
 4601SOL     OW25264   4.111   2.843   7.476 -0.0589  0.1355 -0.1944
 4601SOL    HW125265   4.129   2.753   7.451  4.2446  1.2314 -1.0198
 4601SOL    HW225266   4.065   2.824   7.557 -0.6697  2.1424 -0.0573
 4602SOL     OW25267   3.248   4.303   4.343  0.2344  0.0859  0.6361
 4602SOL    HW125268   3.154   4.318   4.335  0.5597  2.0129  0.2840
 4602SOL    HW225269   3.272   4.339   4.428  0.8055 -2.9629  1.7751
 4603SOL     OW25270   2.082   2.636   1.372  0.6107  0.5227  0.3090
 4603SOL    HW125271   2.145   2.701   1.341  1.4302  0.1513  1.2194
 4603SOL    HW225272   2.070   2.574   1.299  0.6883 -0.0626  0.7940
 4604SOL     OW25273   4.551   2.452  11.485  0.4598  0.5052  0.0743
 4604SOL    HW125274   4.496   2.513  11.534 -2.3346 -0.8913 -1.2854
 4604SOL    HW225275   4.521   2.461  11.394  0.9085 -2.7217 -0.4166
 4605SOL     OW25276   3.818   2.643   4.937 -0.7194  0.5689 -0.0620
 4605SOL    HW125277   3.840   2.556   4.904 -1.0728  0.4712 -0.0411
 4605SOL    HW225278   3.729   2.631   4.970 -1.8350  2.9362 -2.3051
 4606SOL     OW25279   3.313   2.862   8.406 -0.5743 -0.2995 -0.0830
 4606SOL    HW125280   3.354   2.882   8.490  1.1538 -2.5909 -0.3758
 4606SOL    HW225281   3.349   2.929   8.348  3.1605 -1.7908  0.5353
 4607SOL     OW25282   1.962   1.435  14.137  0.4360  0.3255  0.4694
 4607SOL    HW125283   1.897   1.392  14.082  0.5467  1.0258 -0.2016
 4607SOL    HW225284   1.993   1.358  14.186  1.4776  0.4995  0.0761
 4608SOL     OW25285   3.295   3.855   4.407  0.0107 -0.2244 -0.1543
 4608SOL    HW125286   3.307   3.821   4.319 -0.8632  1.4360 -0.9273
 4608SOL    HW225287   3.201   3.866   4.397  0.2825  0.4824 -1.8957
 4609SOL     OW25288   2.219   2.984   6.457  0.2661  0.1732  0.1236
 4609SOL    HW125289   2.206   3.058   6.516  2.6564  0.6853  0.0167
 4609SOL    HW225290   2.226   2.904   6.508 -0.1620  1.4081  2.1063
 4610SOL     OW25291   4.259   1.623   9.607 -0.1301 -0.4036 -0.8639
 4610SOL    HW125292   4.297   1.538   9.631 -0.8075  0.9733  5.2681
 4610SOL    HW225293   4.169   1.616   9.641 -0.4313  2.5443 -1.0064
 4611SOL     OW25294   3.194   1.746   8.652 -0.1716  0.5445 -0.3132
 4611SOL    HW125295   3.271   1.726   8.705 -0.7503 -1.2214 -0.1664
 4611SOL    HW225296   3.125   1.703   8.702  2.6297 -2.1479  1.2126
 4612SOL     OW25297   2.510   0.607  16.672  0.1929  0.1178 -0.5098
 4612SOL    HW125298   2.465   0.661  16.737  0.3497  0.2785 -0.5337
 4612SOL    HW225299   2.526   0.531  16.728  0.7583  0.3011 -0.4305
 4613SOL     OW25300   0.550   0.424   5.905 -0.5712  0.1782  0.1320
 4613SOL    HW125301   0.510   0.337   5.900 -1.3002  0.5355 -0.1581
 4613SOL    HW225302   0.509   0.450   5.988 -1.4428  0.3383 -0.3592
 4614SOL     OW25303   1.893   4.592   4.122 -0.3508 -0.6401 -0.1737
 4614SOL    HW125304   1.987   4.592   4.138 -0.6616  3.3082  1.7026
 4614SOL    HW225305   1.880   4.565   4.032 -2.3311 -2.4278  0.6356
 4615SOL     OW25306   2.993   0.156   6.012 -0.2703  0.1505  0.2791
 4615SOL    HW125307   3.070   0.185   5.963 -0.2162 -1.3826 -0.5549
 4615SOL    HW225308   2.983   0.067   5.979  1.0001  0.1032  0.0380
 4616SOL     OW25309   2.701   1.609   4.407 -0.0398 -0.6762  0.0458
 4616SOL    HW125310   2.699   1.518   4.379 -1.4442 -1.4649  2.6998
 4616SOL    HW225311   2.795   1.625   4.399 -0.0850 -0.7346 -0.6022
 4617SOL     OW25312   4.570   3.655   3.543 -0.0791 -0.2219 -0.4790
 4617SOL    HW125313   4.490   3.707   3.540 -0.9542 -1.4555  1.6682
 4617SOL    HW225314   4.618   3.711   3.604 -1.4735  1.7112 -1.1291
 4618SOL     OW25315   3.629   1.402   4.174 -0.0787  0.6580  0.2322
 4618SOL    HW125316   3.701   1.380   4.234 -0.5824 -0.7544  0.3196
 4618SOL    HW225317   3.565   1.345   4.216 -0.3586  1.5821  1.0841
 4619SOL     OW25318   3.963   4.599  11.258 -0.5579 -0.7296  0.7546
 4619SOL    HW125319   4.010   4.653  11.195 -1.3616 -1.9181 -0.8626
 4619SOL    HW225320   4.035   4.570  11.314 -0.1148  0.3881  0.7570
 4620SOL     OW25321   0.480   2.903  12.313  0.0923  0.1585 -0.4396
 4620SOL    HW125322   0.430   2.876  12.389 -0.5270  1.0076 -0.5419
 4620SOL    HW225323   0.416   2.883  12.245 -0.2019 -3.7088  1.0079
 4621SOL     OW25324   0.916   1.025  12.041 -0.6705 -0.2932  0.3516
 4621SOL    HW125325   0.962   1.074  11.972 -1.2731  0.8082  0.7246
 4621SOL    HW225326   0.988   0.965  12.062  0.8267  1.1947 -0.4515
 4622SOL     OW25327   1.295   1.042   7.973  0.1431  0.0987  0.2321
 4622SOL    HW125328   1.377   0.992   7.969 -1.3847 -2.3423 -1.3242
 4622SOL    HW225329   1.300   1.069   8.064 -1.2690 -2.2276  1.0127
 4623SOL     OW25330   4.321   4.297   7.384 -0.4503  0.3957  0.2196
 4623SOL    HW125331   4.384   4.250   7.438 -0.7232 -0.6045 -0.3245
 4623SOL    HW225332   4.278   4.352   7.448 -0.1020 -0.0165  0.8065
 4624SOL     OW25333   2.945   3.513   3.064 -0.3761  0.4458 -0.2023
 4624SOL    HW125334   2.891   3.551   3.134 -0.0395 -0.2786  0.4385
 4624SOL    HW225335   2.949   3.587   3.004  0.2693  1.0160  0.5510
 4625SOL     OW25336   1.299   1.052  12.426 -0.1394  0.4661  0.1439
 4625SOL    HW125337   1.244   1.084  12.498 -0.1648  0.5165  0.1013
 4625SOL    HW225338   1.300   0.958  12.445  0.0102  0.4404  0.0080
 4626SOL     OW25339   2.035   0.080   5.096  0.2014 -0.2363 -0.3017
 4626SOL    HW125340   2.061   0.077   5.189 -0.0905 -1.1830 -0.2502
 4626SOL    HW225341   1.958   0.137   5.100  0.9340  0.7014  0.5409
 4627SOL     OW25342   3.179   2.470   2.096 -0.1253  0.8687  0.3203
 4627SOL    HW125343   3.231   2.463   2.177 -1.3701  1.7875  1.2023
 4627SOL    HW225344   3.091   2.449   2.128 -0.0140 -1.2594 -0.8345
 4628SOL     OW25345   3.504   3.270   9.625 -0.0405 -0.2040 -0.2453
 4628SOL    HW125346   3.561   3.232   9.692  0.8920  0.0522 -0.9055
 4628SOL    HW225347   3.527   3.208   9.556 -2.0423  1.4068 -2.3686
 4629SOL     OW25348   2.102   1.882   6.115 -0.2366  0.2515  0.1657
 4629SOL    HW125349   2.013   1.851   6.101 -0.3878  0.3650  0.8805
 4629SOL    HW225350   2.097   1.957   6.055  0.8852 -0.4168 -0.7758
 4630SOL     OW25351   0.309   0.251  11.816  0.5139  0.0321 -0.3154
 4630SOL    HW125352   0.269   0.326  11.771 -1.0060  0.5473  1.9178
 4630SOL    HW225353   0.310   0.180  11.752 -1.1919 -2.2109  2.1683
 4631SOL     OW25354   0.982   0.099   2.690 -0.2946 -0.2231  0.4472
 4631SOL    HW125355   1.060   0.058   2.651 -0.9153  0.0370 -1.0550
 4631SOL    HW225356   0.920   0.051   2.636 -0.3926  1.6554 -1.0847
 4632SOL     OW25357   3.278   0.104   3.094  0.3945  0.9631 -0.2754
 4632SOL    HW125358   3.321   0.030   3.136 -1.5924 -0.7284 -1.2609
 4632SOL    HW225359   3.289   0.092   2.999 -1.3083 -2.0886 -0.0782
 4633SOL     OW25360   4.039   0.798   0.860 -0.3127  0.3633 -0.1115
 4633SOL    HW125361   4.029   0.890   0.835 -1.1533  0.6356  1.2460
 4633SOL    HW225362   4.024   0.754   0.776  0.3548 -0.3998  0.1683
 4634SOL     OW25363   3.585   2.109   7.151  0.1859 -0.0740 -0.1229
 4634SOL    HW125364   3.523   2.079   7.084  0.1380  0.6805 -0.4183
 4634SOL    HW225365   3.621   2.192   7.120 -1.7129  0.0796 -1.9432
 4635SOL     OW25366   1.034   4.338  10.584  0.0071 -0.1311 -0.4015
 4635SOL    HW125367   1.015   4.254  10.542 -1.7739  0.6661 -1.1484
 4635SOL    HW225368   1.128   4.326  10.599 -0.1175  0.0648  0.5093
 4636SOL     OW25369   4.010   0.298   0.074 -0.3655 -0.4043  0.6919
 4636SOL    HW125370   4.029   0.267  17.683  0.4072  0.3763  0.5791
 4636SOL    HW225371   3.947   0.365   0.049 -0.8393 -1.0670  0.0988
 4637SOL     OW25372   0.598   4.659   6.666 -0.0814  0.0029  0.2096
 4637SOL    HW125373   0.588   4.594   6.596 -0.8739 -2.8352  2.9492
 4637SOL    HW225374   0.601   0.011   6.608  2.2781  0.5482  1.0730
 4638SOL     OW25375   2.196   3.152  13.706 -0.4378  0.0832  0.0726
 4638SOL    HW125376   2.143   3.088  13.657  0.6030  0.2503 -1.2593
 4638SOL    HW225377   2.256   3.088  13.745 -1.7449 -1.5288 -0.5598
 4639SOL     OW25378   4.472   3.674   5.906  0.4352  0.1430 -0.0971
 4639SOL    HW125379   4.439   3.749   5.856  0.5412 -0.1050 -0.5428
 4639SOL    HW225380   4.408   3.666   5.976  0.6917 -0.1430  0.1059
 4640SOL     OW25381   0.232   0.786  10.522 -0.5683  0.3359 -0.4605
 4640SOL    HW125382   0.266   0.703  10.488  1.0585  0.2334  1.4531
 4640SOL    HW225383   0.314   0.819  10.558 -0.9292  0.0953  0.5793
 4641SOL     OW25384   2.316   4.721   4.726  0.0112 -0.0711  0.4809
 4641SOL    HW125385   2.255   4.711   4.800 -1.2802  0.2533 -0.5469
 4641SOL    HW225386   2.328   4.631   4.697 -1.8836 -1.0776  2.8107
 4642SOL     OW25387   2.491   0.528  15.126  0.0906 -0.0932  0.0073
 4642SOL    HW125388   2.476   0.435  15.140 -1.7228  0.0896 -0.7083
 4642SOL    HW225389   2.401   0.558  15.115 -0.4319 -1.4084  0.7569
 4643SOL     OW25390   3.672   4.617   8.696  0.2453  0.3549 -0.1790
 4643SOL    HW125391   3.671   4.657   8.783  2.8141  1.0582 -0.4719
 4643SOL    HW225392   3.612   4.544   8.710 -1.6649  2.0700  0.6592
 4644SOL     OW25393   2.702   2.696   3.594 -0.2531  0.1856 -0.3370
 4644SOL    HW125394   2.713   2.609   3.556  1.6108  1.1655 -1.9766
 4644SOL    HW225395   2.668   2.671   3.680  0.2081 -0.0563 -0.2262
 4645SOL     OW25396   2.029   2.120   0.006  0.4314  0.5503 -0.2029
 4645SOL    HW125397   2.063   2.134  17.615 -0.1647 -0.1991 -0.5511
 4645SOL    HW225398   1.964   2.053  17.681  1.8011 -0.7309 -0.3523
 4646SOL     OW25399   3.482   3.809  12.061  0.3991 -0.3072 -0.7473
 4646SOL    HW125400   3.446   3.826  11.975 -2.5114 -0.7121  0.4072
 4646SOL    HW225401   3.401   3.826  12.109  1.8244  0.0342  1.5470
 4647SOL     OW25402   0.372   0.498  14.295  0.0095 -0.0148  0.3292
 4647SOL    HW125403   0.361   0.589  14.323 -0.5153  0.2995 -0.9065
 4647SOL    HW225404   0.459   0.482  14.333 -0.4220  1.0410  1.7489
 4648SOL     OW25405   1.761   0.676   2.674 -0.1268  0.3329  0.1511
 4648SOL    HW125406   1.834   0.623   2.702  0.3328  0.3921 -0.9215
 4648SOL    HW225407   1.801   0.759   2.701 -0.1887  0.1781  0.7109
 4649SOL     OW25408   1.361   2.361   5.375  0.3297  0.5979 -0.0097
 4649SOL    HW125409   1.303   2.286   5.390 -0.1345  0.9108 -0.2562
 4649SOL    HW225410   1.438   2.332   5.425 -1.2029 -3.1487  0.2238
 4650SOL     OW25411   1.285   0.068   2.946 -0.0470  0.3153  0.3527
 4650SOL    HW125412   1.306   4.707   2.906 -0.5743  1.3562 -2.1139
 4650SOL    HW225413   1.304   0.138   2.884  2.7354 -1.6157 -1.0131
 4651SOL     OW25414   0.521   4.479  15.366 -0.1031  0.3761  0.2765
 4651SOL    HW125415   0.510   4.564  15.323  1.9949  1.1255  1.2097
 4651SOL    HW225416   0.469   4.416  15.315  0.3872 -0.3936  0.7262
 4652SOL     OW25417   2.649   2.022  17.372  0.1291  0.5870 -0.5847
 4652SOL    HW125418   2.627   2.095  17.430 -0.8855 -0.5821  0.4888
 4652SOL    HW225419   2.611   2.060  17.292  0.3791 -0.1330 -1.0448
 4653SOL     OW25420   2.690   1.582   8.041 -0.0365 -0.6342  0.0179
 4653SOL    HW125421   2.710   1.532   7.962  0.4526  1.7227 -1.3540
 4653SOL    HW225422   2.739   1.529   8.104  1.2095  1.2566  0.6458
 4654SOL     OW25423   2.506   3.057  15.378  0.3116 -0.7550  0.2805
 4654SOL    HW125424   2.540   2.983  15.428 -0.9619 -0.8006  1.0810
 4654SOL    HW225425   2.479   3.012  15.298  0.9978  1.3205 -1.1167
 4655SOL     OW25426   4.303   1.286  17.412 -0.8764 -0.0195  0.2301
 4655SOL    HW125427   4.385   1.292  17.461 -1.3832  0.7035  0.9862
 4655SOL    HW225428   4.282   1.374  17.442 -0.5909  0.8463 -2.1515
 4656SOL     OW25429   0.640   0.128  15.823  0.0033  0.4185 -0.1705
 4656SOL    HW125430   0.663   0.036  15.807 -1.2581 -0.0308  0.5484
 4656SOL    HW225431   0.716   0.156  15.873 -0.3128 -2.2679  1.8295
 4657SOL     OW25432   4.651   4.167   1.546  0.3636  0.4565  0.8039
 4657SOL    HW125433   4.716   4.098   1.531 -0.8199 -0.4190 -0.2869
 4657SOL    HW225434   4.673   4.237   1.485  3.7898 -1.9288 -0.6513
 4658SOL     OW25435   4.417   2.780   3.623  0.1106 -0.4005  0.0974
 4658SOL    HW125436   4.344   2.724   3.597 -0.3019  0.5584 -0.8160
 4658SOL    HW225437   4.374   2.805   3.705  0.8528 -1.6811  0.8681
 4659SOL     OW25438   2.981   2.423   5.217  0.0106 -0.7650 -0.0863
 4659SOL    HW125439   3.039   2.391   5.147 -0.6070  0.5310 -1.1967
 4659SOL    HW225440   2.929   2.343   5.226  1.0746 -1.3613  0.8155
 4660SOL     OW25441   1.281   1.858   1.544 -0.1314 -0.1725 -0.1349
 4660SOL    HW125442   1.345   1.894   1.605 -0.4727  0.1647  0.0191
 4660SOL    HW225443   1.217   1.842   1.613 -0.3961  0.8463 -0.1553
 4661SOL     OW25444   4.315   0.624  13.282  0.4848  0.1589 -0.4557
 4661SOL    HW125445   4.283   0.543  13.322  2.5503  0.3127  1.5081
 4661SOL    HW225446   4.256   0.641  13.209  0.2317  0.4547 -0.1792
 4662SOL     OW25447   0.249   2.154   3.498  0.0981 -0.2889 -0.3421
 4662SOL    HW125448   0.221   2.129   3.410 -0.7329 -0.0929 -0.1333
 4662SOL    HW225449   0.321   2.215   3.482  0.5750 -1.1991 -1.6749
 4663SOL     OW25450   4.572   0.869   3.104  0.1843  0.1626 -0.1056
 4663SOL    HW125451   4.618   0.871   3.189 -0.8257 -0.4055  0.4505
 4663SOL    HW225452   4.642   0.897   3.045  2.9770 -1.4421  2.4460
 4664SOL     OW25453   4.091   1.818   7.825 -0.2905 -0.0974  0.3714
 4664SOL    HW125454   4.016   1.790   7.774  0.4954  0.1419 -0.9163
 4664SOL    HW225455   4.132   1.873   7.758  1.5483 -0.2942  1.3259
 4665SOL     OW25456   0.390   2.055   4.859  0.2512 -0.2023  0.1634
 4665SOL    HW125457   0.424   2.140   4.830  0.4498 -1.1398 -2.2946
 4665SOL    HW225458   0.475   2.014   4.875  1.6923  2.0978 -1.6784
 4666SOL     OW25459   2.281   0.750   1.374  0.2819  0.5400  1.0168
 4666SOL    HW125460   2.247   0.682   1.432 -3.8974  1.5029 -0.2951
 4666SOL    HW225461   2.340   0.800   1.431  1.4483 -1.5206  1.5884
 4667SOL     OW25462   0.060   2.933   8.861 -0.5352 -0.3028  1.0882
 4667SOL    HW125463   0.138   2.882   8.887 -1.2794 -1.5639  0.8564
 4667SOL    HW225464   0.097   2.996   8.800  0.2178  0.6833  2.5618
 4668SOL     OW25465   1.731   3.996   8.738  0.4944 -0.0761 -0.4042
 4668SOL    HW125466   1.730   3.905   8.768  0.8554 -0.2228 -0.8438
 4668SOL    HW225467   1.678   4.045   8.801  1.9487 -0.2311  0.9593
 4669SOL     OW25468   2.030   2.661  16.757  0.1391  0.3619 -0.3138
 4669SOL    HW125469   1.965   2.628  16.818  0.8960 -0.7665 -0.1279
 4669SOL    HW225470   2.027   2.589  16.694  0.1724 -0.2365  0.3760
 4670SOL     OW25471   0.691   1.973   5.812 -0.7151  0.0678 -1.0353
 4670SOL    HW125472   0.741   2.050   5.841  0.0398 -0.9151  0.2962
 4670SOL    HW225473   0.689   1.915   5.888  0.6642 -0.9905 -1.8013
 4671SOL     OW25474   2.045   4.686  14.962  0.0411  0.4048 -0.0514
 4671SOL    HW125475   2.051   4.593  14.986  2.0791  0.3132 -0.9719
 4671SOL    HW225476   2.123   4.686  14.907  0.7456  0.8066  0.9520
 4672SOL     OW25477   0.224   3.381   9.399  0.0635 -0.1892  0.0542
 4672SOL    HW125478   0.288   3.329   9.448 -0.4273 -1.2317 -0.4090
 4672SOL    HW225479   0.141   3.354   9.440 -0.4289 -0.2798 -1.0187
 4673SOL     OW25480   2.896   0.219   5.707 -0.4687 -0.4658 -0.4064
 4673SOL    HW125481   2.944   0.291   5.666  2.4710 -1.2989  1.5458
 4673SOL    HW225482   2.962   0.151   5.691  0.4426  0.6036 -1.2229
 4674SOL     OW25483   3.480   0.461   4.629 -0.6242 -0.1172 -0.1172
 4674SOL    HW125484   3.400   0.513   4.626  0.0965  1.2023  2.9683
 4674SOL    HW225485   3.551   0.525   4.635  0.9351 -1.6363 -2.2798
 4675SOL     OW25486   4.197   4.469   1.847  0.7131  0.0314  0.2135
 4675SOL    HW125487   4.247   4.419   1.782  1.0635  1.1940 -0.4034
 4675SOL    HW225488   4.258   4.536   1.878 -0.4126  1.2688 -0.2629
 4676SOL     OW25489   1.522   3.016  17.244 -0.1006 -0.2630 -0.0360
 4676SOL    HW125490   1.433   3.047  17.261  0.9231  0.7998  3.4119
 4676SOL    HW225491   1.546   3.043  17.155  1.7297 -0.5627  0.3526
 4677SOL     OW25492   0.515   3.184   9.997  0.3817  0.7537  0.1387
 4677SOL    HW125493   0.449   3.251  10.013  0.1183  0.9986 -1.9736
 4677SOL    HW225494   0.557   3.185  10.083  0.2864  0.7809  0.1852
 4678SOL     OW25495   0.019   2.776   5.004 -0.6670 -0.3069 -0.0758
 4678SOL    HW125496   4.654   2.757   4.972 -0.5329 -0.3099 -0.4431
 4678SOL    HW225497   0.004   2.845   5.068  2.4138 -0.5704  0.9082
 4679SOL     OW25498   3.386   4.299  13.503 -0.5767 -0.0240  0.2308
 4679SOL    HW125499   3.368   4.210  13.473 -0.7220  0.6229 -1.5777
 4679SOL    HW225500   3.354   4.297  13.593 -2.0273  3.2024 -0.2224
 4680SOL     OW25501   4.383   1.061   7.086  0.2313  0.0098 -0.1396
 4680SOL    HW125502   4.419   1.149   7.088  2.1578 -0.7903  0.5432
 4680SOL    HW225503   4.449   1.030   7.024  2.0006 -0.7243  2.1257
 4681SOL     OW25504   4.094   1.309   2.737 -0.3179 -0.5522  0.0611
 4681SOL    HW125505   4.134   1.395   2.727 -1.3330 -0.3026 -1.8897
 4681SOL    HW225506   4.168   1.253   2.714  2.5070  1.6859  3.6669
 4682SOL     OW25507   2.732   2.508   0.752 -0.1710 -0.4311 -0.1899
 4682SOL    HW125508   2.765   2.596   0.769 -1.7326 -0.1741  1.5913
 4682SOL    HW225509   2.815   2.468   0.727 -0.5237  0.0175 -2.0697
 4683SOL     OW25510   1.568   3.399   2.359  0.1442 -0.1059  0.2363
 4683SOL    HW125511   1.542   3.373   2.271  1.4156 -0.3695 -0.0591
 4683SOL    HW225512   1.505   3.464   2.390  0.8601  1.3119 -1.2955
 4684SOL     OW25513   4.092   0.746   4.576  0.2335  0.4016 -0.3492
 4684SOL    HW125514   4.054   0.803   4.643  1.3898  0.9101 -0.1280
 4684SOL    HW225515   4.125   0.809   4.512  1.3796 -1.8947 -2.0158
 4685SOL     OW25516   1.834   2.750  12.737  0.4399 -0.2082 -0.2000
 4685SOL    HW125517   1.886   2.831  12.729 -1.2599  0.9248  0.1778
 4685SOL    HW225518   1.860   2.705  12.657 -1.0731 -1.7668  0.1905
 4686SOL     OW25519   0.070   0.887  11.005  0.0346  0.3526  0.4440
 4686SOL    HW125520   0.129   0.962  11.010  0.9130 -0.3446  0.7010
 4686SOL    HW225521   0.058   0.863  10.913  0.0822  0.8843  0.3025
 4687SOL     OW25522   2.409   1.055   2.929  0.6588  0.5725  0.6754
 4687SOL    HW125523   2.415   1.143   2.965  0.2680  1.0779 -0.4701
 4687SOL    HW225524   2.343   1.069   2.861  0.9243 -1.6341 -0.0734
 4688SOL     OW25525   1.843   3.912   4.113 -0.3444 -0.3469  0.3719
 4688SOL    HW125526   1.761   3.902   4.065 -0.0876  1.6740 -0.4683
 4688SOL    HW225527   1.816   3.968   4.185 -2.0993 -1.9018  0.8968
 4689SOL     OW25528   3.197   1.630   6.321 -0.2980 -0.2053 -0.0084
 4689SOL    HW125529   3.212   1.721   6.293  0.3492 -0.1489  0.5346
 4689SOL    HW225530   3.194   1.574   6.243  1.1841  0.6066 -0.6580
 4690SOL     OW25531   3.546   1.643  13.524 -0.3001  0.0825 -0.1068
 4690SOL    HW125532   3.494   1.565  13.545 -0.6574  0.7365  1.4542
 4690SOL    HW225533   3.624   1.598  13.492 -0.1358  1.0061 -0.9876
 4691SOL     OW25534   3.728   2.710   8.936  0.0514  0.2039  0.1002
 4691SOL    HW125535   3.769   2.785   8.979  0.8468 -0.9528  1.3816
 4691SOL    HW225536   3.636   2.733   8.946 -0.5589 -1.6501 -1.2472
 4692SOL     OW25537   4.096   1.430   3.836 -0.0771  0.4010  0.4450
 4692SOL    HW125538   4.040   1.385   3.772 -0.1663  0.1958  0.6694
 4692SOL    HW225539   4.092   1.363   3.904  1.3425  0.1545  0.2848
 4693SOL     OW25540   2.160   3.857  11.638  0.1329 -0.0307  0.3339
 4693SOL    HW125541   2.138   3.811  11.557  0.4162 -1.0057  0.8061
 4693SOL    HW225542   2.112   3.810  11.707  0.0766 -0.9833 -0.3458
 4694SOL     OW25543   2.815   3.588   7.092 -0.1408  0.1442 -0.3206
 4694SOL    HW125544   2.778   3.560   7.007  1.9345  1.5367 -1.6755
 4694SOL    HW225545   2.898   3.541   7.093 -0.0234  0.2557 -3.9467
 4695SOL     OW25546   1.277   4.037   2.622  0.3479  0.3831  0.2241
 4695SOL    HW125547   1.367   4.003   2.623 -0.0457 -0.6186  2.1023
 4695SOL    HW225548   1.275   4.080   2.537  0.6195  2.5508  1.3261
 4696SOL     OW25549   1.533   3.494  15.937 -0.4393 -0.9952 -0.0757
 4696SOL    HW125550   1.594   3.562  15.966  2.0284 -2.3399 -2.0867
 4696SOL    HW225551   1.589   3.418  15.950  1.3924  0.1200 -1.4308
 4697SOL     OW25552   0.538   1.405  12.699  0.6754 -0.6644 -0.0522
 4697SOL    HW125553   0.598   1.450  12.759 -1.3197  1.1309  0.6323
 4697SOL    HW225554   0.506   1.476  12.643  0.5149 -1.7197 -1.2802
 4698SOL     OW25555   4.471   4.571   7.277  0.2689  0.6576  0.0672
 4698SOL    HW125556   4.464   4.556   7.372 -0.4368  3.1534  0.4241
 4698SOL    HW225557   4.435   4.659   7.272  0.6218  0.7821 -0.2826
 4699SOL     OW25558   2.004   2.491   2.193  0.3921 -1.0614 -0.0303
 4699SOL    HW125559   2.062   2.561   2.224  1.1298 -1.4954 -0.4183
 4699SOL    HW225560   1.995   2.438   2.272 -0.3665  3.2625  2.7366
 4700SOL     OW25561   4.453   2.484   7.059  0.3062  0.2906 -0.0949
 4700SOL    HW125562   4.497   2.419   7.004 -1.1523  1.0087 -2.1045
 4700SOL    HW225563   4.383   2.430   7.094  1.4859  0.6353  2.8444
 4701SOL     OW25564   3.154   0.647  16.854 -0.0588 -0.0795  0.1431
 4701SOL    HW125565   3.169   0.626  16.946  0.4490 -1.6689 -0.2958
 4701SOL    HW225566   3.094   0.719  16.871  0.7795  0.4378  0.9157
 4702SOL     OW25567   2.980   1.103   9.712  0.3802  0.1939  0.0987
 4702SOL    HW125568   3.053   1.141   9.761  0.3807 -0.2982  0.4715
 4702SOL    HW225569   2.916   1.170   9.737 -0.5917 -1.0687  0.9677
 4703SOL     OW25570   3.642   2.765   8.093 -0.0383 -0.1326  0.6215
 4703SOL    HW125571   3.662   2.842   8.147 -0.9441  1.0448 -0.7384
 4703SOL    HW225572   3.560   2.789   8.049  1.2971 -0.1870 -1.8971
 4704SOL     OW25573   2.239   3.270   9.219  0.0343  0.0305 -0.5590
 4704SOL    HW125574   2.277   3.304   9.138 -1.1598  1.5492 -0.4823
 4704SOL    HW225575   2.153   3.237   9.192 -0.2910  1.5178 -1.3545
 4705SOL     OW25576   2.961   1.714   7.463 -0.0729 -0.3533  0.0767
 4705SOL    HW125577   2.995   1.735   7.376 -0.8547  1.7936  0.2823
 4705SOL    HW225578   2.940   1.624   7.441  0.7145 -0.7407  0.8877
 4706SOL     OW25579   1.820   4.722   3.052  0.7822 -0.0518 -0.4997
 4706SOL    HW125580   1.750   4.669   3.014  1.8371 -2.4207  0.8334
 4706SOL    HW225581   1.828   0.054   2.975 -0.1397  1.9295  0.8644
 4707SOL     OW25582   4.293   3.998  13.186  0.1189 -0.5539  0.5390
 4707SOL    HW125583   4.343   4.063  13.235  0.1083 -0.5681  0.5684
 4707SOL    HW225584   4.363   3.937  13.161 -1.0677 -2.1408  1.1055
 4708SOL     OW25585   0.228   0.296   2.673  0.2052  0.3295  0.0683
 4708SOL    HW125586   0.144   0.341   2.671 -0.6577 -1.3511 -1.4652
 4708SOL    HW225587   0.221   0.205   2.703  2.3222 -0.1079 -0.7690
 4709SOL     OW25588   2.232   4.292   8.787  0.4728  0.1756 -0.5462
 4709SOL    HW125589   2.207   4.298   8.880 -0.2328 -0.0627 -0.7188
 4709SOL    HW225590   2.155   4.338   8.753  0.2978 -0.2011 -0.6541
 4710SOL     OW25591   4.226   4.595  11.402  0.0100  0.0508  0.2492
 4710SOL    HW125592   4.217   4.567  11.493  0.2362  0.1138  0.2909
 4710SOL    HW225593   4.293   4.530  11.380  1.0807  1.2749 -0.0962
 4711SOL     OW25594   2.629   0.619  15.982 -0.4626 -0.1878  0.0847
 4711SOL    HW125595   2.613   0.683  15.913  0.5837 -1.6194 -1.4611
 4711SOL    HW225596   2.658   0.682  16.049  0.0770  0.9936 -1.2651
 4712SOL     OW25597   0.929   0.832  10.131  0.5486 -0.3543 -0.4550
 4712SOL    HW125598   0.920   0.768  10.060 -0.1682  0.5435 -1.1658
 4712SOL    HW225599   0.882   0.910  10.104  0.8452  0.1349  0.4546
 4713SOL     OW25600   2.897   4.429   5.666  0.0710  0.0052  0.5949
 4713SOL    HW125601   2.948   4.391   5.738  1.4674  1.1093  0.1830
 4713SOL    HW225602   2.963   4.424   5.597  1.5083  0.2834  1.9301
 4714SOL     OW25603   1.338   4.325   6.784 -0.0560  0.2891 -0.1778
 4714SOL    HW125604   1.408   4.388   6.799  0.1833 -0.3301  1.3595
 4714SOL    HW225605   1.264   4.377   6.816 -1.3525 -0.5063 -1.8459
 4715SOL     OW25606   3.756   3.987   7.120 -0.1921 -0.3161 -0.1701
 4715SOL    HW125607   3.796   3.927   7.057  0.0089  1.3540 -1.6228
 4715SOL    HW225608   3.802   3.964   7.200 -0.1799  1.8246  0.4473
 4716SOL     OW25609   0.326   2.303   4.522  0.8794 -0.5658 -0.0232
 4716SOL    HW125610   0.406   2.355   4.531  0.4311 -0.1297  1.3565
 4716SOL    HW225611   0.371   2.218   4.523 -0.6564 -1.3580  1.1622
 4717SOL     OW25612   0.432   0.957  11.034  0.2270 -0.1145 -0.0884
 4717SOL    HW125613   0.439   0.900  11.111 -1.9224  1.5987  1.3621
 4717SOL    HW225614   0.417   0.890  10.967  1.4620  1.2643 -1.7674
 4718SOL     OW25615   3.141   1.589  15.242 -0.1559 -0.3515  0.1085
 4718SOL    HW125616   3.221   1.550  15.277  1.3966  1.2771 -1.6041
 4718SOL    HW225617   3.141   1.678  15.278 -0.8847  0.0614 -0.8834
 4719SOL     OW25618   4.493   0.447   3.156  0.2072  0.1651 -0.3223
 4719SOL    HW125619   4.411   0.496   3.158  0.0217 -0.1236 -0.8595
 4719SOL    HW225620   4.547   0.511   3.202  1.7854  0.9834 -3.3135
 4720SOL     OW25621   4.377   2.155   2.684 -0.3257  0.3807  0.4468
 4720SOL    HW125622   4.399   2.241   2.719  0.7123 -0.4000  1.6848
 4720SOL    HW225623   4.317   2.182   2.615  0.0374 -2.4230 -0.9943
 4721SOL     OW25624   3.107   4.348   4.808 -0.0049  0.6138 -0.3256
 4721SOL    HW125625   3.014   4.370   4.810 -0.6925 -2.2764 -0.4886
 4721SOL    HW225626   3.114   4.293   4.730  0.7903 -0.9105  0.8171
 4722SOL     OW25627   3.100   1.008  17.179 -0.4616  0.2094 -0.1491
 4722SOL    HW125628   3.068   1.097  17.166  1.0948  0.7385 -0.3861
 4722SOL    HW225629   3.171   1.012  17.115 -0.5133 -0.8989 -0.2686
 4723SOL     OW25630   3.958   0.964   6.726  0.8114  0.0722 -0.9756
 4723SOL    HW125631   3.968   1.050   6.685 -2.2884  1.5634  1.4372
 4723SOL    HW225632   4.031   0.919   6.683  1.2457  1.9223 -2.1337
 4724SOL     OW25633   3.809   2.370   4.348 -0.2141 -0.7335 -0.1020
 4724SOL    HW125634   3.889   2.321   4.365  0.5855  0.2617 -0.9721
 4724SOL    HW225635   3.825   2.412   4.263 -1.5217  0.7784  0.3775
 4725SOL     OW25636   2.451   0.322   1.413 -0.6237 -0.2949 -0.0557
 4725SOL    HW125637   2.453   0.387   1.483 -0.5483 -3.3052  2.7290
 4725SOL    HW225638   2.415   0.371   1.339  2.5209  0.7513 -0.9227
 4726SOL     OW25639   4.541   1.028  13.858 -0.0796 -0.0630  0.1873
 4726SOL    HW125640   4.474   0.966  13.890 -1.3838  1.2375 -0.0295
 4726SOL    HW225641   4.609   0.965  13.834 -0.2848 -0.6044  1.0019
 4727SOL     OW25642   1.723   1.192   7.276  0.2455 -0.0057 -0.4530
 4727SOL    HW125643   1.746   1.173   7.185 -1.5078  1.2895 -1.1718
 4727SOL    HW225644   1.665   1.118   7.297  1.1145  0.0414  2.1133
 4728SOL     OW25645   3.706   4.569   7.380 -0.3669  0.1147  0.2434
 4728SOL    HW125646   3.713   4.537   7.290  0.2176  1.0442 -0.0466
 4728SOL    HW225647   3.650   4.647   7.370  0.2823  0.5678  0.1431
 4729SOL     OW25648   4.574   0.110   3.474 -0.1853  0.0500  0.5520
 4729SOL    HW125649   4.653   0.121   3.527  1.8716 -3.1343 -1.9075
 4729SOL    HW225650   4.579   0.017   3.455  0.3295 -0.2176  1.9645
 4730SOL     OW25651   2.777   2.188   2.969 -0.3867 -0.4172 -0.4125
 4730SOL    HW125652   2.820   2.148   2.894  0.7421 -0.3104  0.1799
 4730SOL    HW225653   2.814   2.134   3.039  0.7417 -2.0411 -2.2786
 4731SOL     OW25654   3.318   0.649   9.294 -0.1263 -0.1779  0.0026
 4731SOL    HW125655   3.253   0.625   9.229 -0.3043 -3.5988  1.4451
 4731SOL    HW225656   3.307   0.744   9.297  1.8377  0.0455  0.4347
 4732SOL     OW25657   4.008   3.352   3.777 -0.1080 -0.3434 -0.0278
 4732SOL    HW125658   4.037   3.432   3.733  1.0974 -1.2677 -0.9148
 4732SOL    HW225659   4.064   3.280   3.749 -1.6303 -0.3398 -3.1247
 4733SOL     OW25660   1.648   4.465  11.573 -0.2669 -0.3161 -0.2892
 4733SOL    HW125661   1.568   4.498  11.614  0.6963 -0.8415  2.0190
 4733SOL    HW225662   1.694   4.545  11.547  0.4879 -0.8230 -0.5119
 4734SOL     OW25663   1.859   1.469   7.621  0.0150  0.1101  0.1859
 4734SOL    HW125664   1.816   1.553   7.610 -1.8806 -0.8872  0.0676
 4734SOL    HW225665   1.861   1.461   7.717 -1.3925  1.5105  0.3278
 4735SOL     OW25666   2.059   3.922  13.539 -0.6575  0.0978 -0.0995
 4735SOL    HW125667   2.017   3.840  13.512 -1.7599 -0.5858  3.5778
 4735SOL    HW225668   2.083   3.970  13.460 -0.9718 -1.3678 -1.0896
 4736SOL     OW25669   4.530   1.063  10.232 -0.3738  0.0951  0.4685
 4736SOL    HW125670   4.557   0.971  10.232 -0.0195  0.1925  2.0691
 4736SOL    HW225671   4.453   1.067  10.289 -1.2750  0.4184 -0.7830
 4737SOL     OW25672   3.392   1.134   3.039 -0.0194 -0.5313  0.6765
 4737SOL    HW125673   3.329   1.190   2.994  0.6911  0.1899  0.5676
 4737SOL    HW225674   3.384   1.157   3.132  0.5810  0.7499  0.4196
 4738SOL     OW25675   1.779   1.777  12.792  0.0055 -0.7343 -0.5496
 4738SOL    HW125676   1.698   1.819  12.822  1.7800  1.0603  1.6813
 4738SOL    HW225677   1.839   1.851  12.796 -0.0639 -0.7757  1.3859
 4739SOL     OW25678   3.077   2.628   5.384  0.0518  0.1931 -0.1860
 4739SOL    HW125679   2.989   2.655   5.410  0.7149  2.5427 -0.4132
 4739SOL    HW225680   3.056   2.546   5.339  0.1791  0.9214 -1.5857
 4740SOL     OW25681   0.324   3.700  15.024  0.1844  0.0846  0.3617
 4740SOL    HW125682   0.268   3.659  15.090  0.8665  0.1101  0.9541
 4740SOL    HW225683   0.258   3.741  14.968  0.7979  1.7809  0.8725
 4741SOL     OW25684   3.214   1.007   8.124 -0.5339  0.3297  0.0936
 4741SOL    HW125685   3.274   1.033   8.054 -1.1267  0.0792 -0.5185
 4741SOL    HW225686   3.134   1.045   8.088  0.9203  1.9986 -1.3397
 4742SOL     OW25687   4.683   4.317   0.155 -0.2269  0.7033 -0.3098
 4742SOL    HW125688   4.713   4.356   0.073 -1.4898 -0.2274 -1.2092
 4742SOL    HW225689   4.595   4.284   0.140  0.5005 -0.4601 -1.9651
 4743SOL     OW25690   3.473   4.032   8.593  0.0992 -0.1488 -0.0564
 4743SOL    HW125691   3.437   4.003   8.677  0.7221  1.0492  0.6216
 4743SOL    HW225692   3.513   3.953   8.558 -1.3192 -1.8271  2.0917
 4744SOL     OW25693   3.062   3.905   4.029  0.3370  0.0157  0.0922
 4744SOL    HW125694   3.147   3.890   4.072  1.0372  3.2222 -0.1795
 4744SOL    HW225695   3.020   3.819   4.033 -1.5286  0.8468 -1.9535
 4745SOL     OW25696   1.023   3.460   6.301  0.6382 -0.1279  0.1221
 4745SOL    HW125697   0.934   3.452   6.265  0.3778 -0.5232  0.8474
 4745SOL    HW225698   1.036   3.399   6.373 -1.3079 -0.7810 -0.0830
 4746SOL     OW25699   4.133   0.671   1.152  0.2185 -0.5114  0.2718
 4746SOL    HW125700   4.181   0.608   1.205 -0.0757  1.0874  2.4571
 4746SOL    HW225701   4.057   0.672   1.211 -0.0747 -2.1931 -0.0660
 4747SOL     OW25702   1.690   1.597   2.004 -0.1887  0.1066  0.6692
 4747SOL    HW125703   1.640   1.543   2.066 -0.1298  0.1902  0.7894
 4747SOL    HW225704   1.624   1.594   1.935 -0.3015 -0.7475  0.8024
 4748SOL     OW25705   4.175   2.393   9.504  0.5488  0.2522 -0.4325
 4748SOL    HW125706   4.162   2.483   9.472 -0.2854  0.1170 -0.4810
 4748SOL    HW225707   4.094   2.353   9.472 -0.3050  0.8196  1.0218
 4749SOL     OW25708   4.354   1.182   6.573 -0.0487  0.1890 -0.6949
 4749SOL    HW125709   4.279   1.227   6.612  0.4413 -0.5670  1.1244
 4749SOL    HW225710   4.305   1.118   6.521 -1.9771  0.9537  0.1761
 4750SOL     OW25711   2.949   0.663   1.481  1.0274  0.1648  0.2375
 4750SOL    HW125712   3.030   0.675   1.531  2.0455 -1.2708 -1.0580
 4750SOL    HW225713   2.934   0.568   1.478 -0.4304  0.3352  1.6451
 4751SOL     OW25714   3.472   3.500   4.936 -0.5574 -0.1817 -0.1816
 4751SOL    HW125715   3.512   3.554   4.868 -0.7832  0.9381  0.5692
 4751SOL    HW225716   3.542   3.437   4.950 -0.1622  0.3063  0.0476
 4752SOL     OW25717   1.620   1.094   1.712  0.2523 -0.2801  0.3866
 4752SOL    HW125718   1.558   1.107   1.784 -1.6007  0.6173 -1.3411
 4752SOL    HW225719   1.593   1.006   1.685 -0.7862 -0.3775  1.7298
 4753SOL     OW25720   0.386   1.154  13.037  0.1655  0.2385 -0.4753
 4753SOL    HW125721   0.353   1.127  13.123 -0.3115 -0.1260 -0.7712
 4753SOL    HW225722   0.408   1.066  13.007  0.7059  1.0101 -2.2810
 4754SOL     OW25723   2.185   4.153  10.821 -0.0501 -0.8553 -0.0274
 4754SOL    HW125724   2.126   4.187  10.888  0.0272  0.1425 -0.4701
 4754SOL    HW225725   2.120   4.104  10.771 -0.6698  1.1905 -1.2003
 4755SOL     OW25726   2.366   1.056   7.616 -0.0418  0.3786 -0.0401
 4755SOL    HW125727   2.350   1.043   7.522 -1.0351 -0.4579  0.2486
 4755SOL    HW225728   2.298   1.002   7.655 -0.0594  0.8075  0.5125
 4756SOL     OW25729   1.890   0.505   2.288  0.1745 -0.2584 -0.3931
 4756SOL    HW125730   1.827   0.439   2.258 -0.3105  0.3574 -0.7422
 4756SOL    HW225731   1.879   0.575   2.224 -1.1520  1.6139  1.9220
 4757SOL     OW25732   3.304   1.247   6.903 -0.3475  0.0137  0.3181
 4757SOL    HW125733   3.276   1.337   6.885  1.5056  0.2723 -1.2409
 4757SOL    HW225734   3.306   1.209   6.815 -0.2160  3.0414 -1.0137
 4758SOL     OW25735   1.473   2.225   7.927  0.7691  0.0228  0.3033
 4758SOL    HW125736   1.535   2.156   7.905  0.8114  0.9576 -2.5091
 4758SOL    HW225737   1.431   2.180   8.000 -0.7078 -0.3888 -0.8000
 4759SOL     OW25738   0.256   2.443  14.800 -0.3097  0.0495  0.0589
 4759SOL    HW125739   0.342   2.408  14.776 -0.4989 -1.1098  1.0582
 4759SOL    HW225740   0.205   2.368  14.769 -0.4747  0.0895  0.2313
 4760SOL     OW25741   3.551   3.142   1.484  0.2055  0.5642 -0.6196
 4760SOL    HW125742   3.490   3.077   1.450 -0.3175  1.2275 -0.9632
 4760SOL    HW225743   3.530   3.210   1.419 -0.9915  1.6887  0.9364
 4761SOL     OW25744   0.351   2.093   9.150  0.3177 -0.2249 -0.0502
 4761SOL    HW125745   0.317   2.084   9.061 -1.5831  2.3462  0.4348
 4761SOL    HW225746   0.283   2.136   9.201 -0.2056  0.2196 -1.1199
 4762SOL     OW25747   4.397   1.950   8.731 -0.9173  0.5938  0.3080
 4762SOL    HW125748   4.454   2.014   8.689  0.5761  0.7826  2.5917
 4762SOL    HW225749   4.379   1.895   8.655 -0.7596 -0.0399  0.7290
 4763SOL     OW25750   2.093   0.695  10.464  0.3014  0.3188  0.3007
 4763SOL    HW125751   2.133   0.731  10.543  2.2106 -1.7980  0.2869
 4763SOL    HW225752   2.172   0.701  10.409 -0.2987 -0.1928 -0.6236
 4764SOL     OW25753   0.394   3.305   6.569  0.1077 -0.4629 -0.1658
 4764SOL    HW125754   0.451   3.253   6.512 -0.6039  0.2863 -1.5743
 4764SOL    HW225755   0.348   3.237   6.618  0.8288 -0.0101  1.1291
 4765SOL     OW25756   2.710   2.380  13.504 -0.5479 -0.5928  0.0504
 4765SOL    HW125757   2.805   2.386  13.513 -0.8257  0.8787  1.9748
 4765SOL    HW225758   2.701   2.295  13.547  3.0642 -0.1068  1.7704
 4766SOL     OW25759   0.564   2.191   5.331 -0.4494  0.3136  0.5498
 4766SOL    HW125760   0.612   2.261   5.287  0.4616 -0.1469  0.8014
 4766SOL    HW225761   0.638   2.163   5.385 -0.3364 -0.2645  0.1084
 4767SOL     OW25762   0.536   1.436  13.424 -0.1456  0.0800 -0.3358
 4767SOL    HW125763   0.621   1.454  13.384  0.6540 -3.0176 -0.0159
 4767SOL    HW225764   0.561   1.409  13.513 -3.7910  0.8889  0.9354
 4768SOL     OW25765   2.592   1.087   7.256 -0.2741  0.2504  0.3551
 4768SOL    HW125766   2.504   1.057   7.232 -0.3762 -0.5544  1.7157
 4768SOL    HW225767   2.569   1.162   7.310 -2.1246 -0.0189 -0.0757
 4769SOL     OW25768   3.929   2.455   5.443 -0.2411 -0.0782 -1.0145
 4769SOL    HW125769   3.840   2.452   5.479 -0.3389  1.0485 -1.1532
 4769SOL    HW225770   3.972   2.417   5.519 -1.7818 -0.0420 -0.1219
 4770SOL     OW25771   2.584   4.015   3.878 -0.1587 -0.0626 -0.5979
 4770SOL    HW125772   2.597   4.043   3.787 -0.2546 -1.3249 -1.0014
 4770SOL    HW225773   2.497   4.054   3.886  0.4008  1.0265  0.0303
 4771SOL     OW25774   3.772   3.303   4.218  1.0741 -0.3923  0.3466
 4771SOL    HW125775   3.858   3.318   4.181 -0.1359 -0.9829 -2.7013
 4771SOL    HW225776   3.745   3.228   4.164  1.6442  0.0422 -0.5289
 4772SOL     OW25777   2.703   2.307   4.482  0.3560  0.4917  0.4747
 4772SOL    HW125778   2.694   2.346   4.569  1.5635  1.8259  0.0088
 4772SOL    HW225779   2.783   2.256   4.499  0.2444  0.5929  1.2918
 4773SOL     OW25780   4.434   3.987   3.312  0.5942  0.4061 -0.0984
 4773SOL    HW125781   4.499   4.016   3.247 -0.5448  0.3023 -1.2849
 4773SOL    HW225782   4.351   3.974   3.266 -0.3673 -0.3871  1.9221
 4774SOL     OW25783   2.711   0.776   1.420 -0.5123 -0.0261 -0.4848
 4774SOL    HW125784   2.789   0.731   1.451  0.9970  1.5438 -2.0037
 4774SOL    HW225785   2.672   0.700   1.377 -1.5305 -0.1026  0.5567
 4775SOL     OW25786   1.996   1.134  14.156 -0.4061  0.8411  0.2077
 4775SOL    HW125787   1.925   1.138  14.093 -1.0083 -0.4739  0.7940
 4775SOL    HW225788   2.065   1.111  14.093 -0.7630  2.4774 -0.7819
 4776SOL     OW25789   1.768   0.369   6.982  0.2799  0.0735  0.2320
 4776SOL    HW125790   1.822   0.319   7.043  0.3397 -0.6603 -0.4148
 4776SOL    HW225791   1.700   0.302   6.979 -0.3812  0.7459  0.2645
 4777SOL     OW25792   2.397   3.320   4.457 -0.0559  0.1155 -0.0172
 4777SOL    HW125793   2.356   3.403   4.484 -1.0365 -0.2996 -0.2368
 4777SOL    HW225794   2.454   3.310   4.533 -0.8566  2.3167  0.8752
 4778SOL     OW25795   3.891   1.293   8.323 -0.5903  0.0174 -0.2062
 4778SOL    HW125796   3.909   1.227   8.256 -2.0868 -1.4388  0.8180
 4778SOL    HW225797   3.824   1.247   8.373 -2.7530  1.7464 -1.5221
 4779SOL     OW25798   4.691   1.906  12.063 -0.1673  0.1764  0.5239
 4779SOL    HW125799   4.643   1.983  12.032  0.4328  0.4668  0.2976
 4779SOL    HW225800   0.028   1.952  12.120 -0.2354  0.8696  0.0418
 4780SOL     OW25801   1.635   1.813   2.539  0.0687  0.3246 -0.0080
 4780SOL    HW125802   1.596   1.900   2.550  1.0455  0.9400 -1.4170
 4780SOL    HW225803   1.633   1.826   2.444 -0.2098 -2.5864 -0.3909
 4781SOL     OW25804   1.466   2.270   6.193  0.4220 -0.3052 -0.0393
 4781SOL    HW125805   1.532   2.322   6.148  0.2527 -0.5456 -0.5587
 4781SOL    HW225806   1.461   2.184   6.152 -2.4836  0.4612 -1.2487
 4782SOL     OW25807   3.707   3.575   3.200  0.5569  0.2244  0.0534
 4782SOL    HW125808   3.709   3.516   3.125  3.6820  1.0405 -0.5188
 4782SOL    HW225809   3.673   3.657   3.164 -0.7807  0.1275  1.1066
 4783SOL     OW25810   0.905   2.333  13.953  0.2564 -0.0347 -0.4294
 4783SOL    HW125811   0.994   2.335  13.987  0.1692 -0.5995 -0.1669
 4783SOL    HW225812   0.918   2.375  13.868  0.0141  0.8043 -0.0499
 4784SOL     OW25813   0.921   2.283   7.593 -0.7894 -0.2070  0.0945
 4784SOL    HW125814   0.939   2.365   7.548 -0.5702 -0.8574 -0.9995
 4784SOL    HW225815   0.928   2.319   7.681  0.8869  1.2303 -0.6307
 4785SOL     OW25816   3.398   1.389   3.920 -0.3065  0.1915  0.0570
 4785SOL    HW125817   3.478   1.435   3.896 -0.5854 -0.5424 -2.2936
 4785SOL    HW225818   3.383   1.358   3.831 -1.6598 -0.8158  0.6372
 4786SOL     OW25819   1.956   3.226  12.695 -0.2382  0.2391 -0.5848
 4786SOL    HW125820   2.031   3.252  12.748 -0.2072 -1.8922  0.4102
 4786SOL    HW225821   1.904   3.162  12.745  1.0139 -0.5644 -0.3136
 4787SOL     OW25822   4.499   3.930  12.494  0.0402 -0.0186  0.0289
 4787SOL    HW125823   4.526   3.989  12.423 -0.4214 -0.9518 -0.9193
 4787SOL    HW225824   4.415   3.896  12.462  0.7038 -4.8709  3.4110
 4788SOL     OW25825   2.782   0.314  17.689  0.3207  0.1732 -0.2250
 4788SOL    HW125826   2.839   0.330  17.614  1.6932  0.5609  0.8879
 4788SOL    HW225827   2.842   0.323   0.066 -1.9321  1.6328  1.4058
 4789SOL     OW25828   4.456   1.305   9.666  0.5997  0.0043 -0.6067
 4789SOL    HW125829   4.431   1.359   9.591 -0.9592  0.5152  0.2871
 4789SOL    HW225830   4.382   1.244   9.661  0.7783 -0.1749 -1.0304
 4790SOL     OW25831   4.366   1.279   6.036  0.9246  0.3298  1.0073
 4790SOL    HW125832   4.428   1.216   6.073  0.0615 -0.7397  0.6260
 4790SOL    HW225833   4.433   1.338   6.003 -0.0711  1.5233  1.1053
 4791SOL     OW25834   3.589   0.589   9.107  0.2845 -0.3455  0.4517
 4791SOL    HW125835   3.601   0.596   9.202 -1.1006 -0.2643  0.6196
 4791SOL    HW225836   3.494   0.588   9.098  0.4522 -0.3027 -1.3670
 4792SOL     OW25837   3.713   2.720   4.665 -0.0982 -0.4786  0.3753
 4792SOL    HW125838   3.785   2.720   4.728 -0.2383 -0.0455  0.5358
 4792SOL    HW225839   3.758   2.668   4.599 -0.7788 -0.2008 -0.3083
 4793SOL     OW25840   0.202   3.072  15.920  0.1853  0.3532  0.6437
 4793SOL    HW125841   0.202   3.000  15.983  0.2838 -1.1470 -1.0806
 4793SOL    HW225842   0.174   3.022  15.844 -1.4883 -1.4018  2.4037
 4794SOL     OW25843   1.215   1.323   5.318 -0.4353 -1.0646  0.1100
 4794SOL    HW125844   1.251   1.278   5.242 -1.0102 -0.7839 -0.3272
 4794SOL    HW225845   1.231   1.260   5.388 -1.0695 -1.1344  0.1882
 4795SOL     OW25846   1.151   2.955   0.883  0.3454  0.4553 -0.1903
 4795SOL    HW125847   1.153   2.958   0.979 -1.1848  1.0021 -0.1785
 4795SOL    HW225848   1.090   2.883   0.866  1.4204 -0.3175 -0.7465
 4796SOL     OW25849   1.491   2.086   2.869 -0.0294  0.3482  0.0396
 4796SOL    HW125850   1.442   2.167   2.886 -1.0748 -0.5034  1.0646
 4796SOL    HW225851   1.476   2.079   2.775  2.7512  0.9798 -0.4555
 4797SOL     OW25852   3.114   4.625   4.675  0.5486  0.6107  0.2819
 4797SOL    HW125853   3.187   4.672   4.716  0.6996 -0.5738  1.3354
 4797SOL    HW225854   3.043   4.682   4.704 -0.7175 -0.6572 -0.3685
 4798SOL     OW25855   3.206   1.295   3.626  0.0789  0.2568  0.2728
 4798SOL    HW125856   3.160   1.254   3.553  0.4479 -1.5596  1.0675
 4798SOL    HW225857   3.297   1.267   3.619  0.2800  0.9195  0.2541
 4799SOL     OW25858   0.797   3.249   9.600 -0.2102  0.5183  0.1262
 4799SOL    HW125859   0.733   3.183   9.573 -0.7880 -0.0186  2.8341
 4799SOL    HW225860   0.732   3.303   9.645  0.7631  2.4284 -0.7449
 4800SOL     OW25861   2.394   1.400   6.075  0.3352 -0.3253  0.0605
 4800SOL    HW125862   2.475   1.444   6.048  0.2632  0.3316  0.9367
 4800SOL    HW225863   2.331   1.472   6.070  1.2890  0.5853  1.0703
 4801SOL     OW25864   2.239   0.041   0.146  0.4939 -0.3594 -0.2638
 4801SOL    HW125865   2.148   0.038   0.178  1.3477  0.4116  2.2380
 4801SOL    HW225866   2.251   4.679   0.108  1.8291  0.4036 -1.5373
 4802SOL     OW25867   3.870   2.168   4.961 -0.0879  0.5386  0.4081
 4802SOL    HW125868   3.962   2.145   4.947 -0.2796  0.7359 -1.1849
 4802SOL    HW225869   3.873   2.165   5.057 -0.6747  1.0817  0.4446
 4803SOL     OW25870   2.459   1.570  14.542  0.2946 -0.5753  0.0773
 4803SOL    HW125871   2.468   1.562  14.447  1.3689  0.8101  0.0571
 4803SOL    HW225872   2.397   1.498  14.554 -0.2286 -0.0824  0.3515
 4804SOL     OW25873   4.211   4.556   6.205 -0.1488  0.1445 -0.1641
 4804SOL    HW125874   4.155   4.569   6.281 -0.3514 -1.3774 -0.0527
 4804SOL    HW225875   4.162   4.502   6.142  0.0265 -1.3284  0.9473
 4805SOL     OW25876   3.049   1.676   5.239  0.4341  0.7998  0.2530
 4805SOL    HW125877   3.067   1.753   5.293  1.3031  1.1248 -0.4852
 4805SOL    HW225878   3.137   1.637   5.235 -0.4121 -0.9573 -1.1361
 4806SOL     OW25879   1.344   0.350  13.954 -0.6500 -0.5583 -0.2931
 4806SOL    HW125880   1.414   0.323  13.895  1.2383 -0.5128  1.9279
 4806SOL    HW225881   1.298   0.414  13.899 -3.0223 -0.7512  1.4546
 4807SOL     OW25882   0.056   2.568  14.972 -0.1548  0.1901  0.2740
 4807SOL    HW125883   0.061   2.647  14.919  0.0854  1.2094  1.8196
 4807SOL    HW225884   0.130   2.518  14.937  0.7956  1.4562  0.4808
 4808SOL     OW25885   3.216   0.488   8.848 -0.9340  0.2766  0.5077
 4808SOL    HW125886   3.126   0.487   8.814 -1.4395  1.6156  1.8039
 4808SOL    HW225887   3.271   0.512   8.773  2.5487 -0.8607  2.7247
 4809SOL     OW25888   2.287   3.995   7.317 -0.2681  0.0760  0.0784
 4809SOL    HW125889   2.309   3.975   7.408  1.6834 -0.3422 -0.4828
 4809SOL    HW225890   2.337   4.076   7.309  0.6520 -0.3761  1.0987
 4810SOL     OW25891   0.186   0.315  15.043 -0.0117 -0.2370  0.1524
 4810SOL    HW125892   0.228   0.234  15.014 -2.0481 -1.3471  0.3690
 4810SOL    HW225893   0.181   0.365  14.961  0.7662 -0.6087 -0.1196
 4811SOL     OW25894   4.517   3.239  15.218 -0.0241 -0.3327 -0.1483
 4811SOL    HW125895   4.445   3.192  15.261 -1.3282  1.8106  0.0141
 4811SOL    HW225896   4.506   3.324  15.260  0.2206 -1.0437  1.3666
 4812SOL     OW25897   0.395   1.981   8.296 -0.2545 -0.8337 -0.0462
 4812SOL    HW125898   0.421   2.069   8.267  1.5846 -1.5105 -0.4694
 4812SOL    HW225899   0.305   1.998   8.324  0.0954 -1.6674  1.5392
 4813SOL     OW25900   4.709   3.793   2.242 -0.0742 -0.7862  0.4639
 4813SOL    HW125901   4.722   3.887   2.254 -3.3996 -0.6299  2.8596
 4813SOL    HW225902   4.643   3.779   2.310 -2.5269 -1.6130 -2.0282
 4814SOL     OW25903   2.226   1.946  16.424 -0.4528 -0.2122  0.5592
 4814SOL    HW125904   2.203   1.879  16.488  0.7158 -1.6750 -0.5343
 4814SOL    HW225905   2.309   1.974  16.462  0.1859  1.3776 -1.9540
 4815SOL     OW25906   4.028   1.879   6.846  0.5642 -0.2773 -0.3964
 4815SOL    HW125907   4.052   1.795   6.807  0.7530 -0.3826 -0.0567
 4815SOL    HW225908   4.104   1.936   6.838  0.8488 -0.8173 -1.4172
 4816SOL     OW25909   2.451   3.553   3.766 -0.4347  0.1341  0.5914
 4816SOL    HW125910   2.491   3.470   3.792 -1.5137 -0.4417  0.4480
 4816SOL    HW225911   2.430   3.581   3.855 -0.1750 -1.5330  1.1707
 4817SOL     OW25912   0.000   4.263   8.442  0.1289  0.2701 -0.1631
 4817SOL    HW125913   0.038   4.304   8.364 -1.4923  1.7055 -0.1954
 4817SOL    HW225914   4.668   4.201   8.396  0.6235 -1.7970  2.0289
 4818SOL     OW25915   3.291   0.253   2.391  0.4798 -0.1093  1.0831
 4818SOL    HW125916   3.197   0.262   2.375  0.8072  1.6084  0.0916
 4818SOL    HW225917   3.313   0.324   2.452 -0.7500  0.5911  0.7070
 4819SOL     OW25918   0.100   0.105   5.826 -0.3147  0.0939  0.0566
 4819SOL    HW125919   0.050   0.119   5.906 -2.0716 -0.7711 -0.8836
 4819SOL    HW225920   0.078   0.186   5.779 -0.1413  1.4176  2.2834
 4820SOL     OW25921   0.637   1.747   4.851  0.5205  0.5104  0.0753
 4820SOL    HW125922   0.576   1.735   4.923 -0.6910  0.4916 -0.9521
 4820SOL    HW225923   0.647   1.842   4.850 -1.6067  0.7117 -0.9401
 4821SOL     OW25924   4.085   2.410   2.271 -0.3766  0.3879  0.2863
 4821SOL    HW125925   4.041   2.337   2.227 -1.1649  0.1727  1.4038
 4821SOL    HW225926   4.091   2.474   2.201  2.8633 -0.5427 -0.3038
 4822SOL     OW25927   0.996   4.038   8.980  0.2136  0.4944 -0.6858
 4822SOL    HW125928   0.974   4.107   8.918 -0.3907 -0.3405 -1.4086
 4822SOL    HW225929   0.999   4.091   9.060  3.4323  0.7798 -1.0040
 4823SOL     OW25930   1.384   1.177   5.889  0.1564 -0.0109  0.2317
 4823SOL    HW125931   1.468   1.143   5.920 -0.1348 -1.9517 -1.1071
 4823SOL    HW225932   1.336   1.095   5.872 -1.5494  0.8160  1.0877
 4824SOL     OW25933   0.881   4.418   7.683 -0.1747 -0.4900  0.0188
 4824SOL    HW125934   0.973   4.402   7.663  0.4644  0.9644  1.7430
 4824SOL    HW225935   0.834   4.384   7.607  1.2611 -1.7432 -0.2991
 4825SOL     OW25936   2.649   2.368  13.864 -0.1127 -0.5297  0.4223
 4825SOL    HW125937   2.704   2.324  13.799 -1.8470 -0.8254 -0.8528
 4825SOL    HW225938   2.602   2.296  13.906 -0.0134 -1.6687 -1.4239
 4826SOL     OW25939   3.171   3.646   7.753 -0.2970 -0.5701  0.3065
 4826SOL    HW125940   3.132   3.724   7.714  0.1289 -0.7680 -0.5111
 4826SOL    HW225941   3.115   3.647   7.831 -0.7853 -3.3546 -0.0131
 4827SOL     OW25942   4.187   4.045  10.549 -0.3321 -0.3922 -0.1241
 4827SOL    HW125943   4.280   4.024  10.558 -0.3209  0.0882  0.8626
 4827SOL    HW225944   4.150   3.960  10.527 -0.2503 -0.6186  0.6156
 4828SOL     OW25945   4.571   3.522  15.297 -1.0087  0.1655 -0.0249
 4828SOL    HW125946   4.656   3.488  15.270 -1.6495 -0.8253 -0.7967
 4828SOL    HW225947   4.588   3.616  15.305  0.1621 -0.0138 -0.3445
 4829SOL     OW25948   4.199   0.521   1.366  0.5168  0.5251  0.2014
 4829SOL    HW125949   4.129   0.458   1.383  1.9670 -1.3341 -0.7757
 4829SOL    HW225950   4.281   0.479   1.393  0.9658 -0.0515 -2.0729
 4830SOL     OW25951   1.561   4.367   1.348  0.4312 -0.2792  0.1449
 4830SOL    HW125952   1.592   4.286   1.310  0.1015  0.0119 -0.7372
 4830SOL    HW225953   1.483   4.378   1.294  1.0579  0.9963 -0.5083
 4831SOL     OW25954   2.679   3.914   5.400 -0.0797  0.0685 -0.1570
 4831SOL    HW125955   2.710   3.881   5.484  1.4059 -2.0260 -1.5203
 4831SOL    HW225956   2.584   3.899   5.408 -0.0873 -0.3771 -1.0341
 4832SOL     OW25957   0.871   4.097   9.449  0.1265  0.5117  0.0466
 4832SOL    HW125958   0.925   4.049   9.512 -1.4180  0.0319  1.0205
 4832SOL    HW225959   0.821   4.152   9.509  2.8064 -0.0003  2.7441
 4833SOL     OW25960   1.161   0.545  12.267  0.4307 -0.0142 -0.5689
 4833SOL    HW125961   1.108   0.618  12.298  1.8932  1.0405 -0.5752
 4833SOL    HW225962   1.116   0.474  12.313 -1.8181  0.7707 -1.5425
 4834SOL     OW25963   4.624   2.986   2.830  0.4247 -0.3419  0.3401
 4834SOL    HW125964   4.662   2.902   2.854  0.1976 -0.4208  0.4201
 4834SOL    HW225965   4.570   2.961   2.754 -1.1600 -1.4896  1.8414
 4835SOL     OW25966   0.458   3.974  13.971 -0.4047 -0.3298  0.0234
 4835SOL    HW125967   0.513   4.052  13.963 -1.0765  0.2794  1.4761
 4835SOL    HW225968   0.515   3.917  14.023  2.8891  1.9611 -1.0794
 4836SOL     OW25969   0.422   2.456   5.387 -0.0960  0.0677  0.1637
 4836SOL    HW125970   0.445   2.549   5.381 -0.3423  0.0150 -1.6605
 4836SOL    HW225971   0.391   2.455   5.477  1.6670  1.0251  0.7659
 4837SOL     OW25972   0.094   1.678   6.296  0.5581 -0.3853  0.2480
 4837SOL    HW125973   0.135   1.737   6.234 -0.1278  1.2456  1.3596
 4837SOL    HW225974   0.022   1.638   6.249 -0.1045  2.4800 -1.1389
 4838SOL     OW25975   0.533   4.084   1.696  0.3901 -0.1843  0.2347
 4838SOL    HW125976   0.561   3.996   1.721 -2.3013 -1.0910  0.1487
 4838SOL    HW225977   0.590   4.088   1.619  0.3960 -2.7226  0.0947
 4839SOL     OW25978   1.693   1.336   3.398 -0.2458 -0.2533 -0.5970
 4839SOL    HW125979   1.622   1.272   3.393  1.7424 -2.4901 -0.2843
 4839SOL    HW225980   1.715   1.361   3.488 -0.4594  1.8024 -1.1080
 4840SOL     OW25981   0.606   3.748   1.079 -0.2127  0.5927 -0.0087
 4840SOL    HW125982   0.591   3.654   1.069 -0.0413  0.3769  1.7391
 4840SOL    HW225983   0.614   3.776   0.988 -1.1978 -2.7362 -1.1196
 4841SOL     OW25984   2.434   2.358   8.851 -0.8577  0.4771 -0.4247
 4841SOL    HW125985   2.397   2.277   8.817 -0.9099 -0.6507  2.3894
 4841SOL    HW225986   2.425   2.410   8.771 -0.5901 -1.4425 -1.6964
 4842SOL     OW25987   4.254   3.329   6.323 -0.0071 -0.0925 -0.1150
 4842SOL    HW125988   4.207   3.282   6.254  0.0140 -0.8718  0.3947
 4842SOL    HW225989   4.339   3.345   6.282 -0.0298  0.7697  0.1770
 4843SOL     OW25990   3.626   1.243  14.226  0.1889 -0.1356  0.3855
 4843SOL    HW125991   3.581   1.299  14.161 -0.9553 -0.3623  0.9766
 4843SOL    HW225992   3.712   1.240  14.184 -0.6244  1.1953 -1.4059
 4844SOL     OW25993   0.885   2.945   7.437 -0.1235 -0.2246 -0.1937
 4844SOL    HW125994   0.853   2.939   7.527 -0.3482  0.9674 -0.1876
 4844SOL    HW225995   0.969   2.898   7.434  0.5423  1.0644 -2.1313
 4845SOL     OW25996   2.537   2.867   7.262  0.1341  0.5024 -0.1509
 4845SOL    HW125997   2.483   2.798   7.224 -1.5856  1.2621  0.8941
 4845SOL    HW225998   2.619   2.825   7.288 -0.7282  0.4640  2.5868
 4846SOL     OW25999   2.478   1.089   4.736  0.5272  0.0448 -0.0758
 4846SOL    HW126000   2.500   1.120   4.824  0.4622  0.3447 -0.1619
 4846SOL    HW226001   2.518   1.157   4.682 -2.8489  1.1055 -1.2626
 4847SOL     OW26002   3.308   2.538   7.966  0.0716  0.4840 -0.1892
 4847SOL    HW126003   3.375   2.542   8.034  0.1274 -0.5551 -0.1884
 4847SOL    HW226004   3.255   2.616   7.983 -1.3034 -0.1431 -1.5489
 4848SOL     OW26005   1.524   1.343   9.312 -0.3235 -0.4098  0.9773
 4848SOL    HW126006   1.611   1.326   9.348  0.1634 -0.6244 -0.3183
 4848SOL    HW226007   1.510   1.434   9.336  1.8019 -0.1322  1.1552
 4849SOL     OW26008   0.329   4.274   9.483 -0.3777 -0.1538 -0.4209
 4849SOL    HW126009   0.350   4.347   9.424 -0.4966  0.2195  0.0041
 4849SOL    HW226010   0.347   4.314   9.568  3.6097 -0.6566 -0.9972
 4850SOL     OW26011   0.951   1.383   5.276 -0.1452  0.1755  0.2047
 4850SOL    HW126012   0.936   1.467   5.232  2.0117 -0.1439 -1.1200
 4850SOL    HW226013   1.046   1.378   5.279 -0.1550 -0.0831  0.0776
 4851SOL     OW26014   3.707   4.601   6.428  0.6818 -0.3027  0.1280
 4851SOL    HW126015   3.788   4.552   6.415  1.0905  0.2582  0.5430
 4851SOL    HW226016   3.697   4.578   6.521 -0.5401 -1.4367 -0.2852
 4852SOL     OW26017   0.821   2.686   5.395  0.3258 -0.2911 -0.2667
 4852SOL    HW126018   0.811   2.778   5.420  1.5744 -0.5444  1.2175
 4852SOL    HW226019   0.830   2.650   5.484  1.0540 -1.2671 -0.7321
 4853SOL     OW26020   3.104   2.146   5.933  0.1063  0.7157  0.2468
 4853SOL    HW126021   3.183   2.100   5.904  0.3068  1.0198  0.3130
 4853SOL    HW226022   3.065   2.076   5.985  0.2285  0.3363 -0.1720
 4854SOL     OW26023   0.938   2.070   3.569 -0.2268 -0.1476  0.2072
 4854SOL    HW126024   1.004   2.135   3.545  0.1602 -0.8809 -0.7181
 4854SOL    HW226025   0.869   2.124   3.530  1.1890  0.0074 -2.0471
 4855SOL     OW26026   2.205   1.595  15.491 -0.6865  0.1864  0.1399
 4855SOL    HW126027   2.229   1.633  15.407  1.5362 -0.6819  0.3669
 4855SOL    HW226028   2.290   1.560  15.520  0.2059  1.4601 -0.9373
 4856SOL     OW26029   1.250   0.274   4.494 -0.7252 -0.7584  0.2975
 4856SOL    HW126030   1.253   0.283   4.589  0.9004 -1.8580  0.3451
 4856SOL    HW226031   1.232   0.367   4.478  2.0642 -0.1703  0.5037
 4857SOL     OW26032   2.764   4.696  11.584  0.2409 -0.2150 -0.1965
 4857SOL    HW126033   2.805   0.005  11.505  0.4200  0.5939  0.2406
 4857SOL    HW226034   2.674   4.690  11.553 -0.4850 -1.7597  2.2304
 4858SOL     OW26035   1.604   3.573   3.158  0.7255 -0.3138 -0.3696
 4858SOL    HW126036   1.633   3.602   3.245  2.2760  0.4357 -1.1278
 4858SOL    HW226037   1.605   3.654   3.107 -0.7035  0.2087  0.4533
 4859SOL     OW26038   0.299   1.537   2.694  0.2241  0.3907  0.3688
 4859SOL    HW126039   0.384   1.497   2.672 -0.3381 -0.6283  0.0530
 4859SOL    HW226040   0.317   1.627   2.667  0.9199  0.2738  0.4194
 4860SOL     OW26041   1.181   3.944   9.828 -0.0188 -0.0350 -0.2153
 4860SOL    HW126042   1.096   3.970   9.865 -1.0422 -0.5339 -2.2083
 4860SOL    HW226043   1.225   4.029   9.831 -0.5149  0.3222 -2.7623
 4861SOL     OW26044   3.823   3.260   4.498  0.0795 -0.7007 -0.1563
 4861SOL    HW126045   3.785   3.272   4.411 -0.1624 -1.7063 -0.1903
 4861SOL    HW226046   3.842   3.352   4.515 -2.3444 -0.1338 -0.6444
 4862SOL     OW26047   2.494   4.673   7.973 -0.0661  0.3090 -0.3927
 4862SOL    HW126048   2.558   4.635   7.913  1.1797 -1.2076  1.8919
 4862SOL    HW226049   2.482   0.033   7.929  1.1419  0.1161 -1.0764
 4863SOL     OW26050   0.425   4.575  11.890 -0.2134 -0.4669  0.3736
 4863SOL    HW126051   0.367   4.537  11.956  1.6040  1.6588  3.1854
 4863SOL    HW226052   0.383   4.536  11.813 -0.4000 -0.0178  0.2484
 4864SOL     OW26053   1.463   3.303   6.135 -0.5550 -0.1308  0.4729
 4864SOL    HW126054   1.436   3.391   6.109 -3.0240 -1.0184  0.0790
 4864SOL    HW226055   1.549   3.336   6.163 -0.9422  0.0678  1.4100
 4865SOL     OW26056   3.268   2.687   7.700  0.1227 -0.0054 -0.2014
 4865SOL    HW126057   3.268   2.624   7.772 -1.2158 -1.3331 -1.3757
 4865SOL    HW226058   3.214   2.642   7.635 -1.1789  1.5176 -0.1811
 4866SOL     OW26059   2.329   4.389   7.879 -0.2089 -0.0645  0.4177
 4866SOL    HW126060   2.256   4.417   7.824  0.4887 -0.6725 -0.7933
 4866SOL    HW226061   2.301   4.301   7.904 -1.3781  0.3618  0.5810
 4867SOL     OW26062   4.123   3.278   8.726 -0.2967  0.3287  0.8444
 4867SOL    HW126063   4.061   3.294   8.797 -2.5015 -0.3691 -0.9242
 4867SOL    HW226064   4.142   3.186   8.742  0.5825  0.1374 -1.2722
 4868SOL     OW26065   1.454   4.224  14.353 -0.1208 -0.7374  0.0261
 4868SOL    HW126066   1.466   4.257  14.442 -1.2868  1.2154 -0.5364
 4868SOL    HW226067   1.405   4.299  14.320  0.0359 -0.3142  0.7825
 4869SOL     OW26068   0.544   1.478   7.678 -0.4125  0.0129 -0.4279
 4869SOL    HW126069   0.622   1.430   7.707 -0.2826  1.3091  1.4048
 4869SOL    HW226070   0.489   1.421   7.731  0.6370 -0.5993  0.0141
 4870SOL     OW26071   0.100   3.980  15.675  0.3628  0.0633  0.2404
 4870SOL    HW126072   0.063   3.948  15.593 -0.0859  1.6599 -0.1860
 4870SOL    HW226073   0.125   4.065  15.638 -0.1559  1.6865  3.6080
 4871SOL     OW26074   1.833   0.567   1.783  0.0952 -0.2348 -0.1730
 4871SOL    HW126075   1.773   0.492   1.787  0.6849 -0.6352  1.4914
 4871SOL    HW226076   1.866   0.565   1.694 -2.2162 -0.5539 -1.0199
 4872SOL     OW26077   2.930   1.836  14.090  0.0165 -0.1164  0.4541
 4872SOL    HW126078   2.996   1.893  14.050  1.6216 -1.8343  0.6849
 4872SOL    HW226079   2.977   1.796  14.164  0.6103 -1.4128 -0.6282
 4873SOL     OW26080   0.403   1.202   3.727 -0.6231 -0.1500 -0.5470
 4873SOL    HW126081   0.332   1.140   3.712  0.5360 -1.6599  0.0801
 4873SOL    HW226082   0.472   1.136   3.737  0.6881  1.4580  1.1123
 4874SOL     OW26083   1.990   0.283   5.864  0.2271 -0.2932  0.4770
 4874SOL    HW126084   1.914   0.328   5.900 -0.1481  0.5490 -1.3514
 4874SOL    HW226085   2.054   0.352   5.881 -0.4316 -0.0805  2.0192
 4875SOL     OW26086   1.457   1.313  15.345 -0.2677  0.3216 -0.8156
 4875SOL    HW126087   1.451   1.409  15.341 -0.3483  0.3821  0.8626
 4875SOL    HW226088   1.462   1.295  15.438  1.9826 -0.6860 -1.1290
 4876SOL     OW26089   4.284   2.691   7.121  0.4300 -0.1177 -0.3121
 4876SOL    HW126090   4.338   2.616   7.098 -1.2334 -1.4184  0.0363
 4876SOL    HW226091   4.281   2.675   7.215 -1.1921 -1.3192 -0.5613
 4877SOL     OW26092   0.341   4.094   7.868 -0.3099 -0.5932 -0.2329
 4877SOL    HW126093   0.273   4.037   7.833 -0.9785 -1.2933  2.1561
 4877SOL    HW226094   0.299   4.180   7.865 -0.2599 -0.6125 -1.2806
 4878SOL     OW26095   1.767   4.579   3.832 -0.3744 -0.0360 -0.7453
 4878SOL    HW126096   1.694   4.615   3.882  0.6311 -0.3041  0.9217
 4878SOL    HW226097   1.752   4.626   3.750  0.6621  1.6928  0.0742
 4879SOL     OW26098   3.504   3.551  13.479 -0.2424  0.2656  0.3412
 4879SOL    HW126099   3.458   3.488  13.424  0.2590 -1.3738  1.7932
 4879SOL    HW226100   3.573   3.586  13.422  2.5799 -3.4842  1.3934
 4880SOL     OW26101   2.175   4.555   4.137 -0.0213  0.1695  0.3918
 4880SOL    HW126102   2.252   4.557   4.081  0.1055  0.6440  0.5819
 4880SOL    HW226103   2.171   4.651   4.139 -0.5185  0.1466  0.6314
 4881SOL     OW26104   1.502   2.602   5.394 -0.3349 -0.2112  0.1559
 4881SOL    HW126105   1.436   2.537   5.369 -0.5552 -0.4846  1.4539
 4881SOL    HW226106   1.460   2.622   5.478  0.6618  0.8713  0.3932
 4882SOL     OW26107   3.658   2.815  11.317  0.6780  0.2339  0.0869
 4882SOL    HW126108   3.669   2.756  11.392 -0.0664 -1.3689 -1.0467
 4882SOL    HW226109   3.697   2.900  11.339  3.9069 -1.0188 -0.7668
 4883SOL     OW26110   1.434   3.467   9.870 -0.5260  0.0083  0.1885
 4883SOL    HW126111   1.398   3.539   9.819 -0.7376 -0.3550 -0.1728
 4883SOL    HW226112   1.357   3.418   9.901 -0.2614  0.4809  1.5933
 4884SOL     OW26113   2.409   4.044   1.005  0.2108 -0.0740  0.0230
 4884SOL    HW126114   2.388   4.027   0.913  0.2970 -1.5485  0.2837
 4884SOL    HW226115   2.454   4.128   1.001 -1.1526  0.6372 -0.5106
 4885SOL     OW26116   2.078   3.740   5.594 -0.2247 -0.5747 -0.6503
 4885SOL    HW126117   2.111   3.660   5.553  3.2327  1.1900 -1.2918
 4885SOL    HW226118   2.000   3.758   5.542  0.0614  4.6939  0.7918
 4886SOL     OW26119   4.493   0.417   1.441  0.4208 -0.5698 -0.1496
 4886SOL    HW126120   4.561   0.482   1.424 -2.2539  2.1651 -0.4869
 4886SOL    HW226121   4.499   0.368   1.359 -0.4050 -2.3014  0.8080
 4887SOL     OW26122   1.850   3.350  11.138 -0.1682  0.2543  0.7581
 4887SOL    HW126123   1.892   3.423  11.093  0.7913 -0.9170 -0.2379
 4887SOL    HW226124   1.804   3.388  11.213  0.6452 -2.0824  2.4845
 4888SOL     OW26125   0.039   2.671  13.362  0.8374  0.5535  0.7593
 4888SOL    HW126126   4.718   2.667  13.278  0.2209  0.2074  1.1088
 4888SOL    HW226127   4.696   2.639  13.422 -0.3554  1.2013 -0.2391
 4889SOL     OW26128   3.690   1.021  12.096 -0.2820 -0.0660 -0.2893
 4889SOL    HW126129   3.772   1.031  12.145 -0.2297 -1.6224 -0.0526
 4889SOL    HW226130   3.711   0.964  12.023  2.5456 -0.1985  0.6142
 4890SOL     OW26131   3.616   3.651   4.763  0.3126  0.4794  0.3472
 4890SOL    HW126132   3.582   3.703   4.690 -1.1714  1.3889  1.6925
 4890SOL    HW226133   3.711   3.654   4.751  0.3243  0.0585  0.3247
 4891SOL     OW26134   2.716   3.244   4.057 -0.3019  0.0420  0.4600
 4891SOL    HW126135   2.664   3.249   4.137  2.0242  2.7241  1.8090
 4891SOL    HW226136   2.789   3.190   4.088 -1.2864 -0.6952  1.4412
 4892SOL     OW26137   0.916   3.854   4.336 -0.0081  0.2675 -0.0121
 4892SOL    HW126138   0.891   3.863   4.244 -1.8022  2.3026  0.6772
 4892SOL    HW226139   1.003   3.817   4.325  0.3176  0.9908  0.1444
 4893SOL     OW26140   2.259   0.067  14.593 -0.0373  0.4662  0.0662
 4893SOL    HW126141   2.319   0.019  14.536 -0.7416 -0.5334  0.1501
 4893SOL    HW226142   2.304   0.151  14.585  0.5015  0.1446 -0.2603
 4894SOL     OW26143   3.820   4.563  12.492 -0.2263 -0.1376 -0.2135
 4894SOL    HW126144   3.726   4.566  12.473 -0.7588 -3.2091  1.8645
 4894SOL    HW226145   3.824   4.493  12.557 -1.9859 -1.5511 -1.6190
 4895SOL     OW26146   1.854   3.105   2.528  0.2586  0.3751 -0.3145
 4895SOL    HW126147   1.825   3.183   2.482  0.7535 -0.2214 -1.6179
 4895SOL    HW226148   1.783   3.085   2.588 -1.0886  2.2067 -1.3303
 4896SOL     OW26149   2.861   1.064   2.752  0.1994  0.3405  0.2198
 4896SOL    HW126150   2.790   1.117   2.716  0.1251  0.6809  0.8726
 4896SOL    HW226151   2.859   0.989   2.692  2.2183  1.4969 -1.3071
 4897SOL     OW26152   0.174   2.161   4.966 -0.2835  0.0042  0.1438
 4897SOL    HW126153   0.260   2.137   4.931 -0.4762  0.1113 -0.4119
 4897SOL    HW226154   0.199   2.245   5.005 -0.8148 -1.1362  2.9080
 4898SOL     OW26155   2.545   1.907   7.003  0.0403  0.4882 -0.2301
 4898SOL    HW126156   2.565   1.850   7.077  2.0830  2.2319  0.5897
 4898SOL    HW226157   2.530   1.845   6.932  0.5356 -0.0547  0.1322
 4899SOL     OW26158   0.475   3.636   8.837 -0.2508  0.3022 -0.2140
 4899SOL    HW126159   0.410   3.585   8.789  0.4054 -0.6176 -0.1265
 4899SOL    HW226160   0.419   3.662   8.911 -0.1292  1.1018 -0.4060
 4900SOL     OW26161   1.714   4.332  15.706 -0.3511  0.5769 -0.1278
 4900SOL    HW126162   1.771   4.408  15.696  0.3647  0.0218 -0.2054
 4900SOL    HW226163   1.685   4.325  15.615  0.9879 -0.9592 -0.4321
 4901SOL     OW26164   1.943   2.214   6.591 -0.3334  0.5986 -0.4454
 4901SOL    HW126165   2.023   2.255   6.623 -0.5143 -0.0508  0.8791
 4901SOL    HW226166   1.880   2.262   6.645 -1.2156  1.0188 -1.8540
 4902SOL     OW26167   2.346   0.130   4.273 -0.5413 -0.0480  0.1179
 4902SOL    HW126168   2.397   0.118   4.193  0.2111  1.6272  0.3588
 4902SOL    HW226169   2.393   0.203   4.312  0.8500 -0.9221  0.0817
 4903SOL     OW26170   2.829   4.225   6.833  0.0699 -0.6748 -0.1021
 4903SOL    HW126171   2.757   4.216   6.896 -0.5797 -1.6596 -0.9926
 4903SOL    HW226172   2.839   4.135   6.800 -1.0310 -0.9504  0.3100
 4904SOL     OW26173   3.651   0.596   6.806 -0.5245 -0.7183  0.4955
 4904SOL    HW126174   3.703   0.612   6.728 -0.5381 -0.1209  0.6109
 4904SOL    HW226175   3.618   0.685   6.818  2.9398  0.6650 -0.2396
 4905SOL     OW26176   3.134   1.642   9.914  0.2836 -0.4580 -0.7781
 4905SOL    HW126177   3.100   1.731   9.903 -2.3237 -1.3282  0.1776
 4905SOL    HW226178   3.166   1.614   9.829  2.7118  1.5035 -0.4958
 4906SOL     OW26179   3.303   4.314   0.370 -0.2352  0.3318  0.0707
 4906SOL    HW126180   3.214   4.336   0.341 -0.5371  0.6542  1.2652
 4906SOL    HW226181   3.344   4.255   0.307 -2.0098 -0.0020 -0.7633
 4907SOL     OW26182   2.627   1.598   2.761  0.0081 -0.0244  0.2455
 4907SOL    HW126183   2.681   1.611   2.683 -0.7016  0.8196 -0.1117
 4907SOL    HW226184   2.563   1.532   2.737 -0.5845  0.5195  0.3165
 4908SOL     OW26185   4.512   3.175  16.005 -0.7410  0.5602 -0.7436
 4908SOL    HW126186   4.448   3.244  15.986  1.4826  2.2933 -2.1034
 4908SOL    HW226187   4.593   3.200  15.958  0.1236  1.1307  1.0589
 4909SOL     OW26188   1.315   2.745  12.229  0.5392  0.5158  0.0109
 4909SOL    HW126189   1.272   2.778  12.150  1.2171 -0.6222 -0.8338
 4909SOL    HW226190   1.270   2.661  12.240  2.9570 -0.8310 -0.4147
 4910SOL     OW26191   1.042   3.323   4.519  0.7974  0.1769 -0.9493
 4910SOL    HW126192   1.048   3.308   4.613 -0.0234  1.7908 -0.6367
 4910SOL    HW226193   1.067   3.237   4.487  2.0077  0.4496 -0.7471
 4911SOL     OW26194   4.418   3.798   8.792  0.2582 -0.2409 -0.0019
 4911SOL    HW126195   4.397   3.828   8.880  1.3319 -1.4402  0.6666
 4911SOL    HW226196   4.366   3.866   8.749 -2.3698 -1.8910  0.6086
 4912SOL     OW26197   0.198   1.011   3.672 -0.0083 -0.2259  0.2169
 4912SOL    HW126198   0.149   0.937   3.638  0.1301 -0.2133 -0.0075
 4912SOL    HW226199   0.164   1.073   3.608  0.8462 -1.0688 -1.0646
 4913SOL     OW26200   0.987   2.583  12.420  0.5000 -0.0466  0.4611
 4913SOL    HW126201   1.028   2.551  12.501 -1.4702 -0.7921  1.1700
 4913SOL    HW226202   1.060   2.560  12.363 -0.6310  1.0004 -1.3670
 4914SOL     OW26203   3.665   0.662   0.976 -0.1286 -0.0864 -0.3175
 4914SOL    HW126204   3.750   0.618   0.971  1.6045  3.6010 -2.8813
 4914SOL    HW226205   3.617   0.584   1.005 -1.9984  1.0256 -0.3650
 4915SOL     OW26206   3.346   1.687  10.694 -0.1866 -0.1312 -0.2577
 4915SOL    HW126207   3.293   1.764  10.674 -1.0451 -0.5432  0.4454
 4915SOL    HW226208   3.403   1.687  10.617  1.7593  1.1978  1.1832
 4916SOL     OW26209   4.668   2.675   1.455 -0.6648 -0.1627 -0.1985
 4916SOL    HW126210   0.018   2.662   1.515 -1.0100 -0.6832  0.1189
 4916SOL    HW226211   4.678   2.599   1.398  0.7819 -0.8152  0.9100
 4917SOL     OW26212   0.431   1.810   5.026  0.3277  0.3434 -0.5459
 4917SOL    HW126213   0.341   1.834   5.003 -0.6635 -0.1569  2.8081
 4917SOL    HW226214   0.458   1.897   5.054  1.8064 -0.4715  0.5553
 4918SOL     OW26215   2.087   2.123  11.822  0.1710  0.4566  0.1522
 4918SOL    HW126216   2.151   2.172  11.770 -0.7765  0.5763 -0.9087
 4918SOL    HW226217   2.022   2.103  11.755  1.1322 -0.6268 -0.4481
 4919SOL     OW26218   1.169   2.593   5.824 -0.2593 -0.3926  0.0770
 4919SOL    HW126219   1.223   2.547   5.887 -1.7901 -0.9882  0.9605
 4919SOL    HW226220   1.122   2.661   5.872  2.6166  2.0270 -0.5849
 4920SOL     OW26221   0.830   2.610  17.341 -0.6178 -0.6414  0.1209
 4920SOL    HW126222   0.778   2.531  17.327 -2.7429  1.0276 -1.6146
 4920SOL    HW226223   0.793   2.640  17.424  0.5667  1.4737 -0.1002
 4921SOL     OW26224   0.094   3.069   9.665 -0.3998 -0.4892  0.2603
 4921SOL    HW126225   0.098   3.126   9.742  1.9269 -2.2291  1.4270
 4921SOL    HW226226   0.176   3.020   9.672  1.3664  1.9397 -3.4603
 4922SOL     OW26227   0.313   4.335   4.035 -0.1981  0.5212 -0.9318
 4922SOL    HW126228   0.394   4.300   4.000  0.3531 -0.0703  0.9522
 4922SOL    HW226229   0.255   4.261   4.019 -1.3693  0.7078  2.5888
 4923SOL     OW26230   1.002   1.334  16.094  0.3907 -0.0535 -0.0840
 4923SOL    HW126231   1.066   1.320  16.025  0.4032 -0.1539 -0.0512
 4923SOL    HW226232   0.981   1.428  16.096  2.0607  0.2932  0.8792
 4924SOL     OW26233   4.423   2.770   7.861 -0.9468 -0.0790 -0.7826
 4924SOL    HW126234   4.407   2.681   7.892  0.1694 -0.0518 -0.1609
 4924SOL    HW226235   4.459   2.807   7.941 -3.4659  1.2149 -0.2414
 4925SOL     OW26236   2.115   1.643   2.637 -0.2115 -0.2006  0.0145
 4925SOL    HW126237   2.193   1.691   2.608 -0.7479 -1.2950 -3.3218
 4925SOL    HW226238   2.049   1.707   2.664  1.6330  1.6923  0.0568
 4926SOL     OW26239   0.206   0.276   4.058  0.3893  0.4989 -0.4500
 4926SOL    HW126240   0.261   0.297   3.981  1.3021 -1.6459 -0.3914
 4926SOL    HW226241   0.176   0.361   4.088  2.1989  1.6830 -1.9381
 4927SOL     OW26242   3.133   0.520   4.020  0.0092 -0.1903 -0.3342
 4927SOL    HW126243   3.068   0.452   4.004  0.3994 -0.3567 -1.2379
 4927SOL    HW226244   3.168   0.498   4.106 -0.0265 -2.0346 -0.7976
 4928SOL     OW26245   1.776   0.137  14.224 -0.2914 -0.0792 -0.1277
 4928SOL    HW126246   1.726   0.056  14.215  1.3798 -0.9226 -1.7482
 4928SOL    HW226247   1.862   0.110  14.256 -0.5416 -1.6930 -0.8205
 4929SOL     OW26248   2.689   2.369   4.748 -0.5047 -0.0517 -0.0928
 4929SOL    HW126249   2.709   2.276   4.758  2.0052  0.1742 -2.8482
 4929SOL    HW226250   2.768   2.408   4.788 -0.4674 -1.0488  0.7955
 4930SOL     OW26251   1.999   2.061   8.455 -0.1472  0.0599  0.8340
 4930SOL    HW126252   2.082   2.019   8.434 -0.2031  1.1958 -1.6386
 4930SOL    HW226253   2.005   2.067   8.550  3.9048 -1.6762  0.6678
 4931SOL     OW26254   4.519   2.344   9.939 -0.3155  0.0869  0.3988
 4931SOL    HW126255   4.453   2.338   9.869 -0.3352 -0.0616  0.4295
 4931SOL    HW226256   4.454   2.352  10.009  2.4062  0.5130  2.8760
 4932SOL     OW26257   4.301   3.185   3.818  0.6940 -0.5329  0.4631
 4932SOL    HW126258   4.333   3.257   3.871 -1.4697  1.4839 -0.9701
 4932SOL    HW226259   4.298   3.208   3.725  0.4596  0.3038  0.6779
 4933SOL     OW26260   1.091   4.544  13.036 -0.0596  0.0387  0.1935
 4933SOL    HW126261   1.167   4.497  13.001 -0.2793 -1.1968  1.3707
 4933SOL    HW226262   1.141   4.568  13.114 -1.5873 -0.4847  1.3277
 4934SOL     OW26263   0.075   4.412   7.492  0.3102  0.1378 -0.4109
 4934SOL    HW126264   0.112   4.499   7.510 -0.0690  0.5849 -1.8125
 4934SOL    HW226265   4.710   4.446   7.479  0.3038  1.3434  2.6391
 4935SOL     OW26266   2.169   2.814  13.272  0.1484  0.0362 -0.0023
 4935SOL    HW126267   2.081   2.822  13.310  0.0516  1.3003 -0.4791
 4935SOL    HW226268   2.150   2.745  13.208 -0.4929  1.6294 -1.5366
 4936SOL     OW26269   1.388   3.202  15.728 -0.0481 -0.0968 -0.6170
 4936SOL    HW126270   1.477   3.227  15.755 -0.3420 -0.6142  0.8208
 4936SOL    HW226271   1.347   3.176  15.810  3.4002  0.9914  1.4774
 4937SOL     OW26272   3.349   2.154  10.477  0.0064 -0.2434  0.1253
 4937SOL    HW126273   3.308   2.241  10.470 -0.9218 -0.6669  0.3134
 4937SOL    HW226274   3.441   2.179  10.478  0.2251 -0.9787 -1.7672
 4938SOL     OW26275   2.508   4.052   6.415 -0.2261  0.3767 -0.2941
 4938SOL    HW126276   2.593   4.014   6.395  0.4107  1.8876 -0.4177
 4938SOL    HW226277   2.526   4.122   6.478 -0.0559  0.0089  0.0669
 4939SOL     OW26278   2.951   4.356  14.271 -0.1725 -0.4564 -0.1289
 4939SOL    HW126279   2.927   4.407  14.348 -1.3072  0.6828 -1.2235
 4939SOL    HW226280   2.862   4.337  14.240 -0.8321 -0.1479  1.5985
 4940SOL     OW26281   3.461   1.024   4.189  0.1444 -0.3181  0.4402
 4940SOL    HW126282   3.541   0.973   4.200  1.6652  1.5222 -2.1593
 4940SOL    HW226283   3.446   1.006   4.096 -0.1895 -0.5180  0.5357
 4941SOL     OW26284   1.781   3.800   8.045  0.0712 -0.7409  0.1006
 4941SOL    HW126285   1.770   3.876   8.102  1.5565 -0.1089 -0.4774
 4941SOL    HW226286   1.722   3.814   7.971 -0.6652 -2.5007  0.3520
 4942SOL     OW26287   1.711   1.715   5.408  0.0601  0.4229 -0.1261
 4942SOL    HW126288   1.622   1.740   5.383 -0.3560  0.0987  1.0229
 4942SOL    HW226289   1.697   1.649   5.476 -0.2976  1.0030  0.3599
 4943SOL     OW26290   0.140   1.225   3.504  0.2403  0.1236 -0.2619
 4943SOL    HW126291   0.135   1.294   3.570 -2.0427 -0.8543  0.5843
 4943SOL    HW226292   0.208   1.268   3.453  1.2826  1.2800  2.0768
 4944SOL     OW26293   2.143   0.999   1.764 -0.5239  0.4744 -0.1180
 4944SOL    HW126294   2.121   0.907   1.778  0.0273  0.4643  0.6868
 4944SOL    HW226295   2.064   1.035   1.724 -0.7207 -0.8177 -0.8860
 4945SOL     OW26296   0.570   0.911   5.611 -0.3617  0.2914 -0.1531
 4945SOL    HW126297   0.618   0.853   5.551  0.3604  0.3990  0.3210
 4945SOL    HW226298   0.481   0.905   5.578 -0.5475  2.5493 -0.0738
 4946SOL     OW26299   2.712   1.652   3.335 -0.0512 -0.2521 -0.4689
 4946SOL    HW126300   2.637   1.599   3.362  0.2980 -0.6903 -0.3703
 4946SOL    HW226301   2.789   1.596   3.341  0.1574  0.0989  0.1339
 4947SOL     OW26302   4.723   3.823   9.283  0.4905 -0.2572  0.1876
 4947SOL    HW126303   0.049   3.791   9.358 -0.2877 -0.2819  0.6956
 4947SOL    HW226304   4.678   3.740   9.270  0.9461 -0.3035 -1.0337
 4948SOL     OW26305   1.850   0.250   1.629  0.5185  0.1985  0.1726
 4948SOL    HW126306   1.856   0.229   1.722  0.9555  1.2621  0.3897
 4948SOL    HW226307   1.842   0.344   1.647 -0.0581  0.1159  0.3660
 4949SOL     OW26308   2.063   4.006   5.384  0.1486  0.0002  0.5087
 4949SOL    HW126309   2.020   3.978   5.465  1.1756 -0.9666  0.7149
 4949SOL    HW226310   2.045   4.099   5.374  2.1470  0.3514  0.1974
 4950SOL     OW26311   1.242   4.288  14.782 -0.1126  0.1434  0.1400
 4950SOL    HW126312   1.207   4.340  14.854 -2.7700 -1.0779 -0.2927
 4950SOL    HW226313   1.183   4.214  14.786 -0.2542  0.2701  0.3536
 4951SOL     OW26314   1.780   4.332   2.959  0.0036  0.5574  0.3617
 4951SOL    HW126315   1.845   4.343   3.028  2.6501 -0.7371 -1.9678
 4951SOL    HW226316   1.826   4.324   2.875  0.4557 -1.4151  0.7943
 4952SOL     OW26317   0.939   1.922  17.336  0.1853  0.0372  0.2986
 4952SOL    HW126318   0.913   1.908  17.427  1.2364  2.0124  0.8968
 4952SOL    HW226319   0.955   1.830  17.312  0.3784  0.3493 -0.8017
 4953SOL     OW26320   1.062   1.191  13.391  0.3053 -0.4344  0.0911
 4953SOL    HW126321   1.037   1.211  13.481  0.6968 -1.0165  0.3349
 4953SOL    HW226322   1.082   1.276  13.353 -1.6195 -1.4657 -3.2616
 4954SOL     OW26323   1.678   1.759   6.480  0.5081  0.4326  0.3662
 4954SOL    HW126324   1.675   1.853   6.500 -2.1505  0.3995  0.1252
 4954SOL    HW226325   1.602   1.734   6.532  0.3672  0.4226  0.1562
 4955SOL     OW26326   1.224   4.038   3.728  0.1090 -0.7018 -0.3048
 4955SOL    HW126327   1.194   4.115   3.678 -0.1694  0.6358  1.9221
 4955SOL    HW226328   1.148   3.983   3.743  2.4262 -3.2604  1.9676
 4956SOL     OW26329   4.212   4.544  11.666  0.2490 -0.8685 -0.1783
 4956SOL    HW126330   4.140   4.572  11.723  0.8262  0.4304 -0.0998
 4956SOL    HW226331   4.275   4.505  11.727  1.4724  2.2556  0.5048
 4957SOL     OW26332   2.909   2.234  11.701 -0.2210  0.6224  0.0089
 4957SOL    HW126333   2.926   2.235  11.795  0.2377  0.3039 -0.0718
 4957SOL    HW226334   2.913   2.144  11.670  3.1721  0.7027  0.1321
 4958SOL     OW26335   2.212   2.913  17.494 -0.4276 -0.0863 -0.4862
 4958SOL    HW126336   2.127   2.869  17.500  0.2136 -1.0913  1.1719
 4958SOL    HW226337   2.263   2.870  17.562 -2.0078  1.1489  1.4623
 4959SOL     OW26338   1.033   0.938   0.431 -0.8608  0.3222 -0.0157
 4959SOL    HW126339   1.022   1.033   0.436 -0.3139  0.5060 -2.2698
 4959SOL    HW226340   1.079   0.933   0.348  3.2289  0.4351  2.2350
 4960SOL     OW26341   2.558   2.223   3.784  0.3632 -0.0815 -0.5731
 4960SOL    HW126342   2.632   2.230   3.724 -0.8351  0.5743 -1.9738
 4960SOL    HW226343   2.562   2.135   3.822  1.8107  0.7055  1.0480
 4961SOL     OW26344   3.219   3.077  10.487  0.2165  0.0086 -0.4279
 4961SOL    HW126345   3.150   3.019  10.452  0.5039 -0.5519 -0.0608
 4961SOL    HW226346   3.260   3.019  10.551  1.1256 -0.7676 -1.6874
 4962SOL     OW26347   4.058   1.982   8.041  0.2067 -0.5318 -0.0406
 4962SOL    HW126348   4.063   2.053   7.976  0.8880  0.5687  1.2152
 4962SOL    HW226349   4.073   1.904   7.988 -1.3275 -0.5471 -0.4382
 4963SOL     OW26350   0.167   1.123   5.127 -0.8024  0.0402  0.7189
 4963SOL    HW126351   0.080   1.086   5.114  0.3773 -1.5275 -2.6173
 4963SOL    HW226352   0.223   1.085   5.059  2.0486  2.7405  1.5640
 4964SOL     OW26353   3.592   4.405   4.342  0.0943 -0.3618 -0.7816
 4964SOL    HW126354   3.512   4.456   4.350 -0.0114 -0.9499  2.1560
 4964SOL    HW226355   3.610   4.388   4.435  3.4047  1.0956 -1.1595
 4965SOL     OW26356   0.446   4.219  10.833 -0.6139 -0.3942  0.3100
 4965SOL    HW126357   0.387   4.165  10.884 -3.9963  1.5999 -1.5129
 4965SOL    HW226358   0.479   4.287  10.893  1.3475 -1.3496  0.3152
 4966SOL     OW26359   2.593   1.034  14.987 -0.4136 -0.7814 -0.2068
 4966SOL    HW126360   2.624   0.947  14.961  3.2929  0.9061 -1.5303
 4966SOL    HW226361   2.602   1.032  15.082 -0.0502  0.1628 -0.2235
 4967SOL     OW26362   2.963   3.925   5.179 -0.0963  0.0774 -0.0550
 4967SOL    HW126363   2.899   3.857   5.200 -0.3379  0.9389  2.0221
 4967SOL    HW226364   2.988   3.945   5.269 -0.1922  0.1588 -0.0466
 4968SOL     OW26365   0.113   2.144  12.363  0.2345 -0.5508  0.5450
 4968SOL    HW126366   0.079   2.218  12.413  1.2755  0.1850  0.1868
 4968SOL    HW226367   0.078   2.074  12.417 -3.3663  0.2531 -0.7473
 4969SOL     OW26368   2.675   0.480   3.832  0.0686  0.2862 -0.4606
 4969SOL    HW126369   2.662   0.550   3.767  1.1426 -1.7947 -2.9017
 4969SOL    HW226370   2.751   0.436   3.794  0.8060  1.4865 -0.3859
 4970SOL     OW26371   1.887   3.026   6.225  0.5491  0.5915  0.3507
 4970SOL    HW126372   1.982   3.023   6.214  0.5889 -2.8162  1.5806
 4970SOL    HW226373   1.859   2.979   6.147 -1.7892  3.0952 -0.2957
 4971SOL     OW26374   0.456   4.346   7.724  0.2603  0.6137  0.3230
 4971SOL    HW126375   0.466   4.251   7.727 -1.5170  0.3695 -2.0449
 4971SOL    HW226376   0.478   4.362   7.632  0.6285  1.4306  0.5513
 4972SOL     OW26377   1.906   3.287   6.082 -0.0208  0.3904  0.3797
 4972SOL    HW126378   1.915   3.204   6.128 -1.9460  0.3023  0.6146
 4972SOL    HW226379   1.829   3.329   6.121 -0.9782  0.9814 -2.0801
 4973SOL     OW26380   1.848   3.779   6.668 -0.5250 -0.0393  0.7117
 4973SOL    HW126381   1.764   3.822   6.654 -0.4333  0.7071  2.4793
 4973SOL    HW226382   1.871   3.762   6.576  0.1499  1.3857  0.6120
 4974SOL     OW26383   4.324   1.839   8.197 -0.2360  0.0774 -0.6631
 4974SOL    HW126384   4.311   1.755   8.153 -1.3069 -1.0425  1.8255
 4974SOL    HW226385   4.396   1.880   8.149 -1.2524  0.1779 -2.0999
 4975SOL     OW26386   1.066   0.441   6.360 -0.4681 -0.6380 -0.0195
 4975SOL    HW126387   1.133   0.378   6.387 -2.9179 -1.9996  2.8389
 4975SOL    HW226388   1.000   0.392   6.311 -1.1924  1.2247 -0.9021
 4976SOL     OW26389   2.263   2.657   2.887 -0.6514  0.5162  0.2449
 4976SOL    HW126390   2.192   2.683   2.947  0.6486  1.4843  1.3612
 4976SOL    HW226391   2.214   2.681   2.808 -0.5405  2.5593  0.8116
 4977SOL     OW26392   3.032   2.722   7.417  0.0323 -0.5453 -0.1603
 4977SOL    HW126393   3.036   2.750   7.325 -1.8477 -0.2019 -0.1219
 4977SOL    HW226394   3.097   2.652   7.425  1.7624  1.2518  1.8184
 4978SOL     OW26395   3.843   0.124   8.618  0.2131  0.7459 -0.0415
 4978SOL    HW126396   3.819   0.040   8.578 -0.3416  0.6638  0.4648
 4978SOL    HW226397   3.932   0.121   8.653  0.1368 -0.4437  0.0715
 4979SOL     OW26398   0.045   2.209   2.493  0.8312 -0.6816 -0.1146
 4979SOL    HW126399   4.701   2.272   2.472 -0.1524 -1.5970  0.3258
 4979SOL    HW226400   0.040   2.150   2.418  1.0348 -3.6259  2.1685
 4980SOL     OW26401   2.963   4.201  13.684  0.0065  0.1856  0.3645
 4980SOL    HW126402   2.907   4.269  13.723  0.0848  0.5652 -0.1780
 4980SOL    HW226403   2.923   4.131  13.735 -1.8396  0.4896 -0.6255
 4981SOL     OW26404   3.751   2.342  12.923 -0.0704  0.3131 -0.4497
 4981SOL    HW126405   3.701   2.276  12.971  0.4449 -1.6235 -2.5855
 4981SOL    HW226406   3.780   2.288  12.849 -2.6950 -0.2175 -1.0937
 4982SOL     OW26407   4.120   2.535  14.905 -0.0243 -0.0695 -0.2169
 4982SOL    HW126408   4.029   2.520  14.880 -0.5897  2.0351  0.5783
 4982SOL    HW226409   4.132   2.445  14.934  1.0254 -0.3363 -1.4677
 4983SOL     OW26410   1.004   4.040   6.781  0.2241 -0.0954 -0.0309
 4983SOL    HW126411   1.064   3.987   6.728 -0.2356 -2.0169  1.3714
 4983SOL    HW226412   0.925   4.040   6.727 -0.6655  1.4208  1.2813
 4984SOL     OW26413   1.117   3.098   3.375 -0.3060 -0.0668 -0.1181
 4984SOL    HW126414   1.153   3.093   3.286  0.5306 -2.5068  0.3677
 4984SOL    HW226415   1.194   3.079   3.428 -1.3925 -1.6252  0.8993
 4985SOL     OW26416   3.710   0.712   4.164 -0.0199 -0.5339 -0.1294
 4985SOL    HW126417   3.637   0.701   4.225  1.1780 -1.4200  1.1223
 4985SOL    HW226418   3.737   0.622   4.149  0.6754 -0.3837  0.2114
 4986SOL     OW26419   3.800   4.399   2.650  0.0112 -0.0515 -0.2157
 4986SOL    HW126420   3.758   4.431   2.569  0.8219  1.2930 -0.1018
 4986SOL    HW226421   3.740   4.445   2.709 -1.2469 -0.8819 -0.8334
 4987SOL     OW26422   1.261   3.668  13.044  0.0587  0.1198 -0.8369
 4987SOL    HW126423   1.322   3.660  13.116  1.6669  0.4892 -2.1576
 4987SOL    HW226424   1.242   3.575  13.029 -1.1529  0.0683  1.0642
 4988SOL     OW26425   2.249   4.289   4.165 -0.5664 -0.6812  0.5489
 4988SOL    HW126426   2.240   4.380   4.192  3.7330 -0.8255  2.4890
 4988SOL    HW226427   2.156   4.278   4.146 -0.8636  1.1651  0.9138
 4989SOL     OW26428   2.785   3.818   6.071 -0.0863  0.1763  0.4829
 4989SOL    HW126429   2.727   3.746   6.095  1.3623 -1.3613 -0.6408
 4989SOL    HW226430   2.846   3.817   6.145  2.0154 -0.5552 -1.2740
 4990SOL     OW26431   2.445   1.664   4.502 -0.4730 -0.3372  0.0613
 4990SOL    HW126432   2.438   1.685   4.595  0.9104  0.0289  0.0819
 4990SOL    HW226433   2.540   1.655   4.493 -0.1714 -0.0923  2.9664
 4991SOL     OW26434   4.380   3.912   5.833  0.1995  0.4604  0.7752
 4991SOL    HW126435   4.295   3.953   5.825  0.6023  1.3654  1.1839
 4991SOL    HW226436   4.442   3.984   5.822  0.9489 -0.5377 -1.5687
 4992SOL     OW26437   2.375   2.155  11.706 -0.3829  0.4863  0.1070
 4992SOL    HW126438   2.466   2.140  11.684 -0.8376 -1.8970 -0.1480
 4992SOL    HW226439   2.364   2.242  11.668  1.8815  0.4989 -0.4677
 4993SOL     OW26440   3.556   0.578   9.395  0.3000  0.0500 -0.0597
 4993SOL    HW126441   3.466   0.602   9.420 -0.9921 -2.0324 -2.7816
 4993SOL    HW226442   3.558   0.483   9.394 -1.9365 -0.0776  4.8203
 4994SOL     OW26443   0.994   1.539   8.508  0.9845  0.1968  0.4999
 4994SOL    HW126444   0.935   1.609   8.535 -1.0028 -1.9136  1.6076
 4994SOL    HW226445   0.947   1.501   8.434 -0.3509 -0.6991  1.8128
 4995SOL     OW26446   1.026   3.429   7.419 -0.5536  0.1914  0.2346
 4995SOL    HW126447   0.995   3.339   7.408 -2.6170  0.7100  1.7232
 4995SOL    HW226448   1.066   3.437   7.332 -0.8637 -3.2692 -0.2125
 4996SOL     OW26449   4.682   1.746  16.134  0.1629 -0.0649 -0.4636
 4996SOL    HW126450   4.673   1.797  16.054 -1.1318 -2.1462 -1.6571
 4996SOL    HW226451   4.642   1.811  16.192  0.2316  0.1806 -0.6908
 4997SOL     OW26452   2.506   1.725   3.151  0.3780  0.4760 -0.1218
 4997SOL    HW126453   2.554   1.677   3.218 -0.6237  1.3122  1.2015
 4997SOL    HW226454   2.570   1.795   3.139 -0.0628  1.5262  3.4788
 4998SOL     OW26455   1.954   0.987   9.104 -0.2655 -0.0846  0.6430
 4998SOL    HW126456   1.878   0.955   9.152 -1.6820  0.2272 -1.4038
 4998SOL    HW226457   1.928   1.078   9.087 -1.1215 -0.7950 -1.7571
 4999SOL     OW26458   2.744   3.075  13.595  0.0306 -0.8592  0.2237
 4999SOL    HW126459   2.772   3.037  13.512 -1.6591 -1.0603 -0.2679
 4999SOL    HW226460   2.650   3.058  13.599 -0.1374  0.1544  0.6228
 5000SOL     OW26461   2.635   2.111   2.648  0.0031 -0.2914  0.4063
 5000SOL    HW126462   2.680   2.034   2.685  1.9612  1.3631  1.4845
 5000SOL    HW226463   2.577   2.069   2.584 -0.6255  0.2038  0.6585
 5001SOL     OW26464   0.362   0.241   0.989 -0.3481 -0.5476 -0.1536
 5001SOL    HW126465   0.376   0.185   1.065 -0.3275  1.5567  1.4120
 5001SOL    HW226466   0.285   0.295   1.009  0.3139 -0.2369  1.5925
 5002SOL     OW26467   2.169   1.289  15.127  0.0297 -0.0246  0.4247
 5002SOL    HW126468   2.232   1.356  15.099 -1.4069  1.6176  1.1635
 5002SOL    HW226469   2.114   1.333  15.191 -0.7419  0.8989 -0.8548
 5003SOL     OW26470   4.354   0.543   6.785 -0.5589  0.8125 -0.4402
 5003SOL    HW126471   4.264   0.545   6.816  0.5216  0.0096  2.8103
 5003SOL    HW226472   4.384   0.634   6.782 -0.8232  0.9756  1.7974
 5004SOL     OW26473   0.754   1.975   9.837  0.0110 -0.4439 -1.1051
 5004SOL    HW126474   0.787   2.063   9.856 -1.3208 -0.2418  0.2752
 5004SOL    HW226475   0.737   1.974   9.743  1.1473  1.3756 -1.3373
 5005SOL     OW26476   4.019   4.691   1.839 -0.0878 -0.2961 -0.4411
 5005SOL    HW126477   4.055   4.603   1.838 -3.1030 -1.5221 -0.3622
 5005SOL    HW226478   4.084   0.026   1.800  0.7941 -0.3626  0.9091
 5006SOL     OW26479   1.523   3.338   6.804 -0.4555 -0.1162  0.0916
 5006SOL    HW126480   1.434   3.315   6.831  0.1982 -2.4125  0.2866
 5006SOL    HW226481   1.500   3.359   6.714  1.1113 -0.6695 -0.4231
 5007SOL     OW26482   3.480   1.406  10.446  0.8668 -0.0446  0.6228
 5007SOL    HW126483   3.439   1.492  10.438 -1.6753 -1.3722 -0.6155
 5007SOL    HW226484   3.574   1.422  10.445  1.1042 -1.4727  1.0331
 5008SOL     OW26485   2.575   4.375   3.908  0.0300  0.6246  0.3443
 5008SOL    HW126486   2.504   4.366   3.844 -0.0678  0.8495  0.4181
 5008SOL    HW226487   2.635   4.303   3.894 -0.6028  0.4418 -1.4646
 5009SOL     OW26488   1.760   1.032   8.427 -0.4510  0.1198 -0.5313
 5009SOL    HW126489   1.794   0.992   8.347  1.3638 -0.6275  0.6221
 5009SOL    HW226490   1.680   1.074   8.396 -0.6041 -0.6040 -1.1100
 5010SOL     OW26491   3.992   2.472   4.685  0.0786  0.7988  0.5480
 5010SOL    HW126492   4.008   2.439   4.597 -2.1061 -3.2203  1.6422
 5010SOL    HW226493   4.075   2.454   4.728  0.7500  0.8726 -0.7322
 5011SOL     OW26494   3.135   0.029   0.455  0.0609 -0.3765 -0.2649
 5011SOL    HW126495   3.155   0.076   0.374 -2.0996  1.3297  0.1932
 5011SOL    HW226496   3.162   0.096   0.518 -0.1569 -0.6721  0.1450
 5012SOL     OW26497   1.497   2.323   8.444  0.0538 -1.0722  0.2438
 5012SOL    HW126498   1.408   2.334   8.410  0.3946 -0.5939 -0.5015
 5012SOL    HW226499   1.515   2.396   8.503  2.2703 -0.2770 -1.4059
 5013SOL     OW26500   3.497   0.921   2.585  0.6922 -0.7046  0.2798
 5013SOL    HW126501   3.463   0.954   2.502  1.5484  1.8889  0.9699
 5013SOL    HW226502   3.415   0.902   2.632  0.7267 -0.3743  0.4743
 5014SOL     OW26503   1.598   1.667   6.889  0.2181  0.4554 -0.4201
 5014SOL    HW126504   1.546   1.642   6.965  1.2071 -1.1608 -0.2806
 5014SOL    HW226505   1.677   1.613   6.889 -0.6631 -0.8303 -1.8603
 5015SOL     OW26506   0.766   3.920   5.039 -0.5897  0.1273  0.1881
 5015SOL    HW126507   0.757   3.825   5.048  0.5106 -0.0189 -0.2818
 5015SOL    HW226508   0.797   3.928   4.949 -0.8529 -0.7867  0.0138
 5016SOL     OW26509   3.401   4.168   7.751  0.1801  0.1581  0.1998
 5016SOL    HW126510   3.361   4.232   7.693 -1.9278 -1.4679 -0.1635
 5016SOL    HW226511   3.388   4.209   7.837  0.2173  3.1550 -1.2177
 5017SOL     OW26512   1.213   4.276   9.865  0.6034  0.6475  0.3179
 5017SOL    HW126513   1.121   4.278   9.890  1.1805 -0.5192  2.4628
 5017SOL    HW226514   1.229   4.357   9.913 -0.0157  0.3728  0.9764
 5018SOL     OW26515   4.529   1.177   6.798 -0.0932 -0.3195  0.4816
 5018SOL    HW126516   4.466   1.164   6.727  1.5726 -1.6149 -0.7431
 5018SOL    HW226517   4.492   1.263   6.822  2.2476  0.4398  1.3306
 5019SOL     OW26518   0.295   3.824   2.695  0.1844 -0.1157 -0.4342
 5019SOL    HW126519   0.341   3.891   2.645 -2.2017  2.3325  0.6363
 5019SOL    HW226520   0.239   3.886   2.741  1.0212  0.2224  0.1207
 5020SOL     OW26521   3.662   1.914   2.483  0.1214 -0.1396  0.2973
 5020SOL    HW126522   3.719   1.849   2.524 -1.0388 -2.7223 -2.2175
 5020SOL    HW226523   3.591   1.863   2.444  0.9685 -0.5253 -0.7490
 5021SOL     OW26524   3.940   4.131   5.929  0.4286  0.2088 -0.2248
 5021SOL    HW126525   3.851   4.162   5.910  0.0523 -0.3382  0.6486
 5021SOL    HW226526   3.983   4.214   5.950 -0.4338  0.6443 -0.1719
 5022SOL     OW26527   0.005   0.087   6.417 -0.2137  0.1632  0.0878
 5022SOL    HW126528   4.669   0.012   6.419  0.0951  0.0360  3.7851
 5022SOL    HW226529   0.070   0.069   6.484  0.9407  3.1635 -0.2206
 5023SOL     OW26530   3.604   0.585  12.609  0.0135 -0.2955 -0.0863
 5023SOL    HW126531   3.587   0.653  12.544 -1.1648  1.7152  2.3229
 5023SOL    HW226532   3.649   0.516  12.559 -1.2621 -0.4758 -0.9793
 5024SOL     OW26533   1.804   3.432   8.448 -0.0064  0.0396 -0.0124
 5024SOL    HW126534   1.806   3.344   8.409 -1.6644 -0.2705  0.5766
 5024SOL    HW226535   1.710   3.442   8.465 -0.0543 -0.0754 -0.2086
 5025SOL     OW26536   2.582   1.827   5.173 -0.1596 -0.0468  0.4278
 5025SOL    HW126537   2.607   1.894   5.237  0.7793  0.5329 -0.5434
 5025SOL    HW226538   2.507   1.873   5.135 -0.1239 -1.1976 -1.0020
 5026SOL     OW26539   1.297   4.309   1.153  0.6878  0.4863 -0.6338
 5026SOL    HW126540   1.255   4.228   1.182 -0.4950  1.0275 -0.8065
 5026SOL    HW226541   1.303   4.304   1.058  1.0528 -0.2917 -0.5720
 5027SOL     OW26542   0.825   3.478   8.364  0.3621 -0.4271  0.6028
 5027SOL    HW126543   0.850   3.516   8.448  1.4228  0.4014 -0.0871
 5027SOL    HW226544   0.912   3.461   8.328  1.0102  2.3325  0.9128
 5028SOL     OW26545   2.335   2.882   2.635 -0.0845 -0.1116 -1.0769
 5028SOL    HW126546   2.295   2.953   2.685 -1.3120  0.6066 -3.0856
 5028SOL    HW226547   2.285   2.812   2.676  0.8391 -0.1863 -0.0700
 5029SOL     OW26548   4.348   1.011   8.767  0.3720 -0.5512  0.3918
 5029SOL    HW126549   4.418   0.981   8.826 -0.5021 -2.4595  0.4242
 5029SOL    HW226550   4.404   1.041   8.695 -2.5532  1.0285 -1.2347
 5030SOL     OW26551   2.979   2.053   5.456 -0.0439  0.5211 -0.3597
 5030SOL    HW126552   2.896   2.073   5.499 -1.4178 -1.0284 -2.3021
 5030SOL    HW226553   2.951   2.056   5.365  0.8030  1.9318 -0.5677
 5031SOL     OW26554   2.458   3.714   6.606  0.4768 -0.3327 -0.0870
 5031SOL    HW126555   2.531   3.739   6.550  1.0271 -0.1967  0.7003
 5031SOL    HW226556   2.467   3.780   6.674  2.7808  1.9848 -2.6138
 5032SOL     OW26557   2.691   1.516  14.774  0.7234 -0.5113 -0.1809
 5032SOL    HW126558   2.687   1.447  14.840  0.4551 -2.0721 -1.8530
 5032SOL    HW226559   2.659   1.473  14.695  0.1812  1.0777 -0.8333
 5033SOL     OW26560   1.076   3.291   4.799  0.4701 -1.0931  0.0483
 5033SOL    HW126561   1.031   3.216   4.838 -0.8676  0.4583  1.4554
 5033SOL    HW226562   1.027   3.353   4.852  1.3139 -0.7220  0.3948
 5034SOL     OW26563   3.680   4.337   4.611  0.0734  0.2194  1.3181
 5034SOL    HW126564   3.690   4.299   4.698 -1.1078 -0.1857  1.2731
 5034SOL    HW226565   3.772   4.354   4.589  0.2059 -0.9754  0.9181
 5035SOL     OW26566   4.144   3.946   6.437 -0.0017  0.1436  0.5425
 5035SOL    HW126567   4.201   3.878   6.474 -1.4717 -0.5969  1.4957
 5035SOL    HW226568   4.180   3.962   6.350  1.8730 -2.4214  0.8521
 5036SOL     OW26569   4.694   4.320   1.328  0.2312 -0.0752 -0.9211
 5036SOL    HW126570   4.674   4.411   1.351 -1.2934 -0.9012  0.9680
 5036SOL    HW226571   4.656   4.318   1.240 -1.4497  1.9805 -0.2416
 5037SOL     OW26572   2.812   3.004   5.055  0.7014 -0.0063 -0.1991
 5037SOL    HW126573   2.898   3.042   5.073  0.9130  0.4960 -2.2911
 5037SOL    HW226574   2.830   2.963   4.971  0.4006 -1.5293  0.4829
 5038SOL     OW26575   1.403   4.541  16.527 -0.4763  0.0792 -0.1427
 5038SOL    HW126576   1.400   4.518  16.619 -0.0625 -2.5827 -0.7764
 5038SOL    HW226577   1.326   4.492  16.497 -0.6557  0.3919 -0.1903
 5039SOL     OW26578   0.027   1.468   4.964  0.2582 -0.0218  0.3762
 5039SOL    HW126579   0.080   1.450   4.887  2.1151  2.2834  1.1196
 5039SOL    HW226580   0.077   1.533   5.012 -0.5341 -1.1782  2.7732
 5040SOL     OW26581   1.816   0.998   5.356  0.6540  0.0345  0.4756
 5040SOL    HW126582   1.811   0.911   5.396 -0.3116  1.2741  3.0236
 5040SOL    HW226583   1.800   0.969   5.266  2.6890 -1.1845  0.5062
 5041SOL     OW26584   4.331   2.670  14.788 -0.0680 -0.2882 -0.3173
 5041SOL    HW126585   4.377   2.594  14.751 -1.1637 -0.3464 -1.5344
 5041SOL    HW226586   4.262   2.624  14.835 -1.2024 -1.1949 -2.8855
 5042SOL     OW26587   1.273   1.960   6.188  0.7183 -0.7547 -0.1272
 5042SOL    HW126588   1.311   1.901   6.123 -2.0578 -1.4265 -1.1304
 5042SOL    HW226589   1.226   2.030   6.143  1.0910 -0.5240 -0.1616
 5043SOL     OW26590   3.058   4.296   3.599  0.5688  1.0022  0.0057
 5043SOL    HW126591   2.993   4.359   3.629 -1.7396 -1.3943  0.0262
 5043SOL    HW226592   3.036   4.226   3.659  0.0492  0.6491 -0.5944
 5044SOL     OW26593   0.276   2.394   7.542 -0.1279  0.2081 -0.2802
 5044SOL    HW126594   0.287   2.428   7.631 -0.6965 -0.0286 -0.1227
 5044SOL    HW226595   0.309   2.305   7.546 -0.4358  0.1062 -0.0149
 5045SOL     OW26596   3.011   4.540  13.944  0.3404 -0.3294  0.3436
 5045SOL    HW126597   2.933   4.502  13.905 -1.7145  2.0566  2.1277
 5045SOL    HW226598   3.023   4.601  13.871 -2.2177 -0.0244  0.1771
 5046SOL     OW26599   1.003   2.369  11.656 -0.4164  0.2617 -0.3336
 5046SOL    HW126600   0.913   2.386  11.685  0.0589 -2.9265  3.1271
 5046SOL    HW226601   0.990   2.345  11.564  1.1963 -0.7649 -0.2958
 5047SOL     OW26602   4.332   2.343   7.441 -0.1029  0.1290 -0.0709
 5047SOL    HW126603   4.356   2.258   7.403 -1.7778 -1.9990  3.6509
 5047SOL    HW226604   4.348   2.337   7.535  1.2307  0.6148 -0.2758
 5048SOL     OW26605   1.433   3.336   6.533  0.3644 -0.2804 -0.3945
 5048SOL    HW126606   1.437   3.401   6.462  0.1927 -0.9641 -1.0320
 5048SOL    HW226607   1.362   3.278   6.503 -0.0590  0.2235 -0.3661
 5049SOL     OW26608   4.365   2.266   4.495 -0.3081 -0.0175  0.1302
 5049SOL    HW126609   4.401   2.181   4.471 -0.4332  0.2702 -1.0678
 5049SOL    HW226610   4.307   2.271   4.419 -0.1334  0.7554  0.0386
 5050SOL     OW26611   2.767   3.250  10.394 -0.5856  0.2516  0.2392
 5050SOL    HW126612   2.765   3.165  10.436  1.2441  0.4491  0.7298
 5050SOL    HW226613   2.716   3.305  10.454 -0.5559 -1.5385  1.9154
 5051SOL     OW26614   2.691   3.981   7.436 -0.0230 -0.7986 -0.1589
 5051SOL    HW126615   2.741   3.911   7.477  0.1992 -0.0352  0.8920
 5051SOL    HW226616   2.674   3.942   7.350 -1.2249 -2.2570  0.7330
 5052SOL     OW26617   2.104   0.192   7.193  0.0067  0.3955  0.3467
 5052SOL    HW126618   2.019   0.235   7.195 -0.7338 -1.0845  0.2638
 5052SOL    HW226619   2.126   0.194   7.099  0.6286  0.5582  0.4991
 5053SOL     OW26620   3.632   4.366  16.943 -0.5959  0.2847 -0.3599
 5053SOL    HW126621   3.599   4.381  17.031  2.4109 -0.3815  0.9065
 5053SOL    HW226622   3.709   4.310  16.960 -0.0177  0.7534 -1.4126
 5054SOL     OW26623   4.297   1.232   0.773  0.4450  0.3286  0.1204
 5054SOL    HW126624   4.305   1.288   0.850 -0.6852  0.9403 -0.2099
 5054SOL    HW226625   4.377   1.180   0.781 -0.6132 -1.1398  1.2004
 5055SOL     OW26626   2.518   1.668  17.570  0.0210  0.0642 -0.0564
 5055SOL    HW126627   2.572   1.626  17.638  0.3711  0.5358 -0.0393
 5055SOL    HW226628   2.493   1.751  17.610 -0.8638 -1.1277  1.8440
 5056SOL     OW26629   1.625   0.655   4.473 -0.2710 -0.1360  0.3663
 5056SOL    HW126630   1.593   0.611   4.552  0.6727  0.1093  0.8794
 5056SOL    HW226631   1.665   0.585   4.422 -0.5003 -1.5127  2.0639
 5057SOL     OW26632   2.422   4.689  17.322  0.2093 -0.3291  0.3002
 5057SOL    HW126633   2.380   0.009  17.248  0.5813  0.6241  0.6513
 5057SOL    HW226634   2.474   0.037  17.358 -1.3942  0.9047  0.1340
 5058SOL     OW26635   4.338   2.905   8.932 -0.2860  0.5404 -0.0890
 5058SOL    HW126636   4.275   2.958   8.883  0.9633  2.3963  0.2917
 5058SOL    HW226637   4.298   2.828   8.971 -0.8576 -0.1579 -2.0510
 5059SOL     OW26638   1.544   0.160  11.376 -0.1277 -0.2566 -0.1083
 5059SOL    HW126639   1.573   0.132  11.463  0.4394  0.5777 -0.0219
 5059SOL    HW226640   1.614   0.132  11.318  0.6842  0.5657  0.4768
 5060SOL     OW26641   2.864   1.130   4.921 -0.4676  0.5933  0.3879
 5060SOL    HW126642   2.888   1.175   5.002 -1.0717 -0.2132  1.0219
 5060SOL    HW226643   2.787   1.086   4.958 -1.3272 -1.1255 -3.4663
 5061SOL     OW26644   1.232   1.031   8.552 -0.2217  0.3816 -0.8289
 5061SOL    HW126645   1.279   0.979   8.617  1.1526  1.1003 -1.2509
 5061SOL    HW226646   1.252   1.124   8.566 -0.3084 -0.0384  2.1389
 5062SOL     OW26647   2.012   2.139  16.036  0.6172 -0.1966 -0.6085
 5062SOL    HW126648   1.919   2.116  16.026  0.5128 -0.3777  0.7763
 5062SOL    HW226649   2.015   2.138  16.132 -0.5848  2.2428 -0.5363
 5063SOL     OW26650   2.479   4.596   4.997 -0.0733 -0.3741  0.1209
 5063SOL    HW126651   2.422   4.546   4.938  1.2764 -0.4946 -1.0749
 5063SOL    HW226652   2.505   4.667   4.938  0.4370 -0.8629 -0.2502
 5064SOL     OW26653   3.004   4.195   4.624  0.0569  0.1722  0.0084
 5064SOL    HW126654   2.909   4.191   4.610  0.2732 -0.3863 -1.3101
 5064SOL    HW226655   3.022   4.104   4.604  1.0792  0.5392 -0.7755
 5065SOL     OW26656   2.282   3.650   8.391  0.5289 -0.4528 -0.8653
 5065SOL    HW126657   2.194   3.621   8.364  0.0498  2.3757 -2.3918
 5065SOL    HW226658   2.258   3.698   8.471  0.6604  0.7308 -1.5289
 5066SOL     OW26659   2.698   1.785   4.665 -0.6276 -0.4314  0.0090
 5066SOL    HW126660   2.753   1.707   4.665  1.5405  1.0647  2.3682
 5066SOL    HW226661   2.721   1.828   4.583 -0.1290 -0.3951  0.1677
 5067SOL     OW26662   0.677   3.868   9.419 -0.0287  0.2107  0.0020
 5067SOL    HW126663   0.638   3.783   9.440  2.3631 -0.8385  0.1828
 5067SOL    HW226664   0.672   3.913   9.503 -1.6551  2.2913 -1.2197
 5068SOL     OW26665   3.126   3.112   3.326  0.2800  0.1022 -1.5633
 5068SOL    HW126666   3.114   3.178   3.258 -0.8314  0.4633 -1.0134
 5068SOL    HW226667   3.155   3.035   3.276  2.4727  0.6139 -1.0847
 5069SOL     OW26668   0.818   2.755   8.616  0.6565  0.3038 -0.0402
 5069SOL    HW126669   0.898   2.803   8.596 -1.7492  4.4305  0.2383
 5069SOL    HW226670   0.768   2.798   8.546  0.6158  1.9273  0.9986
 5070SOL     OW26671   4.031   3.875   8.554  0.1282 -0.2624  0.2634
 5070SOL    HW126672   3.991   3.799   8.511  1.0377  0.0316 -1.1162
 5070SOL    HW226673   3.953   3.910   8.596 -0.5575 -2.7044  1.0239
 5071SOL     OW26674   3.015   4.578   8.951 -0.1463 -0.2412  0.3062
 5071SOL    HW126675   3.073   4.644   8.989 -0.3318  0.4018 -0.5265
 5071SOL    HW226676   3.058   4.499   8.983 -0.2398 -0.2941  0.3009
 5072SOL     OW26677   1.361   0.194   3.920 -0.2363  0.0493 -0.0981
 5072SOL    HW126678   1.400   0.252   3.986 -0.7617  1.5512 -1.1132
 5072SOL    HW226679   1.433   0.186   3.857  1.0178  0.8147  1.2340
 5073SOL     OW26680   0.546   1.345  16.787 -0.5747 -0.4444 -0.1957
 5073SOL    HW126681   0.474   1.407  16.801 -0.4572 -0.5660  0.9440
 5073SOL    HW226682   0.503   1.266  16.754  1.0782 -1.1392 -0.6850
 5074SOL     OW26683   0.954   1.579   5.926  0.5215  0.1096 -0.4839
 5074SOL    HW126684   0.886   1.525   5.885  0.9465 -1.3135  0.7124
 5074SOL    HW226685   1.032   1.524   5.924 -1.0801 -2.2347  2.0165
 5075SOL     OW26686   1.732   1.513  16.995 -0.0934 -0.2985  0.0883
 5075SOL    HW126687   1.667   1.511  16.924  0.7550 -1.4279 -0.6485
 5075SOL    HW226688   1.676   1.525  17.072  0.0342 -1.2202  0.3217
 5076SOL     OW26689   1.568   1.909   4.488 -0.4358 -0.2205  0.5161
 5076SOL    HW126690   1.575   1.955   4.405 -3.2007 -1.8839 -0.6358
 5076SOL    HW226691   1.579   1.981   4.550  1.0152 -0.3822  0.4335
 5077SOL     OW26692   3.322   4.307   7.532  0.2941  0.1904  0.0871
 5077SOL    HW126693   3.251   4.369   7.549 -1.2580 -1.7503  0.6309
 5077SOL    HW226694   3.402   4.360   7.543  0.7275 -0.2562 -0.9553
 5078SOL     OW26695   3.529   0.256   0.509 -0.0012  0.0092 -0.2124
 5078SOL    HW126696   3.499   0.241   0.420  0.4120 -0.5006 -0.2654
 5078SOL    HW226697   3.451   0.216   0.547  0.7423 -0.2447  1.0615
 5079SOL     OW26698   1.933   3.738  10.709  0.1398  0.1242 -0.4339
 5079SOL    HW126699   1.935   3.708  10.800  4.2287 -0.4999 -0.7281
 5079SOL    HW226700   1.959   3.830  10.723  0.0414  0.0778  0.0720
 5080SOL     OW26701   1.121   2.734   8.059  0.5451 -0.0486  0.3472
 5080SOL    HW126702   1.088   2.817   8.093  0.7726  1.1182 -2.2929
 5080SOL    HW226703   1.173   2.715   8.137  0.1954  4.3799  1.6501
 5081SOL     OW26704   2.777   1.335  16.401  0.4113 -0.1697  0.3272
 5081SOL    HW126705   2.802   1.323  16.310  2.7690 -0.8608  1.0835
 5081SOL    HW226706   2.854   1.299  16.445  1.2018 -1.0152 -1.7443
 5082SOL     OW26707   3.534   3.779   8.472  0.5097 -0.3436 -0.4748
 5082SOL    HW126708   3.501   3.821   8.392 -1.2306  2.0645  1.4997
 5082SOL    HW226709   3.488   3.696   8.466 -2.8168  1.3162  2.0085
 5083SOL     OW26710   1.359   2.191   6.637  0.7111 -0.5112 -0.2873
 5083SOL    HW126711   1.269   2.157   6.642 -0.0389  1.8470  1.6938
 5083SOL    HW226712   1.401   2.126   6.693 -3.4001 -1.6761  1.4863
 5084SOL     OW26713   4.688   3.149   0.134  0.4637  0.1724  0.0938
 5084SOL    HW126714   4.723   3.108   0.213  0.2129  2.9921  1.6671
 5084SOL    HW226715   0.040   3.199   0.106  1.0215 -0.2209  0.8979
 5085SOL     OW26716   0.395   0.881   6.758 -0.3603  0.5220 -0.0763
 5085SOL    HW126717   0.393   0.962   6.706 -3.0114 -0.5608 -1.7101
 5085SOL    HW226718   0.343   0.811   6.718  1.2359  0.3283 -1.8246
 5086SOL     OW26719   2.943   3.157  13.892  0.3209 -0.1839  0.8022
 5086SOL    HW126720   2.914   3.211  13.818  2.7377  0.4719  0.3479
 5086SOL    HW226721   2.874   3.169  13.957  0.4047  0.2286  0.8169
 5087SOL     OW26722   2.329   3.538   0.236  0.4731 -0.2774  0.0592
 5087SOL    HW126723   2.264   3.496   0.292 -1.4192  0.6780 -1.4005
 5087SOL    HW226724   2.400   3.512   0.294  0.1407  2.8717  1.8802
 5088SOL     OW26725   1.299   1.312  15.587  0.1407  0.1612 -0.2641
 5088SOL    HW126726   1.375   1.362  15.619  0.7056 -0.2443 -0.9845
 5088SOL    HW226727   1.311   1.219  15.603 -3.0116 -0.1754  0.2230
 5089SOL     OW26728   0.408   0.096  15.945 -0.0820 -0.4602  0.6362
 5089SOL    HW126729   0.339   0.161  15.931  1.3550  1.0767  0.5133
 5089SOL    HW226730   0.484   0.129  15.896 -2.5454  1.1491 -2.1108
 5090SOL     OW26731   4.466   3.861   4.510  0.1995 -0.5619  0.1970
 5090SOL    HW126732   4.518   3.837   4.434  0.0760 -0.9367  0.2288
 5090SOL    HW226733   4.471   3.956   4.510 -0.5852 -0.5174 -0.4116
 5091SOL     OW26734   4.589   3.197   7.067  0.2747 -0.1330  0.2114
 5091SOL    HW126735   4.684   3.191   7.080  0.0305 -0.9719  1.7092
 5091SOL    HW226736   4.553   3.120   7.112 -0.2016 -0.7518 -1.2379
 5092SOL     OW26737   2.392   2.704   8.091  0.0139  0.5132 -0.4348
 5092SOL    HW126738   2.451   2.676   8.021  1.8654 -1.8006  2.0212
 5092SOL    HW226739   2.332   2.762   8.045  0.6967  1.3150 -0.3199
 5093SOL     OW26740   2.703   4.245   8.288  0.2377  0.0863  0.0074
 5093SOL    HW126741   2.671   4.305   8.355  2.5016  0.2545  0.9405
 5093SOL    HW226742   2.622   4.239   8.237  0.2011 -0.5874  0.1452
 5094SOL     OW26743   3.879   0.573   8.674 -0.1797  1.0463  0.7601
 5094SOL    HW126744   3.889   0.561   8.768 -2.5534 -1.7142  0.6743
 5094SOL    HW226745   3.794   0.535   8.653  0.7935 -0.6211 -0.1351
 5095SOL     OW26746   4.324   1.404   1.672 -0.5057 -0.0676  0.1503
 5095SOL    HW126747   4.355   1.401   1.582  1.3258 -1.3035  0.8158
 5095SOL    HW226748   4.386   1.463   1.715 -0.4555  1.1752 -1.6646
 5096SOL     OW26749   1.230   0.861   3.697  0.5087  0.4520 -0.1503
 5096SOL    HW126750   1.207   0.771   3.723 -1.1404  1.0891  0.5838
 5096SOL    HW226751   1.176   0.906   3.762 -0.7800  2.1087 -2.3823
 5097SOL     OW26752   3.681   0.503   2.537  0.1214  0.1025 -0.1818
 5097SOL    HW126753   3.763   0.464   2.567 -0.0105  1.7749  2.3095
 5097SOL    HW226754   3.704   0.596   2.544  1.4779 -0.2365  0.0109
 5098SOL     OW26755   1.356   0.515   8.128  0.2743 -0.2066 -0.1284
 5098SOL    HW126756   1.290   0.493   8.062  0.3403  2.1561 -0.9937
 5098SOL    HW226757   1.394   0.429   8.147 -0.4231 -0.7168 -1.0500
 5099SOL     OW26758   0.018   0.610  16.452 -1.0484 -0.1134  0.1902
 5099SOL    HW126759   4.668   0.634  16.508  0.2915  0.3929  1.7316
 5099SOL    HW226760   0.090   0.651  16.499  1.0072 -2.8677 -0.5864
 5100SOL     OW26761   0.763   4.618  13.327  0.4340  0.8212  0.1326
 5100SOL    HW126762   0.739   4.644  13.417 -0.6055 -0.7536  0.3117
 5100SOL    HW226763   0.773   4.524  13.340 -0.5547  0.5738 -0.9431
 5101SOL     OW26764   1.810   1.981   7.459  0.1565 -0.1185  0.2744
 5101SOL    HW126765   1.858   1.955   7.538 -0.0740  2.8742  1.4260
 5101SOL    HW226766   1.789   2.068   7.493  4.0599 -0.0418  2.5382
 5102SOL     OW26767   2.420   0.996   5.273 -0.2357 -0.1315 -0.1889
 5102SOL    HW126768   2.441   0.908   5.306 -3.1313  0.3233  2.8586
 5102SOL    HW226769   2.407   0.969   5.182  1.5716 -1.0610 -0.1821
 5103SOL     OW26770   0.551   0.691   6.248 -0.1805  0.6033 -0.3133
 5103SOL    HW126771   0.598   0.702   6.165  1.0362 -0.1792  0.2623
 5103SOL    HW226772   0.622   0.662   6.306 -0.6643 -0.5587 -0.3182
 5104SOL     OW26773   3.913   2.480  17.405 -0.0563  0.2969  0.1916
 5104SOL    HW126774   3.855   2.555  17.416  1.2986  1.3146  0.3328
 5104SOL    HW226775   3.911   2.461  17.311 -0.4315 -2.3401  0.7240
 5105SOL     OW26776   0.923   1.034   4.858 -0.4305 -0.0877 -0.0718
 5105SOL    HW126777   0.857   0.971   4.887  0.0820 -0.0658  1.1273
 5105SOL    HW226778   0.920   1.100   4.927 -2.0410  0.1500 -0.3511
 5106SOL     OW26779   4.450   2.457   1.117 -0.5099  0.1410 -0.4220
 5106SOL    HW126780   4.529   2.432   1.165 -2.5085  0.1290  2.8561
 5106SOL    HW226781   4.414   2.522   1.177  1.4771  1.8874 -1.0987
 5107SOL     OW26782   0.974   1.170  12.360 -0.7690 -0.4214 -0.7467
 5107SOL    HW126783   0.986   1.255  12.317  1.5137 -0.0433  0.6795
 5107SOL    HW226784   0.897   1.188  12.414  0.0973 -0.0400  0.3468
 5108SOL     OW26785   1.206   0.183  13.546  0.0737 -0.6205 -0.2228
 5108SOL    HW126786   1.209   0.124  13.621  1.1847 -0.3431 -0.0493
 5108SOL    HW226787   1.139   0.138  13.494 -1.7570 -0.1295  1.6979
 5109SOL     OW26788   4.125   0.843   7.280 -0.4275 -0.3492  0.1655
 5109SOL    HW126789   4.070   0.831   7.203  0.4516 -3.0724 -0.0303
 5109SOL    HW226790   4.125   0.753   7.314  2.9225  0.0642  1.3098
 5110SOL     OW26791   3.057   3.600   4.952 -0.1274 -0.1574 -0.0743
 5110SOL    HW126792   2.965   3.610   4.926 -0.3211 -2.1332 -0.1568
 5110SOL    HW226793   3.080   3.686   4.988  1.4582 -0.4756 -0.3232
 5111SOL     OW26794   2.407   3.815   5.021  0.1296 -0.1741 -0.2083
 5111SOL    HW126795   2.423   3.722   5.035  0.8246  0.3227  2.2698
 5111SOL    HW226796   2.359   3.832   5.102 -1.5354  2.6399 -1.7821
 5112SOL     OW26797   0.083   2.514   9.041 -0.0052  0.2021  0.2973
 5112SOL    HW126798   0.139   2.519   9.118 -0.9284 -0.2921  0.9977
 5112SOL    HW226799   0.136   2.560   8.976  0.2625  0.1535  0.4807
 5113SOL     OW26800   2.054   3.739  11.404  0.1106 -0.4337 -0.0534
 5113SOL    HW126801   2.029   3.651  11.378  2.0904 -1.1178  0.4075
 5113SOL    HW226802   2.133   3.757  11.354  0.2276 -2.7224 -0.6702
 5114SOL     OW26803   1.202   1.725   4.458 -0.7314  0.5367 -0.5632
 5114SOL    HW126804   1.186   1.656   4.394  1.5477 -0.2925 -0.2329
 5114SOL    HW226805   1.279   1.699   4.509 -0.1310  0.3035 -1.5791
 5115SOL     OW26806   4.503   2.545   6.502  0.2685 -0.3302  0.2382
 5115SOL    HW126807   4.597   2.555   6.517  0.5810 -1.0271 -1.3011
 5115SOL    HW226808   4.470   2.634   6.513 -1.1652 -0.6311 -1.5554
 5116SOL     OW26809   3.155   4.233   2.181  0.1763  0.0004  0.3057
 5116SOL    HW126810   3.249   4.249   2.192  0.2464  0.0065 -0.3192
 5116SOL    HW226811   3.147   4.143   2.213 -3.1725 -0.2866 -1.3559
 5117SOL     OW26812   0.668   3.383   2.798 -0.5577  0.2740 -0.2017
 5117SOL    HW126813   0.615   3.351   2.724  0.6977  0.0653 -1.0002
 5117SOL    HW226814   0.592   3.409   2.850  0.6618 -1.3562  2.3680
 5118SOL     OW26815   3.286   1.320  17.446  0.1509  1.0075  0.1596
 5118SOL    HW126816   3.216   1.377  17.416  0.6613  1.7474  0.3660
 5118SOL    HW226817   3.339   1.387  17.490  1.8994 -0.5824  0.5178
 5119SOL     OW26818   2.491   4.446  17.061 -0.3506 -0.0903  0.3073
 5119SOL    HW126819   2.398   4.468  17.063 -0.5769 -1.1009  1.1706
 5119SOL    HW226820   2.480   4.350  17.057 -0.9149  0.0647 -1.7141
 5120SOL     OW26821   3.561   0.572  15.298 -0.2245 -0.1884  0.0916
 5120SOL    HW126822   3.558   0.603  15.207 -0.1676 -0.5409 -0.0274
 5120SOL    HW226823   3.586   0.652  15.345  0.3739  0.1414 -0.7821
 5121SOL     OW26824   1.598   4.136   3.820 -0.1470  0.6905  0.3038
 5121SOL    HW126825   1.571   4.209   3.764 -2.3447 -1.1531 -1.0071
 5121SOL    HW226826   1.515   4.099   3.852  0.4345 -0.3284  0.6367
 5122SOL     OW26827   2.040   3.501   5.452  0.3507 -0.2206  0.3856
 5122SOL    HW126828   2.078   3.458   5.375  0.5861  1.2728 -0.3398
 5122SOL    HW226829   1.950   3.472   5.436  0.5163 -0.1600 -0.6667
 5123SOL     OW26830   4.358   0.878   2.328 -0.0761 -0.4136 -0.4292
 5123SOL    HW126831   4.429   0.862   2.390 -1.4631 -1.8214  0.8104
 5123SOL    HW226832   4.283   0.896   2.386 -0.8128  0.0507 -1.5232
 5124SOL     OW26833   3.893   1.825   8.451  0.6137  0.1657  0.0994
 5124SOL    HW126834   3.896   1.826   8.356  0.6330 -0.0332  0.0984
 5124SOL    HW226835   3.799   1.811   8.461  0.6731 -0.1898  0.1563
 5125SOL     OW26836   3.841   0.409   8.385 -0.0494 -0.3476  0.5440
 5125SOL    HW126837   3.787   0.472   8.338  0.0683  1.8406  3.3442
 5125SOL    HW226838   3.881   0.361   8.312 -1.3876  0.6386 -0.8326
 5126SOL     OW26839   2.048   1.829   5.742  0.3904 -0.0084 -0.1992
 5126SOL    HW126840   2.085   1.828   5.654 -0.7501  0.1520 -0.6777
 5126SOL    HW226841   2.105   1.767   5.787  1.3550  1.9149  1.2628
 5127SOL     OW26842   0.134   2.669   1.669  0.7542  0.2402  0.7457
 5127SOL    HW126843   0.125   2.737   1.735 -0.6310  0.9062 -0.1263
 5127SOL    HW226844   0.227   2.652   1.654  0.2798 -0.0587 -1.9557
 5128SOL     OW26845   3.045   4.514   0.378 -0.2794 -0.0096  1.0250
 5128SOL    HW126846   2.953   4.534   0.400 -0.7479 -0.8924 -0.1505
 5128SOL    HW226847   3.085   4.589   0.421  0.5423  0.4812 -0.6097
 5129SOL     OW26848   2.240   3.950   6.059  0.2094 -0.8282 -0.3372
 5129SOL    HW126849   2.194   3.870   6.034 -1.8485  0.0916  0.5406
 5129SOL    HW226850   2.291   3.922   6.135  0.5334  1.5342  0.3001
 5130SOL     OW26851   3.529   0.243   6.235  0.1698  0.4593 -0.1806
 5130SOL    HW126852   3.434   0.257   6.226 -0.0144  0.2072  1.4804
 5130SOL    HW226853   3.524   0.152   6.263 -1.3818  0.1724 -1.3587
 5131SOL     OW26854   0.418   2.716  14.471 -0.1499  0.4639 -0.3867
 5131SOL    HW126855   0.432   2.625  14.446 -1.5467  0.2885 -0.5171
 5131SOL    HW226856   0.449   2.762  14.393  1.3306 -1.9566 -1.2381
 5132SOL     OW26857   0.497   4.155   4.821  0.4066 -0.4780  0.6712
 5132SOL    HW126858   0.516   4.192   4.907  0.9865  0.0400  0.3204
 5132SOL    HW226859   0.540   4.224   4.770  0.9245 -1.2858  0.0194
 5133SOL     OW26860   0.501   2.985  15.047 -0.4904 -0.0473 -0.5823
 5133SOL    HW126861   0.563   3.038  14.997 -1.9936  3.4358  1.2748
 5133SOL    HW226862   0.557   2.926  15.097 -1.3147 -0.6542 -0.3630
 5134SOL     OW26863   4.292   3.670  11.192  0.6694 -0.2840  0.1769
 5134SOL    HW126864   4.344   3.720  11.254 -0.2300  2.5329 -1.3631
 5134SOL    HW226865   4.284   3.737  11.125  1.0485 -0.2188  0.1979
 5135SOL     OW26866   3.415   1.138   7.478  0.1035 -0.1702 -0.0673
 5135SOL    HW126867   3.441   1.081   7.406  1.4668  0.5131 -0.1270
 5135SOL    HW226868   3.417   1.223   7.434  0.8719 -1.5844 -2.7406
 5136SOL     OW26869   4.463   3.562   4.497  0.0001  0.2445 -0.5558
 5136SOL    HW126870   4.473   3.648   4.539 -0.3243  0.7320 -1.4798
 5136SOL    HW226871   4.369   3.547   4.488 -0.3201  1.1392  1.3065
 5137SOL     OW26872   3.792   1.722   7.308  0.0775 -0.0868 -0.3864
 5137SOL    HW126873   3.840   1.659   7.362  0.0778 -0.7862 -1.2205
 5137SOL    HW226874   3.714   1.719   7.365  0.7563  1.4793  0.6278
 5138SOL     OW26875   0.460   2.249   8.195 -0.3701 -0.6195  0.3791
 5138SOL    HW126876   0.523   2.252   8.124  0.1293  0.2222  0.8721
 5138SOL    HW226877   0.506   2.309   8.253  1.0687 -1.2373 -0.1242
 5139SOL     OW26878   2.164   4.235   5.541  0.1462  0.5817 -0.2627
 5139SOL    HW126879   2.216   4.162   5.575  0.8319  0.8592 -0.7198
 5139SOL    HW226880   2.204   4.248   5.455  2.0093  3.6791  1.0569
 5140SOL     OW26881   0.120   0.708   5.007  1.0944 -0.1601  0.1378
 5140SOL    HW126882   0.035   0.664   5.014  1.7926 -1.5864 -0.3070
 5140SOL    HW226883   0.096   0.798   4.984  1.7480  0.0125  0.1375
 5141SOL     OW26884   1.888   1.612   3.366  0.2181  0.0505  0.1816
 5141SOL    HW126885   1.907   1.705   3.354  0.8470 -0.0588  0.2895
 5141SOL    HW226886   1.957   1.584   3.427  1.3227  1.9443 -0.1971
 5142SOL     OW26887   3.929   2.066   1.603  0.2424 -0.8682 -0.3717
 5142SOL    HW126888   3.948   2.117   1.524  0.9251 -0.4176  0.0850
 5142SOL    HW226889   3.875   2.137   1.639  1.4283  0.4644 -1.2065
 5143SOL     OW26890   0.054   4.601   3.826  0.4235  0.2125  0.2098
 5143SOL    HW126891   0.001   4.526   3.854 -0.8710  0.3713 -1.7653
 5143SOL    HW226892   0.143   4.570   3.841  0.3047  0.2485  0.9759
 5144SOL     OW26893   3.921   1.522   4.514  0.2754 -0.2371  0.2110
 5144SOL    HW126894   4.016   1.513   4.514  0.3547  0.4210 -2.1967
 5144SOL    HW226895   3.891   1.594   4.459 -0.2926  0.1734  1.0530
 5145SOL     OW26896   0.774   1.577   6.860 -0.4321 -0.2728  0.1192
 5145SOL    HW126897   0.747   1.656   6.909 -0.7102  0.4918 -1.2665
 5145SOL    HW226898   0.832   1.536   6.925 -0.0105 -1.2170 -0.8673
 5146SOL     OW26899   3.513   4.455   8.249 -0.0084 -0.0460 -0.3007
 5146SOL    HW126900   3.418   4.467   8.243  0.3119  3.5106  1.8020
 5146SOL    HW226901   3.521   4.379   8.307 -1.2681  0.9836  1.2271
 5147SOL     OW26902   2.881   1.263   2.953 -0.4418  0.1331  0.6579
 5147SOL    HW126903   2.924   1.223   3.028  0.8536 -0.8376 -0.5981
 5147SOL    HW226904   2.846   1.188   2.904 -0.0856  0.7515 -0.5285
 5148SOL     OW26905   3.500   3.880  16.932  0.1655 -0.0462 -0.0641
 5148SOL    HW126906   3.536   3.794  16.911 -1.9793 -0.8208 -0.5655
 5148SOL    HW226907   3.523   3.925  16.851  0.4262  3.0069  1.7170
 5149SOL     OW26908   4.600   2.044   7.710  0.0259 -0.3066  0.5815
 5149SOL    HW126909   4.676   2.098   7.729  1.3079 -1.0902 -2.2968
 5149SOL    HW226910   4.633   1.999   7.632 -1.0016  0.9284 -0.5585
 5150SOL     OW26911   4.007   0.079  12.642  0.0081  0.1235  0.0108
 5150SOL    HW126912   4.093   0.043  12.663  0.4413  0.0780 -1.8135
 5150SOL    HW226913   3.965   0.000  12.606  2.0216 -0.7682 -0.3828
 5151SOL     OW26914   0.517   1.255   9.943  0.1869  0.3701  0.2907
 5151SOL    HW126915   0.503   1.249   9.848  0.9776  0.0547  0.1897
 5151SOL    HW226916   0.558   1.340   9.959  1.1488  0.3180 -1.8886
 5152SOL     OW26917   0.079   1.917   4.712 -0.1430 -0.1934 -0.0160
 5152SOL    HW126918   0.040   1.835   4.681  1.1444 -1.5292  1.9153
 5152SOL    HW226919   0.170   1.911   4.681 -0.2040 -2.0940  0.1424
 5153SOL     OW26920   1.402   1.359   4.851  0.5307  0.1399  0.5870
 5153SOL    HW126921   1.439   1.372   4.764  2.1754 -0.4486  1.2074
 5153SOL    HW226922   1.312   1.329   4.835  0.5851 -0.3783  1.2501
 5154SOL     OW26923   2.508   1.404   8.332  1.0123 -0.2639  0.3166
 5154SOL    HW126924   2.572   1.395   8.403  2.2843 -0.1929 -0.8404
 5154SOL    HW226925   2.434   1.385   8.391 -0.5443  1.4370 -1.1153
 5155SOL     OW26926   2.567   2.354   4.049 -0.2157  0.6465  0.3314
 5155SOL    HW126927   2.655   2.367   4.012 -0.3525  0.8335  0.0697
 5155SOL    HW226928   2.533   2.296   3.982 -0.0372 -1.7471  2.3085
 5156SOL     OW26929   4.057   1.654  12.288  0.0976  0.7859  0.1085
 5156SOL    HW126930   4.083   1.615  12.371  0.1260 -0.2779 -0.3974
 5156SOL    HW226931   4.120   1.619  12.226 -1.7723 -0.1444 -1.2542
 5157SOL     OW26932   3.118   1.061   4.455  0.4657  0.0170  0.1916
 5157SOL    HW126933   3.093   1.122   4.385  1.5887  0.7809  0.4354
 5157SOL    HW226934   3.052   1.069   4.524  2.2083  2.9668  1.5279
 5158SOL     OW26935   3.769   2.153  14.719  0.6207  0.1479 -0.4976
 5158SOL    HW126936   3.835   2.219  14.698  1.4896 -0.6257 -0.2143
 5158SOL    HW226937   3.696   2.210  14.695 -2.0665 -2.5144  1.4411
 5159SOL     OW26938   2.291   0.937   8.575  0.2371  0.0247  0.5311
 5159SOL    HW126939   2.204   0.925   8.536 -0.8179  3.1489  1.9394
 5159SOL    HW226940   2.290   1.031   8.593 -0.3469 -0.0368  0.8210
 5160SOL     OW26941   3.277   2.917   6.061  0.1506 -0.0037  0.5690
 5160SOL    HW126942   3.359   2.881   6.093  1.2675  2.9158  0.9314
 5160SOL    HW226943   3.205   2.884   6.115 -0.6454  1.4426  0.3847
 5161SOL     OW26944   3.042   0.034   5.343 -0.3942  0.1082  0.7742
 5161SOL    HW126945   3.051   0.020   5.437  0.0072  0.8160  0.8428
 5161SOL    HW226946   3.117   0.090   5.322 -1.1783 -0.2628 -3.0627
 5162SOL     OW26947   0.493   2.205   6.314  0.3554  0.5995 -0.0589
 5162SOL    HW126948   0.456   2.122   6.342 -0.7964  1.4794  1.0128
 5162SOL    HW226949   0.487   2.203   6.219  1.0070 -0.3681 -0.0839
 5163SOL     OW26950   3.421   0.953  10.514  0.7617  0.6338 -0.3913
 5163SOL    HW126951   3.512   0.984  10.518  1.9039 -2.8710  1.2260
 5163SOL    HW226952   3.375   1.022  10.466 -0.4821  0.6588  0.8380
 5164SOL     OW26953   1.005   3.491   5.510  0.5751 -0.4147 -0.0259
 5164SOL    HW126954   1.066   3.421   5.534 -0.2064 -0.4540  1.8121
 5164SOL    HW226955   1.069   3.555   5.479  0.0110 -0.3938 -1.1419
 5165SOL     OW26956   0.746   0.083  10.417  0.4152  0.0237 -0.0532
 5165SOL    HW126957   0.811   0.147  10.387  0.8168 -0.0696  0.6266
 5165SOL    HW226958   0.762   0.018  10.349  1.7161 -1.1842  1.4101
 5166SOL     OW26959   1.222   3.201   8.605 -0.0782  0.1690 -0.2704
 5166SOL    HW126960   1.132   3.227   8.623 -0.5303  0.4799 -2.8899
 5166SOL    HW226961   1.247   3.190   8.697  1.2789  0.7594 -0.5596
 5167SOL     OW26962   0.061   3.613   8.782  0.6782 -0.3492  0.6276
 5167SOL    HW126963   0.097   3.694   8.817 -2.1872  1.2155 -0.0088
 5167SOL    HW226964   0.007   3.651   8.712  2.5382  1.5371  0.2315
 5168SOL     OW26965   4.126   4.658   8.540  0.4526  0.3693  0.0440
 5168SOL    HW126966   4.192   4.659   8.609 -0.8402 -0.7172  1.2697
 5168SOL    HW226967   4.061   4.607   8.587 -1.0770  2.9490  0.7225
 5169SOL     OW26968   4.626   4.023   7.363 -0.1243  0.1528 -0.1556
 5169SOL    HW126969   4.584   4.072   7.292 -0.4647  0.2275  0.1004
 5169SOL    HW226970   4.647   4.092   7.426 -2.3734  0.0967  0.6266
 5170SOL     OW26971   4.672   2.645   7.253  0.2591  0.1944 -0.0779
 5170SOL    HW126972   4.686   2.597   7.334 -0.3070 -1.8695 -1.2089
 5170SOL    HW226973   4.609   2.591   7.205 -0.0256  0.8396 -0.4478
 5171SOL     OW26974   3.748   1.231   0.906  0.0337 -0.0627 -0.2585
 5171SOL    HW126975   3.756   1.221   0.811  1.1558  0.3642 -0.2046
 5171SOL    HW226976   3.693   1.156   0.931 -1.0478  0.2021 -1.8530
 5172SOL     OW26977   0.128   4.268   7.871  0.0973 -0.5295 -1.2872
 5172SOL    HW126978   0.065   4.340   7.873 -1.3416 -1.8169 -0.1383
 5172SOL    HW226979   0.107   4.230   7.787  1.3867 -0.2254 -1.7542
 5173SOL     OW26980   2.161   4.591   7.079  0.0009 -0.1811 -0.4733
 5173SOL    HW126981   2.208   4.670   7.105 -1.0344  0.2501  0.0832
 5173SOL    HW226982   2.108   4.613   7.003  0.9164  2.8046 -0.2253
 5174SOL     OW26983   3.686   2.141  16.351  0.5027 -0.2880  0.0054
 5174SOL    HW126984   3.710   2.180  16.267 -1.1315  0.1973 -0.2202
 5174SOL    HW226985   3.763   2.160  16.405 -1.1520  0.9638  1.8849
 5175SOL     OW26986   2.152   3.417  10.803  0.5579  0.1124  0.2270
 5175SOL    HW126987   2.243   3.391  10.820 -0.0834 -1.9430  0.5420
 5175SOL    HW226988   2.158   3.454  10.715 -1.3806  0.7465  0.3560
 5176SOL     OW26989   4.525   2.308   1.469  0.2095 -0.3900 -0.4779
 5176SOL    HW126990   4.554   2.228   1.425  0.3917 -0.6516  0.1182
 5176SOL    HW226991   4.608   2.356   1.476  1.2491 -2.3171  0.2840
 5177SOL     OW26992   0.547   3.870   6.325  0.1157  0.7878 -0.3123
 5177SOL    HW126993   0.620   3.877   6.386 -1.2025  1.8553  1.1066
 5177SOL    HW226994   0.589   3.893   6.242 -0.3808  0.0875 -0.7585
 5178SOL     OW26995   1.890   0.749   0.505  0.1759 -0.6816 -0.1539
 5178SOL    HW126996   1.803   0.708   0.509 -0.7317  1.0432 -2.0014
 5178SOL    HW226997   1.884   0.811   0.578 -1.0989 -0.2168 -0.6479
 5179SOL     OW26998   0.635   0.661  15.229  0.2207  0.1130  0.0170
 5179SOL    HW126999   0.616   0.750  15.201  0.6255  0.7789  1.8480
 5179SOL    HW227000   0.626   0.669  15.324 -1.5533 -0.7299 -0.0904
 5180SOL     OW27001   3.846   0.873   8.047  0.2841  0.1648 -0.0172
 5180SOL    HW127002   3.786   0.915   7.986  1.2346  0.7534 -0.5568
 5180SOL    HW227003   3.815   0.782   8.046  0.8809 -0.0229 -1.3661
 5181SOL     OW27004   3.215   3.765   2.448 -0.1798  0.3698  0.6514
 5181SOL    HW127005   3.128   3.764   2.410  0.1361 -2.0139 -0.0074
 5181SOL    HW227006   3.234   3.672   2.440  1.7844  0.8512 -0.4580
 5182SOL     OW27007   4.061   0.574   7.350  0.4107  0.4089  0.1807
 5182SOL    HW127008   4.108   0.517   7.289 -1.4333 -1.2744  0.3609
 5182SOL    HW227009   3.986   0.518   7.367  2.0459 -1.4676  1.0929
 5183SOL     OW27010   3.981   0.879   6.311 -0.0981  0.1529  0.4255
 5183SOL    HW127011   3.897   0.859   6.353 -0.0139  3.2807  2.0995
 5183SOL    HW227012   3.980   0.829   6.230 -0.2058 -0.2941  0.7000
 5184SOL     OW27013   3.315   3.701   8.237  0.7757 -0.5608 -0.3616
 5184SOL    HW127014   3.245   3.677   8.298 -0.2164  1.3284 -0.7512
 5184SOL    HW227015   3.269   3.754   8.171  0.3272 -1.2436 -0.6005
 5185SOL     OW27016   1.545   2.576  13.981  0.3675 -0.3711  0.0165
 5185SOL    HW127017   1.490   2.631  14.037  2.7105  1.3469  0.6135
 5185SOL    HW227018   1.482   2.564  13.910 -0.2151 -0.5057  0.5510
 5186SOL     OW27019   3.747   4.255   7.922 -1.3518  0.1533  0.1380
 5186SOL    HW127020   3.761   4.199   7.999 -1.4268  1.3044  0.9816
 5186SOL    HW227021   3.657   4.285   7.935 -1.4906 -0.9566  1.7566
 5187SOL     OW27022   3.022   0.133  13.169  0.1952 -0.1213 -0.6530
 5187SOL    HW127023   3.019   0.119  13.263  1.8113  0.5838 -0.5024
 5187SOL    HW227024   2.945   0.188  13.151  0.1367  0.2049  0.5890
 5188SOL     OW27025   3.664   4.319   2.258  0.0485 -0.8035  0.1577
 5188SOL    HW127026   3.688   4.328   2.166 -1.8981 -0.8901 -0.3607
 5188SOL    HW227027   3.699   4.396   2.303 -1.3019 -1.2163  1.9266
 5189SOL     OW27028   2.132   1.187   2.992 -0.0524 -0.1467  0.5307
 5189SOL    HW127029   2.144   1.279   3.016 -1.5707  0.3090 -0.5037
 5189SOL    HW227030   2.138   1.191   2.896 -1.0370  0.1037  0.4819
 5190SOL     OW27031   1.146   0.016   4.803  0.2424 -0.2892 -0.4644
 5190SOL    HW127032   1.117   0.043   4.716 -1.7335 -1.0389 -0.0206
 5190SOL    HW227033   1.180   4.654   4.776 -0.6551 -0.3010 -1.5296
 5191SOL     OW27034   0.739   0.322  16.093 -0.0302  0.4263 -0.2909
 5191SOL    HW127035   0.788   0.404  16.083 -1.0676  0.9296 -1.1891
 5191SOL    HW227036   0.789   0.262  16.038 -1.7745  1.1615 -2.6837
 5192SOL     OW27037   0.833   3.456   5.304 -0.0984 -0.3091  0.0029
 5192SOL    HW127038   0.898   3.455   5.375 -0.0147 -1.4937 -0.0827
 5192SOL    HW227039   0.755   3.433   5.354 -0.1744  0.0161  0.0301
 5193SOL     OW27040   0.006   3.239  15.412 -0.3518 -0.3935 -0.8234
 5193SOL    HW127041   4.714   3.218  15.320 -3.0686 -1.4064 -0.1184
 5193SOL    HW227042   0.074   3.307  15.409 -1.9256  1.2021 -0.3405
 5194SOL     OW27043   0.721   4.582   5.629  0.2837 -0.2611  0.1157
 5194SOL    HW127044   0.649   4.645   5.629  2.4212  2.1956 -0.9153
 5194SOL    HW227045   0.690   4.510   5.684 -2.2111 -0.4219 -1.5002
 5195SOL     OW27046   1.502   1.743   8.671 -0.0960  0.3685  0.4945
 5195SOL    HW127047   1.420   1.711   8.634  0.7005 -0.8418 -0.2232
 5195SOL    HW227048   1.515   1.822   8.618  1.9404 -0.6613 -0.5554
 5196SOL     OW27049   3.843   2.193   6.136 -0.2590  0.3624  0.1967
 5196SOL    HW127050   3.796   2.132   6.079 -0.6661 -1.4737  2.4834
 5196SOL    HW227051   3.771   2.251   6.162 -1.3044 -0.8655  0.0828
 5197SOL     OW27052   1.593   0.756   2.164 -0.0888  0.9530 -0.6897
 5197SOL    HW127053   1.638   0.772   2.247  1.8691  0.9957 -1.7410
 5197SOL    HW227054   1.663   0.735   2.102  0.5746  0.5181  0.2029
 5198SOL     OW27055   1.580   2.660   8.959 -0.5158 -0.0335 -0.2265
 5198SOL    HW127056   1.658   2.664   9.015 -1.0742  0.9122  0.4913
 5198SOL    HW227057   1.608   2.615   8.880 -0.7755  2.3150 -1.6492
 5199SOL     OW27058   2.413   3.288  15.245 -0.0562  0.4588  0.6877
 5199SOL    HW127059   2.453   3.214  15.291 -1.4016 -0.0424  1.0405
 5199SOL    HW227060   2.382   3.251  15.162  1.4172 -0.4352  0.5418
 5200SOL     OW27061   3.158   0.345   3.666  0.2921  0.4212 -0.0862
 5200SOL    HW127062   3.211   0.364   3.589  0.9734  2.1543  0.8113
 5200SOL    HW227063   3.150   0.250   3.654  3.8503 -0.3266  3.2349
 5201SOL     OW27064   0.982   1.837   5.039  0.6162  0.1912 -0.3301
 5201SOL    HW127065   0.959   1.799   4.954 -1.4697 -0.5406  0.5548
 5201SOL    HW227066   1.077   1.830   5.032  0.3579 -0.7761 -2.9943
 5202SOL     OW27067   0.349   1.524  10.846  0.1401 -0.2421 -0.1273
 5202SOL    HW127068   0.273   1.466  10.853  1.2326 -1.6475  0.1254
 5202SOL    HW227069   0.326   1.591  10.911 -0.8701 -2.2939  1.6233
 5203SOL     OW27070   3.539   3.511   4.493  0.2194  0.2938 -0.2273
 5203SOL    HW127071   3.520   3.603   4.512 -1.1607  0.0458 -0.4124
 5203SOL    HW227072   3.633   3.506   4.510 -0.3630 -0.3610  2.8203
 5204SOL     OW27073   0.874   1.674   4.050  0.0323 -0.3081 -0.0706
 5204SOL    HW127074   0.875   1.749   3.992 -0.6321  0.0239  0.3414
 5204SOL    HW227075   0.812   1.694   4.120 -0.2966 -0.6700 -0.2586
 5205SOL     OW27076   1.146   3.116  15.061 -0.3204 -0.5041 -0.2096
 5205SOL    HW127077   1.183   3.193  15.104  2.9795 -0.9072 -2.2764
 5205SOL    HW227078   1.074   3.150  15.007  0.1958 -0.5190 -0.9064
 5206SOL     OW27079   2.005   4.052   8.758 -0.1374  1.3154 -0.0705
 5206SOL    HW127080   1.910   4.040   8.760 -0.1234  1.5386  1.5670
 5206SOL    HW227081   2.023   4.111   8.831 -1.4226  2.3936 -0.6251
 5207SOL     OW27082   1.531   0.862   1.522  0.1714  0.1162 -0.7729
 5207SOL    HW127083   1.570   0.913   1.451  1.7240  0.4393  0.3254
 5207SOL    HW227084   1.560   0.774   1.498 -0.6848 -0.2435 -0.5083
 5208SOL     OW27085   1.224   3.450   5.150  0.0685  0.0440  0.1413
 5208SOL    HW127086   1.200   3.398   5.226  0.6098  0.9016  0.9004
 5208SOL    HW227087   1.315   3.460   5.178 -0.3862 -0.1716  1.7307
 5209SOL     OW27088   1.847   2.892   3.734 -0.6301  0.2830 -0.5504
 5209SOL    HW127089   1.905   2.817   3.720  0.2188  0.9122 -0.3782
 5209SOL    HW227090   1.821   2.876   3.825  1.3037 -1.5213 -0.3012
 5210SOL     OW27091   0.163   0.708   1.589 -0.0259 -0.1968 -0.3272
 5210SOL    HW127092   0.077   0.746   1.574  0.9309  1.3010 -2.0834
 5210SOL    HW227093   0.151   0.615   1.568  0.4783 -1.1636  3.6350
 5211SOL     OW27094   4.453   3.956   4.806 -0.3818  0.2319  0.1398
 5211SOL    HW127095   4.508   3.917   4.874  1.1165  1.6586 -0.2458
 5211SOL    HW227096   4.513   3.964   4.732 -1.3810 -1.5057 -0.8602
 5212SOL     OW27097   1.411   3.587   2.479 -0.2286  0.1006  0.5504
 5212SOL    HW127098   1.476   3.648   2.515  1.3408 -0.3223 -1.5247
 5212SOL    HW227099   1.366   3.546   2.553 -1.8626  2.4715  0.8771
 5213SOL     OW27100   3.666   4.653   2.791 -0.3249 -0.0499  0.3397
 5213SOL    HW127101   3.752   4.682   2.760  0.2787 -1.1723  0.9489
 5213SOL    HW227102   3.616   4.691   2.719  0.4202  0.4979  0.1039
 5214SOL     OW27103   1.138   4.541   3.093 -0.1217  0.3134  0.4888
 5214SOL    HW127104   1.170   4.531   3.003  1.3132  0.3574  0.9979
 5214SOL    HW227105   1.098   4.628   3.094  0.0815  0.4086  0.3892
 5215SOL     OW27106   2.716   4.637  17.176  0.1890 -0.2982 -0.4353
 5215SOL    HW127107   2.805   4.652  17.143 -0.0504 -0.5631 -1.1812
 5215SOL    HW227108   2.662   4.689  17.117 -0.3460  1.9541  2.0167
 5216SOL     OW27109   2.509   1.899   0.036 -0.5423 -0.2456  0.0385
 5216SOL    HW127110   2.572   1.950  17.684  0.0506 -0.2357  0.7883
 5216SOL    HW227111   2.457   1.972   0.070 -1.1972 -0.6821 -0.0167
 5217SOL     OW27112   1.795   4.245  17.028 -0.4563  0.3808 -0.9307
 5217SOL    HW127113   1.735   4.212  17.095  1.2371  0.2524  0.5109
 5217SOL    HW227114   1.751   4.325  17.000 -2.9701 -1.0054 -0.9457
 5218SOL     OW27115   2.020   0.570   2.525 -0.3703 -0.1128  0.7040
 5218SOL    HW127116   1.990   0.510   2.593  0.0290 -0.3553  0.6630
 5218SOL    HW227117   1.974   0.535   2.449  0.9871 -0.6660  0.1334
 5219SOL     OW27118   3.926   1.990   9.380 -0.1903  0.1000 -0.2746
 5219SOL    HW127119   3.991   1.921   9.393 -1.8413 -1.4083  0.0970
 5219SOL    HW227120   3.847   1.935   9.383  1.3266 -1.9617  1.8015
 5220SOL     OW27121   0.180   3.111  15.583  0.3074  0.3286  0.0300
 5220SOL    HW127122   0.158   3.028  15.626  1.2996 -0.4984 -1.0458
 5220SOL    HW227123   0.095   3.142  15.551  0.2534 -1.0707 -1.1829
 5221SOL     OW27124   3.039   0.858   1.306  0.1967 -0.2872 -0.3922
 5221SOL    HW127125   2.972   0.801   1.344  0.9243 -0.5352  0.5219
 5221SOL    HW227126   3.003   0.946   1.321  1.5502  0.3861 -1.1340
 5222SOL     OW27127   2.881   0.611   8.040 -0.5443 -0.9105  0.0304
 5222SOL    HW127128   2.919   0.607   7.952  0.4085 -2.3451  0.5065
 5222SOL    HW227129   2.828   0.531   8.042 -0.8239 -0.7761 -1.5690
 5223SOL     OW27130   3.073   2.154  16.668 -0.2516 -0.4578 -0.0478
 5223SOL    HW127131   3.057   2.093  16.740 -0.2207  0.6736  0.9161
 5223SOL    HW227132   3.159   2.188  16.692 -0.4675 -0.6030  0.9439
 5224SOL     OW27133   1.797   3.800  16.463 -0.2437  0.3693  0.2663
 5224SOL    HW127134   1.818   3.719  16.508  0.0410  0.8567  1.0137
 5224SOL    HW227135   1.821   3.790  16.371 -0.3660  0.7060  0.1979
 5225SOL     OW27136   0.444   1.975   6.735  0.7095  0.5906 -0.2642
 5225SOL    HW127137   0.444   1.957   6.641 -1.0577 -0.8902  0.0055
 5225SOL    HW227138   0.511   1.915   6.767 -1.0160 -0.9648  0.4343
 5226SOL     OW27139   3.219   4.315   0.697 -0.1288 -0.5143  0.3731
 5226SOL    HW127140   3.178   4.315   0.784 -2.3947 -0.2858 -0.6954
 5226SOL    HW227141   3.143   4.307   0.640 -0.1455  0.3805  0.2590
 5227SOL     OW27142   1.867   0.963   8.174  0.1176 -0.0579  0.9836
 5227SOL    HW127143   1.937   0.917   8.128 -1.8720  0.0127 -2.0708
 5227SOL    HW227144   1.836   1.013   8.099 -0.2403 -0.9986  0.4990
 5228SOL     OW27145   4.212   3.478   4.468  0.5563  0.9106 -0.5898
 5228SOL    HW127146   4.155   3.485   4.391  1.9798  0.8942 -1.6526
 5228SOL    HW227147   4.190   3.386   4.482 -1.6819  1.2860 -1.6658
 5229SOL     OW27148   4.656   1.812   4.391  0.0332  0.1477 -0.0403
 5229SOL    HW127149   4.649   1.728   4.346 -0.7041  0.3759 -0.3469
 5229SOL    HW227150   4.674   1.785   4.481 -0.5517  1.8529  0.5941
 5230SOL     OW27151   2.228   3.992   9.682 -0.1167  0.2744 -0.0406
 5230SOL    HW127152   2.259   3.904   9.663  0.0972 -0.0380  1.8347
 5230SOL    HW227153   2.161   4.001   9.613  0.4949  0.4993 -0.6034
 5231SOL     OW27154   1.879   0.451   3.675  0.7370 -0.2212  0.3949
 5231SOL    HW127155   1.835   0.461   3.590 -0.0683  1.5542  1.0068
 5231SOL    HW227156   1.907   0.360   3.666 -0.0396 -0.2393 -1.9762
 5232SOL     OW27157   0.381   4.472   3.409  0.1650 -0.5919 -0.3339
 5232SOL    HW127158   0.394   4.564   3.385  1.2080 -0.6533 -0.0389
 5232SOL    HW227159   0.467   4.434   3.389  0.7107  1.1446 -1.3248
 5233SOL     OW27160   1.671   4.065   7.326  0.5776 -0.3110 -0.4525
 5233SOL    HW127161   1.608   4.111   7.271  1.3135  0.8391 -0.3246
 5233SOL    HW227162   1.624   3.981   7.333 -0.4251  0.4318  1.6264
 5234SOL     OW27163   3.336   4.184   9.166 -0.0116 -0.1511 -0.1133
 5234SOL    HW127164   3.261   4.158   9.220 -0.1981  1.4523  0.4003
 5234SOL    HW227165   3.409   4.166   9.224 -0.3117  3.4789  1.3840
 5235SOL     OW27166   1.520   3.742  10.909 -0.2775 -0.6002 -0.2332
 5235SOL    HW127167   1.434   3.748  10.951  0.1190 -0.0259  0.4992
 5235SOL    HW227168   1.559   3.668  10.955  0.7341  2.2157  3.4709
 5236SOL     OW27169   1.483   2.608   2.613 -0.2146  0.5178 -0.2119
 5236SOL    HW127170   1.501   2.678   2.551 -1.8075  1.0031 -0.1180
 5236SOL    HW227171   1.387   2.610   2.618 -0.2687  0.4105 -1.2079
 5237SOL     OW27172   1.515   4.542   7.005  0.0892 -0.3584  0.2005
 5237SOL    HW127173   1.429   4.543   7.046  0.0475  0.4313  0.0965
 5237SOL    HW227174   1.568   4.478   7.054  0.4501 -0.3166 -0.1308
 5238SOL     OW27175   3.865   0.677   2.791 -0.3352  0.4100  0.0320
 5238SOL    HW127176   3.847   0.768   2.765  3.4527  1.1444 -0.0859
 5238SOL    HW227177   3.920   0.689   2.869 -0.4849  1.1213  0.0269
 5239SOL     OW27178   3.941   4.565  12.101  0.1060 -0.5801  0.1031
 5239SOL    HW127179   3.905   4.643  12.060  2.3026  0.1058 -0.5402
 5239SOL    HW227180   3.979   4.601  12.181  1.1585 -0.6423 -0.3610
 5240SOL     OW27181   3.398   0.263   7.976  0.0502  0.1566  0.0206
 5240SOL    HW127182   3.340   0.230   7.907  0.9193 -1.9058  0.2939
 5240SOL    HW227183   3.356   0.349   7.984 -0.7178 -0.5018  2.8911
 5241SOL     OW27184   4.306   2.395   6.588  0.2658  0.5729 -0.3154
 5241SOL    HW127185   4.367   2.323   6.605 -0.6680 -0.7674 -2.5857
 5241SOL    HW227186   4.375   2.457   6.568  0.3579  0.0828 -1.5601
 5242SOL     OW27187   1.623   1.263   3.900 -0.5745 -0.2271  0.2486
 5242SOL    HW127188   1.659   1.193   3.846  1.0102  2.9753 -2.8495
 5242SOL    HW227189   1.610   1.214   3.981 -0.2101 -0.3154  0.2513
 5243SOL     OW27190   1.165   2.534   5.360  0.0737  0.2360 -0.1819
 5243SOL    HW127191   1.093   2.485   5.321 -1.0574 -0.0388  2.2578
 5243SOL    HW227192   1.234   2.468   5.364  0.6353  0.8846  0.8201
 5244SOL     OW27193   2.901   1.366   7.936 -0.4969 -0.2073  0.3726
 5244SOL    HW127194   2.856   1.339   8.015  0.7769 -0.9928  0.8290
 5244SOL    HW227195   2.827   1.375   7.876 -0.0311 -1.6550 -0.4254
 5245SOL     OW27196   0.883   3.338  10.213 -0.1230  0.4192 -0.3008
 5245SOL    HW127197   0.913   3.426  10.189 -1.1536  0.5284 -1.2008
 5245SOL    HW227198   0.962   3.303  10.253 -0.7871 -0.5658  0.1418
 5246SOL     OW27199   1.366   2.659   5.646  0.3376  0.5382  0.0296
 5246SOL    HW127200   1.300   2.649   5.714  0.9961  2.0280  0.8687
 5246SOL    HW227201   1.433   2.719   5.678  1.2081 -0.1481 -0.4770
 5247SOL     OW27202   1.574   4.369   5.921 -0.3218  0.4860 -0.2138
 5247SOL    HW127203   1.598   4.457   5.951 -0.0783  0.8330 -1.4242
 5247SOL    HW227204   1.644   4.338   5.863  0.5519 -0.3050  1.2384
 5248SOL     OW27205   3.128   0.872   0.957 -1.0283  0.3898  0.4834
 5248SOL    HW127206   3.154   0.944   1.015  0.2180  0.1813  0.1833
 5248SOL    HW227207   3.050   0.911   0.918  0.8284  2.9220 -0.7920
 5249SOL     OW27208   2.881   0.655   7.395 -0.3967  0.0063  0.1696
 5249SOL    HW127209   2.913   0.729   7.343 -1.3926 -1.2824 -2.3001
 5249SOL    HW227210   2.793   0.687   7.412 -0.3166  1.5747 -2.3664
 5250SOL     OW27211   2.734   2.522   6.072  1.0003  0.2331  0.3390
 5250SOL    HW127212   2.725   2.605   6.026 -0.3415  0.2476  0.6485
 5250SOL    HW227213   2.827   2.516   6.095  1.3805 -2.1644 -1.8999
 5251SOL     OW27214   1.083   4.171   8.630 -0.3295  1.0704 -0.0630
 5251SOL    HW127215   1.049   4.243   8.578  2.1288  0.3534 -2.6484
 5251SOL    HW227216   1.035   4.093   8.601  0.6515  0.4686 -0.0755
 5252SOL     OW27217   3.585   1.610   0.814  0.9032  0.0655  0.1836
 5252SOL    HW127218   3.573   1.584   0.906 -0.7988  1.1081  0.2619
 5252SOL    HW227219   3.679   1.610   0.799  0.7704 -1.7803 -0.5683
 5253SOL     OW27220   2.845   4.288   9.204  0.0384  0.3197  0.2478
 5253SOL    HW127221   2.789   4.230   9.152  0.5029  0.4805 -0.4287
 5253SOL    HW227222   2.914   4.232   9.240  0.1867 -0.1997 -0.8539
 5254SOL     OW27223   0.011   2.165   2.757  0.6664  0.4580 -0.0229
 5254SOL    HW127224   0.039   2.161   2.665  1.7555 -2.2652  0.4249
 5254SOL    HW227225   4.692   2.250   2.762 -0.3496 -0.1289  1.0195
 5255SOL     OW27226   0.176   3.234   3.857  0.3008  0.1559  0.1021
 5255SOL    HW127227   0.094   3.185   3.846 -0.4155  1.3774 -0.0515
 5255SOL    HW227228   0.235   3.184   3.913  2.6999  2.7171 -0.1269
 5256SOL     OW27229   1.611   3.705  17.640  0.2869  0.1939  0.5093
 5256SOL    HW127230   1.687   3.739  17.688  1.5846 -2.3880  0.2869
 5256SOL    HW227231   1.547   3.693   0.012 -0.8351 -0.3694 -0.6009
 5257SOL     OW27232   4.380   2.133   4.766 -0.2035  0.1410 -0.4642
 5257SOL    HW127233   4.456   2.151   4.821  1.0362  0.6570 -2.3460
 5257SOL    HW227234   4.423   2.102   4.686  0.9267  2.7115 -0.8398
 5258SOL     OW27235   1.903   2.820   5.256  0.0862 -0.2356 -0.7559
 5258SOL    HW127236   1.892   2.908   5.291  1.8439 -0.7016  0.9441
 5258SOL    HW227237   1.997   2.829   5.243  0.2765  1.6684  1.8041
 5259SOL     OW27238   0.694   2.247   9.862 -0.1580  0.1322  0.1815
 5259SOL    HW127239   0.598   2.255   9.857 -0.1357  0.4785  0.3233
 5259SOL    HW227240   0.712   2.305   9.788  0.3197 -0.1445  0.0789
 5260SOL     OW27241   1.719   1.385  14.295 -0.6049  0.0998 -0.8133
 5260SOL    HW127242   1.734   1.479  14.292 -1.7778  0.3269  0.4795
 5260SOL    HW227243   1.687   1.365  14.207  1.7795 -3.6240 -0.8224
 5261SOL     OW27244   2.603   0.587   3.541  0.4175  0.2060  0.5122
 5261SOL    HW127245   2.598   0.583   3.446 -0.0147  0.4640  0.5243
 5261SOL    HW227246   2.514   0.609   3.569 -0.3685  1.0227 -2.6172
 5262SOL     OW27247   1.261   0.732   4.298  0.4376  0.2796  0.1709
 5262SOL    HW127248   1.210   0.684   4.363 -0.3320  0.0222 -0.6256
 5262SOL    HW227249   1.322   0.661   4.274 -0.3876  0.0259 -1.2122
 5263SOL     OW27250   0.796   0.671   2.647  0.5312 -0.4780  0.1864
 5263SOL    HW127251   0.844   0.666   2.730 -0.2161 -0.1291  0.6396
 5263SOL    HW227252   0.808   0.583   2.610  0.5002 -1.1695  1.8008
 5264SOL     OW27253   0.397   3.621   3.079  0.1810 -0.0486  0.1406
 5264SOL    HW127254   0.308   3.633   3.111 -0.4422  0.1569 -1.6579
 5264SOL    HW227255   0.423   3.713   3.078 -2.5619  0.7300  0.2180
 5265SOL     OW27256   3.845   1.611   2.333  0.1063 -0.1408 -0.3551
 5265SOL    HW127257   3.792   1.538   2.300 -0.4336  0.6067 -1.1292
 5265SOL    HW227258   3.791   1.646   2.403  0.9555  0.8267 -0.1871
 5266SOL     OW27259   4.717   3.614   1.331  0.1580 -0.1747  0.2519
 5266SOL    HW127260   0.076   3.576   1.302 -0.1867 -0.6485 -0.1173
 5266SOL    HW227261   0.005   3.705   1.305  1.2764  0.2663  2.3343
 5267SOL     OW27262   4.274   2.102   3.375  0.2303  0.6021  0.4982
 5267SOL    HW127263   4.332   2.177   3.358 -0.5249  0.7088 -1.5937
 5267SOL    HW227264   4.245   2.099   3.284  1.4905  2.3869  0.0168
 5268SOL     OW27265   4.297   4.713  14.486 -0.0217 -0.4946  0.4374
 5268SOL    HW127266   4.257   4.686  14.403 -1.4160  1.7909  0.3957
 5268SOL    HW227267   4.232   0.045  14.527 -1.3605 -2.6201  1.2100
 5269SOL     OW27268   2.800   3.779   6.523  0.1837  0.1898  0.3045
 5269SOL    HW127269   2.806   3.873   6.541 -0.4633  0.2646  0.1229
 5269SOL    HW227270   2.722   3.781   6.467  0.3715  1.0313  0.0702
 5270SOL     OW27271   1.872   2.301   1.199  0.3700 -0.4169 -0.2930
 5270SOL    HW127272   1.780   2.295   1.226  0.1645  1.5100 -0.5903
 5270SOL    HW227273   1.864   2.374   1.138  2.0424  0.0893  0.1029
 5271SOL     OW27274   4.669   0.296   4.763 -0.0264  1.1817 -0.0902
 5271SOL    HW127275   4.676   0.306   4.858 -0.6226  1.6484 -0.0922
 5271SOL    HW227276   4.586   0.342   4.748 -0.3013  0.0256 -2.0134
 5272SOL     OW27277   0.636   1.326  11.485 -0.4125  0.1037  0.1870
 5272SOL    HW127278   0.556   1.313  11.535 -1.5229  0.6071 -1.4627
 5272SOL    HW227279   0.691   1.266  11.537  0.1033 -0.3473 -0.8758
 5273SOL     OW27280   4.518   2.372   3.566  0.0140 -0.7994  0.3280
 5273SOL    HW127281   4.598   2.320   3.565 -0.1636 -1.0770  0.8612
 5273SOL    HW227282   4.505   2.375   3.471 -0.2644  0.0689  0.3977
 5274SOL     OW27283   3.197   3.416   8.463 -0.8236  0.5975  0.1588
 5274SOL    HW127284   3.110   3.404   8.426 -0.3501 -0.0318 -0.7510
 5274SOL    HW227285   3.212   3.336   8.514  0.9118 -0.0444 -1.3366
 5275SOL     OW27286   4.655   2.322   5.185  0.2032 -0.6555 -0.2804
 5275SOL    HW127287   4.629   2.274   5.106 -0.1612  0.5133 -0.8833
 5275SOL    HW227288   0.022   2.345   5.167  0.8723 -1.7423  1.7578
 5276SOL     OW27289   3.726   3.505  14.114 -0.1930 -0.1794 -0.2538
 5276SOL    HW127290   3.701   3.480  14.025  1.1514 -2.2092 -0.0823
 5276SOL    HW227291   3.790   3.566  14.078  2.0081 -0.9832  2.2049
 5277SOL     OW27292   3.481   0.966   8.512 -0.6098  0.6293  1.0821
 5277SOL    HW127293   3.396   1.006   8.492 -0.3880  1.3114  1.5148
 5277SOL    HW227294   3.536   1.034   8.552  0.1435 -0.5013  1.9503
 5278SOL     OW27295   3.425   1.057  14.879 -0.2410  0.1580  0.1177
 5278SOL    HW127296   3.447   0.970  14.912 -0.0897 -0.3990 -1.4582
 5278SOL    HW227297   3.506   1.078  14.832  0.4232  2.1019  2.1115
 5279SOL     OW27298   0.061   2.373   1.582  0.0232  0.1000  0.4200
 5279SOL    HW127299   0.081   2.332   1.666 -0.8220  1.0880  1.0998
 5279SOL    HW227300   0.141   2.424   1.569 -1.1761  1.8875  0.0654
 5280SOL     OW27301   1.995   1.501   5.817 -0.5487 -0.4561 -0.3444
 5280SOL    HW127302   1.928   1.508   5.750 -0.5000 -3.4458 -0.6969
 5280SOL    HW227303   1.947   1.475   5.896  0.4575  1.1442  0.8134
 5281SOL     OW27304   2.423   0.138   3.787 -0.2994 -0.5908 -0.0932
 5281SOL    HW127305   2.466   0.220   3.762  0.7492 -1.2880 -0.5701
 5281SOL    HW227306   2.361   0.160   3.857 -0.6836 -0.9007 -0.3329
 5282SOL     OW27307   1.844   3.191   5.648  0.3883 -0.1080 -0.1768
 5282SOL    HW127308   1.922   3.180   5.702  0.7008 -1.8314 -0.9822
 5282SOL    HW227309   1.879   3.159   5.565  0.1253  1.4975 -0.9118
 5283SOL     OW27310   1.613   2.761  12.509 -0.3297 -0.1820 -0.3277
 5283SOL    HW127311   1.660   2.791  12.587  0.1194  1.1934 -1.1164
 5283SOL    HW227312   1.682   2.755  12.443 -1.0693  2.1631 -1.3460
 5284SOL     OW27313   3.107   1.837   2.809  0.2370 -0.6076 -0.4174
 5284SOL    HW127314   3.171   1.778   2.848  2.4496  1.0638 -1.5435
 5284SOL    HW227315   3.152   1.868   2.730  0.3901 -2.1719 -0.9361
 5285SOL     OW27316   2.219   1.135   8.011  0.2572 -0.6197  0.3053
 5285SOL    HW127317   2.199   1.107   7.922 -1.8713 -1.2429  0.9707
 5285SOL    HW227318   2.196   1.058   8.063 -3.1435  1.3574  1.7071
 5286SOL     OW27319   0.833   2.453   1.757 -0.3313 -0.0513 -0.0300
 5286SOL    HW127320   0.881   2.408   1.826  1.8594  1.2876 -0.6938
 5286SOL    HW227321   0.797   2.381   1.705  1.3466 -0.3676 -0.7261
 5287SOL     OW27322   1.078   1.635  12.208 -0.0600  0.2291 -0.3434
 5287SOL    HW127323   1.014   1.565  12.221  1.2222 -0.7245  0.8187
 5287SOL    HW227324   1.020   1.709  12.226  0.8782  0.3094  2.3142
 5288SOL     OW27325   1.809   3.442   1.986  0.2145  0.5810  0.2260
 5288SOL    HW127326   1.799   3.492   2.067 -1.1204  0.9155 -0.1469
 5288SOL    HW227327   1.890   3.396   2.008 -1.0794 -0.6155  2.4608
 5289SOL     OW27328   1.062   2.457   5.056 -0.1049 -0.3580 -0.2398
 5289SOL    HW127329   1.025   2.545   5.059  1.0105  0.0357  1.6669
 5289SOL    HW227330   1.045   2.434   4.964  0.8676  1.4826 -0.8768
 5290SOL     OW27331   2.324   1.023   2.270  0.0513  0.1925  0.3935
 5290SOL    HW127332   2.302   0.930   2.271 -0.9921  0.4036 -1.4839
 5290SOL    HW227333   2.293   1.050   2.183  2.6831  0.3946 -0.4895
 5291SOL     OW27334   4.376   2.219   7.693 -0.4485  0.6973  0.8886
 5291SOL    HW127335   4.449   2.159   7.712 -0.9054  0.2216  1.1529
 5291SOL    HW227336   4.309   2.154   7.671  1.1387 -0.5694 -0.2326
 5292SOL     OW27337   0.701   2.380   8.320  0.2750  0.2162 -0.0538
 5292SOL    HW127338   0.758   2.434   8.265  1.1112  0.5470  1.1275
 5292SOL    HW227339   0.715   2.406   8.411 -2.1242  3.4818 -0.6177
 5293SOL     OW27340   3.025   1.334   9.954  0.2600 -0.0524 -0.0210
 5293SOL    HW127341   3.048   1.423   9.978  1.3333  0.2763 -2.2314
 5293SOL    HW227342   3.009   1.353   9.862  1.2137 -1.7300 -0.5408
 5294SOL     OW27343   3.191   1.311   5.825  0.4955  0.2922  0.8233
 5294SOL    HW127344   3.138   1.378   5.781  1.5827 -0.5613 -1.8013
 5294SOL    HW227345   3.131   1.237   5.840  0.1716  0.6925  1.4966
 5295SOL     OW27346   3.169   1.048  12.552  0.0904 -0.3990 -0.4446
 5295SOL    HW127347   3.118   0.973  12.523  0.4859 -0.9291  0.2223
 5295SOL    HW227348   3.179   1.101  12.473 -0.2473 -1.5321 -1.2474
 5296SOL     OW27349   0.824   3.681   8.130  0.1054 -0.3687 -0.0349
 5296SOL    HW127350   0.776   3.650   8.207  1.8197 -0.0532  1.1511
 5296SOL    HW227351   0.760   3.743   8.096  1.7081  3.0548  3.2433
 5297SOL     OW27352   0.669   3.425   4.939 -0.4489 -0.2694  0.3073
 5297SOL    HW127353   0.630   3.360   4.881  1.0613 -0.6232 -0.3161
 5297SOL    HW227354   0.756   3.434   4.901 -0.1731 -3.7373  0.0883
 5298SOL     OW27355   1.936   2.550  12.568  0.1536  0.1593  0.3144
 5298SOL    HW127356   1.891   2.481  12.616  0.3490 -2.0077 -2.6290
 5298SOL    HW227357   1.972   2.510  12.489 -0.1775  1.2245 -0.3818
 5299SOL     OW27358   2.259   1.312   4.739 -0.5327 -0.3580  0.1660
 5299SOL    HW127359   2.276   1.356   4.822  1.3022 -0.0411 -0.3689
 5299SOL    HW227360   2.307   1.232   4.760  1.9113  1.3389  1.1298
 5300SOL     OW27361   2.655   1.269  14.902 -0.4156  0.1589 -0.5839
 5300SOL    HW127362   2.622   1.181  14.922  2.6668 -0.8033  0.2969
 5300SOL    HW227363   2.745   1.264  14.934 -0.5472  0.9035 -0.1203
 5301SOL     OW27364   0.966   3.667   7.868  0.1139 -0.3183  0.3814
 5301SOL    HW127365   0.938   3.642   7.956  0.2266  2.1667  1.1122
 5301SOL    HW227366   0.879   3.676   7.831 -0.6812  0.4826  2.4571
 5302SOL     OW27367   0.632   4.658   9.633  1.0675  0.3040 -0.3519
 5302SOL    HW127368   0.606   4.706   9.711 -0.5076 -3.2280  1.2936
 5302SOL    HW227369   0.554   4.679   9.581  0.2522 -1.0224  0.3381
 5303SOL     OW27370   2.981   0.825  16.953  0.0748 -0.2703  0.4710
 5303SOL    HW127371   2.942   0.894  16.899  0.1270  0.5440  1.4846
 5303SOL    HW227372   2.978   0.873  17.035  4.0731  0.8100 -0.0292
 5304SOL     OW27373   3.938   3.366  14.184  0.0948  0.4278 -0.3254
 5304SOL    HW127374   3.852   3.401  14.161 -0.3872  1.1846  2.6021
 5304SOL    HW227375   3.981   3.442  14.224 -2.3603  1.7752 -0.2838
 5305SOL     OW27376   2.599   0.212   4.074  0.5620 -0.8482 -0.3397
 5305SOL    HW127377   2.660   0.232   4.003  0.1770  0.5266 -0.2893
 5305SOL    HW227378   2.644   0.198   4.157  2.0641 -0.0690 -1.0227
 5306SOL     OW27379   3.639   0.077   7.809  0.3651  0.1689  0.3850
 5306SOL    HW127380   3.734   0.063   7.809  0.2088 -0.8969  0.7885
 5306SOL    HW227381   3.614   0.042   7.895  0.8826 -1.0962  0.0134
 5307SOL     OW27382   0.622   3.427   9.730  0.2121  0.0741 -0.0057
 5307SOL    HW127383   0.545   3.460   9.775 -0.4978  0.7720 -1.7382
 5307SOL    HW227384   0.675   3.402   9.806  4.0716  1.2247 -2.2869
 5308SOL     OW27385   2.653   4.444   9.669  0.3093 -0.2693  0.2399
 5308SOL    HW127386   2.648   4.377   9.737  2.5415  1.0011  1.6677
 5308SOL    HW227387   2.738   4.422   9.630 -1.3740 -3.2585 -1.6986
 5309SOL     OW27388   1.847   1.469   2.416 -0.7256 -0.2538  0.2018
 5309SOL    HW127389   1.790   1.520   2.473 -0.1054  0.5986  0.0455
 5309SOL    HW227390   1.859   1.390   2.469  1.6763  0.6102  0.9103
 5310SOL     OW27391   1.943   3.360   7.094  0.1030  0.9110 -0.8734
 5310SOL    HW127392   2.004   3.290   7.069 -0.9563 -0.2074 -0.3185
 5310SOL    HW227393   1.864   3.307   7.092 -1.3359  2.9734  2.9798
 5311SOL     OW27394   3.188   0.638   7.434 -0.0898 -0.0705  0.3876
 5311SOL    HW127395   3.132   0.704   7.393  0.4403  0.4223  0.4577
 5311SOL    HW227396   3.137   0.615   7.512  0.5212 -0.4702  0.6709
 5312SOL     OW27397   4.197   3.898   5.206  0.5151  0.2761  0.1646
 5312SOL    HW127398   4.240   3.889   5.291  0.6552  0.1806  0.0848
 5312SOL    HW227399   4.120   3.843   5.215  0.0424  1.3831  2.6580
 5313SOL     OW27400   0.862   1.700  13.466  0.0133 -0.0100  0.2994
 5313SOL    HW127401   0.928   1.761  13.501  1.4031  0.4115 -3.0823
 5313SOL    HW227402   0.795   1.766  13.450 -2.7036 -2.6431  0.8503
 5314SOL     OW27403   4.453   2.570  14.321 -0.4022  0.9473  0.0454
 5314SOL    HW127404   4.452   2.628  14.245  0.2046 -1.7883 -2.0362
 5314SOL    HW227405   4.534   2.521  14.303 -1.2405  0.2881 -1.8868
 5315SOL     OW27406   0.217   3.502   1.235 -0.2306  0.1139 -0.3914
 5315SOL    HW127407   0.289   3.446   1.264  1.6005  3.8789  2.2977
 5315SOL    HW227408   0.149   3.443   1.200 -0.3436  0.2470 -0.3974
 5316SOL     OW27409   1.308   1.615   9.056 -0.0116  0.3690  0.1157
 5316SOL    HW127410   1.400   1.633   9.039  0.1582 -0.2060  0.4532
 5316SOL    HW227411   1.289   1.553   8.986  0.3214  0.8332 -0.3850
 5317SOL     OW27412   1.545   3.993   8.530  0.2298 -0.4577 -0.0103
 5317SOL    HW127413   1.620   3.972   8.585 -0.1060 -2.9072 -0.4864
 5317SOL    HW227414   1.551   4.089   8.535  2.3369 -0.5342 -1.0435
 5318SOL     OW27415   2.242   1.669   5.885 -0.6360  0.2323 -0.6384
 5318SOL    HW127416   2.167   1.612   5.902 -0.1991 -0.5957 -1.4960
 5318SOL    HW227417   2.262   1.689   5.976 -2.4292 -1.6683  0.1793
 5319SOL     OW27418   3.921   3.925   7.539 -0.4695  0.3452 -0.5522
 5319SOL    HW127419   4.014   3.931   7.560 -0.4610 -1.2673 -0.1228
 5319SOL    HW227420   3.886   3.935   7.628  1.0075  1.2240 -0.0704
 5320SOL     OW27421   2.897   0.322   4.676 -0.3642  0.1516 -0.0042
 5320SOL    HW127422   2.952   0.323   4.598 -1.3605  0.5972 -0.7003
 5320SOL    HW227423   2.956   0.357   4.743  0.1309 -1.9116  0.6302
 5321SOL     OW27424   1.803   2.489   3.243  0.2010  0.3426  0.0722
 5321SOL    HW127425   1.760   2.563   3.286 -1.1081  0.0216 -0.6950
 5321SOL    HW227426   1.794   2.436   3.322  2.9254  1.0331  0.8516
 5322SOL     OW27427   1.257   0.231   6.379 -0.0564  0.2493 -0.1128
 5322SOL    HW127428   1.313   0.272   6.313 -0.2840 -1.1849 -1.1912
 5322SOL    HW227429   1.305   0.148   6.375  0.9973  0.9439 -1.7799
 5323SOL     OW27430   0.646   1.328   8.128 -0.4508 -0.2379  0.3688
 5323SOL    HW127431   0.680   1.417   8.119  0.3144 -0.5678  0.0122
 5323SOL    HW227432   0.713   1.277   8.083 -2.2784 -0.2700 -2.3485
 5324SOL     OW27433   0.926   0.728   3.563  0.4177 -0.1372 -0.0001
 5324SOL    HW127434   0.893   0.784   3.633  1.4388  0.1888  0.2287
 5324SOL    HW227435   0.995   0.679   3.609 -0.4111 -0.2788  1.0956
 5325SOL     OW27436   0.525   3.009   3.467 -0.1188  0.4200 -0.1224
 5325SOL    HW127437   0.475   2.983   3.390 -0.3625  1.5573 -0.3440
 5325SOL    HW227438   0.580   3.085   3.449  1.4626 -0.6045  0.4075
 5326SOL     OW27439   4.292   4.660   6.990  0.0466 -0.1125 -0.3836
 5326SOL    HW127440   4.377   4.689   6.957 -1.6889  2.1837 -2.8208
 5326SOL    HW227441   4.231   4.668   6.916 -0.1750  3.3537  0.1895
 5327SOL     OW27442   1.699   1.229   4.819  0.0324 -0.5566 -0.0482
 5327SOL    HW127443   1.682   1.286   4.743 -1.1506 -0.3429  0.3721
 5327SOL    HW227444   1.791   1.218   4.798  0.0605 -1.9399  0.8425
 5328SOL     OW27445   3.815   1.231  12.395 -0.5729 -0.6791 -0.1472
 5328SOL    HW127446   3.849   1.148  12.361  1.8809  0.5366 -0.6263
 5328SOL    HW227447   3.725   1.214  12.424 -0.0704  1.9721  2.9893
 5329SOL     OW27448   0.497   3.031   8.397  0.5100 -0.5625  0.1023
 5329SOL    HW127449   0.445   2.990   8.466  2.1728 -0.5705  1.3521
 5329SOL    HW227450   0.488   3.121   8.427 -0.0430  0.2284 -2.4140
 5330SOL     OW27451   4.083   1.378   0.710 -0.1634 -0.0075 -0.4321
 5330SOL    HW127452   4.144   1.305   0.724  0.8784  1.3035  1.8443
 5330SOL    HW227453   4.094   1.406   0.619 -0.4045  0.6997 -0.2429
 5331SOL     OW27454   4.498   0.479   5.295 -0.2758  0.6043 -0.1595
 5331SOL    HW127455   4.410   0.443   5.284 -0.5590  1.7221 -1.6300
 5331SOL    HW227456   4.553   0.401   5.297  0.3287  1.0504  0.6569
 5332SOL     OW27457   4.484   2.188  12.574 -0.5243 -0.0829 -0.4610
 5332SOL    HW127458   4.435   2.123  12.524 -1.4247  0.0454  0.2361
 5332SOL    HW227459   4.447   2.272  12.545  0.1089  0.8814  1.5435
 5333SOL     OW27460   0.556   1.288   5.552  0.1382  0.2997  0.7335
 5333SOL    HW127461   0.545   1.374   5.511 -1.4045 -0.3970 -0.3045
 5333SOL    HW227462   0.465   1.264   5.571  0.7001 -1.9956  0.4405
 5334SOL     OW27463   3.835   2.975   0.795  0.5574 -0.0212 -0.9973
 5334SOL    HW127464   3.836   3.056   0.846  1.0326  0.9474 -2.5603
 5334SOL    HW227465   3.740   2.960   0.796  0.5970  0.0169  3.6312
 5335SOL     OW27466   2.356   3.754   9.258 -0.5486  0.2632  0.6005
 5335SOL    HW127467   2.395   3.700   9.327  1.1751 -2.5111 -2.5497
 5335SOL    HW227468   2.410   3.713   9.190 -0.0301 -0.7852  1.6413
 5336SOL     OW27469   2.330   1.187  16.994 -0.4189  0.1594  0.9205
 5336SOL    HW127470   2.399   1.170  16.930 -1.0664 -2.7630  1.0079
 5336SOL    HW227471   2.389   1.216  17.063  1.3539  1.5999 -1.2170
 5337SOL     OW27472   2.917   3.688   4.594  1.2471  0.1678 -0.3008
 5337SOL    HW127473   2.974   3.764   4.608  1.6257 -0.8165  3.6122
 5337SOL    HW227474   2.880   3.712   4.509  2.5106  0.7385 -0.7005
 5338SOL     OW27475   3.028   4.086   5.668  0.0165 -0.4597 -0.3499
 5338SOL    HW127476   3.070   4.170   5.687  1.3585 -1.0957 -0.4956
 5338SOL    HW227477   3.080   4.033   5.728  1.0403 -0.5887 -1.3565
 5339SOL     OW27478   4.630   1.760   0.830 -0.2086  0.0205 -0.3825
 5339SOL    HW127479   4.636   1.787   0.738 -3.5501 -0.0179 -0.6238
 5339SOL    HW227480   4.548   1.798   0.861  0.5469  0.3213  1.2249
 5340SOL     OW27481   2.198   2.278   4.372  0.6481  0.2286 -0.3880
 5340SOL    HW127482   2.130   2.336   4.407 -0.8291 -1.1194 -0.9782
 5340SOL    HW227483   2.238   2.273   4.459 -0.1376 -0.5344 -0.0546
 5341SOL     OW27484   2.291   3.749  11.298  0.1426 -0.4974 -0.1114
 5341SOL    HW127485   2.350   3.805  11.248 -0.7691 -0.0202 -0.6498
 5341SOL    HW227486   2.306   3.669  11.247  1.2284  0.6585 -1.5727
 5342SOL     OW27487   0.074   2.411   3.371  0.1345  0.2106  0.2841
 5342SOL    HW127488   0.063   2.502   3.341 -2.0994  0.0961  0.7667
 5342SOL    HW227489   0.053   2.356   3.295  0.9474  1.2988 -0.7276
 5343SOL     OW27490   1.782   3.565   2.235 -0.1329  0.3117  0.4054
 5343SOL    HW127491   1.764   3.480   2.275  0.1890  0.9464  1.8914
 5343SOL    HW227492   1.791   3.626   2.308 -1.2451 -0.0503  0.8527
 5344SOL     OW27493   3.526   1.014   7.681 -0.1475 -0.1048 -0.0621
 5344SOL    HW127494   3.473   1.066   7.621 -1.0640 -0.1252  0.7256
 5344SOL    HW227495   3.541   0.934   7.631  1.1698 -0.2242  0.5206
 5345SOL     OW27496   4.353   3.983  12.881 -0.2233 -0.1424  0.0426
 5345SOL    HW127497   4.330   3.982  12.974  0.9344 -1.0504  0.3219
 5345SOL    HW227498   4.364   3.890  12.861 -2.8691  0.0919 -2.5018
 5346SOL     OW27499   2.042   3.712  11.836 -0.5632 -0.1472  0.1497
 5346SOL    HW127500   2.011   3.633  11.881  1.0197  0.2225  1.8956
 5346SOL    HW227501   2.050   3.776  11.907 -3.2582  0.0326  0.2905
 5347SOL     OW27502   3.196   2.153  11.376 -0.1554 -0.5854  0.6892
 5347SOL    HW127503   3.120   2.202  11.408 -0.2181 -0.0795 -0.2584
 5347SOL    HW227504   3.191   2.195  11.291 -0.8068 -1.7321  0.1643
 5348SOL     OW27505   4.242   1.502   2.659 -0.6954  0.2291 -0.2159
 5348SOL    HW127506   4.206   1.576   2.611  1.7423  1.8120  0.3671
 5348SOL    HW227507   4.336   1.515   2.646 -1.4408  5.3072 -0.5821
 5349SOL     OW27508   0.647   2.817   8.100 -0.3638  0.6595  0.1486
 5349SOL    HW127509   0.593   2.762   8.156 -2.4612  3.2648  0.7000
 5349SOL    HW227510   0.711   2.756   8.064 -0.2085  1.1587 -0.4114
 5350SOL     OW27511   4.636   1.043  12.156 -0.1518  0.5049 -0.3217
 5350SOL    HW127512   4.648   0.960  12.203  3.1203  1.1894  0.0258
 5350SOL    HW227513   4.704   1.097  12.195  0.6379 -0.4772 -0.3401
 5351SOL     OW27514   1.254   3.287   9.512  0.1777  0.1626  0.8080
 5351SOL    HW127515   1.244   3.369   9.560  1.0608  0.3332  0.7015
 5351SOL    HW227516   1.190   3.236   9.562 -3.2584  1.9132 -1.8230
 5352SOL     OW27517   4.634   3.908   6.007  0.3394 -0.0746  0.4016
 5352SOL    HW127518   4.573   3.841   5.979 -1.0132  0.6968  1.5123
 5352SOL    HW227519   4.713   3.887   5.956 -0.4801  0.4525 -1.0802
 5353SOL     OW27520   4.481   2.602  12.868 -0.4105 -0.7103 -0.0533
 5353SOL    HW127521   4.433   2.664  12.922 -0.0197  0.2231 -0.7850
 5353SOL    HW227522   4.437   2.522  12.897  0.6308 -1.6317 -0.9915
 5354SOL     OW27523   4.671   4.680   1.393 -0.0593 -0.1467  0.0527
 5354SOL    HW127524   4.712   0.040   1.377 -1.4127  0.4385 -0.3869
 5354SOL    HW227525   4.670   4.639   1.307 -0.9732 -1.8575  0.8721
 5355SOL     OW27526   3.152   1.781   4.651  0.6684  0.4617  0.3304
 5355SOL    HW127527   3.151   1.743   4.739 -1.0152 -0.0722  0.0738
 5355SOL    HW227528   3.203   1.715   4.605 -1.8823 -2.1584  1.2573
 5356SOL     OW27529   3.954   4.581   6.808 -0.3804  0.8829  0.0893
 5356SOL    HW127530   3.886   4.538   6.756  1.1023  0.9052 -1.8606
 5356SOL    HW227531   3.997   4.627   6.735 -0.9064  0.1147 -0.7077
 5357SOL     OW27532   4.452   3.322   0.579  0.1211  0.2458 -0.0374
 5357SOL    HW127533   4.417   3.411   0.591  1.1753  0.7598 -0.7240
 5357SOL    HW227534   4.464   3.319   0.484  1.0920 -0.3903  0.1119
 5358SOL     OW27535   0.414   1.484   3.683 -0.0237  0.2637  0.2315
 5358SOL    HW127536   0.398   1.390   3.683 -0.7360  0.3820 -0.2813
 5358SOL    HW227537   0.400   1.497   3.589 -2.1764  2.2710  0.8188
 5359SOL     OW27538   3.152   0.363  16.274  0.4084  0.0438 -0.2971
 5359SOL    HW127539   3.096   0.315  16.334  2.1381 -0.6847  0.7343
 5359SOL    HW227540   3.151   0.299  16.202 -2.0172 -0.8618  0.5628
 5360SOL     OW27541   2.544   4.593   6.372  0.1727 -0.0105  0.5144
 5360SOL    HW127542   2.584   4.548   6.297  0.8470  0.4242  0.6091
 5360SOL    HW227543   2.562   4.685   6.355 -0.7865  0.0397 -0.2145
 5361SOL     OW27544   1.633   2.413   9.374  0.4778  0.1217  0.3348
 5361SOL    HW127545   1.554   2.466   9.383  0.7650  0.5119  0.5584
 5361SOL    HW227546   1.635   2.385   9.466  0.9238  1.6519  0.7920
 5362SOL     OW27547   1.344   3.831   0.045  0.3060  0.1680  0.2165
 5362SOL    HW127548   1.363   3.791  17.658 -2.3727 -2.4753  0.8860
 5362SOL    HW227549   1.325   3.756   0.101  1.4581  0.3286  0.8330
 5363SOL     OW27550   1.542   0.144   3.391  0.5040  0.0123 -0.1530
 5363SOL    HW127551   1.506   0.156   3.303  1.7173 -0.8311 -0.7712
 5363SOL    HW227552   1.632   0.115   3.374  0.7029  0.8898 -0.5968
 5364SOL     OW27553   2.401   0.129  12.228 -0.2506  0.2087 -0.3349
 5364SOL    HW127554   2.496   0.135  12.238 -0.0119 -0.8946 -1.8072
 5364SOL    HW227555   2.399   0.034  12.211 -0.8403  0.2594 -0.5361
 5365SOL     OW27556   0.850   2.039   3.113  0.1529  0.1444 -0.3850
 5365SOL    HW127557   0.837   1.985   3.035  1.2132 -0.4567 -0.1437
 5365SOL    HW227558   0.853   2.127   3.075 -0.5725 -0.3672 -1.6363
 5366SOL     OW27559   1.320   0.120   5.925  0.5051  0.1771  0.3963
 5366SOL    HW127560   1.320   0.205   5.881 -2.3296  0.4033  0.8582
 5366SOL    HW227561   1.399   0.070   5.901  0.4199 -0.1981  0.8849
 5367SOL     OW27562   0.834   3.663  10.231 -0.5502 -0.2548 -0.2010
 5367SOL    HW127563   0.871   3.610  10.161 -0.6818 -0.1510 -0.3491
 5367SOL    HW227564   0.764   3.606  10.263 -1.1778  1.3015  1.2206
 5368SOL     OW27565   3.565   2.510  10.500  0.3385  0.2259  0.2932
 5368SOL    HW127566   3.497   2.500  10.433 -0.7689  0.2629  1.4186
 5368SOL    HW227567   3.504   2.496  10.572  1.3323 -1.2284  0.8642
 5369SOL     OW27568   2.356   4.133  11.104  0.3324  0.6189 -0.0165
 5369SOL    HW127569   2.356   4.137  11.008 -0.4863  0.7865 -0.0095
 5369SOL    HW227570   2.407   4.052  11.114 -0.7264  0.1513  1.6634
 5370SOL     OW27571   3.648   2.833   4.092 -0.0146  0.1981 -0.0832
 5370SOL    HW127572   3.687   2.796   4.012 -0.7405 -1.1213  0.1579
 5370SOL    HW227573   3.712   2.791   4.149  2.3343 -0.7728 -3.4160
 5371SOL     OW27574   3.607   2.190  10.542 -0.1151 -0.2686  0.9075
 5371SOL    HW127575   3.599   2.238  10.625  0.4622 -0.3295  1.0003
 5371SOL    HW227576   3.697   2.211  10.519  0.9114 -1.0919  4.0571
 5372SOL     OW27577   0.470   1.415   8.349  0.2804  0.7741 -0.6946
 5372SOL    HW127578   0.472   1.347   8.281 -0.5046 -0.4368  0.4865
 5372SOL    HW227579   0.386   1.391   8.386 -0.0356  1.4277 -0.9857
 5373SOL     OW27580   0.623   1.862  11.446 -0.5326 -0.0846  1.0078
 5373SOL    HW127581   0.678   1.824  11.514  2.0713 -0.9992 -1.6104
 5373SOL    HW227582   0.657   1.821  11.367 -1.3216 -2.1690  1.7608
 5374SOL     OW27583   2.309   0.835   7.418  0.0965 -0.3454  0.3812
 5374SOL    HW127584   2.281   0.746   7.399  0.0569 -0.2895  0.1842
 5374SOL    HW227585   2.268   0.888   7.350  0.6599  0.9193  1.0203
 5375SOL     OW27586   0.817   0.094   2.897 -0.3013 -0.1905  0.2617
 5375SOL    HW127587   0.880   0.112   2.828  0.9550  0.1866  1.5000
 5375SOL    HW227588   0.878   0.080   2.969 -1.6210 -1.3695  1.1570
 5376SOL     OW27589   2.948   3.866   3.581 -0.1023  0.1972 -0.6097
 5376SOL    HW127590   2.999   3.787   3.561  0.7055  0.0993  1.8365
 5376SOL    HW227591   2.954   3.908   3.495 -1.1468 -1.6644 -1.5901
 5377SOL     OW27592   2.807   0.410   5.999 -0.2271  0.1381 -0.4208
 5377SOL    HW127593   2.830   0.317   6.000 -0.9865 -0.0346  0.9003
 5377SOL    HW227594   2.887   0.443   5.959  1.2105  0.2481  2.5508
 5378SOL     OW27595   4.390   4.678  10.204 -0.7626  0.1353 -0.0659
 5378SOL    HW127596   4.477   4.684  10.166 -0.1666  0.1557  1.2911
 5378SOL    HW227597   4.403   4.600  10.258 -1.3192  0.5164  0.6305
 5379SOL     OW27598   1.505   3.850  16.559  0.8632 -0.1109  0.6915
 5379SOL    HW127599   1.520   3.943  16.544  0.3080 -0.2504 -0.7202
 5379SOL    HW227600   1.589   3.820  16.523 -0.1045 -3.3404  1.0748
 5380SOL     OW27601   3.592   0.325  16.399 -0.5390 -0.4735  0.4749
 5380SOL    HW127602   3.531   0.398  16.410  0.1913  0.4329 -1.4886
 5380SOL    HW227603   3.528   0.267  16.358 -1.0081  0.0927  0.4171
 5381SOL     OW27604   2.247   3.829  13.682 -0.1790  0.4101  0.1523
 5381SOL    HW127605   2.332   3.870  13.697  0.4720 -0.2129 -1.9169
 5381SOL    HW227606   2.195   3.886  13.625 -0.7027 -0.5262 -0.2999
 5382SOL     OW27607   3.450   4.148   0.563 -0.2178 -0.2748  0.0350
 5382SOL    HW127608   3.463   4.121   0.472  1.5575  1.7370 -0.3061
 5382SOL    HW227609   3.484   4.071   0.610  1.0901 -1.2853 -2.5969
 5383SOL     OW27610   4.263   0.089   5.279 -0.1978  0.3011 -0.4605
 5383SOL    HW127611   4.256   4.721   5.304  1.1549  1.3424  3.7134
 5383SOL    HW227612   4.173   0.113   5.257  0.3488  1.3124 -1.5780
 5384SOL     OW27613   4.721   0.786  12.245  0.1912  0.7089 -0.0906
 5384SOL    HW127614   0.053   0.721  12.204  1.8909  0.5464  2.4995
 5384SOL    HW227615   4.640   0.736  12.251  0.3548  0.3698 -0.8423
 5385SOL     OW27616   0.102   1.617   2.447  0.2399 -0.2034 -0.1921
 5385SOL    HW127617   0.019   1.606   2.400  1.5778 -0.9415 -2.4172
 5385SOL    HW227618   0.093   1.556   2.520  0.4637 -1.4921 -1.2484
 5386SOL     OW27619   0.376   1.773   5.813 -0.3154  0.0213 -1.0039
 5386SOL    HW127620   0.420   1.824   5.745 -0.4152  1.8184  0.2835
 5386SOL    HW227621   0.446   1.761   5.876 -1.3689 -0.6653  0.0298
 5387SOL     OW27622   2.528   3.119  13.937 -0.2283 -0.7055 -0.3037
 5387SOL    HW127623   2.472   3.147  14.010 -1.1337 -2.0124 -0.4899
 5387SOL    HW227624   2.454   3.079  13.891  0.6969 -2.7817  0.0588
 5388SOL     OW27625   0.086   3.682  15.155  0.6319 -0.2105 -0.4012
 5388SOL    HW127626   0.029   3.737  15.209 -0.7705  0.3854 -2.4784
 5388SOL    HW227627   0.025   3.674  15.082 -1.2598  4.3662  0.6648
 5389SOL     OW27628   1.688   3.042   4.512  0.5515 -0.0649  0.6286
 5389SOL    HW127629   1.707   3.097   4.436  2.4384  0.0561  1.1797
 5389SOL    HW227630   1.596   3.032   4.487  0.8159 -2.3085  0.5587
 5390SOL     OW27631   3.448   2.317   6.560  0.8012 -0.8780  0.0370
 5390SOL    HW127632   3.375   2.379   6.553  1.8168  0.4239  1.0101
 5390SOL    HW227633   3.495   2.348   6.637  1.1880  0.8035 -0.8914
 5391SOL     OW27634   4.636   2.880  12.909 -0.2916  0.4667 -0.1665
 5391SOL    HW127635   4.579   2.852  12.981 -1.6071  0.2802 -1.2912
 5391SOL    HW227636   4.681   2.948  12.960 -1.7936  0.5418  1.0721
 5392SOL     OW27637   3.087   4.154   2.730  0.0136  0.2647 -0.4492
 5392SOL    HW127638   3.075   4.062   2.753  2.0967  0.4798  1.4866
 5392SOL    HW227639   3.180   4.147   2.706  0.9907  0.1736  3.2653
 5393SOL     OW27640   0.080   0.690   8.214  0.6331 -0.0382 -0.2038
 5393SOL    HW127641   0.098   0.603   8.249  0.3660  0.1078  0.2904
 5393SOL    HW227642   0.125   0.685   8.129  3.5545  1.2099  1.2495
 5394SOL     OW27643   0.105   2.289  17.168 -0.1813 -0.5855 -0.3497
 5394SOL    HW127644   0.118   2.329  17.081 -0.7982 -0.8800 -0.5784
 5394SOL    HW227645   0.142   2.204  17.142  0.5499  0.1120 -1.6288
 5395SOL     OW27646   1.992   3.328  13.077  0.4436  0.6291 -0.2805
 5395SOL    HW127647   2.043   3.298  13.153  0.0962 -1.5734 -0.9126
 5395SOL    HW227648   2.055   3.359  13.012 -1.1370  0.7716 -1.7261
 5396SOL     OW27649   3.677   4.573   4.132 -0.1548  0.3100 -0.9082
 5396SOL    HW127650   3.659   4.523   4.211  1.0563  2.8180  0.9877
 5396SOL    HW227651   3.592   4.617   4.126 -1.6164 -1.9029  3.8062
 5397SOL     OW27652   0.531   1.859   4.061 -0.2730 -0.2194  0.3876
 5397SOL    HW127653   0.445   1.818   4.063 -1.2749  2.0234  2.3600
 5397SOL    HW227654   0.579   1.812   4.129  0.2706 -0.6045 -0.2457
 5398SOL     OW27655   1.321   2.643   1.322  0.4770 -0.1555  0.7630
 5398SOL    HW127656   1.282   2.582   1.259  1.7729  1.5030 -1.6839
 5398SOL    HW227657   1.297   2.605   1.406 -2.2512 -1.2942 -0.5441
 5399SOL     OW27658   4.311   4.013   3.728 -0.2313  0.3679  0.0295
 5399SOL    HW127659   4.386   3.971   3.685 -0.5120 -0.1280  0.0303
 5399SOL    HW227660   4.348   4.077   3.789  3.1220 -0.0292 -1.5630
 5400SOL     OW27661   3.813   3.154   1.432 -0.4923 -0.0970  0.3590
 5400SOL    HW127662   3.814   3.060   1.417 -0.6157 -0.1580  0.7459
 5400SOL    HW227663   3.726   3.163   1.470 -0.0998  0.1535  1.1839
 5401SOL     OW27664   1.631   4.331  10.477  0.9068 -0.2032 -0.0131
 5401SOL    HW127665   1.592   4.311  10.392  1.0417  2.9145 -0.8299
 5401SOL    HW227666   1.561   4.301  10.534  2.0116 -1.4995  0.6558
 5402SOL     OW27667   3.462   1.611   1.076  0.1756  0.2527 -0.1501
 5402SOL    HW127668   3.495   1.547   1.139 -0.5252 -1.2690 -1.3287
 5402SOL    HW227669   3.391   1.565   1.032  0.0479  0.4963 -0.1982
 5403SOL     OW27670   0.475   4.237   6.437 -0.2426 -0.3856 -0.1315
 5403SOL    HW127671   0.443   4.213   6.524 -0.4365 -1.7344 -0.5798
 5403SOL    HW227672   0.557   4.189   6.429  0.2199  0.2932  0.4948
 5404SOL     OW27673   4.491   1.418   6.421 -0.2490  0.6104 -0.0756
 5404SOL    HW127674   4.562   1.405   6.485  0.3943 -1.5250 -1.2234
 5404SOL    HW227675   4.455   1.330   6.438  2.3955 -0.1710  1.4754
 5405SOL     OW27676   1.674   2.021  14.779  0.1015  0.0822 -0.4079
 5405SOL    HW127677   1.751   2.051  14.732 -1.5663  0.6133 -2.8253
 5405SOL    HW227678   1.706   1.937  14.814 -2.9152 -0.4492  1.1033
 5406SOL     OW27679   0.527   3.804   3.344 -0.1632  0.2191 -0.0638
 5406SOL    HW127680   0.477   3.841   3.272 -0.1782  2.6091  1.1508
 5406SOL    HW227681   0.598   3.760   3.297 -1.1461  0.3417 -1.6679
 5407SOL     OW27682   2.272   2.574   4.012 -0.5794  0.2754 -0.6297
 5407SOL    HW127683   2.240   2.487   3.991  3.2619 -1.4971  0.9149
 5407SOL    HW227684   2.292   2.561   4.105 -0.6495 -1.1523 -0.8183
 5408SOL     OW27685   1.414   1.838  13.464  0.5552 -0.1229 -0.5898
 5408SOL    HW127686   1.372   1.915  13.425  1.3920  1.6426  2.0441
 5408SOL    HW227687   1.396   1.856  13.556  3.5284 -1.3663  0.2282
 5409SOL     OW27688   1.978   0.159   0.434 -0.8381  0.8813 -0.7099
 5409SOL    HW127689   2.055   0.134   0.487 -0.8117 -0.5557 -1.4253
 5409SOL    HW227690   1.985   0.252   0.454  0.3516  0.5895  0.2924
 5410SOL     OW27691   4.586   0.125   2.372  0.2281 -0.0524  0.6591
 5410SOL    HW127692   4.677   0.143   2.353  0.0053 -0.7821 -1.0615
 5410SOL    HW227693   4.539   0.136   2.289  0.6835  2.2339  0.7214
 5411SOL     OW27694   1.568   4.150   2.900  0.3410  0.0764  0.1184
 5411SOL    HW127695   1.558   4.091   2.975  0.7174  0.8267  0.7539
 5411SOL    HW227696   1.632   4.214   2.930 -0.1870  1.2565 -1.2913
 5412SOL     OW27697   0.737   2.548   1.162  0.0138 -0.6922 -0.0483
 5412SOL    HW127698   0.793   2.626   1.157  2.1323 -2.2813 -1.2464
 5412SOL    HW227699   0.789   2.478   1.122 -0.8199 -1.0997 -0.4164
 5413SOL     OW27700   3.229   0.247   5.298 -0.5313 -0.6191  0.5925
 5413SOL    HW127701   3.244   0.287   5.383 -1.1220  0.8506  0.0154
 5413SOL    HW227702   3.242   0.320   5.237  0.4777  1.0421  2.7889
 5414SOL     OW27703   1.851   0.833   3.496  0.5508 -0.2355 -0.0756
 5414SOL    HW127704   1.786   0.846   3.428  0.4139  0.2944  0.1515
 5414SOL    HW227705   1.863   0.922   3.531 -0.7335 -0.0594 -0.1002
 5415SOL     OW27706   0.419   2.722  16.264 -0.2464 -0.6638 -1.0075
 5415SOL    HW127707   0.388   2.637  16.296  0.0009 -0.8906 -1.3681
 5415SOL    HW227708   0.472   2.753  16.338 -3.6957  2.1968  0.2461
 5416SOL     OW27709   1.454   2.561  11.502  0.5655  0.1299  0.0008
 5416SOL    HW127710   1.377   2.618  11.495 -2.2770 -3.8162 -0.4820
 5416SOL    HW227711   1.475   2.543  11.411  1.8916  1.9655 -0.0545
 5417SOL     OW27712   2.467   1.916   2.555 -0.1888 -0.1269 -0.0348
 5417SOL    HW127713   2.477   1.878   2.643 -1.7487  0.2165  0.2954
 5417SOL    HW227714   2.380   1.885   2.530 -1.7440  3.6063  0.7704
 5418SOL     OW27715   1.346   2.055  11.291 -0.3506  0.1967 -0.2552
 5418SOL    HW127716   1.263   2.082  11.251 -0.1863  0.2272 -0.5775
 5418SOL    HW227717   1.323   2.079  11.381 -0.0981  2.1649 -0.7279
 5419SOL     OW27718   1.763   1.314   4.486  0.2616  0.7952 -0.4476
 5419SOL    HW127719   1.825   1.361   4.542 -0.7279 -0.1448  1.4117
 5419SOL    HW227720   1.791   1.324   4.395 -0.4536  3.3558 -0.3858
 5420SOL     OW27721   1.466   0.232   9.606  0.2872 -0.3587  0.6062
 5420SOL    HW127722   1.394   0.183   9.567  0.2350  0.0845  0.1447
 5420SOL    HW227723   1.445   0.322   9.581 -0.2470 -0.5206  0.4756
 5421SOL     OW27724   4.095   4.401   2.072 -0.0867 -0.0193 -0.1237
 5421SOL    HW127725   4.098   4.307   2.053  0.5652 -0.6209  3.0705
 5421SOL    HW227726   4.137   4.439   1.995  1.7563  0.7436  1.2747
 5422SOL     OW27727   1.230   0.772  12.468 -0.2365 -0.4554  0.3717
 5422SOL    HW127728   1.236   0.745  12.559  2.7120 -0.9321  0.0703
 5422SOL    HW227729   1.135   0.775  12.464 -0.2641  0.3916  1.7052
 5423SOL     OW27730   4.117   4.635   3.370  0.3310 -0.3859  0.0218
 5423SOL    HW127731   4.111   4.632   3.466  1.9535 -1.4984  0.0920
 5423SOL    HW227732   4.174   4.711   3.359  2.6901 -1.9211  1.5037
 5424SOL     OW27733   4.471   0.278  10.662 -0.4773 -0.0045 -0.9197
 5424SOL    HW127734   4.497   0.285  10.570  0.6449  1.8937 -0.4737
 5424SOL    HW227735   4.384   0.319  10.663 -0.2184  0.5458 -0.6929
 5425SOL     OW27736   1.102   2.735   1.047  0.0976  0.0808 -0.5276
 5425SOL    HW127737   1.174   2.709   0.990 -0.1668 -0.4975 -0.5921
 5425SOL    HW227738   1.150   2.773   1.121  1.3060  1.4759 -2.0375
 5426SOL     OW27739   4.653   1.711   1.126 -0.3490 -0.6961 -0.2045
 5426SOL    HW127740   4.576   1.659   1.102 -0.4738 -0.6381  0.0685
 5426SOL    HW227741   4.630   1.803   1.116  1.7484 -0.2636 -1.1917
 5427SOL     OW27742   2.970   3.172  13.287  0.4350  0.1555  0.3427
 5427SOL    HW127743   3.000   3.160  13.377 -0.8472  1.6460  0.9671
 5427SOL    HW227744   2.913   3.244  13.312 -0.0465  0.0316 -0.4151
 5428SOL     OW27745   2.539   1.663  15.023 -0.4802 -0.0637  0.1130
 5428SOL    HW127746   2.550   1.657  14.928  0.1710  1.8428  0.0729
 5428SOL    HW227747   2.624   1.695  15.054  0.0956 -1.9836  0.5890
 5429SOL     OW27748   2.873   1.017   5.276  0.5127 -0.6325  0.3451
 5429SOL    HW127749   2.835   1.061   5.353 -0.5607 -0.0893 -0.5001
 5429SOL    HW227750   2.790   0.986   5.239  0.6182 -0.4055 -0.0777
 5430SOL     OW27751   1.144   1.450   6.906 -0.1118 -0.3422  0.5499
 5430SOL    HW127752   1.212   1.434   6.972  0.2755  0.0079  0.2371
 5430SOL    HW227753   1.112   1.531   6.945 -0.1009 -0.0383 -0.0737
 5431SOL     OW27754   1.241   1.502   8.797 -0.1924  0.1517 -0.5283
 5431SOL    HW127755   1.156   1.457   8.790  1.3771 -2.3480 -3.7215
 5431SOL    HW227756   1.246   1.553   8.716 -1.3283  1.3702  0.1523
 5432SOL     OW27757   3.634   3.612  16.864  0.3141  0.1492  0.1505
 5432SOL    HW127758   3.686   3.690  16.848  2.0204 -0.6772  1.6858
 5432SOL    HW227759   3.661   3.553  16.794 -1.1232 -1.5706  1.0373
 5433SOL     OW27760   4.523   0.467  15.156 -0.1699  0.1699  0.7660
 5433SOL    HW127761   4.558   0.554  15.136  1.8842 -1.1066 -1.1364
 5433SOL    HW227762   4.560   0.405  15.094 -1.7556 -0.5721  0.5665
 5434SOL     OW27763   4.655   0.370   3.598  0.5279  0.2374  0.2509
 5434SOL    HW127764   4.694   0.374   3.511  1.1130 -1.3888  0.4304
 5434SOL    HW227765   4.598   0.297   3.573 -0.5608  2.3112 -3.2351
 5435SOL     OW27766   2.635   0.423   5.366 -0.1374  0.5520 -0.0262
 5435SOL    HW127767   2.677   0.342   5.395  0.8586  1.1212  0.1414
 5435SOL    HW227768   2.581   0.396   5.292 -2.0861  1.3204  1.1154
 5436SOL     OW27769   4.072   4.150   2.398  0.1153  0.2075  0.0316
 5436SOL    HW127770   4.015   4.158   2.475 -0.8856 -1.5473 -0.5218
 5436SOL    HW227771   4.033   4.073   2.356  0.9987 -0.3393  0.2251
 5437SOL     OW27772   1.645   4.670   8.134  0.5881  0.4804 -0.2478
 5437SOL    HW127773   1.679   0.026   8.174  1.5361  0.5832 -1.2617
 5437SOL    HW227774   1.673   4.609   8.203  1.5168  0.6094 -0.5167
 5438SOL     OW27775   4.083   1.341   5.299  0.2827 -0.2694 -0.2119
 5438SOL    HW127776   4.075   1.323   5.205  0.7654  0.4944 -0.3934
 5438SOL    HW227777   3.995   1.372   5.320  0.9169  1.1364  0.3679
 5439SOL     OW27778   0.253   3.545   4.420 -0.4800 -0.6813  0.3261
 5439SOL    HW127779   0.293   3.571   4.503  0.8683  0.4874 -0.6901
 5439SOL    HW227780   0.169   3.509   4.449  0.6313 -4.1733 -0.8200
 5440SOL     OW27781   0.763   1.346   8.405  0.1711 -0.1182 -0.1363
 5440SOL    HW127782   0.727   1.307   8.325 -0.6987 -0.0278  0.2157
 5440SOL    HW227783   0.710   1.425   8.413  2.9822  1.7426  0.4368
 5441SOL     OW27784   2.093   3.100  10.085  0.0158  0.0532  0.1110
 5441SOL    HW127785   2.174   3.133  10.046  0.5669 -1.2082  0.1789
 5441SOL    HW227786   2.044   3.176  10.117  0.8210  1.6755 -2.5542
 5442SOL     OW27787   2.358   1.942   5.104  0.4534  0.5691  0.2044
 5442SOL    HW127788   2.315   1.971   5.024  1.1891 -1.0769 -0.8100
 5442SOL    HW227789   2.299   1.977   5.171 -0.4062  1.8294 -1.2272
 5443SOL     OW27790   0.480   4.079  12.848  0.1970 -0.0930  0.4005
 5443SOL    HW127791   0.565   4.061  12.888 -0.1619 -1.1497  0.6866
 5443SOL    HW227792   0.429   4.020  12.904  0.6418  0.4683  1.4106
 5444SOL     OW27793   0.945   1.514   7.125 -0.3923 -0.0506 -0.3955
 5444SOL    HW127794   0.936   1.607   7.106  2.5907  0.1687 -0.5973
 5444SOL    HW227795   1.018   1.509   7.187 -0.3771  1.0979 -0.3218
 5445SOL     OW27796   1.890   1.039   0.962  0.1361 -0.2676  0.1298
 5445SOL    HW127797   1.901   0.947   0.986 -0.8733 -0.2507  0.6904
 5445SOL    HW227798   1.969   1.075   0.923 -0.5923 -1.2901 -2.3331
 5446SOL     OW27799   3.640   0.195   1.690 -0.5079 -0.0236 -0.3752
 5446SOL    HW127800   3.700   0.264   1.663  1.3499 -0.8309  1.6477
 5446SOL    HW227801   3.612   0.223   1.777  2.5831 -1.2120  0.9887
 5447SOL     OW27802   0.174   1.561   9.722 -0.0109 -0.3770  0.8119
 5447SOL    HW127803   0.115   1.486   9.712 -0.5140 -0.0672  1.4236
 5447SOL    HW227804   0.215   1.550   9.808  0.3306 -0.1982  0.6694
 5448SOL     OW27805   2.696   4.223   5.644 -0.2099  0.1909  0.7539
 5448SOL    HW127806   2.751   4.301   5.647 -0.3303  0.3322 -0.3639
 5448SOL    HW227807   2.697   4.187   5.732  1.3520 -2.5753 -0.4163
 5449SOL     OW27808   2.743   4.009   8.152  0.6281 -0.2837  0.3915
 5449SOL    HW127809   2.746   4.048   8.065  0.6721 -0.8825  0.1205
 5449SOL    HW227810   2.720   4.081   8.210 -0.0762 -1.1177  1.1581
 5450SOL     OW27811   4.175   0.417  15.158 -0.2814 -0.7331  0.1807
 5450SOL    HW127812   4.227   0.453  15.229  1.2635 -0.2778 -1.1994
 5450SOL    HW227813   4.088   0.400  15.195 -1.3523 -1.1414 -2.4601
 5451SOL     OW27814   3.937   0.981   2.244  0.7434  0.3923 -0.5774
 5451SOL    HW127815   3.909   1.072   2.249 -1.5615 -0.4040  0.8210
 5451SOL    HW227816   3.869   0.952   2.183  1.8520 -1.0313 -1.1367
 5452SOL     OW27817   1.914   2.575   1.601  0.4324 -0.1296 -0.7004
 5452SOL    HW127818   1.969   2.574   1.523 -1.5128  1.0217 -2.0832
 5452SOL    HW227819   1.831   2.537   1.574 -0.5139 -0.8179  3.2604
 5453SOL     OW27820   1.201   0.334   2.519  0.0922  0.3190  0.0832
 5453SOL    HW127821   1.212   0.408   2.459  3.4631 -0.1175  0.1584
 5453SOL    HW227822   1.204   0.261   2.457  0.0462  0.3888 -0.0002
 5454SOL     OW27823   1.583   3.388   7.910  0.8428  0.4260 -0.7469
 5454SOL    HW127824   1.525   3.430   7.846 -0.2847 -1.2003 -0.7921
 5454SOL    HW227825   1.672   3.400   7.879  1.3754  1.5143  1.2011
 5455SOL     OW27826   1.135   1.487   2.617 -0.3360  0.0826 -0.0439
 5455SOL    HW127827   1.068   1.504   2.684  1.3001  1.2609  1.3069
 5455SOL    HW227828   1.206   1.539   2.654  0.8681 -1.0365 -0.8130
 5456SOL     OW27829   3.142   0.467   6.301 -0.5685 -0.2151  0.2162
 5456SOL    HW127830   3.047   0.472   6.291 -0.5785 -2.2243 -0.7020
 5456SOL    HW227831   3.157   0.487   6.394  3.5205  2.4353 -1.0021
 5457SOL     OW27832   0.609   2.715  13.171  0.2667  0.1715  0.0485
 5457SOL    HW127833   0.533   2.764  13.139 -0.5531 -2.0294 -1.4270
 5457SOL    HW227834   0.633   2.759  13.252  0.9781 -0.7489  0.3364
 5458SOL     OW27835   3.952   3.565  16.835  0.5743 -0.0866  0.9668
 5458SOL    HW127836   4.023   3.527  16.886  0.0774  1.2401  2.6526
 5458SOL    HW227837   3.906   3.485  16.810  1.7259  0.3893 -2.7791
 5459SOL     OW27838   4.454   3.317   6.743 -0.3152 -0.2618 -0.0188
 5459SOL    HW127839   4.499   3.235   6.762  3.2960  1.9131  0.8630
 5459SOL    HW227840   4.466   3.373   6.820 -1.2417 -0.2941  0.1490
 5460SOL     OW27841   0.366   0.166   6.691  0.1034 -0.3485  0.0082
 5460SOL    HW127842   0.331   0.092   6.642 -0.5774 -0.9767  1.4190
 5460SOL    HW227843   0.339   0.151   6.782 -0.5791 -0.9269 -0.2974
 5461SOL     OW27844   2.885   4.190   5.942 -0.5391 -0.0775  0.3753
 5461SOL    HW127845   2.971   4.148   5.952 -0.4293  0.4884  1.7435
 5461SOL    HW227846   2.903   4.268   5.995  1.7592  0.1461 -0.7127
 5462SOL     OW27847   2.281   3.908   6.364  0.0540  0.2522 -0.4154
 5462SOL    HW127848   2.361   3.952   6.395  0.0677  1.1426 -1.7158
 5462SOL    HW227849   2.229   3.906   6.444 -1.9390  0.0927 -1.7257
 5463SOL     OW27850   2.642   0.492   0.763 -0.1468 -0.0205 -0.0379
 5463SOL    HW127851   2.558   0.488   0.717  0.1457 -2.8721 -0.3543
 5463SOL    HW227852   2.704   0.502   0.691 -0.5553  0.0196 -0.3892
 5464SOL     OW27853   3.592   2.231   1.554  0.4260  0.2700 -0.4310
 5464SOL    HW127854   3.518   2.266   1.604  1.7788 -1.2499  2.6155
 5464SOL    HW227855   3.664   2.267   1.605  1.0852 -0.8816 -0.5436
 5465SOL     OW27856   0.327   2.937   9.695  0.1240  0.1066  0.1634
 5465SOL    HW127857   0.357   2.902   9.611 -1.0649  0.8420 -0.5717
 5465SOL    HW227858   0.405   2.986   9.722 -0.3343  0.1581  1.3849
 5466SOL     OW27859   0.740   1.062   6.167 -0.0670  0.1936  0.7525
 5466SOL    HW127860   0.660   1.113   6.155  0.7306  0.5080 -3.1284
 5466SOL    HW227861   0.811   1.115   6.204  0.8605 -0.7640  0.3236
 5467SOL     OW27862   1.485   0.080   4.192  0.2359 -0.1377 -0.1671
 5467SOL    HW127863   1.444   0.059   4.276  0.8684  0.0614  0.1948
 5467SOL    HW227864   1.573   0.088   4.228  0.5857  2.6649 -1.6353
 5468SOL     OW27865   0.705   3.279   4.081  0.2924 -0.5680  0.2098
 5468SOL    HW127866   0.788   3.232   4.069  2.0065  2.3024  0.7358
 5468SOL    HW227867   0.706   3.287   4.176 -1.0727 -0.3055  0.1991
 5469SOL     OW27868   4.584   1.710   9.919 -0.1105 -0.0148  0.0819
 5469SOL    HW127869   4.571   1.617   9.902 -0.6699 -0.1686  1.3900
 5469SOL    HW227870   4.572   1.736   9.827 -0.1263  0.3592  0.1884
 5470SOL     OW27871   4.553   2.951   3.992 -0.6406 -0.6437 -0.1344
 5470SOL    HW127872   4.583   2.996   3.912  2.1317  0.5176  1.5480
 5470SOL    HW227873   4.631   2.902   4.016  1.3537  2.3758 -0.3656
 5471SOL     OW27874   1.344   3.948   3.323 -0.3040  0.0969  0.0400
 5471SOL    HW127875   1.258   3.987   3.340  1.0459  2.9148  0.3468
 5471SOL    HW227876   1.390   4.017   3.370 -1.0297  1.5364 -1.3985
 5472SOL     OW27877   1.675   3.866  12.322  0.1742 -0.5961  0.4208
 5472SOL    HW127878   1.610   3.932  12.300  0.4634 -0.6134 -0.4626
 5472SOL    HW227879   1.616   3.791  12.333 -0.3897 -0.1760  0.2514
 5473SOL     OW27880   1.490   1.061  12.227 -0.4711 -0.0446  0.2385
 5473SOL    HW127881   1.418   1.069  12.289 -0.0967 -1.8858  0.9026
 5473SOL    HW227882   1.561   1.094  12.283  1.0426 -1.1629 -1.0186
 5474SOL     OW27883   0.600   1.070   9.002  0.0805  0.2020 -0.0273
 5474SOL    HW127884   0.636   1.053   9.089 -0.7966  1.3385  0.5575
 5474SOL    HW227885   0.563   0.989   8.966  2.0065 -0.6127 -0.2294
 5475SOL     OW27886   2.292   1.346   3.630 -0.3382 -0.8686  0.0493
 5475SOL    HW127887   2.271   1.290   3.705 -1.4717  0.3830  0.6604
 5475SOL    HW227888   2.387   1.340   3.637 -0.3219  0.1667  0.6560
 5476SOL     OW27889   3.930   0.901   0.177 -0.2439 -0.2440  0.4971
 5476SOL    HW127890   3.993   0.943   0.118 -1.3955  0.5768 -0.1703
 5476SOL    HW227891   3.861   0.964   0.154  0.0475 -0.6103 -1.3934
 5477SOL     OW27892   4.334   1.044   2.920  0.0118  0.5208  0.1245
 5477SOL    HW127893   4.396   0.972   2.908 -1.5430 -0.4072 -2.2116
 5477SOL    HW227894   4.273   1.007   2.984 -1.3931  0.5875 -1.1996
 5478SOL     OW27895   2.262   1.952   4.535  0.9296  0.0069  0.5669
 5478SOL    HW127896   2.222   2.038   4.539  1.7465  0.5533 -2.9741
 5478SOL    HW227897   2.322   1.951   4.609 -1.1305 -3.5208  2.2182
 5479SOL     OW27898   2.374   2.376  12.428 -0.0579  0.2892 -0.4304
 5479SOL    HW127899   2.338   2.462  12.407 -0.1486  0.1055 -1.0086
 5479SOL    HW227900   2.361   2.332  12.344 -0.1069 -0.1978 -0.1710
 5480SOL     OW27901   3.175   3.019   7.110 -0.3326 -0.0909  0.3120
 5480SOL    HW127902   3.179   3.098   7.164 -1.0886 -0.1901  0.5130
 5480SOL    HW227903   3.244   3.046   7.049 -1.2565 -0.1701 -0.7715
 5481SOL     OW27904   4.074   0.989   8.423  0.0800  0.0878  0.4837
 5481SOL    HW127905   4.081   1.075   8.464  1.4130  0.1277  0.1708
 5481SOL    HW227906   4.106   0.931   8.493 -1.3464  1.4284  2.2576
 5482SOL     OW27907   1.704   3.350   2.604  0.3807 -0.7038 -0.5341
 5482SOL    HW127908   1.663   3.348   2.517  0.4270  0.8788 -0.6060
 5482SOL    HW227909   1.637   3.380   2.665  0.4782 -0.9479 -0.3094
 5483SOL     OW27910   0.131   0.991   5.371  0.0654  0.3016  0.1380
 5483SOL    HW127911   0.041   0.984   5.338 -0.0718 -1.0047  0.7882
 5483SOL    HW227912   0.168   1.019   5.287  1.9653 -1.4572  0.3896
 5484SOL     OW27913   3.946   0.306   8.937 -0.3408  0.1653 -0.2383
 5484SOL    HW127914   3.939   0.262   8.852  1.9944 -1.9936  0.6836
 5484SOL    HW227915   3.871   0.365   8.932 -0.7095 -0.2119  0.7829
 5485SOL     OW27916   2.685   3.739   2.479 -0.4593  0.5230  0.9697
 5485SOL    HW127917   2.626   3.744   2.403 -0.3511  1.8995  0.9674
 5485SOL    HW227918   2.658   3.822   2.519  0.1276  1.9396 -1.5658
 5486SOL     OW27919   2.833   4.471  16.603 -0.2608  0.1270 -0.0100
 5486SOL    HW127920   2.790   4.495  16.684  2.3654  0.2114  1.3783
 5486SOL    HW227921   2.787   4.392  16.576  1.0982 -0.2556 -1.2399
 5487SOL     OW27922   2.987   4.227   8.370  0.3085  0.0976 -0.2912
 5487SOL    HW127923   2.978   4.322   8.360 -0.9939 -0.3597 -3.4347
 5487SOL    HW227924   2.897   4.198   8.355  0.8227 -0.7660 -1.7105
 5488SOL     OW27925   0.427   1.951  14.116  0.2131  0.3686 -0.0844
 5488SOL    HW127926   0.399   1.921  14.202 -0.1532 -0.5486 -0.5163
 5488SOL    HW227927   0.340   1.956  14.075  0.3030  0.9947 -0.2041
 5489SOL     OW27928   4.119   0.786   3.692 -0.0014 -0.0924  0.0838
 5489SOL    HW127929   4.142   0.737   3.613 -2.2359 -1.1270  0.0476
 5489SOL    HW227930   4.093   0.721   3.757  1.1501  1.1398  1.7508
 5490SOL     OW27931   3.586   3.317   9.023  0.1346  0.0502 -0.0987
 5490SOL    HW127932   3.596   3.226   9.052  0.2006 -0.0979 -0.5842
 5490SOL    HW227933   3.527   3.297   8.950 -0.4877 -0.1114  0.4423
 5491SOL     OW27934   3.965   2.948   8.084 -0.2363 -0.1458  0.2205
 5491SOL    HW127935   4.000   2.987   8.164 -0.5874  0.3063  0.1531
 5491SOL    HW227936   3.961   3.020   8.021  0.6094  1.1747  1.6774
 5492SOL     OW27937   2.551   1.119   8.612 -0.0086 -0.0026  0.2287
 5492SOL    HW127938   2.608   1.192   8.588 -1.9966  1.0958 -1.1347
 5492SOL    HW227939   2.472   1.166   8.586  0.4619  0.4550 -0.3805
 5493SOL     OW27940   3.887   3.692   4.708  0.3360  0.0562 -0.4858
 5493SOL    HW127941   3.972   3.647   4.711 -0.2488 -0.9374  1.5491
 5493SOL    HW227942   3.886   3.756   4.780 -0.1260 -1.0242  0.4679
 5494SOL     OW27943   0.560   2.533   6.758 -0.1305 -0.8720 -0.0190
 5494SOL    HW127944   0.650   2.555   6.782 -0.3337 -1.7092  1.5332
 5494SOL    HW227945   0.524   2.621   6.750 -2.2541 -1.6906  0.6476
 5495SOL     OW27946   2.047   4.365   1.807 -0.9497  0.5455 -0.1921
 5495SOL    HW127947   2.088   4.279   1.811  0.5879  1.3549  1.6358
 5495SOL    HW227948   2.114   4.416   1.763 -0.8936 -2.0973 -3.1338
 5496SOL     OW27949   3.522   4.335   2.859  0.1494  0.0951  0.3208
 5496SOL    HW127950   3.491   4.422   2.834  0.9442  0.0486 -0.8458
 5496SOL    HW227951   3.611   4.354   2.886 -1.0625  2.5974  2.5431
 5497SOL     OW27952   2.645   4.634   3.647 -0.0149  0.0028 -0.4475
 5497SOL    HW127953   2.586   4.669   3.714  0.9168  0.5203  0.0943
 5497SOL    HW227954   2.656   4.706   3.584 -0.9074  2.1161  1.8297
 5498SOL     OW27955   0.688   0.272   5.093  0.3449 -0.5436 -0.1196
 5498SOL    HW127956   0.695   0.341   5.159 -1.4077 -1.4349  1.0029
 5498SOL    HW227957   0.774   0.277   5.051  0.5287  0.4874  0.3887
 5499SOL     OW27958   0.300   0.470  15.224 -0.0676  0.1362  0.4308
 5499SOL    HW127959   0.332   0.504  15.141 -3.3167  0.9760 -0.5105
 5499SOL    HW227960   0.238   0.412  15.181 -2.2515  1.3725  1.8598
 5500SOL     OW27961   4.249   0.887   5.601  0.1871  0.3743  0.2407
 5500SOL    HW127962   4.342   0.866   5.597  0.3280  0.9411  0.3965
 5500SOL    HW227963   4.248   0.982   5.587  0.7292  0.6045  1.7387
 5501SOL     OW27964   2.596   3.190  10.191  0.9555  0.2427 -0.1376
 5501SOL    HW127965   2.643   3.239  10.259 -0.5377  0.5967  0.6306
 5501SOL    HW227966   2.514   3.179  10.238  1.6560 -1.2568  0.7411
 5502SOL     OW27967   2.182   4.523  17.666 -0.2693 -0.1022  0.1475
 5502SOL    HW127968   2.182   4.565  17.581 -1.0563  0.4751  0.4314
 5502SOL    HW227969   2.089   4.502  17.676 -0.5867  1.6354  0.7302
 5503SOL     OW27970   0.686   4.307   4.685 -0.2727 -0.0671 -0.0533
 5503SOL    HW127971   0.645   4.340   4.605 -1.3188 -2.5976 -0.5541
 5503SOL    HW227972   0.671   4.374   4.751  0.5578 -0.9313  1.0049
 5504SOL     OW27973   2.014   1.609   2.240  0.2283 -0.2112  0.1081
 5504SOL    HW127974   1.956   1.558   2.297 -2.0578  1.4840 -0.7114
 5504SOL    HW227975   1.985   1.694   2.272  0.5861  0.8329 -2.3832
 5505SOL     OW27976   1.693   3.682  14.112  0.2378  0.0819 -0.3409
 5505SOL    HW127977   1.646   3.632  14.178  1.2222 -1.5013 -0.8538
 5505SOL    HW227978   1.640   3.759  14.092  2.9372  1.8224 -0.9142
 5506SOL     OW27979   2.345   0.178   8.613  0.0018 -0.7792  0.5080
 5506SOL    HW127980   2.423   0.187   8.558 -0.6255 -0.8532 -0.3825
 5506SOL    HW227981   2.337   0.272   8.624 -1.9087 -1.0790  1.5469
 5507SOL     OW27982   3.520   4.555   0.980  0.3066 -0.1685  0.7912
 5507SOL    HW127983   3.531   4.530   0.888 -1.0626 -4.2387  1.7159
 5507SOL    HW227984   3.488   4.645   0.969  1.5323 -0.0559 -1.8863
 5508SOL     OW27985   2.335   1.247   0.564  0.1145  0.1810  0.1988
 5508SOL    HW127986   2.272   1.282   0.627  0.0804 -0.2842  0.4192
 5508SOL    HW227987   2.282   1.174   0.533  0.7404  0.1960 -0.9173
 5509SOL     OW27988   3.987   4.093   4.657 -0.2923 -0.1926  0.4035
 5509SOL    HW127989   3.908   4.056   4.618 -0.2637  1.9042 -1.6532
 5509SOL    HW227990   4.062   4.050   4.616 -0.9049 -0.4256 -0.4611
 5510SOL     OW27991   3.418   2.026   4.645 -0.0831  0.2350 -0.1860
 5510SOL    HW127992   3.389   1.936   4.660  0.3312  0.0033 -0.7882
 5510SOL    HW227993   3.502   2.018   4.690 -0.2489  0.8864  0.2405
 5511SOL     OW27994   1.171   2.589   6.778  0.1310 -0.0768 -0.2295
 5511SOL    HW127995   1.247   2.626   6.823 -0.3560  0.3261  0.2578
 5511SOL    HW227996   1.212   2.566   6.694  0.5894 -0.0619 -0.0104
 5512SOL     OW27997   2.076   2.859   0.769  0.0998 -0.2913 -0.4531
 5512SOL    HW127998   2.088   2.911   0.690 -1.4480  0.5343 -0.1505
 5512SOL    HW227999   2.096   2.771   0.740  0.7651 -0.6095  0.9717
 5513SOL     OW28000   0.752   2.109   8.287 -0.0942 -0.4274 -0.2875
 5513SOL    HW128001   0.724   2.200   8.291 -3.2322 -1.4955  1.9407
 5513SOL    HW228002   0.810   2.110   8.363 -1.4729 -0.4057  0.7721
 5514SOL     OW28003   4.582   2.735   2.964 -0.4821  0.7349  0.8586
 5514SOL    HW128004   4.519   2.807   2.972 -0.6767  0.4515  1.9113
 5514SOL    HW228005   4.566   2.710   2.873 -0.8636  1.8222  0.6224
 5515SOL     OW28006   0.822   3.805  15.304 -0.6170 -0.1847  0.1854
 5515SOL    HW128007   0.796   3.730  15.357 -3.7669  0.6630 -0.1790
 5515SOL    HW228008   0.879   3.854  15.364  0.8754  0.0985 -1.4555
 5516SOL     OW28009   4.662   1.982   9.248 -0.1691  0.4208 -0.1559
 5516SOL    HW128010   4.618   1.972   9.333 -0.1850 -1.0262 -0.3381
 5516SOL    HW228011   4.722   1.908   9.258 -0.5866  0.2874  1.3806
 5517SOL     OW28012   3.790   4.416  16.124 -0.0892 -0.4486  0.3297
 5517SOL    HW128013   3.875   4.377  16.103  0.2843  1.3383 -1.4867
 5517SOL    HW228014   3.757   4.444  16.039 -2.2541  0.5567  1.5219
 5518SOL     OW28015   1.758   3.839   3.062 -0.0348 -0.0610  0.1056
 5518SOL    HW128016   1.778   3.905   2.995 -3.0466 -0.0569 -0.8061
 5518SOL    HW228017   1.841   3.823   3.107 -0.0721  0.9164  0.5396
 5519SOL     OW28018   1.559   4.005  17.434  0.1410  0.2324 -0.8715
 5519SOL    HW128019   1.627   4.045  17.487 -0.2536 -0.6585  0.2961
 5519SOL    HW228020   1.483   4.043  17.477 -1.0309 -0.6687 -2.1402
 5520SOL     OW28021   0.939   3.860   8.704 -0.1097  0.4029  0.0099
 5520SOL    HW128022   0.911   3.903   8.623 -1.8761  0.8005  0.8237
 5520SOL    HW228023   0.942   3.939   8.758 -2.5176  1.2615 -1.0955
 5521SOL     OW28024   2.192   1.987   0.187 -0.3047  0.1073  0.3651
 5521SOL    HW128025   2.273   2.033   0.166 -1.5347  1.9299 -0.4139
 5521SOL    HW228026   2.139   2.026   0.117 -0.2318  0.9062  0.7552
 5522SOL     OW28027   0.838   4.496   9.724 -0.0452 -0.7319  0.0314
 5522SOL    HW128028   0.779   4.567   9.698  0.2083 -1.2286 -1.8809
 5522SOL    HW228029   0.779   4.454   9.786  2.1221 -0.8554  2.0031
 5523SOL     OW28030   2.307   4.585   5.242  0.3845 -0.1879 -0.2941
 5523SOL    HW128031   2.397   4.553   5.249  0.5890 -0.0505 -2.0973
 5523SOL    HW228032   2.300   4.608   5.149 -1.9693  1.5955  0.3603
 5524SOL     OW28033   2.380   1.868  15.619  0.1465 -0.3117 -0.3839
 5524SOL    HW128034   2.302   1.866  15.562 -0.7920 -0.8451  0.9286
 5524SOL    HW228035   2.362   1.961  15.634  0.6940 -0.2045 -0.4205
 5525SOL     OW28036   1.095   0.596   3.734  0.7769  0.3626 -0.9369
 5525SOL    HW128037   1.155   0.560   3.799 -0.8208  0.3041  0.5036
 5525SOL    HW228038   1.022   0.535   3.742  0.0615  1.3600  0.0093
 5526SOL     OW28039   2.700   3.517   4.694  0.1569 -0.2282 -0.4409
 5526SOL    HW128040   2.632   3.569   4.736  2.1329  2.0718 -0.0923
 5526SOL    HW228041   2.762   3.586   4.670 -1.5361  1.5045  0.1969
 5527SOL     OW28042   4.164   2.843   7.804  0.1514  0.2335  0.4837
 5527SOL    HW128043   4.259   2.837   7.796  0.0133 -0.1397 -0.8951
 5527SOL    HW228044   4.174   2.905   7.876 -0.5607 -0.2939  1.0238
 5528SOL     OW28045   1.980   0.275  11.931 -0.2605  0.0116 -0.6146
 5528SOL    HW128046   2.026   0.260  12.013 -2.5317  0.0035  0.6578
 5528SOL    HW228047   1.892   0.303  11.957  0.0203 -0.6385  1.0477
 5529SOL     OW28048   0.105   2.202   9.284 -0.2654  0.0524 -0.5322
 5529SOL    HW128049   0.188   2.193   9.330 -0.6505  2.3087  0.6223
 5529SOL    HW228050   0.098   2.108   9.270  0.3911 -0.0336 -0.2722
 5530SOL     OW28051   3.885   2.736  17.671 -0.1306 -0.2008 -0.2855
 5530SOL    HW128052   3.947   2.767  17.605 -0.2313  0.5745 -0.0074
 5530SOL    HW228053   3.903   2.796   0.045 -1.1708 -0.6736  0.3718
 5531SOL     OW28054   2.359   4.716   3.221 -0.2379 -0.5535 -0.0105
 5531SOL    HW128055   2.321   0.048   3.153 -0.7420 -0.9789 -0.0775
 5531SOL    HW228056   2.448   4.723   3.185  0.0689  0.7611  0.9870
 5532SOL     OW28057   0.159   2.288  10.466 -0.4944  1.0387  0.0818
 5532SOL    HW128058   0.098   2.278  10.392  1.1652 -3.2942 -0.6780
 5532SOL    HW228059   0.103   2.301  10.542 -1.4461  2.0544 -0.7892
 5533SOL     OW28060   2.899   0.892  14.933  0.1822 -0.3684  0.1636
 5533SOL    HW128061   2.819   0.864  14.887  0.6924  0.7033 -1.3928
 5533SOL    HW228062   2.888   0.837  15.010 -0.5571 -0.0354  0.2974
 5534SOL     OW28063   2.835   4.035  16.727  0.0614 -0.0232 -0.1061
 5534SOL    HW128064   2.846   4.039  16.822  1.3857 -0.4775 -0.2422
 5534SOL    HW228065   2.885   3.954  16.721  0.2884  0.0730  0.4963
 5535SOL     OW28066   2.443   1.572   4.188 -0.0936  0.3632 -0.4267
 5535SOL    HW128067   2.404   1.523   4.260 -0.7668  2.3636  0.5701
 5535SOL    HW228068   2.533   1.543   4.204 -0.4921 -0.8189 -0.3278
 5536SOL     OW28069   3.362   2.898   3.949  0.4145 -0.0014 -0.3101
 5536SOL    HW128070   3.409   2.935   3.875 -1.2144  0.7618 -0.9556
 5536SOL    HW228071   3.274   2.907   3.913 -0.0606 -0.1893  0.7857
 5537SOL     OW28072   1.893   0.702  16.730 -0.0125  0.2846 -0.0472
 5537SOL    HW128073   1.978   0.658  16.732 -0.5887 -0.6800  2.8227
 5537SOL    HW228074   1.878   0.671  16.819 -0.4741 -0.6214 -0.4384
 5538SOL     OW28075   1.760   0.039   7.128  0.6099 -0.2167  0.3955
 5538SOL    HW128076   1.804   4.690   7.172 -0.7203 -0.5209  1.2263
 5538SOL    HW228077   1.777   0.110   7.190 -0.8394  0.3763  0.0963
 5539SOL     OW28078   3.116   3.334   2.173 -0.6235 -0.1643 -0.3577
 5539SOL    HW128079   3.181   3.264   2.162 -0.2116  0.0912  0.4315
 5539SOL    HW228080   3.058   3.288   2.234 -0.3275 -1.1931 -0.8488
 5540SOL     OW28081   1.943   2.996   7.284  0.1204  0.2304  0.2944
 5540SOL    HW128082   1.969   2.935   7.354 -0.7145 -1.6886 -1.0985
 5540SOL    HW228083   1.940   3.077   7.335 -1.3462 -0.2949  1.0370
 5541SOL     OW28084   0.512   0.922  17.681  0.0857 -0.2233  0.0819
 5541SOL    HW128085   0.464   0.865   0.044  0.5836 -1.1462 -0.3850
 5541SOL    HW228086   0.512   0.856  17.612 -0.5170 -0.4811  0.3225
 5542SOL     OW28087   2.149   0.830   1.154  0.1595 -0.3179  0.2279
 5542SOL    HW128088   2.173   0.797   1.240 -1.7349  0.5742  1.0984
 5542SOL    HW228089   2.232   0.869   1.125  0.9152 -0.5944  2.0434
 5543SOL     OW28090   3.783   2.553   3.284 -0.5086  0.4750  0.1465
 5543SOL    HW128091   3.762   2.626   3.342  0.3708  2.2402 -1.7398
 5543SOL    HW228092   3.864   2.512   3.314  0.0263  2.2417  1.0948
 5544SOL     OW28093   1.856   4.403  13.891 -0.5310 -0.0511  0.4853
 5544SOL    HW128094   1.894   4.491  13.901  2.8015 -1.7009  2.4804
 5544SOL    HW228095   1.916   4.355  13.948  0.2923 -0.7934 -1.0031
 5545SOL     OW28096   0.466   1.170   2.250 -0.3818  0.6572  0.1908
 5545SOL    HW128097   0.382   1.184   2.292 -0.5811  1.2119 -0.3996
 5545SOL    HW228098   0.450   1.082   2.215  2.6149 -0.8889  2.5927
 5546SOL     OW28099   0.173   0.903  14.004  0.0292 -0.1202  0.0183
 5546SOL    HW128100   0.204   0.993  14.001  1.7690 -0.6829  1.2478
 5546SOL    HW228101   0.133   0.892  13.918  1.1605 -0.7468 -0.4335
 5547SOL     OW28102   4.273   0.364   5.343  0.2680  0.4405  0.6696
 5547SOL    HW128103   4.280   0.269   5.343  2.3243  0.5991  0.6290
 5547SOL    HW228104   4.202   0.367   5.408  0.3102  3.2082  0.6159
 5548SOL     OW28105   0.356   1.995  13.293  0.1779  0.1684 -0.0104
 5548SOL    HW128106   0.266   2.008  13.323  1.2330 -1.7816  3.9091
 5548SOL    HW228107   0.387   2.085  13.289  2.9397 -0.8487 -1.0721
 5549SOL     OW28108   1.658   1.204  12.589 -0.6370 -0.6066 -0.5323
 5549SOL    HW128109   1.682   1.125  12.541  0.5942 -0.9846  0.7207
 5549SOL    HW228110   1.602   1.172  12.659  0.2627  0.4656  0.6811
 5550SOL     OW28111   2.984   4.199   1.963 -0.1868  0.1155  0.2609
 5550SOL    HW128112   2.917   4.190   2.031  0.5257  0.5133  1.0229
 5550SOL    HW228113   3.064   4.186   2.013  0.6424 -0.9540 -1.3427
 5551SOL     OW28114   0.457   0.109   9.363  0.1229 -0.6485  0.6449
 5551SOL    HW128115   0.382   0.069   9.406 -0.1084  0.3284  1.1449
 5551SOL    HW228116   0.467   0.188   9.416  1.7491  0.7128 -1.7221
 5552SOL     OW28117   1.091   2.210  13.737 -0.4555 -0.1945 -0.2520
 5552SOL    HW128118   1.150   2.228  13.810 -0.7174  0.2147 -0.1402
 5552SOL    HW228119   1.042   2.133  13.764 -0.1868 -0.0779  0.5892
 5553SOL     OW28120   1.999   0.908   6.790  0.4788 -0.2903  0.0086
 5553SOL    HW128121   1.951   0.936   6.869  2.1895  1.0265  0.5715
 5553SOL    HW228122   1.941   0.859   6.732 -0.6254 -0.2603  1.0810
 5554SOL     OW28123   1.393   2.263   3.748  0.5345 -0.7700 -0.2371
 5554SOL    HW128124   1.364   2.353   3.758 -1.7915 -1.4068 -1.3877
 5554SOL    HW228125   1.311   2.214   3.754  0.4030 -0.6460 -1.0408
 5555SOL     OW28126   0.876   4.016   2.506  0.1103 -0.0437  0.2114
 5555SOL    HW128127   0.953   4.071   2.520  0.1704  0.3798 -1.8718
 5555SOL    HW228128   0.895   3.934   2.461  0.9702  0.5161 -0.4301
 5556SOL     OW28129   0.039   3.656   1.763 -0.1331  0.0997  0.7079
 5556SOL    HW128130   0.044   3.562   1.746  1.9434  0.1737  0.9376
 5556SOL    HW228131   0.064   3.662   1.855  1.5682 -3.0759  0.4492
 5557SOL     OW28132   0.965   4.354   3.965  0.1712  0.1946  0.1782
 5557SOL    HW128133   0.978   4.439   3.923 -2.0856  1.3189  1.7263
 5557SOL    HW228134   0.914   4.299   3.905  1.3457 -0.9113  0.1829
 5558SOL     OW28135   2.643   3.739   8.151 -0.4223 -0.1557 -0.1245
 5558SOL    HW128136   2.708   3.804   8.176  0.7013 -0.4685 -2.1918
 5558SOL    HW228137   2.562   3.790   8.155  0.8773  1.9943 -1.2130
 5559SOL     OW28138   4.659   0.166   9.600 -0.1581  0.0542  0.1583
 5559SOL    HW128139   4.642   0.147   9.508 -1.4621  1.0217  0.2122
 5559SOL    HW228140   0.017   0.215   9.591  0.5247 -1.3822 -1.3014
 5560SOL     OW28141   3.731   2.681  17.438 -0.7751  0.0569  0.3126
 5560SOL    HW128142   3.692   2.750  17.385  1.4932  0.3177 -1.0067
 5560SOL    HW228143   3.725   2.714  17.528 -0.9275  0.3764  0.1846
 5561SOL     OW28144   1.384   2.487   8.679  0.1374 -0.4221 -0.3641
 5561SOL    HW128145   1.458   2.463   8.736  1.1593  0.5235 -1.2844
 5561SOL    HW228146   1.334   2.539   8.743  1.4255 -1.9084  1.8583
 5562SOL     OW28147   4.693   0.789   1.403 -1.1388 -0.2265 -0.0018
 5562SOL    HW128148   4.603   0.810   1.426 -0.2084  3.1192  0.5029
 5562SOL    HW228149   4.713   0.855   1.337 -0.0788 -0.0067  0.5319
 5563SOL     OW28150   1.804   4.313   5.783  0.2228 -0.1996 -0.2015
 5563SOL    HW128151   1.889   4.341   5.748 -0.2806 -0.2865 -1.5005
 5563SOL    HW228152   1.807   4.224   5.747 -1.0228  0.2448 -1.4213
 5564SOL     OW28153   0.803   0.240   4.075  0.2497  0.4851 -0.3034
 5564SOL    HW128154   0.780   0.148   4.061 -2.7056  1.4785 -2.0603
 5564SOL    HW228155   0.750   0.256   4.153  1.2542  0.8736  0.3095
 5565SOL     OW28156   0.503   3.217   7.854  0.1241  0.3195  0.3109
 5565SOL    HW128157   0.577   3.274   7.831  0.8269 -0.3486  0.9298
 5565SOL    HW228158   0.518   3.201   7.947  2.7276 -0.3035 -0.2156
 5566SOL     OW28159   1.103   1.582   4.713  0.0067  0.1174 -0.1019
 5566SOL    HW128160   1.193   1.583   4.681  0.3904 -1.4545  0.9578
 5566SOL    HW228161   1.092   1.487   4.714  1.7781 -0.0911  0.3945
 5567SOL     OW28162   4.573   1.334  10.202  0.0629 -0.4731  0.3728
 5567SOL    HW128163   4.491   1.354  10.247 -0.2828  0.0738 -0.4991
 5567SOL    HW228164   4.560   1.241  10.185  1.7451 -0.7029  0.3920
 5568SOL     OW28165   4.526   3.938   2.050  0.1172 -0.5390  0.0448
 5568SOL    HW128166   4.584   3.881   2.101  0.5960 -1.6958 -1.7842
 5568SOL    HW228167   4.513   3.889   1.969 -1.2434  0.2593 -0.2164
 5569SOL     OW28168   1.458   3.993   4.613 -0.1033 -0.0061 -0.2518
 5569SOL    HW128169   1.442   3.947   4.531 -1.1171 -1.8146  0.9584
 5569SOL    HW228170   1.368   4.021   4.630 -1.1349 -2.6151 -1.4825
 5570SOL     OW28171   0.397   2.990   3.232  0.1718 -0.3136 -0.0177
 5570SOL    HW128172   0.432   3.078   3.218 -1.3373  0.1286 -0.9715
 5570SOL    HW228173   0.351   2.983   3.149 -2.4549  0.3724  1.3936
 5571SOL     OW28174   2.778   2.087   6.530 -0.5052  0.2915 -0.3901
 5571SOL    HW128175   2.784   2.085   6.626 -0.3116  1.1765 -0.3913
 5571SOL    HW228176   2.798   2.179   6.517  0.9325 -0.0073 -0.3408
 5572SOL     OW28177   0.461   2.090   1.375 -0.0913 -0.4394 -0.2438
 5572SOL    HW128178   0.479   2.160   1.312 -0.7881 -0.7725 -0.8101
 5572SOL    HW228179   0.541   2.039   1.364 -0.3570 -0.3685 -2.6017
 5573SOL     OW28180   0.436   0.418   6.175 -0.4888 -0.2448 -0.4336
 5573SOL    HW128181   0.342   0.396   6.173 -1.0528  2.2073 -0.6231
 5573SOL    HW228182   0.447   0.513   6.178 -0.9917 -0.1517 -1.6367
 5574SOL     OW28183   2.454   4.366   7.482 -0.2602  0.2991  0.4237
 5574SOL    HW128184   2.488   4.277   7.486 -0.3343  0.1496 -2.1823
 5574SOL    HW228185   2.447   4.383   7.388 -2.0862 -0.9946  0.3281
 5575SOL     OW28186   1.249   1.019   2.448 -0.5957  0.3623  0.1076
 5575SOL    HW128187   1.206   0.978   2.373  1.5330  0.1664 -1.0314
 5575SOL    HW228188   1.251   0.940   2.502 -2.5795 -0.6213 -1.2650
 5576SOL     OW28189   3.037   0.443   4.872  0.4712  0.5991  0.0580
 5576SOL    HW128190   3.022   0.426   4.965 -0.4691 -3.3962 -0.8138
 5576SOL    HW228191   3.131   0.459   4.873  0.7998 -1.3195 -0.7703
 5577SOL     OW28192   0.376   0.288   4.782  0.7723 -0.2304  0.1377
 5577SOL    HW128193   0.377   0.383   4.795 -1.9439 -0.1075 -0.5263
 5577SOL    HW228194   0.398   0.263   4.872 -1.7969 -1.4968  0.4185
 5578SOL     OW28195   1.430   0.352  12.241 -0.1751  0.4340  0.1949
 5578SOL    HW128196   1.411   0.321  12.152  0.6252 -0.0986  0.2113
 5578SOL    HW228197   1.455   0.272  12.287  2.5709  2.2212  1.7490
 5579SOL     OW28198   1.577   4.076   0.121  0.3937  0.3515 -0.4987
 5579SOL    HW128199   1.482   4.089   0.124 -0.1037 -2.8474 -2.3510
 5579SOL    HW228200   1.594   4.154   0.174 -2.2540 -0.2570  1.2105
 5580SOL     OW28201   1.377   3.695  16.195  0.0197  0.2136  0.2076
 5580SOL    HW128202   1.425   3.777  16.212  1.5058 -0.9290  1.4805
 5580SOL    HW228203   1.411   3.673  16.108 -0.0944  2.6084 -0.4681
 5581SOL     OW28204   0.594   1.906   3.566  0.1257  0.0148  0.2487
 5581SOL    HW128205   0.569   1.971   3.500 -1.6222  0.9704  1.8751
 5581SOL    HW228206   0.521   1.846   3.554  0.0227  0.8202 -3.1934
 5582SOL     OW28207   1.117   3.245  10.333  0.4342  0.3513 -0.1429
 5582SOL    HW128208   1.206   3.225  10.303 -0.2103 -1.8308 -0.5939
 5582SOL    HW228209   1.125   3.333  10.369  0.1180  1.1197 -1.9612
 5583SOL     OW28210   3.017   1.491   5.649  0.7427 -0.4262  0.9170
 5583SOL    HW128211   2.999   1.476   5.556  1.2086 -1.7451  1.0320
 5583SOL    HW228212   2.936   1.466   5.692  0.8169 -1.6434  0.3449
 5584SOL     OW28213   0.862   0.069  14.611 -0.5214 -0.3192  0.3203
 5584SOL    HW128214   0.887   4.714  14.659 -3.0610 -0.9891  0.5352
 5584SOL    HW228215   0.921   0.075  14.536  2.3791 -0.6166  2.5704
 5585SOL     OW28216   3.857   0.738   9.028 -0.7783 -0.2535  0.5415
 5585SOL    HW128217   3.825   0.791   9.100 -1.0004  1.3730 -0.7502
 5585SOL    HW228218   3.835   0.650   9.059 -1.6148 -0.1261  0.3327
 5586SOL     OW28219   2.063   3.034   8.033  0.7438  0.4517  0.2697
 5586SOL    HW128220   2.020   2.984   8.102 -0.4941  1.1184 -0.0176
 5586SOL    HW228221   1.987   3.048   7.977 -0.0927  1.9152  1.7625
 5587SOL     OW28222   1.340   3.062   3.178  0.5095 -0.4228 -0.0255
 5587SOL    HW128223   1.368   3.151   3.200 -1.0389  0.0742 -0.0629
 5587SOL    HW228224   1.424   3.015   3.175  1.4191  1.0360  2.1072
 5588SOL     OW28225   2.064   3.649   9.996  0.1914  0.0119 -0.4500
 5588SOL    HW128226   2.058   3.724  10.054  1.1580  0.9799 -1.6032
 5588SOL    HW228227   2.154   3.658   9.965  0.3255  2.9777  0.8564
 5589SOL     OW28228   1.639   4.108   5.010  0.2330  0.7351 -0.4778
 5589SOL    HW128229   1.726   4.123   5.047  0.3527  1.2663 -0.9646
 5589SOL    HW228230   1.651   4.149   4.924 -1.9134  0.5333 -0.8871
 5590SOL     OW28231   1.520   2.137   7.150 -0.2139  0.3169  0.2902
 5590SOL    HW128232   1.486   2.175   7.069  2.5309 -0.3580 -1.1886
 5590SOL    HW228233   1.605   2.110   7.116  0.9671  1.3973  2.3987
 5591SOL     OW28234   0.437   3.653   6.065  0.4279  0.6139  0.5243
 5591SOL    HW128235   0.427   3.737   6.110  1.2608  2.7936 -3.3737
 5591SOL    HW228236   0.493   3.669   5.989 -0.0060 -2.3205 -0.4319
 5592SOL     OW28237   3.570   0.960  10.224  0.1335  0.3518 -0.5525
 5592SOL    HW128238   3.627   0.923  10.155  0.2329  1.4192 -1.0372
 5592SOL    HW228239   3.637   1.011  10.269  1.9124 -1.1458 -1.4942
 5593SOL     OW28240   2.232   3.087   4.945  0.9134  0.6876 -0.3416
 5593SOL    HW128241   2.286   3.110   4.869 -0.7928 -2.1478 -2.3922
 5593SOL    HW228242   2.300   3.048   4.999 -0.5455  0.4444  1.3123
 5594SOL     OW28243   1.132   2.509   9.691  0.4083 -0.1559 -0.4792
 5594SOL    HW128244   1.170   2.519   9.778 -0.2962  1.7974 -0.3962
 5594SOL    HW228245   1.197   2.455   9.646 -0.4510  0.9951 -3.1116
 5595SOL     OW28246   3.219   3.372   0.242  0.6183  0.0159  0.1740
 5595SOL    HW128247   3.244   3.323   0.320  0.3326 -2.3662 -1.2159
 5595SOL    HW228248   3.187   3.301   0.187 -1.3334  1.6101 -0.7678
 5596SOL     OW28249   1.410   2.855   2.519 -0.3613  0.2226  0.3410
 5596SOL    HW128250   1.338   2.879   2.462 -0.5807 -1.2141  0.0154
 5596SOL    HW228251   1.441   2.944   2.536  0.1794 -0.0981  1.0842
 5597SOL     OW28252   1.658   2.846   6.886  0.2820 -0.1779 -0.1141
 5597SOL    HW128253   1.693   2.920   6.936 -1.0707  0.1024  0.4101
 5597SOL    HW228254   1.721   2.834   6.815 -1.1045  0.8580 -1.5349
 5598SOL     OW28255   2.109   0.699   6.204  0.0244 -0.0528  0.3150
 5598SOL    HW128256   2.167   0.683   6.277  0.0023  3.2447  1.0895
 5598SOL    HW228257   2.153   0.773   6.162 -0.5430  1.3883  2.2468
 5599SOL     OW28258   0.173   1.889   5.023 -0.8688 -0.1087  0.4524
 5599SOL    HW128259   0.088   1.904   5.065 -1.4098  2.4039 -1.5473
 5599SOL    HW228260   0.171   1.975   4.980  1.7863 -0.3979 -0.2319
 5600SOL     OW28261   4.097   0.296  13.988 -0.3163 -0.0621  0.0958
 5600SOL    HW128262   4.137   0.220  14.029 -1.2898 -0.0249  1.1211
 5600SOL    HW228263   4.004   0.283  14.007 -0.9498  1.6395 -1.7674
 5601SOL     OW28264   2.140   3.027  17.249  0.3146  0.2635  0.2029
 5601SOL    HW128265   2.092   3.094  17.298 -0.0470 -0.3778  0.7298
 5601SOL    HW228266   2.170   2.974  17.322 -0.3377 -0.8642 -0.3440
 5602SOL     OW28267   4.716   4.429   4.421 -0.5238 -0.3804  0.2804
 5602SOL    HW128268   0.042   4.376   4.360  1.2367 -0.1739  1.5533
 5602SOL    HW228269   0.061   4.491   4.443 -1.6730  0.7148  0.8500
 5603SOL     OW28270   3.238   3.210   4.074  0.4030  0.3567 -0.0875
 5603SOL    HW128271   3.262   3.118   4.089 -1.5950 -0.8152 -4.3026
 5603SOL    HW228272   3.324   3.251   4.082 -0.0671  1.5117 -1.1117
 5604SOL     OW28273   1.514   2.480   6.867 -0.0152  0.4629  0.1452
 5604SOL    HW128274   1.467   2.554   6.905 -1.6220 -0.4883 -0.0137
 5604SOL    HW228275   1.513   2.510   6.776 -0.4003  0.2208  0.0701
 5605SOL     OW28276   4.213   4.668   7.983 -0.1677  0.1351  0.6874
 5605SOL    HW128277   4.173   0.028   7.962  3.3353  2.0335  1.5537
 5605SOL    HW228278   4.233   4.686   8.075  1.3014  1.2895  0.1311
 5606SOL     OW28279   0.061   0.770   2.601 -0.0939 -0.1128  0.4244
 5606SOL    HW128280   0.013   0.730   2.674 -1.8126 -0.1781 -0.7396
 5606SOL    HW228281   0.037   0.717   2.525 -1.8317  2.0478 -0.5315
 5607SOL     OW28282   1.051   3.121   9.678  0.5585 -0.0529  0.5591
 5607SOL    HW128283   0.972   3.148   9.633 -0.6842 -1.0409  2.1563
 5607SOL    HW228284   1.018   3.102   9.766  1.0005  1.1575  0.9902
 5608SOL     OW28285   4.380   1.529   3.626 -0.0322 -0.2003  0.3536
 5608SOL    HW128286   4.361   1.571   3.542  0.8787  0.1747  0.3420
 5608SOL    HW228287   4.388   1.600   3.690  1.9550  0.4660 -0.6416
 5609SOL     OW28288   4.670   1.539   9.479 -0.4846 -0.2548 -0.2975
 5609SOL    HW128289   0.019   1.554   9.419 -2.4469  2.0913 -2.1022
 5609SOL    HW228290   4.696   1.461   9.528 -1.1540 -1.8880 -2.5080
 5610SOL     OW28291   0.232   3.597   5.838 -0.2876  0.0524 -0.2419
 5610SOL    HW128292   0.298   3.551   5.890  1.7576  0.7141 -2.2430
 5610SOL    HW228293   0.290   3.654   5.788  0.6655  0.9806  1.9535
 5611SOL     OW28294   2.130   2.266   2.643  0.2448 -0.2406  0.0218
 5611SOL    HW128295   2.204   2.308   2.598  0.6623  0.7152  1.5800
 5611SOL    HW228296   2.123   2.315   2.726 -0.1164  1.2708 -0.9062
 5612SOL     OW28297   0.593   0.736   8.290  0.3120  0.3003  0.3066
 5612SOL    HW128298   0.550   0.685   8.359 -1.2396  0.7054 -0.3482
 5612SOL    HW228299   0.684   0.723   8.314  0.2931  2.1117  1.3249
 5613SOL     OW28300   4.016   1.965   8.656 -0.0218  0.1886 -0.3263
 5613SOL    HW128301   4.088   2.017   8.622  2.0751 -2.6673 -0.2762
 5613SOL    HW228302   3.974   1.930   8.577  3.6385 -2.3844 -1.1494
 5614SOL     OW28303   2.431   4.427  17.667 -0.2109  0.3555  0.2208
 5614SOL    HW128304   2.345   4.465  17.690  0.7326  0.5408  3.4065
 5614SOL    HW228305   2.407   4.336  17.652 -1.8139  0.5107  1.8013
 5615SOL     OW28306   3.250   0.045   2.722  0.5615  0.1146  0.1810
 5615SOL    HW128307   3.206   0.109   2.667  1.3234  0.1486 -0.3957
 5615SOL    HW228308   3.342   0.057   2.698 -0.1448  0.0462 -2.5658
 5616SOL     OW28309   1.044   4.517   1.008  0.0832 -0.0106  0.1819
 5616SOL    HW128310   1.138   4.522   0.991 -0.3894 -1.6730 -3.1035
 5616SOL    HW228311   1.021   4.429   0.978  0.9641  0.2518 -1.3046
 5617SOL     OW28312   1.361   2.453   8.047  0.0887  0.6400  0.5723
 5617SOL    HW128313   1.402   2.377   8.006  1.2418  1.7825 -0.4106
 5617SOL    HW228314   1.408   2.523   8.001 -2.0282  2.1771  0.7125
 5618SOL     OW28315   0.359   4.531   5.526 -0.4250 -0.0933  0.4549
 5618SOL    HW128316   0.415   4.455   5.542 -2.6338 -1.3342  2.2905
 5618SOL    HW228317   0.306   4.528   5.606  0.3866 -1.0936  0.9457
 5619SOL     OW28318   1.598   3.705   8.240  0.4834  0.1859 -0.2830
 5619SOL    HW128319   1.645   3.772   8.190  1.4107 -2.2335 -2.6304
 5619SOL    HW228320   1.663   3.636   8.254 -0.2139 -0.1787  1.1642
 5620SOL     OW28321   1.971   3.208  10.878  0.2826  0.0995  0.4840
 5620SOL    HW128322   1.881   3.236  10.862  0.5028 -0.4622 -1.6366
 5620SOL    HW228323   2.018   3.262  10.815  2.0544 -1.4894  0.4657
 5621SOL     OW28324   2.007   4.446  14.294  0.1218  0.0515 -0.3999
 5621SOL    HW128325   2.100   4.469  14.294 -0.2092  1.3790 -2.2647
 5621SOL    HW228326   1.979   4.476  14.208  0.2398 -1.6780 -1.0508
 5622SOL     OW28327   4.300   3.797   4.049 -0.3583  0.5831  0.1977
 5622SOL    HW128328   4.215   3.770   4.012  0.2296  0.3889 -1.0112
 5622SOL    HW228329   4.356   3.788   3.972 -1.8545 -0.1017 -0.8185
 5623SOL     OW28330   3.802   3.288   3.308 -0.7072  0.2939 -0.4479
 5623SOL    HW128331   3.746   3.338   3.248 -1.4383 -0.1578 -0.1498
 5623SOL    HW228332   3.765   3.201   3.293 -1.6544  0.3637  1.4018
 5624SOL     OW28333   1.045   1.512  11.964 -0.5529 -0.3495  0.0170
 5624SOL    HW128334   1.055   1.571  12.039 -1.3186 -0.2274  0.0186
 5624SOL    HW228335   1.131   1.537  11.928 -0.0855 -1.8115  0.1145
 5625SOL     OW28336   3.344   3.753  13.176  0.3184  0.0029  0.1847
 5625SOL    HW128337   3.424   3.744  13.229  0.8703 -0.4154 -0.7225
 5625SOL    HW228338   3.380   3.793  13.097  2.1837 -2.1076 -0.0702
 5626SOL     OW28339   3.985   0.839  17.087  0.1151  0.3827 -0.1719
 5626SOL    HW128340   4.001   0.777  17.158 -1.2858  0.6083  0.3495
 5626SOL    HW228341   3.891   0.855  17.098 -0.2753 -1.6561 -0.5879
 5627SOL     OW28342   0.927   0.520   0.521  0.8106  0.2183 -0.7669
 5627SOL    HW128343   0.846   0.515   0.471  0.7438  1.6651 -0.8143
 5627SOL    HW228344   0.928   0.605   0.566 -0.8826  0.0942 -0.5082
 5628SOL     OW28345   4.711   4.673  16.308 -0.3756 -0.4355  0.5218
 5628SOL    HW128346   4.615   4.667  16.303 -0.5496  2.7798  0.3052
 5628SOL    HW228347   0.016   4.614  16.377  1.0178 -0.6680 -0.2701
 5629SOL     OW28348   1.279   4.505  12.267  1.1336 -0.0454  0.3658
 5629SOL    HW128349   1.224   4.428  12.279 -1.1619  1.0780 -2.9001
 5629SOL    HW228350   1.299   4.529  12.357 -0.2615  0.5886  0.5017
 5630SOL     OW28351   4.612   2.720   8.258 -0.4338 -0.1766  0.3551
 5630SOL    HW128352   4.674   2.652   8.285  0.9962  0.8312 -0.3831
 5630SOL    HW228353   4.541   2.665   8.226  1.0625 -3.0013  1.9332
 5631SOL     OW28354   3.529   2.498   8.616 -0.0553 -0.1016  0.2682
 5631SOL    HW128355   3.563   2.573   8.566 -1.6541  0.1672 -0.3935
 5631SOL    HW228356   3.578   2.513   8.697  1.7212 -1.1397 -0.6169
 5632SOL     OW28357   0.426   3.737  10.183 -0.1357 -0.1080 -0.0518
 5632SOL    HW128358   0.497   3.741  10.247 -2.2367 -0.1414  2.2691
 5632SOL    HW228359   0.393   3.648  10.196  2.7602 -1.2852 -0.8143
 5633SOL     OW28360   1.323   3.454   3.189 -0.1141 -0.0593  0.1211
 5633SOL    HW128361   1.416   3.457   3.211  0.4574  2.0363 -2.5899
 5633SOL    HW228362   1.296   3.421   3.274  1.6907 -0.4743  0.5371
 5634SOL     OW28363   2.369   0.643   3.667  0.1079  0.4961  0.4092
 5634SOL    HW128364   2.384   0.635   3.762 -1.1369 -4.1620  0.2339
 5634SOL    HW228365   2.303   0.573   3.666  0.7829 -0.0900 -2.2509
 5635SOL     OW28366   4.651   0.835   3.942  0.0364  0.4608 -0.6808
 5635SOL    HW128367   0.021   0.846   3.928  0.0909  3.8782  2.2063
 5635SOL    HW228368   4.624   0.918   3.982 -1.0565 -0.2918  0.1403
 5636SOL     OW28369   4.058   1.502   0.947 -0.1664 -0.8274  0.4146
 5636SOL    HW128370   4.152   1.517   0.961  0.2028 -2.5701 -0.3056
 5636SOL    HW228371   4.068   1.452   0.866 -1.6405  0.7264 -0.7296
 5637SOL     OW28372   1.591   1.627   8.963 -0.2418 -0.0446 -0.0433
 5637SOL    HW128373   1.546   1.648   8.881  1.8699  1.7910 -0.7262
 5637SOL    HW228374   1.629   1.707   8.999 -0.2711 -0.2026  0.3398
 5638SOL     OW28375   4.602   2.498   4.849  0.6003  0.3149  0.3638
 5638SOL    HW128376   4.599   2.478   4.755  0.9082 -0.8496  0.6012
 5638SOL    HW228377   4.549   2.577   4.861  0.5688  0.1847  1.0605
 5639SOL     OW28378   1.326   0.972  11.765 -0.2312  0.2240 -0.3081
 5639SOL    HW128379   1.322   1.045  11.702  1.9077 -0.7053 -1.5227
 5639SOL    HW228380   1.337   1.019  11.848  1.2577 -3.5054  1.6057
 5640SOL     OW28381   4.675   2.572   4.278  0.5628 -0.5956  0.2222
 5640SOL    HW128382   4.708   2.509   4.342 -0.2016 -0.7152  0.4899
 5640SOL    HW228383   0.016   2.640   4.297  0.0432  0.4892 -1.8549
 5641SOL     OW28384   0.913   0.512   9.144  0.3541  0.5816  0.1818
 5641SOL    HW128385   0.994   0.489   9.099 -0.2309 -0.2925 -0.4241
 5641SOL    HW228386   0.857   0.437   9.123 -0.7246  1.4812 -0.1386
 5642SOL     OW28387   1.966   0.587   1.205  0.7249 -0.1177 -0.4986
 5642SOL    HW128388   2.014   0.663   1.171 -1.9191  1.6680 -0.2036
 5642SOL    HW228389   2.014   0.511   1.172  2.1020  0.9384 -0.9214
 5643SOL     OW28390   1.844   2.012   4.662  0.2138 -0.0644  0.3803
 5643SOL    HW128391   1.877   2.093   4.700 -0.1289 -0.9735  2.6304
 5643SOL    HW228392   1.758   2.051   4.644 -0.1968 -1.1504 -0.0247
 5644SOL     OW28393   2.104   2.369   3.985 -0.1631 -0.5436  0.4295
 5644SOL    HW128394   2.150   2.295   3.945  0.6650  0.3792 -0.3191
 5644SOL    HW228395   2.051   2.332   4.056 -0.1891 -2.6769 -0.6860
 5645SOL     OW28396   2.810   2.863   6.248  0.5333 -0.2804 -0.0176
 5645SOL    HW128397   2.899   2.827   6.254  0.3259 -0.5293  1.4892
 5645SOL    HW228398   2.817   2.922   6.173  0.0185 -1.5241 -1.0341
 5646SOL     OW28399   1.454   3.420   9.093 -0.4904 -0.5043 -0.5032
 5646SOL    HW128400   1.540   3.438   9.132 -0.1285  0.1771 -1.6289
 5646SOL    HW228401   1.420   3.509   9.095  0.5691 -0.1332  0.8084
 5647SOL     OW28402   3.961   4.202   4.156 -0.6163 -0.1616  0.3389
 5647SOL    HW128403   3.903   4.250   4.215 -3.5213 -4.1111  0.6496
 5647SOL    HW228404   3.897   4.161   4.097 -0.1002  3.3150 -2.6719
 5648SOL     OW28405   4.704   1.545   6.598  0.5399 -0.0513  0.0327
 5648SOL    HW128406   0.012   1.597   6.524 -0.0183 -1.5248 -1.2244
 5648SOL    HW228407   0.032   1.592   6.664  1.3464  1.8852 -1.9677
 5649SOL     OW28408   1.090   1.913   4.709 -1.0117 -0.0887 -0.4903
 5649SOL    HW128409   1.085   1.888   4.617  0.7537  3.1392 -1.4807
 5649SOL    HW228410   1.031   1.845   4.740  1.6861 -1.2630  1.9652
 5650SOL     OW28411   2.953   0.834   2.041 -0.0518  0.2049  0.0536
 5650SOL    HW128412   2.874   0.887   2.032 -1.0448 -1.2443  0.2165
 5650SOL    HW228413   2.927   0.750   2.003  0.3146  0.2787 -0.3675
 5651SOL     OW28414   4.578   0.955   6.926  0.4665 -0.6939  0.2413
 5651SOL    HW128415   4.661   0.949   6.972  0.9986 -1.9870 -0.8999
 5651SOL    HW228416   4.581   1.032   6.870 -7.0814  1.3975  2.7206
 5652SOL     OW28417   0.383   3.822  11.369 -0.5847  0.2975 -0.7466
 5652SOL    HW128418   0.479   3.821  11.368 -0.5513  1.3589  1.4070
 5652SOL    HW228419   0.369   3.754  11.434  0.5805 -1.5169 -2.4037
 5653SOL     OW28420   0.522   0.314  15.252  0.3555 -0.1114  0.6243
 5653SOL    HW128421   0.447   0.374  15.254  0.1175 -0.4113  0.7648
 5653SOL    HW228422   0.498   0.252  15.321  1.3286 -0.3463  0.7461
 5654SOL     OW28423   4.346   1.135   7.714 -0.1903 -0.0797 -0.1034
 5654SOL    HW128424   4.252   1.151   7.721 -0.1477  0.5901 -1.1268
 5654SOL    HW228425   4.355   1.040   7.705 -1.9178 -0.2569  0.0008
 5655SOL     OW28426   2.583   0.220   2.311  0.8933  0.1881 -0.1396
 5655SOL    HW128427   2.647   0.150   2.321 -0.7598 -1.5048 -1.2600
 5655SOL    HW228428   2.573   0.211   2.216  0.3218  0.2704 -0.0874
 5656SOL     OW28429   2.580   1.256   3.617 -0.3346  0.2815 -0.2337
 5656SOL    HW128430   2.640   1.323   3.652 -0.5538  1.1248 -1.4679
 5656SOL    HW228431   2.640   1.217   3.553 -1.5214 -1.3836 -0.3370
 5657SOL     OW28432   0.804   1.254   8.652  0.3321  0.1995  0.0023
 5657SOL    HW128433   0.777   1.162   8.645 -2.0357  0.8039  1.3722
 5657SOL    HW228434   0.797   1.278   8.559  0.2899  1.9392  0.4649
 5658SOL     OW28435   4.409   0.797   6.750 -0.1421 -0.4068  0.4697
 5658SOL    HW128436   4.494   0.768   6.716 -0.1766  0.3331 -0.2491
 5658SOL    HW228437   4.443   0.866   6.807 -3.5605  1.5424  0.1925
 5659SOL     OW28438   4.430   3.578   3.239  0.0304 -1.0692 -0.0835
 5659SOL    HW128439   4.518   3.541   3.235  0.6963  0.6422 -1.4987
 5659SOL    HW228440   4.387   3.493   3.252  1.5715 -1.3939  2.7496
 5660SOL     OW28441   4.578   0.080  14.833  0.1504  0.3791  0.2058
 5660SOL    HW128442   4.487   0.069  14.864 -0.2208 -1.2746 -1.4686
 5660SOL    HW228443   4.607   4.713  14.822  0.4038  0.2442  2.0144
 5661SOL     OW28444   0.871   0.788  14.378 -0.0161 -0.4317  0.0592
 5661SOL    HW128445   0.872   0.776  14.283 -2.0487 -1.2578  0.1495
 5661SOL    HW228446   0.951   0.742  14.402  0.3134  0.5936  0.9031
 5662SOL     OW28447   4.005   0.651  15.381 -0.2365 -0.1921  0.0734
 5662SOL    HW128448   3.938   0.717  15.363  0.4441  0.4915  0.0718
 5662SOL    HW228449   3.955   0.572  15.399  1.3797 -1.1861  0.2295
 5663SOL     OW28450   1.971   4.477  15.418  0.2577  0.0186 -0.0763
 5663SOL    HW128451   2.021   4.416  15.473  0.1735 -0.7972 -0.9063
 5663SOL    HW228452   1.960   4.539  15.490 -0.7352 -1.2479  0.8638
 5664SOL     OW28453   3.186   1.241   6.449  0.2562  0.1511  0.4060
 5664SOL    HW128454   3.196   1.219   6.542 -1.4929 -1.5170  0.2084
 5664SOL    HW228455   3.268   1.218   6.405  0.2565  1.0099 -0.0278
 5665SOL     OW28456   0.726   2.133   4.039  0.4495  0.8109  0.3786
 5665SOL    HW128457   0.734   2.041   4.012  0.5686  0.4673  1.5894
 5665SOL    HW228458   0.670   2.157   3.965  1.0980 -3.2643 -1.4517
 5666SOL     OW28459   4.219   1.076   7.353  0.2112  0.3025  0.0083
 5666SOL    HW128460   4.286   1.073   7.284  0.3815 -0.8326  0.2290
 5666SOL    HW228461   4.176   0.991   7.344  0.8307 -0.1297  1.0425
 5667SOL     OW28462   2.068   0.135   5.399 -0.3256  0.6106  0.1211
 5667SOL    HW128463   1.974   0.151   5.394 -0.4479  0.7908  2.7417
 5667SOL    HW228464   2.093   0.208   5.456 -0.3181  1.1988 -0.6520
 5668SOL     OW28465   4.484   2.790  10.393 -0.0129  0.1933 -0.3025
 5668SOL    HW128466   4.565   2.838  10.377  0.1892  0.9223  2.8390
 5668SOL    HW228467   4.412   2.850  10.375  2.3934  3.7128  1.7514
 5669SOL     OW28468   4.406   4.382  12.535 -0.2377 -0.3559  0.7393
 5669SOL    HW128469   4.433   4.313  12.596  1.1762 -1.1286 -0.7771
 5669SOL    HW228470   4.477   4.446  12.544  0.4582 -1.0194  0.0049
 5670SOL     OW28471   2.503   1.218   4.982 -0.0256 -0.0910  0.0199
 5670SOL    HW128472   2.570   1.285   4.995 -0.9626  1.1732 -1.6634
 5670SOL    HW228473   2.434   1.252   5.039  0.3512  0.2232  0.2922
 5671SOL     OW28474   4.427   3.717  11.411  0.0582  0.2150 -1.1900
 5671SOL    HW128475   4.397   3.653  11.476 -0.3791  1.2387 -0.3927
 5671SOL    HW228476   4.435   3.800  11.458 -0.9983 -1.8473  2.6223
 5672SOL     OW28477   2.032   0.086  14.032  0.2220  0.4592 -0.2568
 5672SOL    HW128478   2.060   0.171  14.067 -3.4982  1.2058  0.9380
 5672SOL    HW228479   2.120   0.051  14.018  0.3434  0.0405  1.5326
 5673SOL     OW28480   2.159   4.298  14.003 -0.2656  0.0355  0.0293
 5673SOL    HW128481   2.148   4.392  14.012 -2.4335 -0.4238  2.1149
 5673SOL    HW228482   2.223   4.286  14.073  1.1898 -0.8639 -1.4256
 5674SOL     OW28483   0.095   2.393  15.831 -0.3830 -0.0684  0.4589
 5674SOL    HW128484   0.174   2.403  15.886 -0.7152 -0.8756  1.0863
 5674SOL    HW228485   0.108   2.303  15.799  2.7219  0.0930  1.2236
 5675SOL     OW28486   3.906   3.576   6.940  0.1952  0.0001  0.2833
 5675SOL    HW128487   3.945   3.542   6.860 -0.4995  0.2932 -0.1870
 5675SOL    HW228488   3.953   3.531   7.009  0.9849  1.4801  0.7110
 5676SOL     OW28489   1.441   0.438   1.951 -0.1907  0.6114 -0.0993
 5676SOL    HW128490   1.429   0.508   2.015 -1.8503  1.0762 -0.9103
 5676SOL    HW228491   1.363   0.460   1.899  0.5589  1.8031 -0.7070
 5677SOL     OW28492   1.366   1.511   2.430  0.1850 -0.0990  0.0629
 5677SOL    HW128493   1.324   1.520   2.345 -0.3236 -1.0477  0.2142
 5677SOL    HW228494   1.291   1.505   2.489  1.0055 -1.3082  0.9926
 5678SOL     OW28495   2.696   0.621  17.335  0.3901  0.1114  0.5885
 5678SOL    HW128496   2.606   0.604  17.306  0.4299  1.6814 -0.4179
 5678SOL    HW228497   2.740   0.629  17.251 -2.8122 -1.1647 -1.2010
 5679SOL     OW28498   1.981   2.416  12.317 -0.0900 -0.6480 -0.1312
 5679SOL    HW128499   2.045   2.390  12.251 -0.8702  0.3529 -1.2869
 5679SOL    HW228500   1.897   2.385  12.281 -1.6152  1.8195  1.2758
 5680SOL     OW28501   0.696   1.681   4.256  0.1695  0.3080 -0.1859
 5680SOL    HW128502   0.689   1.679   4.351  1.5806  0.4228 -0.0764
 5680SOL    HW228503   0.660   1.595   4.234  0.4792  0.6155 -1.9312
 5681SOL     OW28504   2.944   0.140   0.191 -0.6431  0.0822  0.2955
 5681SOL    HW128505   3.029   0.159   0.229 -0.4078 -0.8579  0.2459
 5681SOL    HW228506   2.973   0.053   0.162  0.9633  1.0261 -0.9186
 5682SOL     OW28507   0.903   2.915   3.408 -0.1153  0.1250 -0.1432
 5682SOL    HW128508   0.886   2.933   3.501  0.8604  0.3013  0.0062
 5682SOL    HW228509   0.978   2.973   3.389  2.1342 -2.3787  1.0674
 5683SOL     OW28510   1.719   2.251   7.541 -0.7475  0.1599 -0.1577
 5683SOL    HW128511   1.688   2.325   7.593  0.4326  0.4382  0.1451
 5683SOL    HW228512   1.793   2.226   7.597 -2.0691 -0.6333  1.2350
 5684SOL     OW28513   2.266   1.653   6.136  0.3135  0.0183  0.6492
 5684SOL    HW128514   2.231   1.626   6.221  0.7683 -2.9535 -0.0879
 5684SOL    HW228515   2.230   1.741   6.145 -1.9498 -0.7676 -0.6183
 5685SOL     OW28516   0.375   3.317   2.027 -0.1000 -0.2524  0.2455
 5685SOL    HW128517   0.364   3.402   2.069  0.3742  0.5702 -1.3184
 5685SOL    HW228518   0.365   3.262   2.105  0.5324 -0.3939  0.2218
 5686SOL     OW28519   1.173   2.311   8.977  0.4261 -0.0455 -0.1826
 5686SOL    HW128520   1.103   2.251   8.953 -1.3871  1.5070  1.2223
 5686SOL    HW228521   1.131   2.385   9.021 -1.1877 -1.4629  0.6405
 5687SOL     OW28522   3.293   0.941   7.027  0.4730 -0.7281 -0.4933
 5687SOL    HW128523   3.264   0.857   6.992 -1.2289 -0.3023 -0.0899
 5687SOL    HW228524   3.350   0.946   6.951 -2.1608 -1.7342 -2.5059
 5688SOL     OW28525   2.787   1.739   7.118 -0.2047  0.1163  0.9322
 5688SOL    HW128526   2.830   1.654   7.123 -0.3627  0.0627  1.3992
 5688SOL    HW228527   2.704   1.703   7.150 -0.9836  0.7079 -0.4185
 5689SOL     OW28528   4.034   3.251  12.947 -0.0637  0.4106 -0.6334
 5689SOL    HW128529   4.024   3.197  13.025 -2.5383  1.8872  0.0509
 5689SOL    HW228530   4.061   3.177  12.893  0.0181 -0.3431  0.4478
 5690SOL     OW28531   3.897   4.205  13.527 -0.1071 -0.7385 -0.3174
 5690SOL    HW128532   3.809   4.181  13.497  0.4537 -1.9322 -1.0113
 5690SOL    HW228533   3.864   4.272  13.587 -0.5991 -2.2999  1.1638
 5691SOL     OW28534   1.198   2.981  14.532  0.7404  0.1590 -0.0529
 5691SOL    HW128535   1.222   3.024  14.614 -0.6105 -1.2682  1.0657
 5691SOL    HW228536   1.112   2.943  14.549 -0.7171  2.6630 -1.7933
 5692SOL     OW28537   0.119   0.904  11.880  0.2468  0.2229  0.4584
 5692SOL    HW128538   0.054   0.954  11.928  0.9181 -0.6822  2.2952
 5692SOL    HW228539   0.182   0.872  11.944  1.4010  1.8582  0.1430
 5693SOL     OW28540   4.340   3.214   7.439 -0.2716 -0.2641 -0.4068
 5693SOL    HW128541   4.247   3.210   7.417 -0.5417 -0.8813  0.8557
 5693SOL    HW228542   4.342   3.136   7.494 -0.2104  0.4238  0.5684
 5694SOL     OW28543   3.784   1.202   9.282 -0.3294 -0.1838 -0.0127
 5694SOL    HW128544   3.856   1.153   9.321  1.0649  1.7630 -0.0753
 5694SOL    HW228545   3.706   1.152   9.304 -0.5816  1.1442  2.1022
 5695SOL     OW28546   4.466   4.168   7.575  0.1317  0.4520  0.0129
 5695SOL    HW128547   4.459   4.074   7.557  0.1992  0.3442  0.5481
 5695SOL    HW228548   4.422   4.173   7.660  0.0790 -2.3004  0.1725
 5696SOL     OW28549   4.040   1.777   2.647  0.3482 -0.0311  0.5329
 5696SOL    HW128550   3.975   1.846   2.658  0.6450  0.3797 -0.3203
 5696SOL    HW228551   4.036   1.744   2.737 -0.7494 -0.5247  0.2987
 5697SOL     OW28552   2.817   1.980   0.354 -0.4829 -0.5497 -0.6580
 5697SOL    HW128553   2.905   1.950   0.330  0.5350  2.1432 -0.2479
 5697SOL    HW228554   2.809   2.068   0.318 -1.2094 -0.2566  0.2201
 5698SOL     OW28555   0.890   3.226   1.423  0.9555 -0.2114  0.8617
 5698SOL    HW128556   0.833   3.273   1.363  2.1573 -1.0184 -0.8895
 5698SOL    HW228557   0.827   3.173   1.473 -1.7585  1.6084 -0.6580
 5699SOL     OW28558   0.272   1.378   3.297  0.1366  0.0596 -0.0397
 5699SOL    HW128559   0.365   1.358   3.283  0.3018 -0.1022  1.2996
 5699SOL    HW228560   0.279   1.468   3.329 -0.2296 -0.0410  0.3328
 5700SOL     OW28561   0.424   2.053   5.160 -0.5007  0.0291 -0.2661
 5700SOL    HW128562   0.397   2.140   5.130 -0.0235  0.3575  0.2489
 5700SOL    HW228563   0.498   2.080   5.214 -0.7756  0.9246 -0.3206
 5701SOL     OW28564   4.157   1.433   0.316  0.4373 -0.0630 -0.9777
 5701SOL    HW128565   4.096   1.386   0.259 -0.7909 -1.7217  1.7129
 5701SOL    HW228566   4.157   1.520   0.275  0.3360  0.6357  0.5017
 5702SOL     OW28567   2.805   4.507   2.921 -0.3784  0.1342  0.1249
 5702SOL    HW128568   2.850   4.580   2.879  2.3917 -2.4908 -1.4525
 5702SOL    HW228569   2.836   4.520   3.011 -0.9755  1.0024  0.2074
 5703SOL     OW28570   3.148   0.690   1.683  0.0742  0.2007 -0.4598
 5703SOL    HW128571   3.118   0.663   1.770  1.1336  0.8437  0.1168
 5703SOL    HW228572   3.235   0.651   1.694  0.4831  1.0028 -0.8181
 5704SOL     OW28573   3.933   3.104   5.572 -0.3604  0.6243  0.2012
 5704SOL    HW128574   4.010   3.048   5.577 -1.8620 -1.5172 -0.8187
 5704SOL    HW228575   3.952   3.180   5.517  3.3736  0.1712  0.8861
 5705SOL     OW28576   1.599   2.650  12.872 -0.1537 -0.2124 -0.3248
 5705SOL    HW128577   1.673   2.662  12.813  2.0293 -0.3827  2.3760
 5705SOL    HW228578   1.602   2.731  12.922 -1.6925 -0.2762 -0.1261
 5706SOL     OW28579   2.476   0.352   6.335 -0.3603 -0.1406 -0.2734
 5706SOL    HW128580   2.478   0.364   6.240  1.6089  1.1997 -0.0587
 5706SOL    HW228581   2.463   0.443   6.363 -2.6896 -1.0042  1.4381
 5707SOL     OW28582   3.507   4.307  11.871 -0.2006  0.3674  0.1455
 5707SOL    HW128583   3.456   4.317  11.791  1.4823 -2.7565 -1.3035
 5707SOL    HW228584   3.568   4.379  11.854  0.1968 -0.1971 -0.8034
 5708SOL     OW28585   3.988   1.191   4.174 -0.5368 -0.0016  0.0166
 5708SOL    HW128586   3.951   1.239   4.249  2.3482 -0.9850  2.0928
 5708SOL    HW228587   3.940   1.109   4.169 -1.4458  0.5161  0.3519
 5709SOL     OW28588   2.811   3.647   6.801  0.1038 -0.0072  0.1908
 5709SOL    HW128589   2.833   3.660   6.709 -0.6964  1.9514  0.2756
 5709SOL    HW228590   2.772   3.561   6.788  3.4854 -1.1204 -2.6457
 5710SOL     OW28591   1.467   4.113   4.249  0.5503  0.4178  0.2463
 5710SOL    HW128592   1.559   4.136   4.241  0.3422  2.0667  2.7662
 5710SOL    HW228593   1.472   4.044   4.315  2.2977 -1.1242 -1.4940
 5711SOL     OW28594   0.381   3.169   0.512  0.4326  0.5083 -0.0515
 5711SOL    HW128595   0.453   3.111   0.538 -0.2169 -0.0946  0.4330
 5711SOL    HW228596   0.307   3.108   0.524  1.1390 -0.2083  0.7036
 5712SOL     OW28597   4.037   3.204  13.324 -0.3905 -0.4727 -0.1510
 5712SOL    HW128598   4.114   3.228  13.273  0.3306 -0.0072  1.1354
 5712SOL    HW228599   4.066   3.120  13.360 -0.1194  0.7882  2.5776
 5713SOL     OW28600   0.022   3.227   4.153 -0.7682 -0.2834  0.0870
 5713SOL    HW128601   4.672   3.251   4.097 -0.8652 -0.0272  0.3251
 5713SOL    HW228602   0.060   3.314   4.161  1.0881 -1.2751  2.1250
 5714SOL     OW28603   3.811   4.545   2.365  0.2110  0.2301  0.3913
 5714SOL    HW128604   3.859   4.589   2.435 -0.8521  2.2014 -0.1293
 5714SOL    HW228605   3.871   4.579   2.298  0.8579 -3.3118 -0.8651
 5715SOL     OW28606   1.438   4.131   8.214 -0.2229  0.3518  0.0718
 5715SOL    HW128607   1.471   4.125   8.124  0.2844 -0.4265  0.3087
 5715SOL    HW228608   1.380   4.054   8.215 -1.4238  1.2666  0.3750
 5716SOL     OW28609   4.438   1.318   2.958  0.6469 -0.2369 -0.8829
 5716SOL    HW128610   4.355   1.363   2.976  0.8874 -0.3267  0.4197
 5716SOL    HW228611   4.411   1.227   2.947  2.5152 -0.7811 -1.0259
 5717SOL     OW28612   4.701   2.680   3.199 -0.8883  0.5405 -0.3941
 5717SOL    HW128613   4.613   2.683   3.236 -1.2140  1.2034 -1.2161
 5717SOL    HW228614   4.684   2.718   3.112 -0.0515  0.9566 -0.3811
 5718SOL     OW28615   4.032   0.884   7.051 -0.1238 -0.6134 -0.5538
 5718SOL    HW128616   3.953   0.928   7.018 -0.2987 -0.8529 -0.4572
 5718SOL    HW228617   4.067   0.817   6.992 -0.3927 -1.3127  0.0912
 5719SOL     OW28618   4.689   2.137   3.540 -0.2334  0.0361  0.1566
 5719SOL    HW128619   0.054   2.173   3.535 -0.9888  1.8301 -0.3593
 5719SOL    HW228620   4.706   2.043   3.546  0.7448 -0.0250 -3.6228
 5720SOL     OW28621   3.631   2.360  12.459 -0.0861 -0.0624  0.0427
 5720SOL    HW128622   3.585   2.281  12.430 -0.2193  0.2006 -0.4742
 5720SOL    HW228623   3.553   2.415  12.464  0.5210  0.9356 -1.4858
 5721SOL     OW28624   1.938   3.202   3.470  0.4698 -0.0034 -0.0493
 5721SOL    HW128625   1.933   3.243   3.383 -2.7568 -2.0137 -0.8586
 5721SOL    HW228626   2.024   3.230   3.499  0.3889 -0.8120  0.9393
 5722SOL     OW28627   2.423   2.675  15.467 -0.0788 -0.3660  0.2331
 5722SOL    HW128628   2.405   2.652  15.559  0.2427 -1.3322  0.0546
 5722SOL    HW228629   2.501   2.729  15.478  0.0301 -0.8646  1.9754
 5723SOL     OW28630   4.670   4.036  14.067  0.2933  0.5279  0.1648
 5723SOL    HW128631   0.016   4.085  14.110 -0.9673  1.1209  1.5346
 5723SOL    HW228632   4.673   4.083  13.984  2.2072 -0.5063 -0.3694
 5724SOL     OW28633   2.835   1.307  17.599 -0.2422  1.0143 -0.1088
 5724SOL    HW128634   2.751   1.328  17.558  0.4316  1.4161 -1.2795
 5724SOL    HW228635   2.848   1.224  17.552 -1.8078  0.4854  0.3760
 5725SOL     OW28636   1.362   1.857  14.951 -0.1185  0.0838 -0.4260
 5725SOL    HW128637   1.379   1.801  15.027 -0.7022 -0.7262 -0.8912
 5725SOL    HW228638   1.332   1.794  14.885  1.6277 -1.5443  0.3358
 5726SOL     OW28639   1.234   2.716   3.605  0.0253  0.1439  0.1296
 5726SOL    HW128640   1.287   2.704   3.526  0.8852  1.5104  0.4910
 5726SOL    HW228641   1.164   2.657   3.580 -0.5495  0.3041  1.3742
 5727SOL     OW28642   1.833   3.281  12.202  0.2253  0.4441 -0.0702
 5727SOL    HW128643   1.773   3.355  12.214  0.7088  1.1341 -1.9036
 5727SOL    HW228644   1.831   3.237  12.287 -1.4500 -0.6435 -0.6751
 5728SOL     OW28645   0.116   3.478   3.983 -0.2475  0.0455  0.4059
 5728SOL    HW128646   0.195   3.475   4.038  0.9069 -2.8794 -1.4504
 5728SOL    HW228647   0.138   3.413   3.917  1.4168  2.6191 -1.5640
 5729SOL     OW28648   3.977   0.531   3.514 -0.2578 -0.6824  0.2612
 5729SOL    HW128649   4.069   0.528   3.486 -0.5482 -0.2084 -0.7547
 5729SOL    HW228650   3.979   0.488   3.600  1.0950 -0.3021  0.4172
 5730SOL     OW28651   1.231   0.275   0.326 -0.1382 -0.3550  0.0822
 5730SOL    HW128652   1.234   0.197   0.270 -1.8913 -1.3039  1.2975
 5730SOL    HW228653   1.322   0.291   0.353 -0.1750  2.0910 -1.2433
 5731SOL     OW28654   3.500   0.679  10.388  0.2356  0.3408 -0.2319
 5731SOL    HW128655   3.511   0.769  10.356  1.7653 -0.2551 -1.3557
 5731SOL    HW228656   3.426   0.686  10.449  0.4494 -0.9919  0.1816
 5732SOL     OW28657   0.711   2.483   9.378  0.3787  0.1584  0.1281
 5732SOL    HW128658   0.771   2.482   9.453  0.9683 -1.5302 -0.3723
 5732SOL    HW228659   0.745   2.410   9.327  0.9706 -0.3833  1.2905
 5733SOL     OW28660   0.444   2.347  17.368  0.7616  0.1610 -0.0800
 5733SOL    HW128661   0.487   2.336  17.453  0.9061  1.7138  0.0497
 5733SOL    HW228662   0.517   2.342  17.306  2.1678  0.2878  1.5615
 5734SOL     OW28663   2.229   1.815   3.209  1.0390 -0.4467 -0.9615
 5734SOL    HW128664   2.262   1.902   3.228  0.1675 -0.3804  0.2319
 5734SOL    HW228665   2.308   1.767   3.185  1.9594  0.6403 -0.0549
 5735SOL     OW28666   3.484   2.849   7.172 -0.6171  0.0085  0.5059
 5735SOL    HW128667   3.573   2.858   7.206 -0.2296  0.6539 -0.7025
 5735SOL    HW228668   3.499   2.784   7.103  0.6127 -0.7946  1.5186
 5736SOL     OW28669   1.465   1.178   1.917  0.6689  0.3732  0.2487
 5736SOL    HW128670   1.476   1.123   1.995  2.4048  1.4884  0.7660
 5736SOL    HW228671   1.394   1.238   1.940 -1.3537 -2.5811  1.8107
 5737SOL     OW28672   4.052   1.117  14.531  0.2574  0.5267 -0.6561
 5737SOL    HW128673   4.130   1.062  14.545  0.0859  0.0492 -1.5847
 5737SOL    HW228674   4.074   1.187  14.592 -0.7011  0.0356  0.2512
 5738SOL     OW28675   2.779   4.024   2.503 -0.5722  0.3663  0.4094
 5738SOL    HW128676   2.823   4.099   2.461  1.3599 -0.0997  1.5930
 5738SOL    HW228677   2.844   3.997   2.568 -0.5852 -1.4470 -0.3425
 5739SOL     OW28678   1.347   3.308   4.827 -0.4446 -0.2491 -0.7349
 5739SOL    HW128679   1.259   3.313   4.791 -0.4615 -2.7812 -1.0598
 5739SOL    HW228680   1.404   3.310   4.751 -0.3858 -2.5104 -0.7544
 5740SOL     OW28681   1.913   3.066  16.390 -0.1412 -0.5135 -0.7245
 5740SOL    HW128682   1.915   2.984  16.341  1.9443 -0.7070 -0.3143
 5740SOL    HW228683   1.988   3.050  16.448 -0.2424  1.0701 -0.1450
 5741SOL     OW28684   0.763   2.894  11.267 -0.1643 -0.0427  0.3042
 5741SOL    HW128685   0.738   2.942  11.188 -0.1656 -1.8829 -0.8045
 5741SOL    HW228686   0.683   2.904  11.319 -1.1453  0.6425 -1.3149
 5742SOL     OW28687   3.284   4.008   4.855 -0.0524 -0.9383  0.0833
 5742SOL    HW128688   3.379   4.010   4.862 -0.3533  2.6775  3.3065
 5742SOL    HW228689   3.261   4.067   4.928  3.0034 -1.2597  1.3059
 5743SOL     OW28690   1.347   0.787   9.220  0.6400 -0.0451  0.0266
 5743SOL    HW128691   1.254   0.786   9.196  0.7521  0.8277 -0.4356
 5743SOL    HW228692   1.335   0.832   9.303  2.4913  0.7578 -0.1453
 5744SOL     OW28693   0.177   1.553   7.423  0.0149 -0.2720 -0.1413
 5744SOL    HW128694   0.157   1.559   7.329 -1.0308  2.8338  0.2727
 5744SOL    HW228695   0.162   1.643   7.453  0.0747 -0.1090 -0.5975
 5745SOL     OW28696   2.229   4.310   9.118 -0.0210 -0.6662 -0.1801
 5745SOL    HW128697   2.249   4.222   9.149  0.4264  0.4992  2.8276
 5745SOL    HW228698   2.307   4.359   9.143 -2.5961  2.3853  2.0118
 5746SOL     OW28699   0.367   1.718   5.473 -0.1438  0.0956  0.1578
 5746SOL    HW128700   0.423   1.716   5.394  0.3481 -1.5758  0.5538
 5746SOL    HW228701   0.335   1.808   5.468  1.9823  0.9276  1.4701
 5747SOL     OW28702   0.167   4.128  15.391 -0.0283  0.4416  0.3569
 5747SOL    HW128703   0.134   4.188  15.457  0.5368 -0.2431  1.2756
 5747SOL    HW228704   0.095   4.066  15.376  3.1465 -3.0377 -0.6153
 5748SOL     OW28705   3.021   4.286   0.504  0.0391 -0.1921 -0.7256
 5748SOL    HW128706   2.928   4.288   0.480 -0.1625  0.5249  0.1412
 5748SOL    HW228707   3.048   4.364   0.456 -0.7257  2.5469  3.2904
 5749SOL     OW28708   3.887   2.912   7.721  0.2428  0.7808 -0.1775
 5749SOL    HW128709   3.912   2.992   7.767  0.3666  1.0023 -0.6224
 5749SOL    HW228710   3.951   2.849   7.754 -0.3425  1.3463  1.9837
 5750SOL     OW28711   0.180   3.871  14.016  0.0788  0.4851  0.0388
 5750SOL    HW128712   0.258   3.923  13.998 -0.2424  0.9417 -0.0254
 5750SOL    HW228713   0.125   3.936  14.060 -1.5057 -1.8828  1.6118
 5751SOL     OW28714   4.594   0.057   3.056  0.1095  0.4911  0.1647
 5751SOL    HW128715   4.547   0.131   3.018  0.2428  0.0369 -0.8870
 5751SOL    HW228716   4.528   0.019   3.114  1.8610  0.1325  1.9282
 5752SOL     OW28717   1.491   1.031   7.528 -0.0741 -0.1869 -0.8622
 5752SOL    HW128718   1.585   1.021   7.511 -0.2336 -2.2545 -0.5578
 5752SOL    HW228719   1.502   1.087   7.605  0.2901  0.1599 -1.1620
 5753SOL     OW28720   1.128   3.606  15.254  0.2204  0.6877  0.2041
 5753SOL    HW128721   1.179   3.680  15.288  2.8014 -2.0517  2.2598
 5753SOL    HW228722   1.130   3.546  15.328 -1.1411  1.9168  1.2133
 5754SOL     OW28723   3.557   2.508  12.199 -0.0060 -0.7653 -0.2693
 5754SOL    HW128724   3.473   2.527  12.157 -1.3060 -4.0352  0.7939
 5754SOL    HW228725   3.546   2.415  12.219 -0.6220 -0.6184  0.0830
 5755SOL     OW28726   0.724   0.418   1.618  0.0155  0.0244 -0.0517
 5755SOL    HW128727   0.748   0.401   1.527  0.3331  1.1181 -0.1715
 5755SOL    HW228728   0.633   0.388   1.618  0.2245 -0.6064 -0.2873
 5756SOL     OW28729   3.344   0.876  12.264  0.2301  0.9686  0.2515
 5756SOL    HW128730   3.291   0.814  12.214  1.3200 -0.1151  0.4346
 5756SOL    HW228731   3.302   0.960  12.245 -1.1314  0.8880  2.9324
 5757SOL     OW28732   4.666   4.168   3.085 -0.2680 -0.3933 -0.1486
 5757SOL    HW128733   4.665   4.161   2.989  2.7163  1.2860 -0.2913
 5757SOL    HW228734   4.597   4.232   3.103 -0.4156 -0.2385 -1.2696
 5758SOL     OW28735   4.547   1.640   7.040 -0.0842 -0.2402  0.0663
 5758SOL    HW128736   4.592   1.657   7.123  0.0207 -0.5897  0.0836
 5758SOL    HW228737   4.583   1.553   7.021  1.0482 -0.0628  1.4030
 5759SOL     OW28738   1.279   0.033   1.544 -0.3829 -0.3100  0.3103
 5759SOL    HW128739   1.254   0.104   1.602  0.5010 -0.2504  0.6195
 5759SOL    HW228740   1.201   0.010   1.494  0.4100 -1.5959 -0.3475
 5760SOL     OW28741   0.683   3.893   2.711 -0.1226 -0.0198  0.2886
 5760SOL    HW128742   0.738   3.968   2.689  0.6514 -1.1109 -1.4669
 5760SOL    HW228743   0.604   3.918   2.662  0.8201 -0.9508 -1.6810
 5761SOL     OW28744   1.687   2.304   1.744  0.1942  0.3297 -0.2387
 5761SOL    HW128745   1.756   2.321   1.809 -2.0846 -0.0720  2.2817
 5761SOL    HW228746   1.720   2.220   1.711  0.5840  0.0095  0.9759
 5762SOL     OW28747   1.307   4.243   2.815 -0.7227 -0.1196  0.2454
 5762SOL    HW128748   1.401   4.249   2.801 -0.8597  1.8979  0.1934
 5762SOL    HW228749   1.273   4.210   2.732 -3.2377  0.0932  1.1657
 5763SOL     OW28750   0.006   2.478   1.301  0.6323  0.3153 -0.6935
 5763SOL    HW128751   0.021   2.383   1.299 -1.4308  0.0272 -2.6167
 5763SOL    HW228752   0.099   2.494   1.286  0.2899  3.6980  0.8902
 5764SOL     OW28753   4.286   2.159  11.426  0.2410  0.1704 -0.0212
 5764SOL    HW128754   4.217   2.221  11.405 -1.2978 -1.0397  1.3848
 5764SOL    HW228755   4.292   2.118  11.340  1.2563 -1.0019  0.6053
 5765SOL     OW28756   1.835   1.424   4.239 -0.3074 -0.7923 -0.0358
 5765SOL    HW128757   1.881   1.375   4.171 -1.9130  0.4006 -1.9851
 5765SOL    HW228758   1.867   1.511   4.214 -3.0254  0.2735  0.1675
 5766SOL     OW28759   1.660   0.154   6.107  0.0443 -0.5328 -0.6414
 5766SOL    HW128760   1.586   0.167   6.047  0.6731  0.5066 -1.2016
 5766SOL    HW228761   1.625   0.133   6.194 -0.5715  0.1185 -0.7261
 5767SOL     OW28762   2.327   3.856   0.324  0.1912 -0.1252  0.0264
 5767SOL    HW128763   2.243   3.886   0.289  1.2508 -0.3960 -2.7180
 5767SOL    HW228764   2.318   3.761   0.320  0.1305 -0.0406 -1.5472
 5768SOL     OW28765   4.387   2.162   2.988 -0.1245 -0.1075 -0.7026
 5768SOL    HW128766   4.389   2.172   2.893  0.9575 -1.5377 -0.8159
 5768SOL    HW228767   4.408   2.253   3.011  1.1174 -0.3465 -0.9440
 5769SOL     OW28768   2.960   0.444   2.792  0.4744  0.2608  0.5358
 5769SOL    HW128769   2.887   0.480   2.741 -1.9115 -1.7314  2.6096
 5769SOL    HW228770   2.996   0.519   2.840  1.0909  0.4235 -0.1789
 5770SOL     OW28771   1.793   3.385   8.926  0.4012  0.0842 -0.2734
 5770SOL    HW128772   1.835   3.310   8.884  0.9873  1.0071 -1.3532
 5770SOL    HW228773   1.711   3.374   8.878  1.0620 -0.0395 -1.3966
 5771SOL     OW28774   3.050   1.275  17.189  0.1736 -0.1023 -0.4557
 5771SOL    HW128775   3.138   1.306  17.169  1.3413 -4.4680 -2.1906
 5771SOL    HW228776   3.032   1.329  17.266  0.3834  0.5664 -0.8739
 5772SOL     OW28777   3.884   0.060   3.647  0.6254 -0.6746  0.0649
 5772SOL    HW128778   3.940   0.135   3.627 -2.6743  2.3839  2.2183
 5772SOL    HW228779   3.944   4.711   3.637  3.0619  0.9979  2.3177
 5773SOL     OW28780   4.589   0.745   5.370  0.2584  0.1716 -0.1906
 5773SOL    HW128781   4.572   0.809   5.300  1.3114 -0.4438 -1.0141
 5773SOL    HW228782   4.546   0.663   5.346 -2.0309  1.4024 -0.2339
 5774SOL     OW28783   2.151   1.577  11.457  0.0620  0.2225  0.0267
 5774SOL    HW128784   2.219   1.526  11.414 -0.6666 -0.5540 -0.2057
 5774SOL    HW228785   2.104   1.511  11.507 -0.4703  0.9840  0.5240
 5775SOL     OW28786   3.162   4.653   2.428  0.0345  0.4104 -0.1741
 5775SOL    HW128787   3.244   4.703   2.422  0.4955 -0.4829 -1.3072
 5775SOL    HW228788   3.132   4.679   2.342  2.3722  2.9831 -0.2269
 5776SOL     OW28789   3.434   2.303   7.509 -0.1701 -0.2230 -0.5001
 5776SOL    HW128790   3.467   2.250   7.581  0.1910  0.2755 -0.2994
 5776SOL    HW228791   3.387   2.240   7.454  2.0123 -0.6093 -1.8785
 5777SOL     OW28792   0.782   3.723   1.653 -0.1621 -0.3351  0.1159
 5777SOL    HW128793   0.709   3.736   1.713  0.0055 -1.6710  0.6091
 5777SOL    HW228794   0.786   3.627   1.648  3.4560 -0.1308 -1.3231
 5778SOL     OW28795   2.552   4.422   5.285  0.1082 -0.4675 -0.1581
 5778SOL    HW128796   2.611   4.480   5.236  1.2327 -0.9233  0.6484
 5778SOL    HW228797   2.616   4.363   5.325  1.4627  1.5383  0.6397
 5779SOL     OW28798   3.766   3.301   3.889  0.0316 -0.8457 -1.0853
 5779SOL    HW128799   3.702   3.370   3.869  0.4800  1.0645  4.2485
 5779SOL    HW228800   3.847   3.345   3.862  0.3342 -0.4626  0.4844
 5780SOL     OW28801   1.215   4.182   3.185  0.2166  0.1174  0.3049
 5780SOL    HW128802   1.191   4.135   3.265 -2.2602  0.4927 -0.2245
 5780SOL    HW228803   1.136   4.231   3.161  1.4028  2.2887  0.7983
 5781SOL     OW28804   4.706   2.331  12.183  0.3182 -0.1319 -0.2573
 5781SOL    HW128805   4.711   2.279  12.264  0.7867 -0.5876 -0.5826
 5781SOL    HW228806   4.691   2.419  12.217 -0.6213 -0.7186  0.8566
 5782SOL     OW28807   1.535   3.870   5.228 -0.0713  0.5457 -0.3403
 5782SOL    HW128808   1.630   3.883   5.219 -0.0292 -0.2395 -1.0367
 5782SOL    HW228809   1.518   3.904   5.316  0.0407  1.5293 -0.6990
 5783SOL     OW28810   4.435   4.016  11.150  0.4787  0.0235 -0.1460
 5783SOL    HW128811   4.442   4.054  11.237 -0.8443 -0.5013  0.1757
 5783SOL    HW228812   4.527   3.996  11.132  1.1236  2.1677  0.7609
 5784SOL     OW28813   3.323   1.129   6.674 -0.1059  0.2059  0.1990
 5784SOL    HW128814   3.279   1.050   6.642 -1.0446  0.1235  1.7076
 5784SOL    HW228815   3.411   1.117   6.639  0.3562  1.8657  0.7956
 5785SOL     OW28816   3.302   4.441   2.549  0.4488  0.1121  0.1348
 5785SOL    HW128817   3.253   4.510   2.504 -0.8559 -0.6430  0.4073
 5785SOL    HW228818   3.282   4.462   2.640  2.5844 -0.2092  0.6779
 5786SOL     OW28819   4.244   0.680   1.667 -0.0841  0.2134  0.1885
 5786SOL    HW128820   4.251   0.743   1.739  1.0018  2.9536 -2.3037
 5786SOL    HW228821   4.157   0.640   1.673  0.6141 -0.9537  2.4268
 5787SOL     OW28822   4.364   0.817   1.186  0.1273 -0.2715 -0.4579
 5787SOL    HW128823   4.301   0.878   1.147  0.9896  0.1824 -1.1547
 5787SOL    HW228824   4.342   0.729   1.154  1.2678 -0.5461 -0.5090
 5788SOL     OW28825   2.411   3.700   8.744 -0.3166 -0.7628 -0.0465
 5788SOL    HW128826   2.385   3.759   8.673  0.9658 -1.0258 -0.7299
 5788SOL    HW228827   2.350   3.626   8.750 -0.8234 -0.3679 -0.3416
 5789SOL     OW28828   2.919   3.520   2.231  0.3346  0.0442  0.3248
 5789SOL    HW128829   3.004   3.495   2.194 -0.6792  0.8890 -2.5720
 5789SOL    HW228830   2.880   3.433   2.232  1.0246 -0.2692  0.4361
 5790SOL     OW28831   1.403   3.949   4.931  0.2715 -0.2902 -0.3832
 5790SOL    HW128832   1.461   3.969   4.858  0.8455 -0.0804  0.1363
 5790SOL    HW228833   1.426   4.017   4.995  2.1074 -0.0945 -1.2529
 5791SOL     OW28834   4.519   4.470   2.799 -0.6294 -0.1111  0.3201
 5791SOL    HW128835   4.569   4.401   2.843  1.8009  0.2969 -1.8168
 5791SOL    HW228836   4.582   4.542   2.802  1.2614 -1.8015  1.0862
 5792SOL     OW28837   4.297   2.059  11.134 -0.2625 -1.1336 -0.0673
 5792SOL    HW128838   4.352   2.127  11.094 -1.9968  0.1052 -0.3611
 5792SOL    HW228839   4.340   1.984  11.095  0.1276 -0.4993 -0.8558
 5793SOL     OW28840   3.300   2.034   4.886  0.6377 -0.0812  1.1142
 5793SOL    HW128841   3.216   2.040   4.842  2.1662  0.6378 -1.6963
 5793SOL    HW228842   3.351   2.113   4.866 -1.1932  0.8875  0.3552
 5794SOL     OW28843   3.633   3.219   6.905 -1.1624 -0.2596 -0.1022
 5794SOL    HW128844   3.690   3.247   6.833 -1.0953  1.2598  0.5395
 5794SOL    HW228845   3.699   3.165   6.951  0.2692  1.7050  0.1424
 5795SOL     OW28846   1.883   2.264  13.812  0.2791 -0.2326  0.1771
 5795SOL    HW128847   1.918   2.204  13.746 -0.8233  0.0086 -0.6297
 5795SOL    HW228848   1.805   2.220  13.843  0.4612 -1.2618 -0.8390
 5796SOL     OW28849   1.576   4.120   8.946  0.5122 -0.1909  0.2053
 5796SOL    HW128850   1.525   4.053   8.991 -0.5213 -0.4911 -1.4173
 5796SOL    HW228851   1.649   4.132   9.006  0.9252 -1.1125 -0.1117
 5797SOL     OW28852   4.579   3.641   6.749  0.2224  0.0046 -0.1461
 5797SOL    HW128853   4.649   3.630   6.814  1.1485  0.2525 -1.0989
 5797SOL    HW228854   4.556   3.734   6.756 -0.4573 -0.3006  1.6245
 5798SOL     OW28855   2.094   3.989  11.176  0.0980  0.1683  0.0242
 5798SOL    HW128856   2.155   4.046  11.223  1.9642 -0.4032 -1.6869
 5798SOL    HW228857   2.031   4.046  11.132  0.6358 -0.9101 -2.1334
 5799SOL     OW28858   4.252   4.363   2.362  0.1986 -0.6953  0.0352
 5799SOL    HW128859   4.192   4.289   2.374 -1.1239  0.2283 -0.8985
 5799SOL    HW228860   4.309   4.315   2.302  2.1317  2.3500 -0.5394
 5800SOL     OW28861   2.325   3.119   2.767 -0.1520  0.3006 -0.1160
 5800SOL    HW128862   2.405   3.153   2.728 -0.6164 -2.1094 -3.1835
 5800SOL    HW228863   2.294   3.197   2.813  0.1914  0.0191  0.5914
 5801SOL     OW28864   0.264   0.400  15.528  0.2111  0.1308 -0.0149
 5801SOL    HW128865   0.344   0.376  15.483  0.0482 -0.7544  0.1535
 5801SOL    HW228866   0.207   0.325  15.508  0.3429  0.0477 -0.0729
 5802SOL     OW28867   1.464   4.068   5.683 -0.0153  0.1415  0.5427
 5802SOL    HW128868   1.453   4.157   5.651  0.3221 -0.1102 -0.2719
 5802SOL    HW228869   1.514   4.082   5.764  2.1664  2.2180 -1.1877
 5803SOL     OW28870   1.214   0.773   1.912 -0.6498  0.2566 -0.0968
 5803SOL    HW128871   1.233   0.785   1.819 -3.2670  1.0741 -0.5334
 5803SOL    HW228872   1.212   0.678   1.916 -1.8505  0.2854  0.2639
 5804SOL     OW28873   2.789   4.251  16.973 -0.0231 -0.7341  0.2425
 5804SOL    HW128874   2.873   4.210  16.954  1.0308  1.6605 -0.2473
 5804SOL    HW228875   2.743   4.175  17.008 -2.0523 -0.2984 -1.4416
 5805SOL     OW28876   1.381   0.543   2.754  0.0773  0.2416  0.5948
 5805SOL    HW128877   1.373   0.448   2.749 -1.1002  0.2760  1.9915
 5805SOL    HW228878   1.444   0.560   2.824 -0.1796 -2.1727  1.4256
 5806SOL     OW28879   1.035   3.456   1.245  0.0020  0.3891 -0.3774
 5806SOL    HW128880   1.106   3.422   1.300  0.1411 -1.1509 -1.5238
 5806SOL    HW228881   1.059   3.417   1.161 -0.0181  0.0786 -0.2365
 5807SOL     OW28882   0.165   3.452   3.691  0.2358 -0.2515 -0.1009
 5807SOL    HW128883   0.183   3.455   3.597 -0.6867 -0.5527 -0.2824
 5807SOL    HW228884   0.197   3.365   3.713  1.0685 -0.9597 -4.0296
 5808SOL     OW28885   1.934   4.631   8.433 -0.2898  0.1043  1.0714
 5808SOL    HW128886   1.872   4.705   8.430 -2.9355 -2.2006 -2.0448
 5808SOL    HW228887   1.960   4.615   8.342  2.5861 -0.6137  2.0203
 5809SOL     OW28888   4.365   3.002   8.449 -0.4304  0.4432 -0.5730
 5809SOL    HW128889   4.452   2.963   8.450  0.0327  1.4464 -0.9906
 5809SOL    HW228890   4.377   3.074   8.510 -0.6046 -2.1384  2.4864
 5810SOL     OW28891   0.737   1.717  11.225  0.0757  0.5604 -0.1880
 5810SOL    HW128892   0.766   1.706  11.135 -0.1902 -1.9154  0.0349
 5810SOL    HW228893   0.735   1.631  11.268 -3.6403  1.0500  0.6776
 5811SOL     OW28894   4.009   0.770   5.551 -0.4679 -0.2118 -0.0706
 5811SOL    HW128895   4.098   0.802   5.567 -0.2359  0.1123 -1.9211
 5811SOL    HW228896   3.970   0.845   5.505 -1.0284  0.4203  1.4217
 5812SOL     OW28897   2.593   1.200   2.078 -0.5586  0.3320  0.1586
 5812SOL    HW128898   2.602   1.149   1.998  1.8593 -1.9311  1.8767
 5812SOL    HW228899   2.524   1.264   2.058 -1.5099 -1.4248 -2.1550
 5813SOL     OW28900   1.195   1.931   9.272 -0.0461 -0.5677  0.1109
 5813SOL    HW128901   1.179   2.025   9.259  0.7245 -0.2163  1.7438
 5813SOL    HW228902   1.110   1.900   9.240 -0.6586  2.8615 -1.6669
 5814SOL     OW28903   2.568   4.675   4.389  0.3802  0.2653 -0.5741
 5814SOL    HW128904   2.621   4.617   4.444  0.9632  0.1234 -1.2884
 5814SOL    HW228905   2.601   4.646   4.304 -0.8573 -5.7947  1.0583
 5815SOL     OW28906   2.096   3.327   9.690 -0.2137 -0.3018 -0.1013
 5815SOL    HW128907   2.062   3.401   9.640  1.5154 -1.2661 -2.7385
 5815SOL    HW228908   2.157   3.365   9.753 -2.5230 -0.0635  1.9496
 5816SOL     OW28909   4.418   1.863   4.200  0.6063  0.0321  0.1955
 5816SOL    HW128910   4.405   1.771   4.222 -1.4074  0.4453  0.6949
 5816SOL    HW228911   4.471   1.894   4.274 -0.4642 -3.3481  2.3419
 5817SOL     OW28912   3.012   3.610   3.740  0.5204  0.1511  0.8360
 5817SOL    HW128913   2.947   3.556   3.787  1.0272  0.1420  1.5340
 5817SOL    HW228914   2.958   3.690   3.741  0.9570  0.4537  0.1340
 5818SOL     OW28915   4.368   2.760   6.565 -0.1392  0.2419 -0.3623
 5818SOL    HW128916   4.278   2.730   6.551  0.4848 -1.4984 -0.6439
 5818SOL    HW228917   4.359   2.793   6.654  0.8059  0.2616 -0.2836
 5819SOL     OW28918   2.208   2.561   5.736 -0.2188 -0.2896 -0.2484
 5819SOL    HW128919   2.261   2.586   5.811  0.0040  0.9624 -0.8138
 5819SOL    HW228920   2.232   2.638   5.683 -0.0985  0.1828  0.4882
 5820SOL     OW28921   4.403   2.261  11.012 -0.2094 -0.5782  0.6579
 5820SOL    HW128922   4.358   2.326  10.959 -0.2208  0.1010  1.5151
 5820SOL    HW228923   4.432   2.326  11.075  1.9112  0.2922 -1.2225
 5821SOL     OW28924   0.605   3.179  11.296 -0.1836 -0.0003 -0.0314
 5821SOL    HW128925   0.541   3.223  11.352 -0.4931 -0.4307 -0.0462
 5821SOL    HW228926   0.544   3.130  11.241 -0.5408  1.8171 -1.2551
 5822SOL     OW28927   0.010   0.320  11.501  0.0763 -0.4740 -0.3527
 5822SOL    HW128928   0.016   0.321  11.405  2.4756 -3.2324 -0.2350
 5822SOL    HW228929   0.073   0.389  11.518 -0.0656 -0.9070  1.8838
 5823SOL     OW28930   3.744   2.235   8.563 -0.0132 -0.8865  0.1775
 5823SOL    HW128931   3.765   2.221   8.655  4.3788 -0.5727 -0.7932
 5823SOL    HW228932   3.659   2.193   8.550  0.4191 -1.3080 -1.3277
 5824SOL     OW28933   0.110   2.817   4.317  0.1462 -0.0772 -0.0231
 5824SOL    HW128934   0.054   2.815   4.240 -1.2957  1.7456  0.9734
 5824SOL    HW228935   0.067   2.895   4.350  1.1730  0.6177 -0.3405
 5825SOL     OW28936   2.531   3.061   7.706  0.2163  0.8644 -0.7246
 5825SOL    HW128937   2.562   3.151   7.720  0.3641  0.5145  1.0792
 5825SOL    HW228938   2.523   3.038   7.798  2.7918  0.3643 -0.6353
 5826SOL     OW28939   3.225   2.430   2.659 -0.4616 -0.2603  0.0400
 5826SOL    HW128940   3.210   2.409   2.567 -1.0194 -0.3100  0.1412
 5826SOL    HW228941   3.235   2.525   2.657 -0.2217 -0.2796  0.3012
 5827SOL     OW28942   0.543   3.491   4.109 -0.5220  0.2845  0.8034
 5827SOL    HW128943   0.615   3.545   4.141  0.9274 -2.0911  1.5115
 5827SOL    HW228944   0.585   3.416   4.066  0.4552  1.0792  0.3568
 5828SOL     OW28945   2.725   2.614  10.810  0.4763  0.1116 -0.3940
 5828SOL    HW128946   2.658   2.552  10.840 -1.9937  2.1665 -1.6176
 5828SOL    HW228947   2.700   2.691  10.861 -1.9718 -0.6257 -0.4497
 5829SOL     OW28948   2.093   1.255   3.467 -0.2025  0.3834 -0.5586
 5829SOL    HW128949   2.021   1.253   3.529 -0.3719  1.7326 -0.7121
 5829SOL    HW228950   2.166   1.292   3.517 -0.8239  1.4094 -0.4065
 5830SOL     OW28951   4.584   4.110   6.174 -0.4298  0.2472 -0.1477
 5830SOL    HW128952   4.601   4.045   6.106  0.7362 -0.2193  0.5871
 5830SOL    HW228953   4.634   4.056   6.236  0.1830 -2.7330 -3.2166
 5831SOL     OW28954   2.834   4.645   3.198  0.4267  0.8536  0.1784
 5831SOL    HW128955   2.916   4.600   3.213  0.3313  0.5664 -0.1546
 5831SOL    HW228956   2.841   4.707   3.270 -1.6402  0.9068  0.3381
 5832SOL     OW28957   1.156   2.188   4.445 -0.1169  0.4055  0.1266
 5832SOL    HW128958   1.174   2.099   4.415 -0.5323  0.8869 -1.5723
 5832SOL    HW228959   1.222   2.245   4.405  1.5574 -0.3601  1.7633
 5833SOL     OW28960   3.702   4.491   3.057  0.3882  0.5041 -0.3035
 5833SOL    HW128961   3.788   4.524   3.083  1.2736 -1.4013 -0.8333
 5833SOL    HW228962   3.654   4.561   3.013 -2.9345 -1.7933 -0.3846
 5834SOL     OW28963   1.079   1.345   6.116 -0.2254 -0.3701  0.2466
 5834SOL    HW128964   1.006   1.312   6.064  0.9313  0.3943 -1.8702
 5834SOL    HW228965   1.131   1.379   6.043 -0.0731 -0.7714  0.1691
 5835SOL     OW28966   2.385   2.150  12.995 -0.3622 -0.3640  0.0236
 5835SOL    HW128967   2.403   2.063  13.031  0.3908 -1.6216 -3.4414
 5835SOL    HW228968   2.458   2.202  13.027 -0.7565  1.2141 -1.6850
 5836SOL     OW28969   3.493   0.761   1.953 -0.2443  0.2776 -0.0624
 5836SOL    HW128970   3.475   0.726   2.040  0.6770  0.4456  0.1949
 5836SOL    HW228971   3.402   0.769   1.926 -0.5832  1.5654  1.4491
 5837SOL     OW28972   3.999   2.185  12.585  0.0909 -0.2871 -0.5925
 5837SOL    HW128973   3.968   2.274  12.569 -3.3944 -1.0240  1.8455
 5837SOL    HW228974   3.913   2.152  12.612 -0.8815  1.4690 -1.5438
 5838SOL     OW28975   4.074   2.650  16.833  0.4702  0.2242  0.5704
 5838SOL    HW128976   4.080   2.642  16.738 -1.5783  0.6881  0.3996
 5838SOL    HW228977   4.013   2.723  16.846  0.6355  0.4304  0.1778
 5839SOL     OW28978   0.440   3.693  16.812  0.2760 -0.2645 -0.5801
 5839SOL    HW128979   0.444   3.781  16.775  1.9215 -0.5858 -1.1693
 5839SOL    HW228980   0.389   3.708  16.892  0.1832 -0.1604 -0.6584
 5840SOL     OW28981   1.565   2.187   3.557 -0.4005 -0.2007  0.2087
 5840SOL    HW128982   1.499   2.131   3.516  0.5452 -1.6650  0.6851
 5840SOL    HW228983   1.516   2.228   3.628  2.4637  1.7330  1.0811
 5841SOL     OW28984   3.869   3.226   0.889  0.2354  0.5877 -0.1046
 5841SOL    HW128985   3.834   3.281   0.819  0.8343 -0.2122 -1.0265
 5841SOL    HW228986   3.816   3.248   0.966 -1.8133 -1.1913 -0.9983
 5842SOL     OW28987   3.444   2.888  16.172 -0.0550  0.0464  0.0311
 5842SOL    HW128988   3.369   2.921  16.123 -0.8338 -0.3981  0.9275
 5842SOL    HW228989   3.506   2.959  16.156  0.5317 -0.2971  0.7900
 5843SOL     OW28990   2.763   4.435  10.143  0.3589  0.2334  0.2937
 5843SOL    HW128991   2.852   4.442  10.109  0.0593  0.7282 -0.3812
 5843SOL    HW228992   2.733   4.345  10.130  0.2322  0.1574  1.1116
 5844SOL     OW28993   4.144   0.582  12.639 -0.2736  0.6415  0.7339
 5844SOL    HW128994   4.068   0.640  12.630 -0.3201  0.5069  0.2112
 5844SOL    HW228995   4.188   0.635  12.704  1.6529  0.9340 -0.8089
 5845SOL     OW28996   1.021   2.986  15.268 -0.3722  0.2412 -0.6527
 5845SOL    HW128997   1.044   3.060  15.323 -2.8783 -0.4421  1.3147
 5845SOL    HW228998   1.074   3.013  15.194  0.9320  1.3226  0.6781
 5846SOL     OW28999   0.095   1.170  12.323  0.5075  0.4811 -0.2552
 5846SOL    HW129000   0.144   1.241  12.282 -0.6598  2.5726  1.9616
 5846SOL    HW229001   0.163   1.114  12.362  2.7221  2.0269 -1.8789
 5847SOL     OW29002   1.405   4.513  14.943  0.0245  0.0204 -0.6156
 5847SOL    HW129003   1.382   4.579  14.878  0.4865 -1.8327 -2.6822
 5847SOL    HW229004   1.321   4.474  14.968  0.6461 -0.6361  0.4711
 5848SOL     OW29005   1.535   1.429   2.198 -0.0302 -0.4337 -0.3881
 5848SOL    HW129006   1.471   1.364   2.226  0.6265 -0.6924  0.5271
 5848SOL    HW229007   1.610   1.373   2.219 -0.8447 -0.8040  1.5630
 5849SOL     OW29008   3.867   1.676  13.647 -0.1910 -0.0853 -0.2673
 5849SOL    HW129009   3.835   1.599  13.599  0.2165 -0.4384  0.0244
 5849SOL    HW229010   3.803   1.743  13.624 -0.2100 -0.3619 -1.0282
 5850SOL     OW29011   1.579   4.480  14.410  0.1298 -0.0843  0.0428
 5850SOL    HW129012   1.501   4.470  14.465  0.9366 -1.7355  0.8751
 5850SOL    HW229013   1.646   4.470  14.477 -0.9665 -1.1578  1.0000
 5851SOL     OW29014   4.162   1.420   4.457  1.3722 -0.1985 -0.1561
 5851SOL    HW129015   4.154   1.407   4.362 -2.6669  0.3103  0.1228
 5851SOL    HW229016   4.159   1.331   4.492  0.8295 -0.2823 -0.4063
 5852SOL     OW29017   0.188   4.613   4.486 -0.0169  0.5935 -0.1162
 5852SOL    HW129018   0.198   4.687   4.546  1.3904 -0.1027  0.4881
 5852SOL    HW229019   0.158   4.666   4.412  1.2801 -0.4697 -1.3855
 5853SOL     OW29020   3.750   2.620   3.686  0.1214  0.0830 -0.0512
 5853SOL    HW129021   3.731   2.687   3.620 -1.1101  0.3492  0.5956
 5853SOL    HW229022   3.730   2.539   3.638 -1.1003 -1.1844  2.6643
 5854SOL     OW29023   1.767   3.411  13.584 -0.0329  0.0408  0.1589
 5854SOL    HW129024   1.676   3.384  13.569 -0.4393  2.2715 -1.4411
 5854SOL    HW229025   1.795   3.417  13.492 -1.6649 -0.3001 -0.3573
 5855SOL     OW29026   2.127   1.347   7.583 -0.6947  0.5078  0.1427
 5855SOL    HW129027   2.140   1.403   7.506 -2.9489 -0.1417 -0.7055
 5855SOL    HW229028   2.045   1.388   7.610  0.4845  1.1268  2.7675
 5856SOL     OW29029   1.241   3.702  10.012  0.4983 -0.1258  0.7975
 5856SOL    HW129030   1.300   3.735   9.944 -0.9189  1.4424  0.3351
 5856SOL    HW229031   1.234   3.782  10.064 -0.2510  0.8363 -0.7935
 5857SOL     OW29032   1.564   4.375   8.845  0.4133 -0.2872 -0.5309
 5857SOL    HW129033   1.587   4.428   8.921  1.1322 -0.3789 -0.6845
 5857SOL    HW229034   1.584   4.290   8.883 -1.4864 -0.3247  0.3524
 5858SOL     OW29035   1.407   0.331   6.145  0.2637 -0.2798 -0.1319
 5858SOL    HW129036   1.405   0.343   6.050  1.6275 -2.7061 -0.4477
 5858SOL    HW229037   1.454   0.408   6.179  0.5825  0.2958 -1.8884
 5859SOL     OW29038   0.411   3.805  13.733  0.4209 -0.1361 -0.1466
 5859SOL    HW129039   0.398   3.855  13.653  1.0861 -0.0370 -0.1917
 5859SOL    HW229040   0.446   3.870  13.793  1.5109 -1.4250  0.6137
 5860SOL     OW29041   1.303   0.069   9.486  0.6658 -0.8847  0.0334
 5860SOL    HW129042   1.212   0.041   9.496  0.1116  0.0136 -2.6725
 5860SOL    HW229043   1.353   4.713   9.466 -1.0329 -2.1459  0.8371
 5861SOL     OW29044   4.635   0.952   8.742 -0.0172  0.2352  0.4250
 5861SOL    HW129045   4.658   1.028   8.688  1.7875 -1.9797 -1.9053
 5861SOL    HW229046   4.663   0.878   8.689 -0.2847  0.1998  0.3388
 5862SOL     OW29047   1.595   1.570  14.001 -0.4043  0.0302  0.1805
 5862SOL    HW129048   1.665   1.633  13.985  1.2953 -2.0816 -0.7191
 5862SOL    HW229049   1.644   1.488  14.003 -2.7109 -1.2899  2.0768
 5863SOL     OW29050   0.912   1.155   3.783  0.3287 -0.9653  0.0031
 5863SOL    HW129051   0.901   1.246   3.811 -1.5066 -2.0085  2.6838
 5863SOL    HW229052   0.919   1.167   3.688 -1.9377 -1.8613 -0.2862
 5864SOL     OW29053   0.084   0.922   4.645  0.1280  0.2035  0.1450
 5864SOL    HW129054   0.041   0.855   4.591  0.7643 -0.1754  0.1068
 5864SOL    HW229055   0.175   0.904   4.621 -0.2969 -1.0913 -0.5146
 5865SOL     OW29056   4.493   1.967  10.121  0.1969 -0.6926  0.2694
 5865SOL    HW129057   4.426   2.004  10.064  1.5672 -1.4685 -1.8029
 5865SOL    HW229058   4.438   1.903  10.167 -4.1319  1.7992 -1.4150
 5866SOL     OW29059   2.203   3.594  13.998  0.6399 -0.0751  0.0328
 5866SOL    HW129060   2.163   3.677  13.971  0.1344 -0.3129  0.0426
 5866SOL    HW229061   2.223   3.623  14.087  0.1120  3.3390 -0.9460
 5867SOL     OW29062   1.841   4.312   4.351 -0.5564 -0.4007 -1.1600
 5867SOL    HW129063   1.920   4.332   4.399 -1.3759  1.6197 -0.6628
 5867SOL    HW229064   1.850   4.366   4.272 -0.0972 -0.2680 -1.0100
 5868SOL     OW29065   3.435   2.601   3.481  0.0862 -0.1316  0.2812
 5868SOL    HW129066   3.353   2.560   3.453  0.1206  0.1338 -0.2058
 5868SOL    HW229067   3.492   2.525   3.467  1.6604  1.2572 -0.8408
 5869SOL     OW29068   2.162   0.357   8.393  0.0866 -0.0778 -0.2501
 5869SOL    HW129069   2.141   0.448   8.414  3.2827  1.0956 -2.0561
 5869SOL    HW229070   2.255   0.368   8.373  0.5252  0.4011  2.1296
 5870SOL     OW29071   1.466   1.991   7.690  0.5352  0.1509 -0.3676
 5870SOL    HW129072   1.469   2.047   7.611  0.4029  0.7593  0.0560
 5870SOL    HW229073   1.371   1.993   7.703  0.8818  0.1597  2.0056
 5871SOL     OW29074   4.392   3.829   0.133 -0.1324 -0.0260  0.0805
 5871SOL    HW129075   4.300   3.826   0.107 -0.1114  0.2092 -0.0210
 5871SOL    HW229076   4.373   3.812   0.225  0.8938 -3.5129 -0.3627
 5872SOL     OW29077   4.145   3.561   4.709  0.7371  0.0334 -0.1649
 5872SOL    HW129078   4.225   3.569   4.761 -0.1056 -2.3561  1.5199
 5872SOL    HW229079   4.173   3.525   4.625 -0.1813 -0.8327 -0.0977
 5873SOL     OW29080   0.566   4.489  13.669  0.2826  0.6554  0.2042
 5873SOL    HW129081   0.515   4.558  13.711 -2.0883 -1.4846  0.8488
 5873SOL    HW229082   0.646   4.541  13.661  0.6795 -0.1655 -1.1824
 5874SOL     OW29083   3.479   4.069   7.195  0.5116 -0.0901 -0.2689
 5874SOL    HW129084   3.560   4.022   7.174  0.3334  0.0976 -1.3777
 5874SOL    HW229085   3.465   4.025   7.279 -0.4769 -0.0702 -0.4248
 5875SOL     OW29086   0.275   2.358   5.146  0.3107  0.3511  0.6957
 5875SOL    HW129087   0.218   2.433   5.165  0.4527  0.5662  0.2865
 5875SOL    HW229088   0.329   2.363   5.224  0.9359 -0.0090  0.2854
 5876SOL     OW29089   3.441   2.303  11.026  0.2088  0.2976  0.6635
 5876SOL    HW129090   3.504   2.241  11.062  0.5071  1.4012  2.0465
 5876SOL    HW229091   3.491   2.360  10.968 -0.2776  0.3695  0.3117
 5877SOL     OW29092   2.568   1.835   0.408 -0.6235  0.1082 -0.0497
 5877SOL    HW129093   2.608   1.922   0.416  0.2170 -0.3511  0.7330
 5877SOL    HW229094   2.630   1.807   0.340  0.5578  0.4372  0.8781
 5878SOL     OW29095   2.582   1.267   4.554 -0.0173  0.0987 -0.0518
 5878SOL    HW129096   2.575   1.344   4.611 -0.5754  1.2986 -1.7474
 5878SOL    HW229097   2.616   1.313   4.478  0.1979  0.0025 -0.0120
 5879SOL     OW29098   1.869   4.136  10.163 -0.3326 -0.2861 -0.6850
 5879SOL    HW129099   1.936   4.110  10.099  2.3456 -0.8338  2.3037
 5879SOL    HW229100   1.794   4.129  10.105  0.1823  1.1915 -1.5197
 5880SOL     OW29101   1.532   3.070   4.216  0.2843  0.0669 -0.1420
 5880SOL    HW129102   1.605   3.130   4.234  0.2443 -0.1307  0.6781
 5880SOL    HW229103   1.466   3.111   4.271 -2.7521 -3.0820 -1.4854
 5881SOL     OW29104   0.615   1.634  15.406  0.1203  0.1539 -0.4838
 5881SOL    HW129105   0.698   1.627  15.453  0.5615  1.5789 -1.0453
 5881SOL    HW229106   0.634   1.640  15.312 -0.3868  2.3467 -0.4659
 5882SOL     OW29107   2.803   2.009  14.289 -0.6155 -0.1358  0.1231
 5882SOL    HW129108   2.880   2.029  14.342  1.1791 -1.4957 -1.9509
 5882SOL    HW229109   2.847   1.968  14.214  0.3919 -0.4433  0.8700
 5883SOL     OW29110   0.636   3.980   3.863 -0.3957  0.4413  0.2029
 5883SOL    HW129111   0.626   3.884   3.858 -1.7231  0.6498 -1.1243
 5883SOL    HW229112   0.545   4.010   3.871 -0.3524  0.5091  0.4192
 5884SOL     OW29113   2.455   3.344  11.594  0.2998 -0.0528  0.2057
 5884SOL    HW129114   2.426   3.402  11.524 -0.1537  1.3020  1.5067
 5884SOL    HW229115   2.421   3.383  11.675  0.0736  0.0542  0.0569
 5885SOL     OW29116   0.709   3.021  12.396  0.1584 -0.1374  0.4810
 5885SOL    HW129117   0.646   2.969  12.346  1.1648  0.7854 -1.7674
 5885SOL    HW229118   0.776   2.957  12.418  0.5194 -0.6496 -2.0361
 5886SOL     OW29119   3.784   0.504  12.418  0.0677 -0.3936  0.3573
 5886SOL    HW129120   3.822   0.585  12.454 -0.7418  0.3597 -0.4663
 5886SOL    HW229121   3.821   0.442  12.479 -1.9682 -0.6868  1.2972
 5887SOL     OW29122   3.042   4.397  10.060  0.5111  0.4298  0.1336
 5887SOL    HW129123   3.121   4.435  10.022  0.1243  1.0817 -0.0118
 5887SOL    HW229124   3.028   4.313  10.015 -0.2643  0.7762 -0.2780
 5888SOL     OW29125   3.986   1.076   9.427 -0.5013  0.1111 -0.2453
 5888SOL    HW129126   3.963   1.005   9.487 -2.4379  0.4456 -0.5885
 5888SOL    HW229127   4.059   1.027   9.390  1.2516  0.8021  2.2799
 5889SOL     OW29128   1.721   0.495   5.634  0.1257  0.2071 -0.5301
 5889SOL    HW129129   1.655   0.452   5.580 -0.2464 -0.2308  0.2777
 5889SOL    HW229130   1.668   0.510   5.712 -2.1274 -1.7058 -1.7328
 5890SOL     OW29131   0.883   0.246   6.603 -1.0204 -0.5001  0.3030
 5890SOL    HW129132   0.798   0.220   6.569  1.1922 -2.0195 -4.1228
 5890SOL    HW229133   0.896   0.329   6.557  1.9844 -0.1583  1.7297
 5891SOL     OW29134   2.490   3.173  11.315  0.0619  0.0603  0.2739
 5891SOL    HW129135   2.502   3.105  11.382 -1.7679 -0.8828 -0.3609
 5891SOL    HW229136   2.578   3.184  11.280 -0.2467 -0.8041 -0.7409
 5892SOL     OW29137   1.091   1.244   2.490 -0.0377 -0.0840 -0.6920
 5892SOL    HW129138   1.165   1.184   2.497  1.0648  1.1512 -1.6569
 5892SOL    HW229139   1.112   1.298   2.566 -0.0264 -0.3767 -0.4897
 5893SOL     OW29140   2.120   1.409   2.102 -0.3545 -0.6171 -0.4571
 5893SOL    HW129141   2.075   1.484   2.141 -1.5667 -1.5853  0.0106
 5893SOL    HW229142   2.071   1.408   2.020  1.3034 -1.5652 -1.4224
 5894SOL     OW29143   4.368   0.464   5.658  0.0432 -0.5205 -0.3012
 5894SOL    HW129144   4.337   0.529   5.720 -2.9151 -1.5185 -0.7332
 5894SOL    HW229145   4.299   0.446   5.595 -2.3315  2.9004  1.3164
 5895SOL     OW29146   2.762   4.329   7.203  0.8623  0.3468  0.0611
 5895SOL    HW129147   2.824   4.361   7.268  0.3829 -1.3250  1.3459
 5895SOL    HW229148   2.789   4.383   7.129  0.7650 -0.9114 -0.9009
 5896SOL     OW29149   1.939   2.593   9.125 -0.3330  0.1768  0.2994
 5896SOL    HW129150   1.972   2.680   9.103 -0.2749  0.0251 -0.2150
 5896SOL    HW229151   1.858   2.622   9.168 -0.6566  0.5702 -0.5565
 5897SOL     OW29152   0.201   1.748   0.550  0.0350 -0.3506  0.5568
 5897SOL    HW129153   0.215   1.825   0.496  0.2567  0.0686  1.2100
 5897SOL    HW229154   0.122   1.771   0.598 -0.7441 -2.5292  0.3136
 5898SOL     OW29155   4.287   1.141  10.734 -0.0073  0.1870 -0.2536
 5898SOL    HW129156   4.339   1.195  10.674 -0.1394  0.9676  0.3445
 5898SOL    HW229157   4.270   1.064  10.680 -0.7414 -0.0490  0.3134
 5899SOL     OW29158   1.036   1.690   2.825 -0.2554 -0.0924 -0.0862
 5899SOL    HW129159   1.013   1.732   2.742  0.6942 -1.5210 -1.0761
 5899SOL    HW229160   1.093   1.758   2.862 -1.9217  0.9576  0.5712
 5900SOL     OW29161   3.811   3.275   1.665 -1.2704 -0.5789 -0.6681
 5900SOL    HW129162   3.813   3.205   1.599 -0.7114 -0.2197 -1.0338
 5900SOL    HW229163   3.808   3.359   1.620  1.5020  0.4777  1.0705
 5901SOL     OW29164   3.602   1.925  10.319  1.1081 -0.6443  0.3083
 5901SOL    HW129165   3.563   2.006  10.352 -0.3976 -0.5586 -1.6892
 5901SOL    HW229166   3.694   1.946  10.302  1.3780 -0.1367  2.4837
 5902SOL     OW29167   2.799   3.755   3.804  0.1235 -0.1333 -0.4797
 5902SOL    HW129168   2.727   3.737   3.744 -1.4181  1.4488  0.9238
 5902SOL    HW229169   2.756   3.802   3.875 -0.3776  0.8596 -1.4402
 5903SOL     OW29170   2.104   1.833   4.926 -0.7197 -0.1078 -0.0449
 5903SOL    HW129171   2.142   1.904   4.874 -1.5339 -0.0873 -0.6059
 5903SOL    HW229172   2.037   1.789   4.873  1.2778 -1.5412 -1.4057
 5904SOL     OW29173   4.289   0.609   5.875  0.1563  0.2126 -0.4448
 5904SOL    HW129174   4.310   0.696   5.910 -0.0327 -0.0714  0.3629
 5904SOL    HW229175   4.359   0.550   5.902 -0.9347 -1.4590 -1.2668
 5905SOL     OW29176   0.391   4.198   2.334  0.2286  0.2813  0.4931
 5905SOL    HW129177   0.442   4.252   2.394  2.5630  0.2628 -1.5152
 5905SOL    HW229178   0.329   4.266   2.307 -0.5474 -0.0475  1.4306
 5906SOL     OW29179   3.780   2.093   4.510  0.4124 -0.3379 -0.8653
 5906SOL    HW129180   3.753   2.072   4.421 -2.1716  1.7806 -0.5696
 5906SOL    HW229181   3.744   2.182   4.512 -0.3172 -0.6292 -1.3714
 5907SOL     OW29182   1.666   4.532  14.873  0.3421  0.1867  0.0638
 5907SOL    HW129183   1.573   4.524  14.894  0.2233  1.6776  0.0914
 5907SOL    HW229184   1.701   4.548  14.961 -2.2686  0.8633  0.9944
 5908SOL     OW29185   4.616   0.756   7.879 -0.4140  0.0368 -0.5869
 5908SOL    HW129186   4.691   0.760   7.820  0.9745 -0.4331  1.1393
 5908SOL    HW229187   4.618   0.844   7.917  0.0241 -0.8168  1.3993
 5909SOL     OW29188   1.301   0.283  14.450 -0.7663 -0.0251  0.2554
 5909SOL    HW129189   1.374   0.225  14.430  0.6055  2.0119 -0.6438
 5909SOL    HW229190   1.313   0.346  14.379 -1.0139 -1.1735 -0.7861
 5910SOL     OW29191   3.335   4.509   8.890 -0.0620  0.0536  0.0529
 5910SOL    HW129192   3.383   4.514   8.808 -2.0038  1.9768 -0.9864
 5910SOL    HW229193   3.306   4.596   8.918 -0.0500  0.4336 -1.1071
 5911SOL     OW29194   1.683   2.482  10.946  0.3946  0.3408 -0.0007
 5911SOL    HW129195   1.744   2.424  10.901 -1.7235 -2.0195  0.1472
 5911SOL    HW229196   1.739   2.554  10.974  0.8479 -0.0982  0.2223
 5912SOL     OW29197   2.836   1.211   5.475 -0.0925  0.5319 -0.4563
 5912SOL    HW129198   2.753   1.211   5.426 -0.1859 -2.0909 -0.3048
 5912SOL    HW229199   2.882   1.281   5.430  0.5897  1.0490  1.0437
 5913SOL     OW29200   4.076   2.339   5.649 -0.1241 -0.9774  0.1514
 5913SOL    HW129201   4.158   2.292   5.662 -0.5488 -1.1317  2.1794
 5913SOL    HW229202   4.052   2.355   5.740 -1.0492 -1.0817 -0.0728
 5914SOL     OW29203   1.681   4.489   9.077  0.3959  0.5481  0.4083
 5914SOL    HW129204   1.710   4.475   9.167  2.1583 -1.6464 -0.4910
 5914SOL    HW229205   1.673   4.584   9.082 -0.9378  0.4191  0.7990
 5915SOL     OW29206   3.224   4.069   7.538 -0.4044  0.1936 -0.1386
 5915SOL    HW129207   3.296   4.040   7.482  0.4017  1.0301  0.4492
 5915SOL    HW229208   3.253   4.160   7.543  1.5352 -0.4536  0.3748
 5916SOL     OW29209   3.446   3.664   7.374  0.5711  0.2373 -0.7483
 5916SOL    HW129210   3.373   3.624   7.422  0.5381 -0.1098 -1.0876
 5916SOL    HW229211   3.510   3.594   7.385  0.6353  0.4338  0.1773
 5917SOL     OW29212   1.452   0.492   4.827  0.0058 -0.2354 -0.0770
 5917SOL    HW129213   1.380   0.553   4.810  0.1209 -0.5497 -1.6884
 5917SOL    HW229214   1.464   0.518   4.918 -1.3985  1.9870 -0.5369
 5918SOL     OW29215   0.954   2.297   3.814 -0.4338  0.2488  0.0356
 5918SOL    HW129216   0.988   2.303   3.725 -0.0581  0.7416  0.2105
 5918SOL    HW229217   1.033   2.308   3.866 -1.1217  3.0479  0.5008
 5919SOL     OW29218   3.345   1.510   2.974 -0.2330  0.0482 -0.9506
 5919SOL    HW129219   3.277   1.448   2.947 -0.2068 -0.1419 -0.5720
 5919SOL    HW229220   3.340   1.495   3.068  0.8403  1.8779 -0.6080
 5920SOL     OW29221   4.094   0.658  13.104  0.3118 -0.1583  0.2507
 5920SOL    HW129222   4.071   0.574  13.066  1.5697 -0.1481 -0.5472
 5920SOL    HW229223   4.012   0.705  13.088  0.6709  1.3778  2.8141
 5921SOL     OW29224   0.740   0.432  15.091  0.0093  0.2388  0.5089
 5921SOL    HW129225   0.672   0.368  15.112 -0.3810  0.2958 -0.5610
 5921SOL    HW229226   0.715   0.510  15.141  0.1559  1.3698 -1.1718
 5922SOL     OW29227   2.550   0.788   9.189  0.0015  0.5231 -0.7360
 5922SOL    HW129228   2.513   0.708   9.150 -0.8013  0.4029  0.2609
 5922SOL    HW229229   2.530   0.857   9.126  1.4277  1.2632 -0.3677
 5923SOL     OW29230   2.577   2.666   6.543 -0.3651  0.5453  0.4202
 5923SOL    HW129231   2.572   2.757   6.573  4.7127  0.7293  0.7004
 5923SOL    HW229232   2.551   2.684   6.452 -0.9661  0.7854  0.6409
 5924SOL     OW29233   2.839   0.459   6.338 -0.1715  0.3290 -0.1995
 5924SOL    HW129234   2.850   0.364   6.329 -0.7377  0.0582  1.8784
 5924SOL    HW229235   2.744   0.459   6.330 -0.1605  0.2359 -0.3282
 5925SOL     OW29236   0.273   3.064   7.199 -0.0611  0.3480 -0.7375
 5925SOL    HW129237   0.274   3.156   7.227  1.3535  0.7043 -2.0102
 5925SOL    HW229238   0.280   3.020   7.284 -1.6256 -2.0219 -1.8492
 5926SOL     OW29239   4.530   0.070   0.504 -0.1336  0.6920  0.2597
 5926SOL    HW129240   4.505   4.708   0.538 -0.3190  0.4856 -0.4073
 5926SOL    HW229241   4.534   0.125   0.582 -1.8030  2.1752 -0.7105
 5927SOL     OW29242   2.121   2.760   4.619  0.4265  0.3586 -0.2164
 5927SOL    HW129243   2.154   2.794   4.536  1.2131  0.6036  0.1896
 5927SOL    HW229244   2.028   2.768   4.602  0.3289  0.5819  0.3972
 5928SOL     OW29245   3.038   2.137   6.310 -0.2868  0.3880 -0.0621
 5928SOL    HW129246   2.961   2.080   6.297 -1.0165  1.3500  0.0358
 5928SOL    HW229247   3.043   2.158   6.403 -1.1428 -1.1576  0.3336
 5929SOL     OW29248   4.616   2.208   4.941 -0.3977 -0.9203 -0.7086
 5929SOL    HW129249   4.676   2.146   4.900 -0.1441 -1.7721  0.9681
 5929SOL    HW229250   4.636   2.288   4.892  0.8067 -0.2069  0.9342
 5930SOL     OW29251   3.666   4.180   4.221 -0.1982  0.3727 -0.1721
 5930SOL    HW129252   3.581   4.142   4.243  0.0406  0.3768  0.7704
 5930SOL    HW229253   3.651   4.256   4.277 -1.2261  0.2070 -0.2313
 5931SOL     OW29254   3.025   0.797   5.307  0.2583  0.1012 -0.5450
 5931SOL    HW129255   2.976   0.878   5.296  1.2336  1.2241  3.3814
 5931SOL    HW229256   2.954   0.738   5.283  0.7677 -1.4464  1.7282
 5932SOL     OW29257   0.070   2.290   6.605 -0.0680 -0.2946  0.1905
 5932SOL    HW129258   0.107   2.218   6.552  0.1938  0.5393 -0.7675
 5932SOL    HW229259   0.128   2.363   6.584  0.6226 -1.2823 -1.3759
 5933SOL     OW29260   1.762   1.107  14.662  0.1919 -0.0621  0.7854
 5933SOL    HW129261   1.753   1.101  14.567  0.7611  1.6211  0.6221
 5933SOL    HW229262   1.727   1.195  14.673  0.8770  0.3744 -0.5621
 5934SOL     OW29263   0.490   3.029   8.116  0.3546  0.1456  0.0324
 5934SOL    HW129264   0.539   2.949   8.097  2.7489  1.6676 -0.1988
 5934SOL    HW229265   0.507   3.037   8.210 -2.2295  0.7956  0.4508
 5935SOL     OW29266   0.727   0.868   4.415 -0.1375  0.1786  0.0056
 5935SOL    HW129267   0.677   0.944   4.445  1.6352  0.7479  1.5144
 5935SOL    HW229268   0.693   0.854   4.327  0.3302  0.9872 -0.3040
 5936SOL     OW29269   2.938   2.990   0.762 -0.2773 -0.5753 -0.1759
 5936SOL    HW129270   2.875   3.021   0.827  1.8759  2.3599  0.5048
 5936SOL    HW229271   2.895   2.913   0.725  0.3180 -1.3747  0.7852
 5937SOL     OW29272   2.248   1.382   5.754 -0.7253  0.1502  0.0661
 5937SOL    HW129273   2.298   1.463   5.759  0.6729 -0.7133 -0.0044
 5937SOL    HW229274   2.156   1.409   5.753 -0.7169  0.1058 -1.6243
 5938SOL     OW29275   1.527   2.284   2.024 -0.2154 -0.4528 -0.1090
 5938SOL    HW129276   1.499   2.336   2.099  1.1184 -0.3282  0.2887
 5938SOL    HW229277   1.514   2.350   1.956 -2.0118 -0.9755 -0.2914
 5939SOL     OW29278   2.082   2.471   7.463  0.3518 -0.8476 -0.2654
 5939SOL    HW129279   2.058   2.510   7.379  2.4311  0.7628 -0.0983
 5939SOL    HW229280   2.072   2.375   7.458  2.2315 -1.0000 -1.1216
 5940SOL     OW29281   1.657   1.049  16.053 -0.2126 -0.5624 -0.1788
 5940SOL    HW129282   1.739   1.097  16.060 -0.5844  0.1647 -0.8076
 5940SOL    HW229283   1.697   0.963  16.038  0.4071 -0.3026 -0.0321
 5941SOL     OW29284   0.267   1.446   9.964 -0.4669 -0.2205 -0.3776
 5941SOL    HW129285   0.335   1.382   9.985 -1.3712 -0.1766  2.7238
 5941SOL    HW229286   0.191   1.393   9.939  0.7542 -1.5810 -1.1213
 5942SOL     OW29287   0.653   3.605   5.859  0.0836  0.1853  0.4055
 5942SOL    HW129288   0.660   3.676   5.795 -0.0932  0.5863  0.8298
 5942SOL    HW229289   0.735   3.559   5.841  0.4385  1.4854 -1.2893
 5943SOL     OW29290   3.019   3.980   2.225 -0.3342 -0.0990  0.2382
 5943SOL    HW129291   2.958   4.036   2.178  1.3711  2.1792  0.7544
 5943SOL    HW229292   2.953   3.935   2.278 -0.0241  1.9504  2.3624
 5944SOL     OW29293   3.962   0.101   7.155 -0.1945  0.4522 -0.0514
 5944SOL    HW129294   3.893   0.167   7.151 -0.0820  0.2713 -4.1622
 5944SOL    HW229295   3.908   0.022   7.149  0.2813  0.2186 -1.2373
 5945SOL     OW29296   3.170   0.470   7.201  0.4672  0.2910 -0.2052
 5945SOL    HW129297   3.182   0.538   7.267  0.4515 -0.6665  0.7902
 5945SOL    HW229298   3.113   0.421   7.261  0.5431 -1.4636 -1.5656
 5946SOL     OW29299   4.012   0.447  12.958 -0.2560 -0.0188 -0.0475
 5946SOL    HW129300   3.925   0.409  12.944 -1.0097  1.6149  0.2148
 5946SOL    HW229301   4.039   0.433  12.868  1.2310  1.0106  0.2446
 5947SOL     OW29302   1.798   3.551  10.543  0.3576  0.3088 -0.0426
 5947SOL    HW129303   1.858   3.612  10.587  1.7012 -0.1913 -1.1488
 5947SOL    HW229304   1.739   3.606  10.492 -1.0054  0.4649  1.7280
 5948SOL     OW29305   2.543   1.680   6.830 -0.6109  0.0486 -0.5789
 5948SOL    HW129306   2.539   1.641   6.917  2.4652 -0.2773 -0.5680
 5948SOL    HW229307   2.493   1.614   6.783 -1.4416  0.8180 -0.7820
 5949SOL     OW29308   2.107   0.710   7.049  0.1878 -0.4824 -0.4711
 5949SOL    HW129309   2.101   0.801   7.075  5.0258 -0.1906 -0.3235
 5949SOL    HW229310   2.194   0.680   7.076 -0.0514  0.7276  1.6102
 5950SOL     OW29311   0.761   1.791   8.973  0.2807 -0.1957  0.2176
 5950SOL    HW129312   0.839   1.735   8.972  1.7623  1.9088 -1.4432
 5950SOL    HW229313   0.701   1.751   8.910  0.6672  1.5794 -1.2592
 5951SOL     OW29314   4.306   1.153   1.320 -0.1202  0.2622 -0.1343
 5951SOL    HW129315   4.330   1.165   1.412  2.0408  2.1719 -0.9444
 5951SOL    HW229316   4.271   1.238   1.295  0.3368  0.2256 -0.8960
 5952SOL     OW29317   2.425   4.569   5.581  0.3215  0.4473  0.2701
 5952SOL    HW129318   2.332   4.581   5.559  0.2258  3.2710  2.1128
 5952SOL    HW229319   2.442   4.663   5.590 -0.9761  0.6911  0.1960
 5953SOL     OW29320   3.648   4.178   8.264  0.2124 -0.2703 -0.1372
 5953SOL    HW129321   3.587   4.116   8.224 -1.7218  0.9482  0.8855
 5953SOL    HW229322   3.635   4.150   8.355  0.8873 -0.0185  0.0403
 5954SOL     OW29323   3.140   1.852  14.270  0.2339  0.2652 -0.1925
 5954SOL    HW129324   3.167   1.943  14.283  1.5044 -0.1055 -0.2045
 5954SOL    HW229325   3.125   1.824  14.360  1.6791  0.7652  0.2040
 5955SOL     OW29326   2.444   2.468   7.025 -0.1214  0.2428  0.4061
 5955SOL    HW129327   2.477   2.487   7.113 -1.6148  0.9917  0.8079
 5955SOL    HW229328   2.415   2.377   7.025 -0.2671  0.2784 -1.7075
 5956SOL     OW29329   1.630   4.458   8.303  0.1265  0.3130 -0.2401
 5956SOL    HW129330   1.665   4.376   8.338 -2.4603 -0.8536 -0.3713
 5956SOL    HW229331   1.610   4.519   8.374  2.0808 -1.0041  1.4458
 5957SOL     OW29332   2.792   3.307   8.596  0.3480  0.1430 -0.2157
 5957SOL    HW129333   2.819   3.247   8.526 -1.3623  3.0362 -3.3662
 5957SOL    HW229334   2.712   3.268   8.632 -0.7945  1.6572 -1.1559
 5958SOL     OW29335   3.119   2.041   4.062 -0.3566  0.0789 -0.7208
 5958SOL    HW129336   3.043   2.090   4.095  1.2362  1.9546  0.1274
 5958SOL    HW229337   3.115   2.054   3.968 -1.1735 -1.9595 -0.9666
 5959SOL     OW29338   0.914   3.950   1.665  0.3618  0.2543  0.6243
 5959SOL    HW129339   0.847   3.881   1.662  1.2084 -0.4605 -2.2578
 5959SOL    HW229340   0.994   3.903   1.689  0.5630  0.4262  0.2899
 5960SOL     OW29341   2.243   2.714   5.507  0.8123  0.8456  0.0978
 5960SOL    HW129342   2.189   2.789   5.483  1.1460  0.7494 -0.9406
 5960SOL    HW229343   2.321   2.729   5.454  0.8466 -0.5020 -0.2456
 5961SOL     OW29344   0.742   2.069   1.601  0.3278 -0.7132  0.4720
 5961SOL    HW129345   0.768   2.121   1.525 -2.2806 -0.2626 -0.1099
 5961SOL    HW229346   0.741   1.986   1.552  0.9638 -0.9457  0.8577
 5962SOL     OW29347   0.097   3.327  14.165  0.0359 -0.8105 -0.2885
 5962SOL    HW129348   0.010   3.326  14.126 -0.2949 -2.0288  0.5049
 5962SOL    HW229349   0.082   3.274  14.243 -0.0210  1.9842  1.6334
 5963SOL     OW29350   0.331   0.073   3.743  0.5288 -0.7414  0.2476
 5963SOL    HW129351   0.328   4.720   3.800  0.5050  0.5245  1.9521
 5963SOL    HW229352   0.414   0.072   3.696 -0.3261 -0.4682 -1.2489
 5964SOL     OW29353   3.071   3.315  14.218 -0.1077 -0.1806  0.4134
 5964SOL    HW129354   3.088   3.347  14.129  1.0018 -0.5509  0.4887
 5964SOL    HW229355   2.995   3.365  14.247 -0.0355 -0.1737  0.5903
 5965SOL     OW29356   4.720   0.527   3.991  0.6608 -0.4759 -0.2489
 5965SOL    HW129357   4.690   0.615   3.971  0.4021 -0.6831 -0.7779
 5965SOL    HW229358   0.016   0.530   4.085 -0.4166 -1.2952  0.0074
 5966SOL     OW29359   1.317   0.271   4.751  0.4178  0.3333  0.1609
 5966SOL    HW129360   1.308   0.230   4.837  0.3802 -1.1309 -0.5369
 5966SOL    HW229361   1.351   0.354   4.785 -0.8165  1.7961 -2.1938
 5967SOL     OW29362   0.377   3.577   3.865 -0.2897 -0.3165  0.0870
 5967SOL    HW129363   0.410   3.527   3.940  0.3327  0.9227  0.6396
 5967SOL    HW229364   0.313   3.514   3.832  1.8623 -2.1833 -0.4902
 5968SOL     OW29365   3.367   2.361   5.161 -0.5971 -0.3146  0.3807
 5968SOL    HW129366   3.364   2.444   5.209  0.3773  0.1838 -0.4196
 5968SOL    HW229367   3.377   2.301   5.235  2.3092  0.4890  0.6370
 5969SOL     OW29368   3.993   0.495   7.734  0.1067  0.7951 -0.1350
 5969SOL    HW129369   3.969   0.406   7.709  0.1613  0.2966  1.5928
 5969SOL    HW229370   4.019   0.476   7.825 -1.4147  0.3674  0.2079
 5970SOL     OW29371   2.718   3.295  13.071  0.1375 -0.0777  0.0790
 5970SOL    HW129372   2.812   3.303  13.059 -0.1413  0.3612 -1.8441
 5970SOL    HW229373   2.685   3.384  13.059  1.6741  0.5673  0.7208
 5971SOL     OW29374   2.955   1.440   4.149 -0.5269 -0.1344 -0.1081
 5971SOL    HW129375   2.945   1.351   4.184  1.0831 -0.9528 -1.7549
 5971SOL    HW229376   2.976   1.484   4.232 -0.8842  1.9693 -1.1184
 5972SOL     OW29377   1.410   3.194  12.257 -0.4145  0.1234  0.1317
 5972SOL    HW129378   1.323   3.184  12.297  0.4943 -0.2054  2.0401
 5972SOL    HW229379   1.389   3.220  12.167  1.2356  1.3452  0.1057
 5973SOL     OW29380   0.339   1.265  13.492 -0.0938 -0.3024  0.6983
 5973SOL    HW129381   0.394   1.338  13.464 -1.1326 -0.1275 -0.8628
 5973SOL    HW229382   0.359   1.200  13.425 -0.3482 -0.3318  0.6494
 5974SOL     OW29383   0.075   0.013   0.759  0.1548 -0.3779 -0.1339
 5974SOL    HW129384   0.139   0.081   0.738 -0.9443  0.0817 -2.0651
 5974SOL    HW229385   0.041   0.045   0.842 -0.2641  1.2488 -0.9299
 5975SOL     OW29386   0.048   0.673   4.276  0.6704 -0.0633 -0.2613
 5975SOL    HW129387   0.121   0.667   4.214 -0.2325 -0.6938 -1.2609
 5975SOL    HW229388   0.049   0.581   4.305  0.7309  0.5517  1.6763
 5976SOL     OW29389   3.832   3.522   1.523 -0.1889 -0.0200  0.3705
 5976SOL    HW129390   3.810   3.506   1.431 -2.5469 -3.6266  1.5324
 5976SOL    HW229391   3.779   3.594   1.556  0.7689  1.2575 -0.8995
 5977SOL     OW29392   4.352   1.601   4.288  0.0217 -0.1565  0.3829
 5977SOL    HW129393   4.327   1.587   4.379 -0.1742 -0.9722  0.2119
 5977SOL    HW229394   4.286   1.546   4.245  1.3288 -1.7129  0.3744
 5978SOL     OW29395   2.762   2.562   8.095 -0.0958  0.1983 -0.5949
 5978SOL    HW129396   2.739   2.655   8.100 -1.4609 -0.0909 -1.3890
 5978SOL    HW229397   2.779   2.544   8.187  0.0077  1.8943 -0.2935
 5979SOL     OW29398   2.268   2.103   1.919  0.2071 -0.2975  0.5198
 5979SOL    HW129399   2.220   2.021   1.903 -0.0523 -0.1944  0.7712
 5979SOL    HW229400   2.232   2.164   1.855  2.3047  0.8176  0.3908
 5980SOL     OW29401   0.228   0.434  10.738 -0.3865 -0.5208  0.3675
 5980SOL    HW129402   0.260   0.456  10.826 -3.7374 -2.4555  2.0949
 5980SOL    HW229403   0.210   0.340  10.739 -1.2354 -0.3203  2.7489
 5981SOL     OW29404   3.293   2.010   2.233 -0.0277  0.5661  0.5698
 5981SOL    HW129405   3.205   2.027   2.201  0.3863  0.0703 -0.8002
 5981SOL    HW229406   3.307   1.917   2.249  0.4348  0.8716  2.0325
 5982SOL     OW29407   2.963   1.972  15.069  0.0948 -0.0468  0.2875
 5982SOL    HW129408   3.055   1.997  15.066 -0.1503  1.1765  2.7696
 5982SOL    HW229409   2.926   2.049  15.112 -2.5371 -1.7093  0.9899
 5983SOL     OW29410   3.296   3.516   5.352 -0.8252 -0.0148  0.0740
 5983SOL    HW129411   3.341   3.437   5.321 -1.5536 -0.7596  0.9331
 5983SOL    HW229412   3.303   3.565   5.270 -0.3959  2.4152  1.5971
 5984SOL     OW29413   2.274   3.495   6.101 -0.3553 -0.4396  0.0848
 5984SOL    HW129414   2.309   3.549   6.030 -1.3381 -1.7270 -1.3957
 5984SOL    HW229415   2.230   3.558   6.157  0.6154 -1.0788  1.5727
 5985SOL     OW29416   0.167   2.474   9.835  0.3438  0.7253 -0.1603
 5985SOL    HW129417   0.137   2.487   9.925 -1.1300 -1.1405 -0.3793
 5985SOL    HW229418   0.189   2.561   9.802 -1.6373  1.5017  0.6084
 5986SOL     OW29419   1.824   0.656  12.605  0.3914 -0.6973 -0.1080
 5986SOL    HW129420   1.845   0.568  12.637  0.8236 -1.2992 -1.9908
 5986SOL    HW229421   1.865   0.714  12.668 -1.5399  0.1934  0.3196
 5987SOL     OW29422   4.181   3.439   2.589 -0.3984 -0.1450  0.2829
 5987SOL    HW129423   4.131   3.357   2.584 -0.9480  0.0559  2.6010
 5987SOL    HW229424   4.118   3.504   2.557 -0.1246 -0.6162 -1.2164
 5988SOL     OW29425   0.928   3.503  13.388  0.0328 -0.0876 -0.2669
 5988SOL    HW129426   0.854   3.464  13.342  0.5713  1.0169 -2.0545
 5988SOL    HW229427   0.948   3.580  13.336  2.6914  1.3662  2.9026
 5989SOL     OW29428   3.586   1.228  14.493 -0.0404  0.0547 -0.3902
 5989SOL    HW129429   3.496   1.196  14.501 -0.5393  1.3096 -0.9117
 5989SOL    HW229430   3.586   1.224  14.398  1.9549 -0.2876 -0.3723
 5990SOL     OW29431   2.546   2.708   8.478 -0.3654 -0.4233 -0.2957
 5990SOL    HW129432   2.592   2.629   8.449  0.4581 -0.8013  2.0496
 5990SOL    HW229433   2.458   2.671   8.483 -0.2784 -0.4916  0.8100
 5991SOL     OW29434   0.365   0.829   5.423 -0.3055 -0.5298 -0.2689
 5991SOL    HW129435   0.275   0.863   5.420 -1.4324 -3.6103 -1.0386
 5991SOL    HW229436   0.355   0.740   5.390  0.1305 -0.0610 -1.6693
 5992SOL     OW29437   0.102   0.412  10.483  1.0802  0.4393 -0.1625
 5992SOL    HW129438   0.184   0.459  10.467  0.2385  1.7454 -0.7116
 5992SOL    HW229439   0.096   0.408  10.578  2.2240 -1.0746 -0.1681
 5993SOL     OW29440   1.851   1.188   5.788  0.2758 -0.0556  0.2447
 5993SOL    HW129441   1.849   1.236   5.871  0.2404 -2.0183  1.3895
 5993SOL    HW229442   1.923   1.126   5.803  1.8532  1.9574  1.0100
 5994SOL     OW29443   0.481   1.251   8.694 -0.2192  0.2535 -0.0412
 5994SOL    HW129444   0.450   1.168   8.657 -0.2487  1.1790 -2.0656
 5994SOL    HW229445   0.403   1.306   8.700 -0.4392 -0.1920  1.2173
 5995SOL     OW29446   1.646   4.277  13.726  0.2114  0.5551 -0.1219
 5995SOL    HW129447   1.722   4.311  13.773  2.6901 -2.4418 -1.9901
 5995SOL    HW229448   1.577   4.343  13.736  0.5764  0.8363  0.5445
 5996SOL     OW29449   2.912   1.175   6.383  0.3543 -0.5194  0.2157
 5996SOL    HW129450   2.913   1.095   6.329 -1.1565  1.5486 -2.8787
 5996SOL    HW229451   3.004   1.197   6.396  0.0436 -0.2315  1.8684
 5997SOL     OW29452   1.719   2.629  12.241 -0.0245 -0.1682  0.1472
 5997SOL    HW129453   1.685   2.645  12.153  0.3855 -1.1277 -0.1836
 5997SOL    HW229454   1.647   2.580  12.281 -0.7975  1.7133  1.0419
 5998SOL     OW29455   4.530   2.484   4.575 -0.6587 -0.1430  0.1017
 5998SOL    HW129456   4.499   2.405   4.531 -1.2296  0.6757 -0.9566
 5998SOL    HW229457   4.559   2.535   4.499  2.3394 -0.7916  0.8072
 5999SOL     OW29458   2.518   0.042   0.845 -0.0063  0.2959  0.3183
 5999SOL    HW129459   2.600   4.717   0.852 -0.0252  0.5156  2.1237
 5999SOL    HW229460   2.463   4.710   0.791  1.1758  2.1674 -2.7967
 6000SOL     OW29461   1.949   0.312   8.198 -0.6651 -0.6837 -0.3203
 6000SOL    HW129462   2.037   0.325   8.235 -0.6588 -1.3830 -0.0890
 6000SOL    HW229463   1.979   0.280   8.114 -0.5719 -1.9160  0.1864
 6001SOL     OW29464   3.075   0.651  15.333  0.7459  0.2903  0.0101
 6001SOL    HW129465   3.059   0.572  15.281 -0.1766 -0.7902  1.9188
 6001SOL    HW229466   3.152   0.624  15.384  0.8214  0.2695 -0.1152
 6002SOL     OW29467   1.509   1.721   5.767 -0.4395 -0.0267 -0.2676
 6002SOL    HW129468   1.449   1.703   5.694 -1.4228 -3.1701  1.3370
 6002SOL    HW229469   1.598   1.717   5.731 -0.2477 -0.0015  0.2104
 6003SOL     OW29470   4.553   4.257   8.923  0.0137  0.6075  0.9424
 6003SOL    HW129471   4.586   4.255   9.013  1.9435 -0.5717  0.2073
 6003SOL    HW229472   4.621   4.194   8.896  1.2642  1.7097  1.5269
 6004SOL     OW29473   2.888   2.498  12.764  0.2343  0.1968 -0.2756
 6004SOL    HW129474   2.797   2.490  12.736  0.6930 -3.1586 -0.8383
 6004SOL    HW229475   2.925   2.410  12.775 -1.6937 -0.8807 -2.3701
 6005SOL     OW29476   1.990   3.779   0.303 -0.3401  0.3525 -0.0843
 6005SOL    HW129477   1.948   3.845   0.358 -0.9294  0.9581 -1.2696
 6005SOL    HW229478   1.932   3.703   0.313 -0.4997  0.4940  0.0645
 6006SOL     OW29479   2.516   2.097   2.968 -0.2404  0.0505 -0.6843
 6006SOL    HW129480   2.551   2.028   2.911  0.0622 -0.5572  0.2410
 6006SOL    HW229481   2.581   2.165   2.954 -0.7869  0.1872 -2.5489
 6007SOL     OW29482   2.185   3.299   3.538 -0.0309  0.1133  0.0467
 6007SOL    HW129483   2.209   3.389   3.561  0.8412  0.1759 -1.0850
 6007SOL    HW229484   2.269   3.258   3.557 -0.1007 -0.9599 -1.8538
 6008SOL     OW29485   3.948   3.966   6.615 -0.4190  0.1174  0.0080
 6008SOL    HW129486   4.006   4.037   6.643  1.5641 -1.0100 -1.2114
 6008SOL    HW229487   4.002   3.933   6.543 -1.2637  1.3828 -1.2279
 6009SOL     OW29488   2.010   4.259   8.967  0.3542 -0.4391 -0.4176
 6009SOL    HW129489   1.947   4.219   9.027  1.6971 -1.6428  0.1914
 6009SOL    HW229490   2.087   4.274   9.022 -1.3772  0.5255  1.7339
 6010SOL     OW29491   1.568   3.544   7.550 -1.3874 -0.1075 -0.5094
 6010SOL    HW129492   1.494   3.599   7.575 -1.5334 -0.9548  0.9217
 6010SOL    HW229493   1.644   3.597   7.570 -1.2808 -0.7097  0.6621
 6011SOL     OW29494   0.620   3.308   4.328 -0.2520 -0.2968 -0.7926
 6011SOL    HW129495   0.602   3.402   4.328 -0.9749 -0.4397  1.5735
 6011SOL    HW229496   0.540   3.272   4.367  1.6384  0.1950  3.5594
 6012SOL     OW29497   1.227   4.381  16.420  0.2574  0.0402  0.3475
 6012SOL    HW129498   1.269   4.297  16.439  1.3160  0.8374  1.5400
 6012SOL    HW229499   1.133   4.364  16.410  0.7994 -3.0481  0.3470
 6013SOL     OW29500   0.995   0.368  14.293 -0.2120  0.4817  0.3269
 6013SOL    HW129501   0.963   0.353  14.204  1.8846  1.6391 -0.6387
 6013SOL    HW229502   1.069   0.427  14.277  1.6071 -1.1694  2.6114
 6014SOL     OW29503   2.691   0.922   5.465 -0.5326  0.4283  0.4725
 6014SOL    HW129504   2.777   0.900   5.501 -0.1600  1.2645  0.0987
 6014SOL    HW229505   2.665   0.975   5.540  0.8302  0.7312  0.7400
 6015SOL     OW29506   2.471   1.493  15.529 -0.3810  0.6858 -0.3268
 6015SOL    HW129507   2.530   1.531  15.464  1.7826  0.7693  1.7079
 6015SOL    HW229508   2.538   1.456  15.585 -1.8899  0.6213  1.4335
 6016SOL     OW29509   4.143   2.008   7.155 -0.1897 -0.5295 -0.2184
 6016SOL    HW129510   4.098   2.003   7.240 -0.1004  0.6672 -0.1007
 6016SOL    HW229511   4.122   1.920   7.125 -0.0946  0.0891 -2.0621
 6017SOL     OW29512   2.555   1.075  15.629 -0.0868  0.0945  1.0040
 6017SOL    HW129513   2.629   1.021  15.603 -2.0586 -2.0060 -0.2341
 6017SOL    HW229514   2.596   1.161  15.640  1.3348 -0.7440  2.1534
 6018SOL     OW29515   0.045   1.500  11.288 -0.3177  0.1856 -0.3048
 6018SOL    HW129516   4.699   1.565  11.282 -1.6306 -1.2162 -0.2209
 6018SOL    HW229517   0.026   1.451  11.369 -1.9462  2.3608  0.6478
 6019SOL     OW29518   1.094   0.363   6.840  0.4783 -0.1739 -0.1832
 6019SOL    HW129519   1.167   0.385   6.898  0.9544 -0.2448 -0.7563
 6019SOL    HW229520   1.142   0.359   6.757 -0.2341  3.7853 -0.7975
 6020SOL     OW29521   1.392   4.453   7.466  0.1908 -0.8871 -0.4806
 6020SOL    HW129522   1.300   4.447   7.489  0.6574 -1.3383  1.2752
 6020SOL    HW229523   1.389   4.534   7.415  0.3084 -0.4370  0.2322
 6021SOL     OW29524   0.097   0.676   7.441  0.4179  0.3785  0.1391
 6021SOL    HW129525   0.104   0.587   7.407  0.7518 -0.1861  1.6781
 6021SOL    HW229526   0.004   0.691   7.422  0.0014 -0.9801  1.1222
 6022SOL     OW29527   0.516   3.289   3.747 -0.5664 -0.2645  0.2159
 6022SOL    HW129528   0.567   3.230   3.803 -0.6147  0.9982  1.5635
 6022SOL    HW229529   0.446   3.234   3.711 -1.6606  0.7950  0.7135
 6023SOL     OW29530   4.572   4.135   1.806  0.1346 -0.1281 -0.2132
 6023SOL    HW129531   4.597   4.169   1.720  1.0288 -0.3700 -0.0471
 6023SOL    HW229532   4.558   4.042   1.788 -0.5003  0.0213 -0.4743
 6024SOL     OW29533   3.271   0.188   0.612  0.7041  0.3226 -0.3811
 6024SOL    HW129534   3.233   0.181   0.700 -0.7112  1.1319 -0.9305
 6024SOL    HW229535   3.290   0.281   0.621  0.4345  0.5896 -2.7054
 6025SOL     OW29536   1.473   1.995   6.790  0.2494  0.6757  0.2225
 6025SOL    HW129537   1.471   1.932   6.861 -0.4218  0.3487 -0.0825
 6025SOL    HW229538   1.485   2.060   6.859 -2.6610  2.2385 -0.7224
 6026SOL     OW29539   1.147   4.427   0.388 -0.2533 -0.2060  0.2121
 6026SOL    HW129540   1.064   4.414   0.341 -0.4685 -1.1760  0.8651
 6026SOL    HW229541   1.214   4.375   0.345 -0.8776  0.3653 -1.4633
 6027SOL     OW29542   2.283   4.154   2.933 -0.3380  0.1761 -0.4573
 6027SOL    HW129543   2.337   4.097   2.878  0.0228 -1.8973  2.0707
 6027SOL    HW229544   2.293   4.234   2.882 -0.2037  1.2280  1.2458
 6028SOL     OW29545   1.439   0.241   5.661  0.2728  0.3388 -0.4276
 6028SOL    HW129546   1.459   0.154   5.696  2.2450  0.6011 -0.9122
 6028SOL    HW229547   1.463   0.215   5.571  0.6313  1.3996 -0.6331
 6029SOL     OW29548   3.397   4.186   3.051  0.3445  0.2215  0.0681
 6029SOL    HW129549   3.313   4.229   3.034 -0.5661 -1.1516  1.0745
 6029SOL    HW229550   3.440   4.213   2.970 -0.7992  2.9283  0.3555
 6030SOL     OW29551   4.549   3.331  14.062 -0.1808  0.4421 -0.0096
 6030SOL    HW129552   4.513   3.419  14.052  0.5585  0.4653 -2.3987
 6030SOL    HW229553   4.529   3.290  13.978  1.0709  2.1606 -1.1304
 6031SOL     OW29554   1.409   3.836   3.725 -0.0729 -0.2562  0.2063
 6031SOL    HW129555   1.374   3.918   3.760 -0.8165 -0.2964 -0.4648
 6031SOL    HW229556   1.416   3.767   3.791  1.3986 -0.8857 -0.6032
 6032SOL     OW29557   0.328   2.962   1.605 -0.0197 -0.2803  0.0758
 6032SOL    HW129558   0.305   2.897   1.538  1.4341 -0.8773  0.1523
 6032SOL    HW229559   0.385   3.023   1.557  0.7207 -0.8672  0.2115
 6033SOL     OW29560   1.883   0.325   7.246 -0.1536 -0.2067 -0.6400
 6033SOL    HW129561   1.846   0.410   7.270  1.2217  0.8370 -2.2413
 6033SOL    HW229562   1.854   0.267   7.316  0.3498  1.7046  1.1564
 6034SOL     OW29563   3.663   0.348  16.688 -0.2400 -0.4997 -0.3890
 6034SOL    HW129564   3.609   0.329  16.612 -0.4218 -2.0381  0.1188
 6034SOL    HW229565   3.643   0.269  16.739  3.3655  0.6228  2.8018
 6035SOL     OW29566   2.626   1.047   4.157  0.3289  0.2915 -0.5984
 6035SOL    HW129567   2.654   0.997   4.080  1.0939 -3.1312  1.8481
 6035SOL    HW229568   2.579   0.973   4.196  0.3782  2.0509  2.8073
 6036SOL     OW29569   4.677   2.665  14.679 -0.0030 -0.1611 -0.1435
 6036SOL    HW129570   0.024   2.705  14.629 -0.0842 -0.0350 -0.1564
 6036SOL    HW229571   4.678   2.718  14.758  1.5106  0.4896 -0.6176
 6037SOL     OW29572   3.245   3.844   2.887 -0.2150  0.1645  0.2090
 6037SOL    HW129573   3.269   3.766   2.936 -0.7716 -0.4705 -0.5338
 6037SOL    HW229574   3.221   3.902   2.959 -0.4106  2.0043 -1.3414
 6038SOL     OW29575   0.640   2.917   9.272  0.0092 -0.5978  0.4165
 6038SOL    HW129576   0.724   2.958   9.249  0.5632 -1.6656  0.5126
 6038SOL    HW229577   0.644   2.892   9.364 -1.8884  0.2834  0.7327
 6039SOL     OW29578   1.577   0.113  11.957  0.4342  0.1885 -0.3157
 6039SOL    HW129579   1.488   0.143  11.937  0.5979  0.6270 -0.3722
 6039SOL    HW229580   1.560   0.037  12.012 -0.6544 -0.6233 -1.7578
 6040SOL     OW29581   4.520   1.022  11.804  0.2580  0.2077 -0.3336
 6040SOL    HW129582   4.503   1.096  11.746  0.1378  0.1496 -0.3748
 6040SOL    HW229583   4.475   0.958  11.747 -0.5224  0.6974 -0.2615
 6041SOL     OW29584   3.075   4.369   0.926 -0.4159 -0.8558  0.4263
 6041SOL    HW129585   3.113   4.350   1.012 -1.8679 -0.9414  1.0530
 6041SOL    HW229586   2.983   4.379   0.951 -0.3554  0.4498  0.1348
 6042SOL     OW29587   1.754   4.061   4.395 -0.6195  0.0656  0.1160
 6042SOL    HW129588   1.804   4.143   4.400 -3.1634  1.5056  1.9650
 6042SOL    HW229589   1.677   4.074   4.451 -1.8995 -1.4570 -1.2792
 6043SOL     OW29590   3.519   2.902   4.773 -0.0183 -0.0232  0.4128
 6043SOL    HW129591   3.557   2.976   4.726 -0.2742 -0.6003 -0.6860
 6043SOL    HW229592   3.583   2.838   4.742  1.5036  1.7240 -0.0329
 6044SOL     OW29593   1.691   2.132  12.385  0.0151  0.5855 -0.4068
 6044SOL    HW129594   1.639   2.051  12.389  0.4168  0.3524  0.1026
 6044SOL    HW229595   1.616   2.192  12.383 -1.9608 -1.8628 -0.4651
 6045SOL     OW29596   2.105   0.963   0.062  0.2459 -0.2968 -0.0227
 6045SOL    HW129597   2.100   0.921   0.148 -2.4686 -1.5346 -0.7892
 6045SOL    HW229598   2.082   0.889   0.005 -0.2579  0.0475 -0.2656
 6046SOL     OW29599   0.809   0.626   8.699 -0.2335  0.3121 -0.6514
 6046SOL    HW129600   0.730   0.573   8.702  1.1609 -1.7629  0.0025
 6046SOL    HW229601   0.798   0.662   8.611 -0.5510  0.2601 -0.6317
 6047SOL     OW29602   1.784   3.785   2.454 -0.0996  0.2741  0.1917
 6047SOL    HW129603   1.721   3.759   2.521 -0.2959 -0.2100 -0.1742
 6047SOL    HW229604   1.865   3.768   2.501 -0.4647  2.0974  1.4598
 6048SOL     OW29605   2.917   1.007  11.909 -0.3469  0.4666 -0.4317
 6048SOL    HW129606   2.912   0.927  11.856  0.9422 -0.3939  0.7265
 6048SOL    HW229607   2.833   1.049  11.893 -0.2321  0.1345 -1.8859
 6049SOL     OW29608   2.152   3.251   2.513  0.0265 -0.7770 -0.0510
 6049SOL    HW129609   2.224   3.300   2.473 -0.8728  0.3504 -0.2776
 6049SOL    HW229610   2.088   3.243   2.443 -0.6372  1.0259  0.3491
 6050SOL     OW29611   1.798   2.893   8.928  1.0639  0.0139  0.2050
 6050SOL    HW129612   1.796   2.805   8.890  0.2124  0.7898 -1.5992
 6050SOL    HW229613   1.861   2.870   8.996  0.1161 -0.4587  0.9325
 6051SOL     OW29614   0.422   3.322   1.279  0.2152  0.1437  0.9095
 6051SOL    HW129615   0.459   3.330   1.367  0.5820  3.9200  0.4142
 6051SOL    HW229616   0.405   3.228   1.281  1.7960 -0.1540 -0.3478
 6052SOL     OW29617   1.859   0.356   9.513 -0.0484 -0.3470 -0.0416
 6052SOL    HW129618   1.947   0.320   9.525  0.0422 -0.3674 -0.7716
 6052SOL    HW229619   1.869   0.435   9.565  0.0644 -0.4049  0.0244
 6053SOL     OW29620   0.358   0.255   5.675 -0.2533 -0.2979 -0.0043
 6053SOL    HW129621   0.357   0.238   5.581 -2.0086  0.0922 -0.0652
 6053SOL    HW229622   0.266   0.281   5.682 -0.1240 -0.0961  0.9765
 6054SOL     OW29623   2.293   3.485   7.059 -0.0384 -0.1844 -0.3025
 6054SOL    HW129624   2.323   3.405   7.101  0.2218  0.7050  1.2398
 6054SOL    HW229625   2.213   3.502   7.108  1.2771  2.3058  0.9844
 6055SOL     OW29626   2.254   0.926   6.110 -0.2835  0.4343 -0.3732
 6055SOL    HW129627   2.343   0.951   6.136  0.6355 -2.1128 -1.0187
 6055SOL    HW229628   2.206   1.007   6.095 -0.9460  0.2310  0.6273
 6056SOL     OW29629   2.918   2.888   3.590 -0.0330  0.0763  0.0252
 6056SOL    HW129630   2.847   2.827   3.609  0.7397 -0.1746  2.1689
 6056SOL    HW229631   2.892   2.967   3.638 -0.5808  0.4360 -0.8618
 6057SOL     OW29632   4.697   4.618  14.458 -0.0487  0.4181  0.2038
 6057SOL    HW129633   4.664   4.543  14.409 -0.5522  1.1222 -0.5289
 6057SOL    HW229634   4.693   4.577  14.545  0.5526  1.5895  0.7865
 6058SOL     OW29635   2.975   0.716  15.733 -0.7792 -0.1312  0.2521
 6058SOL    HW129636   2.945   0.632  15.698  0.9515 -0.4751 -0.3953
 6058SOL    HW229637   2.981   0.778  15.660  3.6680 -1.5466 -0.5795
 6059SOL     OW29638   3.825   4.072   9.186 -0.1117 -0.0990  0.2983
 6059SOL    HW129639   3.847   4.102   9.098  0.6761 -2.4615 -0.3050
 6059SOL    HW229640   3.779   3.990   9.173  0.8560 -0.6283  0.2422
 6060SOL     OW29641   0.258   1.134   0.902 -0.2843  0.1777  0.4773
 6060SOL    HW129642   0.314   1.103   0.973  1.6201  1.7039 -0.3613
 6060SOL    HW229643   0.277   1.066   0.838 -1.2874  0.4256 -0.0871
 6061SOL     OW29644   0.769   1.949   6.162  0.3076  0.6091 -0.4128
 6061SOL    HW129645   0.840   1.910   6.111  0.5153  1.6684 -0.9275
 6061SOL    HW229646   0.737   1.869   6.203  1.8477 -0.0691 -0.5426
 6062SOL     OW29647   2.050   2.380   3.036 -1.2869  0.1011 -0.2169
 6062SOL    HW129648   1.982   2.377   3.104 -0.1680 -0.7657  0.8733
 6062SOL    HW229649   2.065   2.474   3.034  0.4152 -0.1283  1.5850
 6063SOL     OW29650   4.378   3.649   6.941 -0.4052  0.0991  0.6992
 6063SOL    HW129651   4.348   3.571   6.988 -0.7019 -0.1217  0.1359
 6063SOL    HW229652   4.439   3.601   6.886 -1.3371 -0.2435 -0.0308
 6064SOL     OW29653   4.082   2.670   3.046  0.2993 -0.0395  0.4879
 6064SOL    HW129654   4.116   2.756   3.071  0.8153 -0.1927  0.3112
 6064SOL    HW229655   3.987   2.679   3.045  0.1884 -1.0761  1.7236
 6065SOL     OW29656   2.425   3.180   3.557  0.0543 -0.3172  0.1763
 6065SOL    HW129657   2.495   3.127   3.595 -0.6268  0.3224  2.3253
 6065SOL    HW229658   2.392   3.119   3.492 -1.7456  1.1232 -0.2517
 6066SOL     OW29659   3.995   1.609   1.199  0.1489  0.0342 -0.6121
 6066SOL    HW129660   4.066   1.671   1.217 -0.2380 -0.7843  3.7736
 6066SOL    HW229661   4.020   1.591   1.108  1.4253  1.2293 -0.5148
 6067SOL     OW29662   3.713   0.795   9.503  0.4343 -0.8355  0.4019
 6067SOL    HW129663   3.681   0.708   9.478  0.0626 -0.9455  1.2505
 6067SOL    HW229664   3.633   0.842   9.529 -0.8695 -2.4570 -0.6274
 6068SOL     OW29665   3.728   0.474  12.123  0.0343  0.4887  0.5213
 6068SOL    HW129666   3.784   0.477  12.200 -0.3999  0.7918  0.8292
 6068SOL    HW229667   3.647   0.445  12.166 -0.3367  1.4218  0.4528
 6069SOL     OW29668   3.401   3.322   5.621 -0.6279  0.3532 -0.4300
 6069SOL    HW129669   3.392   3.417   5.613 -0.5700  0.3031 -1.0902
 6069SOL    HW229670   3.312   3.289   5.611 -0.8342  0.9220 -0.4689
 6070SOL     OW29671   0.044   3.554   8.415 -0.3172  0.4288  0.4164
 6070SOL    HW129672   0.000   3.625   8.462  0.0636  0.5040  0.6566
 6070SOL    HW229673   0.098   3.605   8.354 -0.8280  1.5899  0.9423
 6071SOL     OW29674   2.413   0.337  16.706 -0.1221 -0.1266  0.3722
 6071SOL    HW129675   2.486   0.330  16.643 -0.4038 -1.1331  0.1681
 6071SOL    HW229676   2.339   0.344  16.646  0.0898  0.9378  0.2288
 6072SOL     OW29677   3.696   2.071   5.962 -0.1338  0.0904 -0.2844
 6072SOL    HW129678   3.610   2.073   6.004 -0.1012  1.7994 -0.2959
 6072SOL    HW229679   3.708   1.977   5.971 -1.5167 -0.0692 -0.0534
 6073SOL     OW29680   3.169   1.853   2.536 -0.0955  0.8216  0.1695
 6073SOL    HW129681   3.223   1.858   2.457  1.5615  2.5883  1.4229
 6073SOL    HW229682   3.132   1.766   2.520  0.9808  0.1044  1.6391
 6074SOL     OW29683   3.734   2.342   3.901 -0.1419  0.2635  0.2905
 6074SOL    HW129684   3.714   2.422   3.950  3.3529  0.8455  0.7760
 6074SOL    HW229685   3.829   2.359   3.902 -0.4509  2.0086 -0.0850
 6075SOL     OW29686   2.685   3.072  13.251  0.3382  0.2448  0.3916
 6075SOL    HW129687   2.653   3.144  13.198 -2.1284  1.2461  3.2654
 6075SOL    HW229688   2.780   3.087  13.245  0.3318 -0.8657 -2.3714
 6076SOL     OW29689   2.513   4.173  16.190  0.1522  0.8423 -0.4069
 6076SOL    HW129690   2.442   4.236  16.185  0.6388  1.3342 -1.0352
 6076SOL    HW229691   2.470   4.095  16.156  2.9758 -1.2852  0.9028
 6077SOL     OW29692   2.000   2.052   2.973  0.1695 -0.6612 -0.4173
 6077SOL    HW129693   1.974   2.118   2.908 -1.6468 -0.9770  0.0041
 6077SOL    HW229694   2.094   2.046   2.956  0.2929  0.8767 -0.2688
 6078SOL     OW29695   4.653   0.489   5.577 -0.7616 -0.4200 -0.0843
 6078SOL    HW129696   4.565   0.481   5.615 -0.9612  1.9508 -0.0056
 6078SOL    HW229697   4.641   0.471   5.483  0.2743 -2.7468  0.2414
 6079SOL     OW29698   1.896   3.725   1.010 -0.4411 -0.0695  0.0430
 6079SOL    HW129699   1.945   3.643   1.012 -0.4440 -0.0005  3.5392
 6079SOL    HW229700   1.856   3.728   1.097 -1.4177 -0.2642 -0.3915
 6080SOL     OW29701   1.618   0.883  10.997 -0.1579  0.0120  0.4903
 6080SOL    HW129702   1.568   0.818  10.948  1.6779 -0.1897 -1.1097
 6080SOL    HW229703   1.569   0.964  11.009 -1.3253 -0.5788 -0.3072
 6081SOL     OW29704   3.189   2.403   6.025 -0.2581 -0.2637  0.1730
 6081SOL    HW129705   3.241   2.355   6.089  0.6509 -1.6769 -1.6265
 6081SOL    HW229706   3.144   2.338   5.970  1.3829 -0.9524 -0.3525
 6082SOL     OW29707   1.015   1.571   1.773  0.7474 -0.0263 -0.3978
 6082SOL    HW129708   1.055   1.553   1.858 -1.9930 -0.6645  0.7334
 6082SOL    HW229709   1.032   1.665   1.778  2.2755 -0.2755 -0.8206
 6083SOL     OW29710   1.095   3.060   4.411  0.1762  0.5553  0.2725
 6083SOL    HW129711   1.176   3.105   4.388  0.2330 -0.3607 -1.2727
 6083SOL    HW229712   1.071   3.005   4.337 -0.1597 -0.0915  0.8591
 6084SOL     OW29713   4.616   0.001  10.583  0.6969  0.8045  0.7710
 6084SOL    HW129714   4.626   0.022  10.676  1.4027 -2.0355  1.3313
 6084SOL    HW229715   4.703   4.698  10.556  0.0620 -1.4539  1.0302
 6085SOL     OW29716   2.877   2.722   0.673 -0.3126 -0.0030 -0.0863
 6085SOL    HW129717   2.867   2.669   0.594 -2.7042 -0.6418  0.6530
 6085SOL    HW229718   2.963   2.755   0.646  0.8517 -4.3399 -1.7771
 6086SOL     OW29719   0.999   3.819   5.791 -0.0090  0.2933 -0.1703
 6086SOL    HW129720   1.058   3.755   5.833 -2.6983 -1.7104  0.5216
 6086SOL    HW229721   1.076   3.857   5.749  1.0900 -1.9920 -0.2552
 6087SOL     OW29722   2.442   2.306   2.630 -0.1876 -0.0246 -0.3436
 6087SOL    HW129723   2.415   2.336   2.717 -0.4504  1.0110 -0.7810
 6087SOL    HW229724   2.527   2.269   2.656  0.3513  2.7393  1.9934
 6088SOL     OW29725   0.712   0.955   4.027 -0.0946 -0.3479  0.4199
 6088SOL    HW129726   0.658   0.922   4.099 -0.3535 -2.7398 -0.8872
 6088SOL    HW229727   0.782   0.998   4.076  1.0769 -2.6711  0.7494
 6089SOL     OW29728   2.304   4.162   4.523  0.9177  0.6354 -0.0828
 6089SOL    HW129729   2.290   4.125   4.436 -0.2105  0.9924 -0.0611
 6089SOL    HW229730   2.383   4.215   4.513 -0.2844  2.7406  1.4788
 6090SOL     OW29731   2.714   0.452   2.346 -0.5325 -0.2439  0.3308
 6090SOL    HW129732   2.660   0.375   2.332 -1.4377  0.0852  1.9915
 6090SOL    HW229733   2.710   0.490   2.258  0.9995 -1.1848 -0.1430
 6091SOL     OW29734   1.903   2.201   5.716 -0.0413 -0.6831 -0.4769
 6091SOL    HW129735   1.913   2.231   5.626  1.7570 -1.0035 -0.3958
 6091SOL    HW229736   1.954   2.270   5.759 -0.6814 -1.5891  1.7554
 6092SOL     OW29737   3.855   2.774   5.301 -0.4356 -0.6002 -0.6899
 6092SOL    HW129738   3.826   2.859   5.334 -2.0673 -0.8003 -1.6416
 6092SOL    HW229739   3.790   2.705   5.311 -0.2788 -0.7601 -0.7622
 6093SOL     OW29740   3.338   0.767  16.682  0.2671 -0.0552 -0.4211
 6093SOL    HW129741   3.266   0.724  16.728 -0.2925 -0.3181 -1.5557
 6093SOL    HW229742   3.410   0.706  16.694  1.5028  1.2324 -1.2359
 6094SOL     OW29743   0.810   3.618   8.617  0.1827 -0.1354  0.4012
 6094SOL    HW129744   0.814   3.714   8.613  0.9789 -0.2061 -0.5766
 6094SOL    HW229745   0.882   3.593   8.675 -0.9003  1.0463  2.2612
 6095SOL     OW29746   1.467   3.607   0.171  0.6431 -0.3838 -0.1164
 6095SOL    HW129747   1.504   3.519   0.167  0.7313 -0.2640 -1.9337
 6095SOL    HW229748   1.515   3.632   0.250 -3.6673  0.0662  2.3801
 6096SOL     OW29749   1.299   0.638   5.239 -0.2278 -0.0940  0.2612
 6096SOL    HW129750   1.272   0.689   5.315  1.9992 -0.6981  1.4563
 6096SOL    HW229751   1.329   0.554   5.274 -0.5576  0.3170  1.5180
 6097SOL     OW29752   4.395   1.799  12.960 -0.0609 -0.3448  0.8597
 6097SOL    HW129753   4.380   1.868  13.024  0.2914 -0.6891  1.3047
 6097SOL    HW229754   4.459   1.741  13.000 -1.5671 -3.2857 -0.9004
 6098SOL     OW29755   1.484   2.508   7.565  0.0827  0.0226 -0.0475
 6098SOL    HW129756   1.542   2.503   7.489  1.1703 -1.4961  0.8914
 6098SOL    HW229757   1.532   2.464   7.635 -2.5257 -0.5502  1.3773
 6099SOL     OW29758   2.548   3.825  14.322  0.0347 -0.1221 -0.8875
 6099SOL    HW129759   2.583   3.911  14.347 -1.6138  0.2920 -0.0472
 6099SOL    HW229760   2.593   3.766  14.383  0.4791  1.4733  0.3171
 6100SOL     OW29761   2.638   0.969  17.318  0.2810  0.5714 -0.6198
 6100SOL    HW129762   2.660   0.876  17.313  3.0259  1.1201  1.3465
 6100SOL    HW229763   2.707   1.005  17.374 -0.6757 -0.0028  0.9485
 6101SOL     OW29764   1.110   0.355   0.595 -0.6346  0.3643 -0.5370
 6101SOL    HW129765   1.096   0.321   0.507  0.1198 -2.7522  0.5264
 6101SOL    HW229766   1.041   0.421   0.598  0.0587  1.0438  0.3662
 6102SOL     OW29767   1.372   2.328  15.044 -0.2152  0.2396 -0.6298
 6102SOL    HW129768   1.286   2.287  15.043 -0.5059  0.8286  1.2157
 6102SOL    HW229769   1.414   2.308  14.960  2.7882  0.0211  0.8912
 6103SOL     OW29770   0.769   1.898   5.385  0.0683  0.4123 -0.2139
 6103SOL    HW129771   0.850   1.859   5.417 -0.5924 -0.7138  0.0779
 6103SOL    HW229772   0.783   1.992   5.402  2.0171  0.1197 -0.2073
 6104SOL     OW29773   0.876   1.195   2.619  0.6794  0.0284 -0.4505
 6104SOL    HW129774   0.952   1.224   2.568  0.1549  2.4791  0.1493
 6104SOL    HW229775   0.810   1.177   2.552  0.1967 -0.4949  0.1626
 6105SOL     OW29776   1.613   1.352   7.495  0.2294  0.3421  0.1705
 6105SOL    HW129777   1.629   1.290   7.424  0.2643 -1.9458  2.1696
 6105SOL    HW229778   1.673   1.315   7.560  1.4268  1.7226 -0.1600
 6106SOL     OW29779   2.046   2.105  16.307  0.9678  0.1245 -0.1867
 6106SOL    HW129780   2.110   2.034  16.318 -1.9209 -2.8461 -2.7022
 6106SOL    HW229781   2.087   2.164  16.371 -1.4803  1.5240  0.1002
 6107SOL     OW29782   3.285   3.652   0.111  0.5294 -0.2888  0.2170
 6107SOL    HW129783   3.294   3.595   0.035  2.4511  0.8988 -0.4566
 6107SOL    HW229784   3.253   3.589   0.174  0.4440  0.4407  0.9015
 6108SOL     OW29785   1.539   2.421   5.985  0.0798  0.2661 -0.3540
 6108SOL    HW129786   1.448   2.400   5.963  0.2005 -0.4395 -0.1857
 6108SOL    HW229787   1.578   2.354   5.929  0.9346 -0.9748  1.7436
 6109SOL     OW29788   3.881   4.023   7.875 -1.3999 -0.3445 -0.3374
 6109SOL    HW129789   3.972   4.052   7.874 -1.2334 -0.9617 -2.1522
 6109SOL    HW229790   3.842   4.107   7.852 -1.8133 -0.7963 -1.2918
 6110SOL     OW29791   2.312   0.158   6.693 -0.4847  0.0852 -0.3342
 6110SOL    HW129792   2.353   0.072   6.679  1.1957  1.3295 -3.0833
 6110SOL    HW229793   2.274   0.177   6.607 -2.1831  0.6954  0.5628
 6111SOL     OW29794   2.413   3.547   7.651  0.0542 -0.2399  0.2645
 6111SOL    HW129795   2.385   3.611   7.717  1.6523 -0.6728  1.3602
 6111SOL    HW229796   2.440   3.607   7.582  1.1415  1.6502  2.3064
 6112SOL     OW29797   1.237   0.724   3.232  0.1333 -0.0395  0.3053
 6112SOL    HW129798   1.158   0.773   3.253  0.1492  0.1011  0.0319
 6112SOL    HW229799   1.268   0.771   3.155  0.4758 -2.5577 -1.0865
 6113SOL     OW29800   1.452   0.598   6.834 -0.5572  0.5202 -0.1063
 6113SOL    HW129801   1.492   0.529   6.782  0.2852  0.6968  0.3051
 6113SOL    HW229802   1.410   0.540   6.897  2.9281  0.7811  2.4967
 6114SOL     OW29803   3.294   1.963  15.232 -0.2993 -0.4714 -0.1574
 6114SOL    HW129804   3.343   1.882  15.251 -2.8125 -2.2969 -1.3793
 6114SOL    HW229805   3.365   2.022  15.205 -0.9244  0.2066 -0.2861
 6115SOL     OW29806   2.125   1.177   8.721 -0.3086 -0.8041 -0.1659
 6115SOL    HW129807   2.171   1.256   8.693  0.0835 -0.2194  2.1643
 6115SOL    HW229808   2.037   1.211   8.733 -0.1292 -0.6684  0.7864
 6116SOL     OW29809   2.538   0.071   0.519 -0.6876 -0.5176 -0.0100
 6116SOL    HW129810   2.598   0.113   0.457  0.0679  0.1634  1.1758
 6116SOL    HW229811   2.583   0.104   0.596  1.0534 -0.2682 -1.1304
 6117SOL     OW29812   2.321   1.215   8.501  0.2874  0.1361 -0.1359
 6117SOL    HW129813   2.285   1.293   8.543  2.3363  0.6658  0.6436
 6117SOL    HW229814   2.306   1.235   8.408  3.7655  0.8929 -0.5374
 6118SOL     OW29815   4.570   2.876   9.168 -0.1938 -0.1339 -0.2751
 6118SOL    HW129816   4.617   2.931   9.231  0.1110  0.6085 -1.1475
 6118SOL    HW229817   4.520   2.826   9.233  1.3468 -0.9724  0.2607
 6119SOL     OW29818   3.102   2.713   8.074  0.3050  0.5375  0.3941
 6119SOL    HW129819   3.083   2.802   8.103  1.8297  0.6351  1.0640
 6119SOL    HW229820   3.069   2.720   7.984  1.9000  0.3647 -0.2005
 6120SOL     OW29821   1.952   4.355   2.735 -0.4140 -0.5058  0.0364
 6120SOL    HW129822   2.029   4.298   2.743 -0.1261  0.1398  1.8258
 6120SOL    HW229823   1.991   4.442   2.738 -0.0629 -0.5703 -2.6564
 6121SOL     OW29824   4.191   0.836   9.716 -0.0858  0.1849 -0.0528
 6121SOL    HW129825   4.208   0.780   9.792 -1.2572 -0.0358  0.0329
 6121SOL    HW229826   4.108   0.878   9.736 -0.0180  0.1212  0.3820
 6122SOL     OW29827   3.656   0.971   2.793  0.8172 -0.0226 -0.2961
 6122SOL    HW129828   3.638   0.893   2.844  1.9093 -0.9891 -1.3811
 6122SOL    HW229829   3.597   0.971   2.717  1.0872  0.1978 -0.5089
 6123SOL     OW29830   1.890   0.697   4.529 -0.3814 -0.4543  0.5162
 6123SOL    HW129831   1.798   0.697   4.502  0.2943 -2.0962 -1.7744
 6123SOL    HW229832   1.919   0.779   4.491  0.9667 -0.4567  1.5302
 6124SOL     OW29833   3.948   4.488   6.378  0.5910 -0.2061 -0.1131
 6124SOL    HW129834   4.006   4.415   6.403 -0.9587 -1.5236 -0.3381
 6124SOL    HW229835   3.893   4.445   6.313 -2.3364  0.3866  2.0119
 6125SOL     OW29836   1.405   1.288   6.425 -0.0483  0.0387 -0.2458
 6125SOL    HW129837   1.439   1.304   6.513  3.1737 -2.0062 -1.1203
 6125SOL    HW229838   1.354   1.208   6.438 -1.8536  0.9458 -1.7398
 6126SOL     OW29839   2.079   3.717   5.975  0.0464 -0.4400 -0.3464
 6126SOL    HW129840   2.060   3.646   6.037 -0.5337 -0.9365 -1.0871
 6126SOL    HW229841   2.106   3.661   5.902  0.6813 -2.1879  1.2344
 6127SOL     OW29842   1.063   4.053  14.812 -0.3317  0.2838 -0.2096
 6127SOL    HW129843   1.018   3.975  14.844  0.7157  0.4109  1.6151
 6127SOL    HW229844   1.132   4.011  14.761 -0.8236  0.0459 -0.6762
 6128SOL     OW29845   2.223   3.080   5.713  0.4322  0.5765  0.3574
 6128SOL    HW129846   2.225   3.005   5.771  1.4760  1.4404  1.4338
 6128SOL    HW229847   2.191   3.145   5.776  0.2529 -0.2044  1.0660
 6129SOL     OW29848   3.381   3.104   6.968 -0.0821 -0.6010  0.3389
 6129SOL    HW129849   3.367   3.183   7.020 -1.7811  0.1254 -1.1831
 6129SOL    HW229850   3.476   3.110   6.964 -0.1343 -0.4333 -0.7931
 6130SOL     OW29851   0.692   0.553   3.224 -0.0345  0.1704  0.1442
 6130SOL    HW129852   0.672   0.522   3.136  1.3184 -1.4333  0.4048
 6130SOL    HW229853   0.639   0.633   3.228  1.6863  1.2321  2.2509
 6131SOL     OW29854   3.810   0.464   4.069  0.2276  0.1588  0.4804
 6131SOL    HW129855   3.811   0.428   3.981 -0.4317  2.6156 -0.5189
 6131SOL    HW229856   3.858   0.398   4.119 -0.7294 -0.8098  0.1092
 6132SOL     OW29857   1.558   0.518   3.539  0.0152 -0.8170 -0.3458
 6132SOL    HW129858   1.634   0.495   3.485 -1.2239  1.3373 -2.9812
 6132SOL    HW229859   1.555   0.614   3.535  2.3782 -0.8690 -3.4725
 6133SOL     OW29860   4.040   4.694   5.957  0.5972  0.1856 -0.3022
 6133SOL    HW129861   3.995   4.621   5.914  0.0603 -0.2406  0.9849
 6133SOL    HW229862   4.128   4.679   5.922  1.6644  0.0902  2.4183
 6134SOL     OW29863   0.655   3.185  10.279  0.3055 -0.2899  0.8322
 6134SOL    HW129864   0.739   3.227  10.261  0.8093 -1.2206  1.0374
 6134SOL    HW229865   0.624   3.239  10.352 -1.1404 -1.1894  0.8844
 6135SOL     OW29866   3.143   0.840  14.161  0.7576 -0.2337  0.3760
 6135SOL    HW129867   3.188   0.795  14.090 -1.2497 -0.3164 -0.8548
 6135SOL    HW229868   3.068   0.782  14.179 -0.1614  0.8125 -0.0891
 6136SOL     OW29869   3.016   4.460   4.478 -0.1924  0.0150 -0.3140
 6136SOL    HW129870   3.022   4.541   4.529 -1.4343  0.2347 -0.5076
 6136SOL    HW229871   3.014   4.394   4.547 -1.1264 -1.6732 -1.9454
 6137SOL     OW29872   0.401   4.717   3.239 -0.1237 -0.2776  0.4000
 6137SOL    HW129873   0.353   0.040   3.308 -1.4332  1.3775 -1.6556
 6137SOL    HW229874   0.370   0.035   3.159  0.4165 -3.0758 -1.2681
 6138SOL     OW29875   4.115   2.711  16.564 -0.8686 -0.0174 -0.5338
 6138SOL    HW129876   4.064   2.655  16.506  1.0972  1.1569 -3.3593
 6138SOL    HW229877   4.194   2.736  16.516 -1.5318  0.0790 -1.5647
 6139SOL     OW29878   0.134   4.457   5.184  0.2426 -0.5767 -0.2868
 6139SOL    HW129879   0.099   4.408   5.258  0.6934 -1.3693 -0.6028
 6139SOL    HW229880   0.094   4.419   5.105 -0.0924  0.3225 -0.5473
 6140SOL     OW29881   1.184   4.288   7.123  0.2934  0.0779 -0.0948
 6140SOL    HW129882   1.124   4.270   7.051  0.3109 -4.0624  0.9551
 6140SOL    HW229883   1.169   4.382   7.132 -1.3894 -0.2746  0.8522
 6141SOL     OW29884   2.191   0.024  11.291 -0.1311  0.2151 -0.0009
 6141SOL    HW129885   2.146   0.109  11.288  1.5990  1.0054 -3.3663
 6141SOL    HW229886   2.156   4.691  11.223  0.1355  0.3677 -0.2671
 6142SOL     OW29887   0.362   4.631   4.181  0.4989 -0.0938  0.7341
 6142SOL    HW129888   0.275   4.661   4.208  0.5294 -0.1165  0.8559
 6142SOL    HW229889   0.339   4.549   4.137 -2.0005  0.8754  0.2457
 6143SOL     OW29890   4.567   3.270   1.729  0.5212  0.1826 -0.2930
 6143SOL    HW129891   4.586   3.323   1.652  2.1455  1.1363  0.7540
 6143SOL    HW229892   4.615   3.330   1.786 -1.5170  0.3098  1.2887
 6144SOL     OW29893   4.140   1.241  12.519 -0.0460 -0.1200  0.1472
 6144SOL    HW129894   4.192   1.271  12.444  1.0048 -3.2274 -0.3659
 6144SOL    HW229895   4.100   1.325  12.542 -1.2818 -1.1291  1.6937
 6145SOL     OW29896   1.180   4.107   5.087 -0.1252 -0.5548  0.0104
 6145SOL    HW129897   1.116   4.169   5.051 -0.8043 -1.7598 -0.8503
 6145SOL    HW229898   1.230   4.094   5.006 -1.5180  2.5286 -1.3499
 6146SOL     OW29899   3.620   2.624   5.284  0.4483  0.1994 -0.6448
 6146SOL    HW129900   3.539   2.598   5.329  0.9029  1.1066  0.6994
 6146SOL    HW229901   3.600   2.622   5.190  2.3229  0.8337 -1.0680
 6147SOL     OW29902   4.031   0.500   5.874 -0.3751  0.1597 -0.1093
 6147SOL    HW129903   4.122   0.528   5.889 -0.6339  0.0150  1.7088
 6147SOL    HW229904   4.042   0.412   5.839  0.5942  0.1242  0.2738
 6148SOL     OW29905   0.734   2.587  16.326 -0.2769  0.7825 -0.3294
 6148SOL    HW129906   0.829   2.582  16.314 -0.2847  1.4103 -0.6520
 6148SOL    HW229907   0.730   2.576  16.421  2.2852  2.3539 -0.0569
 6149SOL     OW29908   3.695   1.292   5.363  0.1836 -0.3499  0.4024
 6149SOL    HW129909   3.745   1.374   5.357 -0.2557 -0.2762 -2.6166
 6149SOL    HW229910   3.696   1.266   5.454  2.0323  1.2991  0.8547
 6150SOL     OW29911   4.067   0.842  12.077 -0.0440  0.1553 -0.0985
 6150SOL    HW129912   3.984   0.800  12.097 -0.1580 -0.1218 -1.1272
 6150SOL    HW229913   4.124   0.767  12.093  0.8371  1.7842  4.3681
 6151SOL     OW29914   0.089   3.148   8.335  0.2518 -0.3509  0.6290
 6151SOL    HW129915   0.132   3.187   8.411  0.1169 -1.8487  1.4742
 6151SOL    HW229916   0.015   3.206   8.316 -1.9386 -3.1416  0.6532
 6152SOL     OW29917   4.387   1.763   7.744  0.0473 -0.2343 -0.1140
 6152SOL    HW129918   4.395   1.858   7.745 -0.8062 -0.1716  1.0300
 6152SOL    HW229919   4.454   1.734   7.806  0.1321 -1.2395 -0.6800
 6153SOL     OW29920   0.367   3.741   1.975 -1.0011  0.8829  0.3844
 6153SOL    HW129921   0.276   3.739   2.005 -0.6357  2.4436  1.5546
 6153SOL    HW229922   0.391   3.828   2.006 -0.4663  0.5843  0.7973
 6154SOL     OW29923   0.078   3.955   4.743  0.7775 -0.1161  0.0523
 6154SOL    HW129924   0.131   3.931   4.819 -0.6855  0.2960  1.2064
 6154SOL    HW229925   0.121   4.037   4.718  0.0364 -0.4075 -2.1509
 6155SOL     OW29926   1.061   2.479  16.128  0.1509  0.1561 -0.0055
 6155SOL    HW129927   1.039   2.510  16.216 -1.0720  1.3825 -0.7453
 6155SOL    HW229928   1.139   2.427  16.149 -1.3600 -1.5927  1.2779
 6156SOL     OW29929   0.553   3.585  11.201  0.2051  0.1810  0.0290
 6156SOL    HW129930   0.599   3.652  11.251 -0.2238  0.5708 -0.0979
 6156SOL    HW229931   0.625   3.549  11.149 -0.2951 -0.4753 -0.2158
 6157SOL     OW29932   2.570   3.509  14.098  0.5734  0.2587 -1.1615
 6157SOL    HW129933   2.501   3.556  14.144  1.3018  1.2314 -1.0558
 6157SOL    HW229934   2.620   3.465  14.168 -0.1569  2.5547  0.8119
 6158SOL     OW29935   1.521   2.027  10.680 -0.0054  0.2964  0.1819
 6158SOL    HW129936   1.493   2.116  10.657  2.5068  1.5008  1.9252
 6158SOL    HW229937   1.596   2.053  10.733 -0.7424  1.3208  0.7340
 6159SOL     OW29938   0.368   2.545   4.890  0.0093  0.0463 -0.3301
 6159SOL    HW129939   0.320   2.626   4.912 -0.6941 -0.1208 -1.2335
 6159SOL    HW229940   0.400   2.519   4.977  1.6389 -0.9673 -1.2552
 6160SOL     OW29941   3.678   4.463  12.194 -0.0123  0.5540 -0.5527
 6160SOL    HW129942   3.752   4.516  12.166 -0.6584  0.4298 -2.4921
 6160SOL    HW229943   3.695   4.447  12.287 -0.7203  0.4105 -0.4474
 6161SOL     OW29944   2.130   2.400   5.022  0.2418 -0.1449  0.4368
 6161SOL    HW129945   2.187   2.428   4.950 -1.1006 -0.1095 -0.6317
 6161SOL    HW229946   2.175   2.435   5.099 -0.0783 -1.9871  1.4444
 6162SOL     OW29947   4.161   1.145   4.519 -0.0499 -0.2293 -0.2041
 6162SOL    HW129948   4.194   1.086   4.452 -1.3532 -1.3277  0.1284
 6162SOL    HW229949   4.068   1.129   4.505 -0.3229  0.0162  1.3921
 6163SOL     OW29950   1.255   2.966   1.511 -0.4635 -0.1674  0.1591
 6163SOL    HW129951   1.311   3.019   1.568  0.4726  0.3063 -1.1996
 6163SOL    HW229952   1.265   2.878   1.547 -1.9009 -0.2888  0.2495
 6164SOL     OW29953   0.981   1.428   8.750  0.5704  0.2121 -0.2419
 6164SOL    HW129954   0.988   1.444   8.656 -0.7213 -0.1437 -0.3978
 6164SOL    HW229955   0.922   1.352   8.754 -0.3877  0.9441 -0.5452
 6165SOL     OW29956   1.287   0.985   5.173  0.1683 -0.1447  0.2362
 6165SOL    HW129957   1.241   0.994   5.256 -0.6058  0.0786 -0.2224
 6165SOL    HW229958   1.315   1.075   5.157  2.7931 -0.6693  1.7898
 6166SOL     OW29959   1.604   0.637   5.927  0.5017  0.2151  0.2071
 6166SOL    HW129960   1.565   0.644   6.014  0.9936 -0.7582  0.5024
 6166SOL    HW229961   1.681   0.694   5.928  0.4872  0.2055  1.9044
 6167SOL     OW29962   0.114   3.835  14.872  0.1744 -0.3000  0.3419
 6167SOL    HW129963   0.084   3.923  14.896  1.2696  0.1020  0.2538
 6167SOL    HW229964   0.043   3.775  14.893 -1.6479  1.8840  0.4084
 6168SOL     OW29965   0.925   0.731   1.632  0.9076 -0.7075 -0.4622
 6168SOL    HW129966   1.000   0.704   1.578 -0.3270 -1.4006 -1.8183
 6168SOL    HW229967   0.855   0.734   1.567 -1.0127 -0.4953  1.6596
 6169SOL     OW29968   3.790   2.580   2.235  0.3398 -0.6039 -1.0196
 6169SOL    HW129969   3.809   2.634   2.312  1.1664  1.8520 -2.9423
 6169SOL    HW229970   3.720   2.525   2.271  1.2044 -1.4793 -0.6872
 6170SOL     OW29971   0.270   2.993   5.804 -0.0663  0.0599 -0.4662
 6170SOL    HW129972   0.293   2.983   5.897  0.8312 -1.0092 -0.7962
 6170SOL    HW229973   0.358   2.982   5.767 -0.3682 -0.0831 -1.1319
 6171SOL     OW29974   2.433   1.445   8.064 -0.0802  0.6133  0.5923
 6171SOL    HW129975   2.508   1.504   8.052  0.4061 -0.2901 -0.8038
 6171SOL    HW229976   2.446   1.429   8.157 -2.3482 -0.4058  0.7479
 6172SOL     OW29977   3.663   4.189  12.051  0.3217  0.2489 -0.3160
 6172SOL    HW129978   3.653   4.272  12.099  0.7506 -1.1407  2.2137
 6172SOL    HW229979   3.604   4.199  11.977 -0.3677  3.5982  0.6653
 6173SOL     OW29980   1.664   2.766  10.021  0.3237  0.2048 -0.8474
 6173SOL    HW129981   1.744   2.802  10.060 -0.4965  0.4969  0.5776
 6173SOL    HW229982   1.705   2.702   9.965  2.4271  0.7376  0.0868
 6174SOL     OW29983   0.995   2.499  16.390 -0.3175 -0.6508  0.3354
 6174SOL    HW129984   1.050   2.421  16.383  1.3839  0.4345  1.5792
 6174SOL    HW229985   0.976   2.499  16.484 -2.2542 -0.6388 -0.0581
 6175SOL     OW29986   1.288   0.328  13.331  0.1960  0.1319 -0.3306
 6175SOL    HW129987   1.269   0.281  13.412 -1.2843  0.5497 -0.4277
 6175SOL    HW229988   1.204   0.370  13.313 -0.8851 -1.1934  1.6521
 6176SOL     OW29989   3.442   1.072   2.111 -0.6589  0.3417 -0.5043
 6176SOL    HW129990   3.513   1.044   2.053  0.6655 -2.0705  2.2849
 6176SOL    HW229991   3.368   1.069   2.049 -0.3118  0.3296 -0.9175
 6177SOL     OW29992   0.071   0.470  16.205 -0.1977 -0.0146 -0.2423
 6177SOL    HW129993   0.040   0.525  16.278 -1.3921 -1.6255  0.4933
 6177SOL    HW229994   0.087   0.385  16.247  0.6633 -0.1773 -0.9054
 6178SOL     OW29995   1.353   4.270   8.444 -0.1049  0.5047 -0.9852
 6178SOL    HW129996   1.432   4.253   8.496 -0.7543 -2.3850 -0.9920
 6178SOL    HW229997   1.386   4.226   8.366  2.0270  0.3378 -0.0172
 6179SOL     OW29998   3.431   3.048   4.261  0.8755  0.3336  0.1543
 6179SOL    HW129999   3.486   3.121   4.231 -0.9706  1.3561 -0.7892
 6179SOL    HW230000   3.403   3.069   4.351  2.3780  0.2188  0.6413
 6180SOL     OW30001   1.625   3.350  15.064 -0.1326  0.4987  0.3259
 6180SOL    HW130002   1.613   3.256  15.076 -0.1862  0.6388  1.3627
 6180SOL    HW230003   1.545   3.384  15.025 -0.6816 -1.9654 -0.6961
 6181SOL     OW30004   0.122   3.391   4.960 -0.4840 -0.0870 -0.6033
 6181SOL    HW130005   0.138   3.462   5.023 -1.9697 -0.7500  0.5124
 6181SOL    HW230006   0.195   3.412   4.901 -0.4529 -0.0004 -0.5346
 6182SOL     OW30007   1.247   3.041   0.648 -0.0201 -0.5517  0.6293
 6182SOL    HW130008   1.207   3.023   0.733 -0.1986 -0.9267  0.4683
 6182SOL    HW230009   1.189   3.003   0.582  0.8128  2.5189 -1.8649
 6183SOL     OW30010   2.492   1.259   4.023 -0.0838  0.3750 -0.5462
 6183SOL    HW130011   2.569   1.308   3.993  0.2388  0.0659 -0.2373
 6183SOL    HW230012   2.535   1.186   4.070  1.3472  1.2702 -0.4681
 6184SOL     OW30013   0.723   1.368   7.295  0.4955  0.5991  0.1211
 6184SOL    HW130014   0.742   1.276   7.280  1.0940  0.8407 -0.6705
 6184SOL    HW230015   0.734   1.403   7.206 -0.7892  1.7583  0.4154
 6185SOL     OW30016   4.157   2.048   5.564  0.2169  0.4760  0.1010
 6185SOL    HW130017   4.071   2.012   5.585  0.5416 -0.0502  0.5517
 6185SOL    HW230018   4.168   2.001   5.482 -0.2295  0.8906 -0.1962
 6186SOL     OW30019   2.546   1.822   5.507 -0.2855 -0.1805  0.2242
 6186SOL    HW130020   2.500   1.901   5.479 -0.3392 -0.4780 -0.5411
 6186SOL    HW230021   2.539   1.836   5.601  0.6284  0.5317  0.1836
 6187SOL     OW30022   3.432   0.215   2.163 -0.2572  0.0011 -0.0333
 6187SOL    HW130023   3.357   0.171   2.122  0.2426  0.5671 -1.5419
 6187SOL    HW230024   3.393   0.251   2.243 -0.6433 -3.4015  1.3520
 6188SOL     OW30025   0.985   0.492   3.090  0.6348 -0.1934  0.6703
 6188SOL    HW130026   1.069   0.447   3.085  1.4617  1.5585 -1.1721
 6188SOL    HW230027   0.960   0.451   3.173  1.5044 -1.7893  0.1457
 6189SOL     OW30028   4.296   3.316  13.315 -1.0476  0.1612  0.0907
 6189SOL    HW130029   4.382   3.357  13.309 -0.5563 -0.9320 -0.2961
 6189SOL    HW230030   4.318   3.255  13.386  0.0361  1.3885  0.7880
 6190SOL     OW30031   3.856   1.714   5.781 -0.6506  0.2387 -0.0051
 6190SOL    HW130032   3.937   1.750   5.816 -0.4807  1.6202 -1.7975
 6190SOL    HW230033   3.834   1.766   5.704  1.5355 -1.8946 -2.0789
 6191SOL     OW30034   2.588   2.956   6.633  0.0495 -0.4031 -0.2075
 6191SOL    HW130035   2.642   3.028   6.668 -3.0318  2.7839 -2.0822
 6191SOL    HW230036   2.514   3.003   6.596 -0.2143 -0.0576  0.7369
 6192SOL     OW30037   2.166   1.698  11.745  0.1285 -0.1671  0.0827
 6192SOL    HW130038   2.216   1.780  11.738 -0.4641  0.2091  0.2120
 6192SOL    HW230039   2.235   1.636  11.722  0.2410 -0.5623  1.5267
 6193SOL     OW30040   1.007   4.329   5.042  0.2353  0.1142 -0.1652
 6193SOL    HW130041   0.936   4.375   4.997  1.6194  1.8273 -0.5761
 6193SOL    HW230042   0.998   4.366   5.130  0.2860  0.8437 -0.4628
 6194SOL     OW30043   0.169   2.257   9.651  0.0700 -0.2557 -0.5125
 6194SOL    HW130044   0.127   2.179   9.689 -0.3560  0.2275  0.0176
 6194SOL    HW230045   0.163   2.311   9.730  2.2551 -2.1064  0.9288
 6195SOL     OW30046   4.607   1.870   4.894  0.5121 -0.1947  0.4366
 6195SOL    HW130047   4.619   1.903   4.983 -0.7355 -0.3121  0.6409
 6195SOL    HW230048   4.686   1.898   4.846 -0.6357  0.7592 -0.8852
 6196SOL     OW30049   3.790   2.061   6.755  0.1454 -0.5338  0.1201
 6196SOL    HW130050   3.820   2.146   6.788 -1.3664  0.0408  0.0159
 6196SOL    HW230051   3.864   2.004   6.777 -0.3725 -0.7425  1.3089
 6197SOL     OW30052   4.033   0.543   1.791 -0.0248  0.2893 -0.8563
 6197SOL    HW130053   4.003   0.587   1.871  1.4737  0.1376 -0.2041
 6197SOL    HW230054   4.097   0.483   1.831 -0.6658  0.0868 -0.1321
 6198SOL     OW30055   4.480   2.981   6.443  0.1599 -0.2642  0.6098
 6198SOL    HW130056   4.552   3.019   6.493  0.4506 -1.1649  0.8828
 6198SOL    HW230057   4.452   2.902   6.490 -0.8481 -0.4488 -0.2857
 6199SOL     OW30058   3.718   4.124   7.445  0.4687 -0.3437  0.2736
 6199SOL    HW130059   3.774   4.066   7.394  2.0638  0.3532  1.2426
 6199SOL    HW230060   3.736   4.213   7.414  1.0738 -0.4131  0.4412
 6200SOL     OW30061   2.499   2.264   7.497 -0.2868  0.0497  0.0714
 6200SOL    HW130062   2.496   2.330   7.566  2.3590  2.9542 -2.6125
 6200SOL    HW230063   2.493   2.184   7.550  0.6925  0.4295  0.7469
 6201SOL     OW30064   1.014   2.255   5.217  0.6327  0.0967  0.5643
 6201SOL    HW130065   1.027   2.188   5.150 -0.5618  1.6573 -1.2072
 6201SOL    HW230066   1.027   2.330   5.160 -1.3510 -0.4601 -0.6206
 6202SOL     OW30067   1.952   2.881  10.178  0.2170 -0.4642  0.1606
 6202SOL    HW130068   2.000   2.955  10.141 -0.7048  0.5556  0.9895
 6202SOL    HW230069   1.962   2.821  10.104  0.1639 -0.8461  0.4621
 6203SOL     OW30070   2.108   0.125   2.136 -0.1411 -0.1599 -0.0577
 6203SOL    HW130071   2.188   0.124   2.188 -1.1144 -0.7061  1.4401
 6203SOL    HW230072   2.068   0.046   2.173  1.3655 -1.2691 -0.7881
 6204SOL     OW30073   2.921   2.540  14.481 -0.3510  0.2164  0.3405
 6204SOL    HW130074   2.908   2.635  14.486  1.3736  0.4617 -0.1508
 6204SOL    HW230075   2.830   2.517  14.502  0.6461 -2.1995  2.0616
 6205SOL     OW30076   3.712   0.348   8.615 -0.1339 -0.2295  0.3344
 6205SOL    HW130077   3.723   0.255   8.637 -0.4273 -0.7375 -1.6300
 6205SOL    HW230078   3.760   0.342   8.532 -0.3669  1.2091  0.1081
 6206SOL     OW30079   3.161   4.552   5.005 -0.6712  0.2741  0.3114
 6206SOL    HW130080   3.182   4.639   4.970  0.3601 -0.0642  0.1003
 6206SOL    HW230081   3.163   4.503   4.923  0.4014  1.2169 -0.2416
 6207SOL     OW30082   1.302   4.246   4.515 -0.0395  0.3102  0.1004
 6207SOL    HW130083   1.369   4.283   4.573 -1.2779  1.6786  0.6728
 6207SOL    HW230084   1.262   4.178   4.568 -1.2650 -1.1148 -2.6806
 6208SOL     OW30085   2.070   4.570   4.688 -0.2907 -0.2016  0.2527
 6208SOL    HW130086   2.120   4.559   4.769  0.6962  3.4261  0.1228
 6208SOL    HW230087   2.006   4.636   4.712 -0.2098  0.5784 -1.7027
 6209SOL     OW30088   4.421   1.249   4.244  0.4198 -0.3671  0.0197
 6209SOL    HW130089   4.360   1.179   4.268 -1.7528  1.6393  0.3531
 6209SOL    HW230090   4.386   1.314   4.305 -2.3372 -2.8723  1.1287
 6210SOL     OW30091   3.915   1.588   0.527 -0.8839  0.4813  0.1908
 6210SOL    HW130092   3.875   1.516   0.478 -0.5204  0.3037  0.1551
 6210SOL    HW230093   3.846   1.653   0.537  0.3255  1.8403 -0.3204
 6211SOL     OW30094   0.578   2.338   2.268  0.2993  0.1985  0.3312
 6211SOL    HW130095   0.526   2.347   2.349  1.1744 -2.1152  1.1497
 6211SOL    HW230096   0.528   2.279   2.212  1.3864  1.6890 -2.1999
 6212SOL     OW30097   0.444   0.859   2.038 -0.4878 -0.1707  0.3090
 6212SOL    HW130098   0.424   0.773   2.073 -2.3566  0.2517  0.2533
 6212SOL    HW230099   0.363   0.909   2.034  0.4356  1.3382  0.4615
 6213SOL     OW30100   1.255   2.974   1.164  0.2261 -0.2900 -0.1250
 6213SOL    HW130101   1.213   3.051   1.202 -0.2081 -0.5667 -0.0605
 6213SOL    HW230102   1.275   2.923   1.242  0.2694 -1.1859 -0.7233
 6214SOL     OW30103   1.887   1.885   7.742  1.4360 -0.0578  0.1467
 6214SOL    HW130104   1.958   1.823   7.725  0.3460 -1.4299  0.5130
 6214SOL    HW230105   1.818   1.822   7.765  0.6070  0.5510 -0.6542
 6215SOL     OW30106   2.055   1.465   8.201 -0.0993  0.1631  0.2838
 6215SOL    HW130107   2.000   1.430   8.271  0.3860  0.7262  0.9499
 6215SOL    HW230108   2.045   1.557   8.227  1.0118 -1.0114  4.8906
 6216SOL     OW30109   0.555   2.781   3.580  0.4487 -0.1473  0.1186
 6216SOL    HW130110   0.543   2.742   3.493  1.3036  1.3434 -0.6942
 6216SOL    HW230111   0.546   2.873   3.554 -0.8180  0.1122  1.5242
 6217SOL     OW30112   2.332   1.481  14.991  0.0370  0.9185  0.4014
 6217SOL    HW130113   2.391   1.450  14.922 -0.1011 -0.2008  0.7974
 6217SOL    HW230114   2.346   1.575  15.003  2.0018  0.7406 -0.3924
 6218SOL     OW30115   2.870   4.488   0.004  0.2766 -0.3016 -0.1836
 6218SOL    HW130116   2.809   4.528   0.065 -1.3289  1.0664 -2.6909
 6218SOL    HW230117   2.952   4.527   0.035 -0.2517 -1.1952  2.3298
 6219SOL     OW30118   2.343   2.197   3.621  0.1100  0.4799  0.3862
 6219SOL    HW130119   2.389   2.133   3.566 -1.9630  0.7374 -1.6141
 6219SOL    HW230120   2.410   2.222   3.684  1.1602 -0.9519 -0.1442
 6220SOL     OW30121   1.108   2.127   3.302 -0.4141  0.3408  0.2753
 6220SOL    HW130122   1.161   2.118   3.222 -0.7221  1.8253 -0.1002
 6220SOL    HW230123   1.049   2.197   3.274 -1.6412 -0.1741  1.6497
 6221SOL     OW30124   1.903   3.996   9.736  0.0005 -0.5462 -0.2321
 6221SOL    HW130125   1.920   4.084   9.768  0.5162 -0.1148 -1.7112
 6221SOL    HW230126   1.830   3.983   9.798  0.9604  2.5592  1.5424
 6222SOL     OW30127   0.835   2.613   6.991 -0.6040 -0.0689 -0.3407
 6222SOL    HW130128   0.798   2.690   6.948 -1.1232  1.1876  2.2982
 6222SOL    HW230129   0.883   2.654   7.063 -2.0639  2.0805 -0.5958
 6223SOL     OW30130   2.651   1.853   8.771 -0.0104 -0.0905 -0.0872
 6223SOL    HW130131   2.624   1.846   8.863  0.1405  0.0443 -0.0328
 6223SOL    HW230132   2.708   1.929   8.785 -0.4570  0.1780  0.2962
 6224SOL     OW30133   2.749   1.330   8.156 -0.1151 -0.0451  0.5333
 6224SOL    HW130134   2.661   1.311   8.188 -0.1149  0.3695  0.7773
 6224SOL    HW230135   2.802   1.262   8.199 -0.3611 -1.3161 -1.1767
 6225SOL     OW30136   2.274   0.864   3.539  0.2414 -0.5093  0.2542
 6225SOL    HW130137   2.298   0.776   3.568  2.2289 -0.4019 -1.0966
 6225SOL    HW230138   2.324   0.913   3.604 -2.9740  1.2340  1.4578
 6226SOL     OW30139   2.203   0.264   3.892  0.4352 -0.4504  0.0867
 6226SOL    HW130140   2.140   0.211   3.941 -0.9446  1.3270  0.2662
 6226SOL    HW230141   2.226   0.335   3.952 -0.5212 -0.9226  0.9999
 6227SOL     OW30142   3.351   2.630   1.595 -0.1962  0.1014  0.0180
 6227SOL    HW130143   3.361   2.601   1.686 -0.1525  1.0086  0.3094
 6227SOL    HW230144   3.261   2.604   1.579 -0.7009  0.5988  2.0169
 6228SOL     OW30145   1.446   2.900   6.397  0.0519  0.4868  0.0531
 6228SOL    HW130146   1.485   2.907   6.311  0.3821  0.7960  0.2289
 6228SOL    HW230147   1.522   2.916   6.453 -0.5974  1.4376  0.6534
 6229SOL     OW30148   3.900   1.016   4.476 -0.9496 -0.6389  0.1400
 6229SOL    HW130149   3.812   1.054   4.466 -1.4288 -1.4138  1.4130
 6229SOL    HW230150   3.879   0.970   4.557  1.8974 -2.6208 -0.2416
 6230SOL     OW30151   4.665   0.130   7.504 -0.3365  0.2173 -0.5292
 6230SOL    HW130152   4.720   0.195   7.547 -0.1462 -0.7191  0.6651
 6230SOL    HW230153   4.629   0.170   7.425  0.4674  0.2084 -0.9067
 6231SOL     OW30154   2.520   1.204  14.098  0.7256 -0.2881  0.0637
 6231SOL    HW130155   2.482   1.276  14.149 -1.2439 -1.4471  0.2533
 6231SOL    HW230156   2.506   1.140  14.168  2.2910 -1.9922 -1.1985
 6232SOL     OW30157   1.993   0.651   3.105  0.5418 -0.5226 -0.3943
 6232SOL    HW130158   2.027   0.683   3.189 -0.7079  1.3885 -0.6216
 6232SOL    HW230159   1.980   0.726   3.047  0.1646  1.9333  2.8620
 6233SOL     OW30160   3.366   1.186   5.653  0.3060 -0.1212  0.2440
 6233SOL    HW130161   3.361   1.094   5.680 -1.3746  0.6180  2.5093
 6233SOL    HW230162   3.317   1.238   5.717 -1.5847 -0.0456 -1.2603
 6234SOL     OW30163   1.671   2.467   7.368  0.0853 -0.3643  0.2325
 6234SOL    HW130164   1.684   2.478   7.274 -1.1323 -0.5334  0.0550
 6234SOL    HW230165   1.693   2.375   7.383 -1.6870 -0.6202  1.1635
 6235SOL     OW30166   0.130   1.021  12.652 -0.3865 -0.3162 -0.3117
 6235SOL    HW130167   0.194   1.064  12.710 -0.1608 -0.4695 -0.4478
 6235SOL    HW230168   0.181   0.965  12.593  0.5217 -0.3989  0.5506
 6236SOL     OW30169   1.840   2.644   8.766  0.3195  0.2361 -0.5750
 6236SOL    HW130170   1.805   2.668   8.680 -0.0432 -0.0955 -0.5235
 6236SOL    HW230171   1.856   2.550   8.752  0.3644  0.3460 -1.2665
 6237SOL     OW30172   1.083   1.571   4.240  0.0135 -0.2153  0.4668
 6237SOL    HW130173   1.168   1.555   4.199 -0.7835 -3.9993  0.2904
 6237SOL    HW230174   1.023   1.568   4.166  0.5595 -0.3281  0.0244
 6238SOL     OW30175   1.998   3.208  17.422 -0.4017 -0.7685 -0.7468
 6238SOL    HW130176   1.955   3.292  17.438  1.1083 -0.1287 -0.0682
 6238SOL    HW230177   2.021   3.191  17.513 -2.5081  0.1932 -0.0509
 6239SOL     OW30178   3.964   1.564   7.959 -0.9894  0.5715 -0.0001
 6239SOL    HW130179   3.937   1.628   7.893 -1.3743 -0.3150 -0.7100
 6239SOL    HW230180   3.880   1.521   7.977 -0.9492  0.2016 -0.6730
 6240SOL     OW30181   4.125   4.259   6.502 -0.2919 -0.5843 -0.1675
 6240SOL    HW130182   4.068   4.211   6.441  2.2899 -2.2945 -1.2337
 6240SOL    HW230183   4.088   4.220   6.581 -3.0095 -1.1717 -1.6980
 6241SOL     OW30184   2.736   2.911   8.507  0.0330  0.2224 -0.0515
 6241SOL    HW130185   2.799   2.849   8.544  0.6613 -0.2685 -1.9369
 6241SOL    HW230186   2.654   2.867   8.533 -1.2922  3.1324  0.6502
 6242SOL     OW30187   0.299   4.571  15.914  0.0484  0.1067 -0.1418
 6242SOL    HW130188   0.251   4.559  15.995  1.9230 -0.4610  0.8836
 6242SOL    HW230189   0.334   4.660  15.923 -0.4837  0.0793  2.1297
 6243SOL     OW30190   1.830   3.563  16.597 -0.1463 -0.2670 -0.6759
 6243SOL    HW130191   1.870   3.476  16.595  1.5422  0.4759  1.4578
 6243SOL    HW230192   1.750   3.544  16.548 -0.1102 -3.4003  0.4685
 6244SOL     OW30193   1.033   0.190  12.673  0.6172 -0.3439  0.0493
 6244SOL    HW130194   1.012   0.252  12.604  1.3204  1.3010  1.3116
 6244SOL    HW230195   1.119   0.160  12.644  1.2966 -0.6286  2.2943
 6245SOL     OW30196   1.816   0.708   5.442  0.4082 -0.0089 -0.2535
 6245SOL    HW130197   1.740   0.653   5.426 -1.3421  1.7613  1.8868
 6245SOL    HW230198   1.882   0.652   5.484  0.9223  1.0702  0.3990
 6246SOL     OW30199   2.296   0.470   8.679 -0.2034  0.7409  0.2303
 6246SOL    HW130200   2.307   0.555   8.636  1.0647  0.4334 -0.0447
 6246SOL    HW230201   2.309   0.493   8.771 -3.3942  0.1919  0.8440
 6247SOL     OW30202   3.465   0.183   3.644  0.3427 -0.3517 -0.2060
 6247SOL    HW130203   3.429   0.193   3.556  1.1045  3.3503 -0.0827
 6247SOL    HW230204   3.544   0.130   3.634  1.4928  1.1593  0.9786
 6248SOL     OW30205   3.366   4.162   2.730  0.6576 -0.8386 -0.2730
 6248SOL    HW130206   3.437   4.216   2.767  1.8785 -0.9127 -2.5105
 6248SOL    HW230207   3.352   4.202   2.645 -1.3607  1.7995  1.3064
 6249SOL     OW30208   0.512   2.681   8.294 -0.1611  0.3807 -0.0700
 6249SOL    HW130209   0.431   2.731   8.288  0.0151  0.7889  0.9763
 6249SOL    HW230210   0.491   2.606   8.350  0.8923  0.6137  0.6431
 6250SOL     OW30211   3.934   1.637   3.773  0.1274 -0.3859 -0.1700
 6250SOL    HW130212   3.991   1.697   3.726 -1.4411  1.4321  0.2515
 6250SOL    HW230213   3.998   1.569   3.795 -0.0897  0.1596  2.2163
 6251SOL     OW30214   0.729   0.164   9.340  0.0423 -0.3368  0.4146
 6251SOL    HW130215   0.762   0.095   9.281  0.1156 -0.5673  0.7283
 6251SOL    HW230216   0.639   0.132   9.345  0.4090 -1.8209 -2.5479
 6252SOL     OW30217   3.400   4.387   4.887 -0.1939  0.5605  0.8862
 6252SOL    HW130218   3.324   4.364   4.833  1.1931 -1.7958 -0.0556
 6252SOL    HW230219   3.469   4.323   4.869  0.2487  1.1908  0.3208
 6253SOL     OW30220   2.169   2.370   6.686 -0.4003  0.4911 -0.2777
 6253SOL    HW130221   2.200   2.430   6.754 -1.3515 -1.0870  1.5294
 6253SOL    HW230222   2.168   2.427   6.609 -0.0625 -2.0627 -2.1729
 6254SOL     OW30223   0.889   1.279   5.019  0.0817  0.3162  0.1541
 6254SOL    HW130224   0.799   1.254   4.999 -0.0429 -0.0282  1.1422
 6254SOL    HW230225   0.882   1.286   5.114  0.6720 -0.6243  0.2716
 6255SOL     OW30226   1.578   2.965   8.709  0.1494 -0.3230  0.6712
 6255SOL    HW130227   1.605   3.050   8.674 -0.4259 -0.7548 -0.8108
 6255SOL    HW230228   1.555   2.989   8.799  0.8848  1.7512  0.3175
 6256SOL     OW30229   2.599   3.484   2.577 -0.2860  0.2900 -0.0985
 6256SOL    HW130230   2.682   3.486   2.626  1.3443  2.1672 -2.9445
 6256SOL    HW230231   2.625   3.559   2.524 -1.3976  2.3364  2.2878
 6257SOL     OW30232   0.819   3.530   2.991 -0.0617  0.5029 -0.6208
 6257SOL    HW130233   0.783   3.490   2.912  0.8661  1.7392 -1.6896
 6257SOL    HW230234   0.907   3.494   2.978 -0.2660  0.0223 -0.6454
 6258SOL     OW30235   2.666   1.883  17.000 -0.0713  0.4889 -0.2349
 6258SOL    HW130236   2.724   1.843  17.064 -1.9352 -2.2003 -0.2594
 6258SOL    HW230237   2.698   1.974  17.002  0.1552  0.3709  1.2786
 6259SOL     OW30238   2.411   0.979   7.059  0.0263 -0.4377  0.3951
 6259SOL    HW130239   2.440   1.018   6.977 -1.0367  1.8415  1.1231
 6259SOL    HW230240   2.318   0.999   7.050 -0.1442 -1.9724 -1.3278
 6260SOL     OW30241   3.260   2.570   0.698  0.9904  0.3995 -0.3214
 6260SOL    HW130242   3.263   2.539   0.788  1.8539  1.0850 -0.1170
 6260SOL    HW230243   3.356   2.567   0.693  0.9043 -0.4522 -1.4160
 6261SOL     OW30244   4.175   0.394   6.456 -0.2658 -0.0871  0.1510
 6261SOL    HW130245   4.110   0.441   6.510  1.0708  1.3439  0.5261
 6261SOL    HW230246   4.201   0.327   6.519 -0.0769  0.4625  0.6651
 6262SOL     OW30247   1.516   3.121   1.372 -0.5492 -0.0262 -0.1102
 6262SOL    HW130248   1.530   3.214   1.356  1.2480 -0.4884 -1.2074
 6262SOL    HW230249   1.497   3.125   1.466 -3.4983 -0.0650 -0.7066
 6263SOL     OW30250   1.443   3.763   8.470  0.0250  0.0557 -0.5861
 6263SOL    HW130251   1.480   3.849   8.490  0.4632 -0.1545 -0.4833
 6263SOL    HW230252   1.511   3.730   8.412 -0.6036 -0.3616 -1.0792
 6264SOL     OW30253   0.857   0.828  11.668 -0.2081 -0.4239  0.0794
 6264SOL    HW130254   0.845   0.737  11.696  1.6358 -0.2563  1.3638
 6264SOL    HW230255   0.766   0.858  11.675  0.2879  1.2198 -0.5603
 6265SOL     OW30256   3.104   2.979   8.101  0.5210  0.1979  0.5594
 6265SOL    HW130257   3.082   3.022   8.019 -2.3113 -1.6594  0.3291
 6265SOL    HW230258   3.199   2.978   8.087  0.4385 -2.6106  0.0807
 6266SOL     OW30259   2.537   3.832   5.791 -0.0988  0.0428  0.2108
 6266SOL    HW130260   2.576   3.904   5.840 -0.7504  1.0994 -0.7987
 6266SOL    HW230261   2.612   3.812   5.734 -0.0720 -2.3055  1.0864
 6267SOL     OW30262   1.887   0.073  15.388 -1.0898 -0.1157 -0.0112
 6267SOL    HW130263   1.948   0.016  15.341 -0.6206 -0.7812  1.4169
 6267SOL    HW230264   1.872   0.145  15.327 -2.1536  0.5389  1.0201
 6268SOL     OW30265   1.657   4.354   7.555  0.2781 -0.5119  0.8001
 6268SOL    HW130266   1.618   4.299   7.623 -1.6526  0.7940  0.7382
 6268SOL    HW230267   1.580   4.370   7.500  0.0436 -1.6205  0.7907
 6269SOL     OW30268   1.964   2.565   5.351 -0.1248  0.0852  0.1772
 6269SOL    HW130269   2.014   2.577   5.271 -0.3842 -0.3150 -0.0444
 6269SOL    HW230270   1.922   2.652   5.350  4.0152  2.0931  0.8763
 6270SOL     OW30271   3.010   0.173  17.411 -0.3382  0.3968  0.1552
 6270SOL    HW130272   2.966   0.196  17.329 -0.6969 -2.8537 -0.5635
 6270SOL    HW230273   3.099   0.152  17.381 -0.5125  0.5059 -0.4341
 6271SOL     OW30274   1.836   0.743   6.630  0.5649  0.1426  0.4750
 6271SOL    HW130275   1.838   0.648   6.619  1.5489  0.4604 -1.8950
 6271SOL    HW230276   1.746   0.766   6.608  0.7465  1.6941  1.3199
 6272SOL     OW30277   3.511   3.422   8.728  0.0112 -0.4881  0.2800
 6272SOL    HW130278   3.468   3.344   8.762 -0.2903 -0.4321  0.0296
 6272SOL    HW230279   3.603   3.411   8.755  0.3056  0.2082 -0.4048
 6273SOL     OW30280   0.603   2.363   4.416  0.1763  0.0405 -0.6713
 6273SOL    HW130281   0.682   2.327   4.376  1.1946 -0.7836  2.0555
 6273SOL    HW230282   0.556   2.281   4.424 -2.2295  1.3481 -1.3687
 6274SOL     OW30283   2.589   4.010   4.929 -0.2629  0.5459  0.6485
 6274SOL    HW130284   2.638   4.036   5.007  0.9942 -0.6868  0.2795
 6274SOL    HW230285   2.528   3.948   4.969 -0.7088  0.3366 -0.3687
 6275SOL     OW30286   4.333   2.726   8.648 -0.0241 -0.1392  0.2730
 6275SOL    HW130287   4.417   2.757   8.681  0.5469  0.5377 -1.8172
 6275SOL    HW230288   4.305   2.799   8.593  1.5567  0.7506  0.6457
 6276SOL     OW30289   3.181   1.875  10.567 -0.3269 -0.1850 -0.0257
 6276SOL    HW130290   3.098   1.868  10.522 -0.5734  0.4166  0.3409
 6276SOL    HW230291   3.203   1.966  10.549  1.9308 -1.0279 -1.6324
 6277SOL     OW30292   0.698   1.151   6.830  0.7681  0.0546 -0.1880
 6277SOL    HW130293   0.767   1.187   6.774  0.1786  0.6262 -0.5418
 6277SOL    HW230294   0.639   1.224   6.848 -1.0410 -1.3386 -0.5179
 6278SOL     OW30295   3.753   1.801  14.012  0.3369 -0.6812 -0.3486
 6278SOL    HW130296   3.839   1.777  13.975  0.8346 -0.2471  0.5431
 6278SOL    HW230297   3.696   1.786  13.937 -2.0067  0.1553  1.2854
 6279SOL     OW30298   2.373   1.859   3.698 -0.5148  0.3995 -0.3384
 6279SOL    HW130299   2.419   1.929   3.744 -0.5135  0.9540 -1.1755
 6279SOL    HW230300   2.386   1.888   3.608  1.8336 -1.6457 -0.6576
 6280SOL     OW30301   2.751   3.647  13.463 -0.0072  0.5183  0.1018
 6280SOL    HW130302   2.723   3.738  13.459 -0.8877  0.3284  2.1949
 6280SOL    HW230303   2.843   3.667  13.447  0.2653 -1.5139 -0.9397
 6281SOL     OW30304   0.591   3.793   2.380  0.8613  0.2400 -0.2192
 6281SOL    HW130305   0.499   3.817   2.392  1.1595 -0.2583  3.1095
 6281SOL    HW230306   0.608   3.827   2.292 -0.1984  1.2230 -0.0601
 6282SOL     OW30307   3.213   0.513   2.241  0.4840  0.3802 -0.5237
 6282SOL    HW130308   3.183   0.505   2.150 -0.4266  0.0365 -0.1990
 6282SOL    HW230309   3.307   0.511   2.228  0.8092  3.8796  1.2556
 6283SOL     OW30310   2.309   1.473  17.238  0.3839 -0.0067 -1.1345
 6283SOL    HW130311   2.267   1.496  17.321  1.6154  0.3488 -0.6081
 6283SOL    HW230312   2.235   1.462  17.179  0.5031  0.2996 -1.3350
 6284SOL     OW30313   2.808   2.521  14.036 -0.1415  1.1242 -0.0832
 6284SOL    HW130314   2.750   2.467  13.982  0.2044  0.3041  0.3605
 6284SOL    HW230315   2.846   2.459  14.098 -2.2269  0.3672  0.4595
 6285SOL     OW30316   2.367   2.041   3.207  0.3115  0.2548  0.3199
 6285SOL    HW130317   2.404   2.053   3.119 -1.6711 -0.4383 -0.6102
 6285SOL    HW230318   2.320   2.125   3.216  2.0808  1.4690 -1.7897
 6286SOL     OW30319   2.490   3.812  12.664  0.2799  0.0171 -0.0307
 6286SOL    HW130320   2.492   3.793  12.570  0.6180  0.5929 -0.1365
 6286SOL    HW230321   2.533   3.897  12.661  0.0645  0.1399  0.4349
 6287SOL     OW30322   1.448   0.611   3.057 -0.4528  0.4441  0.0028
 6287SOL    HW130323   1.455   0.704   3.038  0.5057 -0.1782 -2.6038
 6287SOL    HW230324   1.362   0.618   3.098 -0.6553  1.2569 -0.5821
 6288SOL     OW30325   3.356   1.433  15.485  0.0000 -0.4081  0.0626
 6288SOL    HW130326   3.373   1.389  15.568  1.0395 -1.5817 -0.7774
 6288SOL    HW230327   3.349   1.522  15.520 -1.4293  0.6918 -2.9844
 6289SOL     OW30328   1.906   1.139   2.369 -0.3467 -0.2119 -0.2152
 6289SOL    HW130329   1.983   1.127   2.425  0.5392  1.5510 -1.0621
 6289SOL    HW230330   1.901   1.054   2.326 -2.0057  1.0822 -2.6356
 6290SOL     OW30331   4.549   3.830   1.789  0.2364  0.2202  0.3612
 6290SOL    HW130332   4.499   3.827   1.708  0.3013 -0.2359  0.3388
 6290SOL    HW230333   4.627   3.778   1.771 -0.2783  0.6527 -3.1715
 6291SOL     OW30334   3.102   3.032   2.381 -0.4525 -0.2320  0.6759
 6291SOL    HW130335   3.189   3.071   2.372 -0.6104 -0.2076 -0.6303
 6291SOL    HW230336   3.094   2.984   2.299  0.4500 -1.2195  1.1628
 6292SOL     OW30337   2.435   0.597   1.938  0.2719  0.1235  0.2748
 6292SOL    HW130338   2.476   0.628   1.857  0.9940 -1.5696 -0.0149
 6292SOL    HW230339   2.410   0.506   1.923 -0.2084  0.3579 -0.3621
 6293SOL     OW30340   2.813   0.578   5.257  0.5084 -0.3470 -0.1694
 6293SOL    HW130341   2.871   0.510   5.222  0.2090 -0.4100 -0.5449
 6293SOL    HW230342   2.744   0.523   5.295  1.4989 -1.5052 -0.0718
 6294SOL     OW30343   4.119   2.194  12.873 -0.4635 -0.5831  0.0083
 6294SOL    HW130344   4.088   2.174  12.785  0.9544 -1.9938 -0.1662
 6294SOL    HW230345   4.209   2.160  12.874 -0.4334 -0.4898  0.7726
 6295SOL     OW30346   3.868   0.080   8.236 -0.2923  0.2071 -0.3795
 6295SOL    HW130347   3.831   4.717   8.245  0.8246 -0.2439 -0.0929
 6295SOL    HW230348   3.801   0.128   8.187 -1.4665 -0.9321  0.1182
 6296SOL     OW30349   4.485   0.735   6.277  0.1067 -0.2913  0.4471
 6296SOL    HW130350   4.439   0.804   6.230 -0.0673  0.6049  1.9411
 6296SOL    HW230351   4.518   0.777   6.357 -3.6314 -0.9094  2.3179
 6297SOL     OW30352   4.534   3.397  13.368 -0.1567  0.3566  0.4572
 6297SOL    HW130353   4.545   3.456  13.443 -1.6801  0.4340  0.6169
 6297SOL    HW230354   4.592   3.325  13.393 -3.0661 -2.7142 -1.7657
 6298SOL     OW30355   0.674   4.402   9.927 -0.0799  0.0868  0.0900
 6298SOL    HW130356   0.628   4.482   9.951 -0.2934  0.3364 -1.1500
 6298SOL    HW230357   0.602   4.343   9.904  1.8481 -1.9935 -0.6883
 6299SOL     OW30358   2.218   3.801  15.387 -0.6101 -0.2699  0.5499
 6299SOL    HW130359   2.136   3.753  15.377  0.4785 -1.3798 -2.7761
 6299SOL    HW230360   2.270   3.735  15.432  0.2359 -0.0742 -0.1641
 6300SOL     OW30361   2.379   0.583   5.429 -0.8711  0.5339 -0.0642
 6300SOL    HW130362   2.447   0.597   5.364 -1.3572  1.3099 -0.4113
 6300SOL    HW230363   2.311   0.545   5.373 -2.6208 -0.4623  2.7397
 6301SOL     OW30364   0.360   1.628   3.449  0.1875  0.3621  0.2462
 6301SOL    HW130365   0.336   1.715   3.482  0.0132 -0.7595  3.0696
 6301SOL    HW230366   0.388   1.645   3.360 -2.2024 -0.8491 -0.7377
 6302SOL     OW30367   0.705   3.909  10.313 -0.1942 -0.0779 -0.2247
 6302SOL    HW130368   0.730   3.955  10.232  0.1839  0.0781 -0.0192
 6302SOL    HW230369   0.729   3.819  10.288 -2.9342 -0.3689 -1.8322
 6303SOL     OW30370   3.367   4.711   5.278  0.1762  0.4943  0.5790
 6303SOL    HW130371   3.355   0.070   5.324 -1.0368  0.3629  0.5050
 6303SOL    HW230372   3.393   0.028   5.195  0.9233  0.0804  0.6046
 6304SOL     OW30373   4.479   0.101   3.736 -0.0176 -0.0858  0.2781
 6304SOL    HW130374   4.463   0.031   3.799 -0.9676  0.0932  0.2256
 6304SOL    HW230375   4.555   0.149   3.772  1.0550 -0.2958 -1.7122
 6305SOL     OW30376   4.140   4.396  17.501  0.5553  0.3641 -0.7059
 6305SOL    HW130377   4.107   4.366  17.416  0.0410 -1.2741  0.0926
 6305SOL    HW230378   4.058   4.429  17.538  1.0594  0.3311  0.4346
 6306SOL     OW30379   0.925   3.132   0.225  0.5738  0.4513  0.3361
 6306SOL    HW130380   0.906   3.203   0.287 -1.3695  0.2166  0.0042
 6306SOL    HW230381   0.976   3.078   0.286  2.3256  1.0470 -0.6020
 6307SOL     OW30382   2.315   3.686   9.895  0.3965 -0.4309  0.3378
 6307SOL    HW130383   2.331   3.774   9.931  0.7808 -0.8813  1.2626
 6307SOL    HW230384   2.344   3.707   9.807  2.2946  0.6373  1.2093
 6308SOL     OW30385   2.134   3.965   6.578  0.5778  0.0590 -0.6771
 6308SOL    HW130386   2.157   4.057   6.594 -0.1680  0.0063  0.6405
 6308SOL    HW230387   2.045   3.948   6.609  0.3293 -0.1821 -1.5172
 6309SOL     OW30388   3.106   2.365   2.883  0.0309  0.5884 -0.3746
 6309SOL    HW130389   3.057   2.285   2.868 -4.3053  3.1387  0.2088
 6309SOL    HW230390   3.129   2.387   2.793  0.9817  3.1997  0.5043
 6310SOL     OW30391   1.442   3.904   1.645 -0.0196 -0.1353  0.1535
 6310SOL    HW130392   1.502   3.921   1.718 -1.0872  1.4698  0.6410
 6310SOL    HW230393   1.361   3.899   1.696 -1.1041  0.8777 -1.4858
 6311SOL     OW30394   4.443   1.885   6.524  0.6575 -0.3978  0.3365
 6311SOL    HW130395   4.518   1.875   6.582  1.6250 -0.0096 -0.8329
 6311SOL    HW230396   4.423   1.791   6.514  0.7910 -0.0259 -3.7189
 6312SOL     OW30397   4.179   4.006   3.173  0.0565  0.4292 -0.1841
 6312SOL    HW130398   4.103   3.957   3.142 -0.6462  2.6626 -2.0097
 6312SOL    HW230399   4.171   4.084   3.117 -0.4062 -1.1041 -2.2717
 6313SOL     OW30400   2.920   4.531  13.483 -0.1664  0.3837 -0.4417
 6313SOL    HW130401   2.880   4.470  13.544  0.6551 -0.1143 -0.3882
 6313SOL    HW230402   2.927   4.488  13.397  3.0466 -2.4596  1.2134
 6314SOL     OW30403   1.989   1.846   4.485 -0.2969  0.1263  0.0191
 6314SOL    HW130404   1.946   1.895   4.555  1.3053 -0.2525  1.2587
 6314SOL    HW230405   2.077   1.882   4.487 -0.2279  0.0491 -1.1473
 6315SOL     OW30406   2.036   3.912  12.940  0.0284  0.0191 -0.5656
 6315SOL    HW130407   2.116   3.945  12.979  0.7714  0.7353 -2.6759
 6315SOL    HW230408   2.068   3.841  12.884  0.7541  0.7810 -1.1254
 6316SOL     OW30409   2.114   2.008   8.702 -0.2845 -0.1504  0.2275
 6316SOL    HW130410   2.169   1.942   8.745  1.1565  0.0723 -1.2623
 6316SOL    HW230411   2.096   2.058   8.781  1.1194  0.0087  0.4438
 6317SOL     OW30412   0.271   1.745   4.066  0.1216 -0.1282 -0.1490
 6317SOL    HW130413   0.211   1.815   4.091 -1.0613 -1.0704 -0.3081
 6317SOL    HW230414   0.242   1.707   3.983 -2.7258  1.4887  0.1043
 6318SOL     OW30415   3.090   0.767   2.914  0.0469  0.6305 -0.3275
 6318SOL    HW130416   3.154   0.838   2.916 -3.5142  3.8518 -0.0356
 6318SOL    HW230417   3.125   0.728   2.994  0.6586  2.0522  0.1006
 6319SOL     OW30418   3.130   1.096   3.829 -0.3778 -0.0721 -0.2832
 6319SOL    HW130419   3.162   1.040   3.758  2.8549 -1.0151  1.9528
 6319SOL    HW230420   3.157   1.180   3.791  1.0876  0.4473  1.9742
 6320SOL     OW30421   1.030   1.544   2.101  0.9183 -0.3722 -0.8196
 6320SOL    HW130422   1.100   1.601   2.131  1.2811 -0.5552 -1.3323
 6320SOL    HW230423   1.052   1.459   2.139  1.6194 -0.4005 -1.3001
 6321SOL     OW30424   3.264   3.839  12.183 -0.1561 -0.3008 -0.1734
 6321SOL    HW130425   3.184   3.826  12.132 -0.0844  1.1524 -0.6387
 6321SOL    HW230426   3.226   3.873  12.264  2.1084 -0.7569  1.0843
 6322SOL     OW30427   4.433   2.418   2.753  0.1400  0.2004  0.0588
 6322SOL    HW130428   4.466   2.424   2.842  1.8450  1.3883 -0.6391
 6322SOL    HW230429   4.461   2.500   2.711  2.8885 -1.5422 -1.4982
 6323SOL     OW30430   2.631   1.193   7.605 -0.1429 -0.0522  0.5820
 6323SOL    HW130431   2.604   1.255   7.538 -0.0251  1.5249  1.9747
 6323SOL    HW230432   2.548   1.146   7.609 -0.3045  0.2076  0.2694
 6324SOL     OW30433   4.085   2.795  13.708 -0.3333  1.2336  0.2002
 6324SOL    HW130434   4.064   2.885  13.729  2.2472  1.2664  2.6781
 6324SOL    HW230435   4.179   2.803  13.691 -0.8042  1.5674 -2.1477
 6325SOL     OW30436   0.071   1.240  13.257  0.0161 -0.2472  0.0336
 6325SOL    HW130437   4.701   1.229  13.246  0.0350 -1.6853  1.2999
 6325SOL    HW230438   0.072   1.269  13.348 -0.8711  0.2412 -0.1198
 6326SOL     OW30439   1.763   2.503   5.670 -0.7396  0.7480  0.1988
 6326SOL    HW130440   1.762   2.462   5.584  1.6151 -0.8931  0.9476
 6326SOL    HW230441   1.753   2.597   5.655  0.7383  0.4303 -2.8303
 6327SOL     OW30442   1.543   1.505  16.604 -0.1589  0.7345 -0.0533
 6327SOL    HW130443   1.579   1.494  16.516 -0.1244  0.6730 -0.0309
 6327SOL    HW230444   1.515   1.417  16.627 -2.1721  0.9356 -1.7301
 6328SOL     OW30445   1.606   3.198   9.479 -0.2376 -0.0604  0.7891
 6328SOL    HW130446   1.511   3.189   9.484 -0.1962 -1.2118 -0.6127
 6328SOL    HW230447   1.624   3.246   9.560  1.5961  0.4828  0.0576
 6329SOL     OW30448   2.057   0.051   9.350  0.4432 -0.2263 -0.1756
 6329SOL    HW130449   2.036   0.090   9.265  1.7078  1.4267  0.2440
 6329SOL    HW230450   2.002   4.698   9.345  0.8036 -0.5322  0.5567
 6330SOL     OW30451   3.493   2.838   8.996  0.1510 -0.2461  0.3143
 6330SOL    HW130452   3.438   2.893   8.940 -0.1643  0.2166  1.0795
 6330SOL    HW230453   3.432   2.804   9.061 -0.7390  0.9785  0.1266
 6331SOL     OW30454   3.092   3.523   3.462 -0.2707 -0.1196  0.7238
 6331SOL    HW130455   3.100   3.532   3.557  0.5278 -1.0949  0.7517
 6331SOL    HW230456   3.080   3.428   3.459  1.3592 -0.2900 -0.5820
 6332SOL     OW30457   1.324   4.321   6.261  0.2403  0.5844  0.1600
 6332SOL    HW130458   1.362   4.389   6.204  0.8244  0.0016 -0.1470
 6332SOL    HW230459   1.288   4.380   6.327  1.7925 -0.0889  1.5974
 6333SOL     OW30460   2.673   3.269   8.199 -0.6094  0.7291  0.2094
 6333SOL    HW130461   2.580   3.278   8.219 -0.6421 -2.2624  1.3962
 6333SOL    HW230462   2.705   3.204   8.261 -1.0063  0.6852  0.3635
 6334SOL     OW30463   3.346   3.239   4.812  0.4563  0.1549 -0.3050
 6334SOL    HW130464   3.347   3.335   4.806  1.8214  0.1175 -0.6613
 6334SOL    HW230465   3.436   3.211   4.798  0.2864 -0.7726  0.4518
 6335SOL     OW30466   0.407   3.683   1.270 -0.1240  0.4511  0.1896
 6335SOL    HW130467   0.464   3.705   1.196 -0.9380  2.3052  0.1238
 6335SOL    HW230468   0.359   3.616   1.221 -0.0101  1.4186 -1.2148
 6336SOL     OW30469   2.397   2.263  14.438  0.3449  0.0022  0.2248
 6336SOL    HW130470   2.477   2.261  14.386  0.4893  2.2186  0.3615
 6336SOL    HW230471   2.343   2.234  14.365  1.6142  1.7419 -1.4162
 6337SOL     OW30472   4.367   0.010   6.044  0.1713 -0.2749 -0.6095
 6337SOL    HW130473   4.313   0.078   6.085  0.0314 -0.8616  0.1726
 6337SOL    HW230474   4.314   4.657   6.060  1.4505 -0.9749  0.2350
 6338SOL     OW30475   3.816   0.282  16.287  0.0315 -0.0524  0.0732
 6338SOL    HW130476   3.724   0.299  16.310  0.4266  1.6297  0.4026
 6338SOL    HW230477   3.855   0.319  16.366 -0.4884 -0.1928  0.3955
 6339SOL     OW30478   3.047   3.894   7.415  0.4282 -0.0619 -0.0302
 6339SOL    HW130479   3.100   3.942   7.479  2.0914 -0.0194 -1.4589
 6339SOL    HW230480   3.030   3.966   7.355  2.0621  0.2453 -0.1067
 6340SOL     OW30481   0.232   2.813  16.482  0.5449 -0.2716 -0.3030
 6340SOL    HW130482   0.155   2.829  16.427  0.0532 -1.5277  0.0107
 6340SOL    HW230483   0.249   2.900  16.517 -0.6611  0.5209 -1.7002
 6341SOL     OW30484   0.180   2.526  16.245  0.0915 -0.0511 -0.0656
 6341SOL    HW130485   0.121   2.596  16.218  2.2824  0.9851 -2.2197
 6341SOL    HW230486   0.203   2.487  16.160  0.5928  1.9458 -0.8470
 6342SOL     OW30487   0.965   2.172   5.864  0.0688 -0.6156  0.2754
 6342SOL    HW130488   1.011   2.088   5.873  1.2436 -0.0443 -0.3935
 6342SOL    HW230489   0.919   2.195   5.945 -1.0887 -0.0381 -0.5520
 6343SOL     OW30490   3.896   2.754   2.432  0.1327 -0.0344 -0.1156
 6343SOL    HW130491   3.958   2.758   2.505  2.1363  0.1049 -1.8305
 6343SOL    HW230492   3.947   2.796   2.363 -1.1478 -0.7245 -1.4899
 6344SOL     OW30493   2.476   3.871   4.576  0.2988  0.1393  0.0824
 6344SOL    HW130494   2.435   3.927   4.511  0.5561 -0.6420 -0.7513
 6344SOL    HW230495   2.569   3.893   4.578  0.9039 -2.7574  3.6995
 6345SOL     OW30496   1.229   0.446   9.681  0.1094  0.3635 -0.5025
 6345SOL    HW130497   1.289   0.449   9.606  0.2464 -2.8414 -0.5210
 6345SOL    HW230498   1.149   0.479   9.640 -3.2843 -4.4874  2.3138
 6346SOL     OW30499   3.675   0.203   4.531  0.7716  0.5199 -0.0961
 6346SOL    HW130500   3.649   0.277   4.475 -1.5905 -1.5011 -1.6914
 6346SOL    HW230501   3.724   0.144   4.474  0.0059  0.6328 -0.8816
 6347SOL     OW30502   2.286   1.461   1.522 -0.0262  0.7186  0.0099
 6347SOL    HW130503   2.257   1.492   1.436  0.7753  0.5610 -0.3190
 6347SOL    HW230504   2.215   1.398   1.530  0.2869  0.4100  0.3527
 6348SOL     OW30505   3.052   4.201   6.603  0.1047 -0.1884  0.3157
 6348SOL    HW130506   3.015   4.267   6.661 -0.0568 -0.3631  0.4129
 6348SOL    HW230507   3.141   4.194   6.639  0.1881  0.7029  0.2854
 6349SOL     OW30508   4.324   1.428  10.316  0.5280 -0.3027 -0.1618
 6349SOL    HW130509   4.341   1.511  10.361 -0.3911 -0.5554  0.6540
 6349SOL    HW230510   4.287   1.461  10.234  4.0255 -1.7166 -2.3006
 6350SOL     OW30511   2.055   2.741   9.780 -0.1372  0.0148 -0.3331
 6350SOL    HW130512   2.061   2.824   9.733  0.4763  0.2955  0.2390
 6350SOL    HW230513   2.116   2.693   9.724  0.1532  1.4918 -1.2855
 6351SOL     OW30514   0.324   2.074   9.850 -0.4983  0.1529 -0.1421
 6351SOL    HW130515   0.233   2.063   9.879 -0.0953  0.1664  1.1272
 6351SOL    HW230516   0.366   2.010   9.907  1.6184  0.7076 -1.0613
 6352SOL     OW30517   1.401   3.683   4.895 -0.6288 -0.0914  0.6461
 6352SOL    HW130518   1.399   3.776   4.919 -0.3440  0.1965 -0.4056
 6352SOL    HW230519   1.445   3.649   4.972  0.3604  0.1045  0.1716
 6353SOL     OW30520   0.463   1.735   3.232  0.0475  0.3631 -0.3709
 6353SOL    HW130521   0.431   1.725   3.142  0.7929 -1.1366 -0.4664
 6353SOL    HW230522   0.556   1.720   3.216  0.0041  0.3203 -0.5842
 6354SOL     OW30523   3.019   2.235  10.333  0.1531  0.0888 -0.0031
 6354SOL    HW130524   2.967   2.315  10.339  1.8411  1.2435 -0.5797
 6354SOL    HW230525   3.053   2.230  10.423  0.1186 -2.6058 -0.1483
 6355SOL     OW30526   3.588   1.223   7.993 -0.5044 -0.4893  0.5156
 6355SOL    HW130527   3.564   1.248   8.082 -1.4271 -0.4878  0.2669
 6355SOL    HW230528   3.623   1.308   7.965  1.8902 -0.7342  2.8436
 6356SOL     OW30529   3.220   3.964   8.997  0.0803 -0.5842 -0.4113
 6356SOL    HW130530   3.268   3.967   9.079  2.9440 -1.7387 -2.0538
 6356SOL    HW230531   3.131   3.979   9.030  0.0194  1.6443 -1.5960
 6357SOL     OW30532   3.375   0.619   1.187  0.5159  0.3263 -0.0987
 6357SOL    HW130533   3.393   0.690   1.125  0.2421  0.2012 -0.3207
 6357SOL    HW230534   3.352   0.671   1.264 -0.5938 -1.5381  0.8322
 6358SOL     OW30535   3.461   1.451  11.594 -0.1141  0.5692 -0.1523
 6358SOL    HW130536   3.500   1.537  11.609 -0.8579  1.0507 -1.0162
 6358SOL    HW230537   3.538   1.396  11.585  0.2171  0.9054  0.6036
 6359SOL     OW30538   0.006   2.918   1.329 -0.2351 -0.3156  0.8580
 6359SOL    HW130539   4.679   2.861   1.388 -2.3422  0.0533 -0.6198
 6359SOL    HW230540   0.085   2.865   1.320  0.3432  0.8226 -0.7163
 6360SOL     OW30541   1.855   0.097   6.329 -0.0654  0.1315 -0.1224
 6360SOL    HW130542   1.918   0.127   6.263 -2.4080  2.0084 -1.5501
 6360SOL    HW230543   1.916   0.043   6.379 -1.6254 -0.5808  1.0119
 6361SOL     OW30544   1.501   0.864   0.314  0.3640  0.4617  0.0709
 6361SOL    HW130545   1.515   0.875   0.408  0.9230 -2.2951  0.3225
 6361SOL    HW230546   1.576   0.915   0.283  1.4372 -1.2572 -0.1668
 6362SOL     OW30547   3.545   2.465   4.726 -0.3048 -0.4615  0.0221
 6362SOL    HW130548   3.537   2.561   4.724 -3.8097 -0.7829 -1.0813
 6362SOL    HW230549   3.635   2.459   4.758 -0.4769  2.9888  1.1570
 6363SOL     OW30550   4.228   1.611   8.011  0.0480 -0.2585  0.5113
 6363SOL    HW130551   4.148   1.560   8.024 -0.5906  0.7240  0.4498
 6363SOL    HW230552   4.206   1.674   7.943  0.8119  0.1681  0.6549
 6364SOL     OW30553   2.779   4.479   9.016  0.1474  0.2191 -0.6864
 6364SOL    HW130554   2.792   4.422   9.092  0.9838 -2.1889 -2.6026
 6364SOL    HW230555   2.862   4.526   9.018  0.0379  0.4319 -1.2775
 6365SOL     OW30556   2.954   4.385   7.359 -0.3647  0.0331 -0.0260
 6365SOL    HW130557   3.011   4.440   7.413 -3.4874  0.7353  2.5520
 6365SOL    HW230558   3.023   4.329   7.323 -1.1640 -1.1571  0.3262
 6366SOL     OW30559   1.680   1.668   4.423  0.1990  0.2892  0.9469
 6366SOL    HW130560   1.647   1.756   4.441 -0.1188 -0.1846  2.7394
 6366SOL    HW230561   1.751   1.665   4.488  1.5284  1.2921 -0.4404
 6367SOL     OW30562   4.212   4.719   2.785 -0.0089  0.6097  0.4583
 6367SOL    HW130563   4.203   0.088   2.765  2.4306  0.6130 -0.6482
 6367SOL    HW230564   4.269   4.682   2.717 -1.1458 -0.2305 -0.0386
 6368SOL     OW30565   3.747   3.042   5.007 -0.3344  0.1086  0.0428
 6368SOL    HW130566   3.769   3.020   4.917 -0.6776 -0.6174  0.1347
 6368SOL    HW230567   3.833   3.033   5.048 -0.8048  0.4438  1.1333
 6369SOL     OW30568   1.217   0.653   5.878 -0.0145  0.4809  0.8800
 6369SOL    HW130569   1.270   0.597   5.936  0.2599  0.2188  0.3763
 6369SOL    HW230570   1.132   0.645   5.922 -0.8110  2.5278 -0.3163
 6370SOL     OW30571   2.225   4.275   4.838 -0.1438 -0.4471 -0.1605
 6370SOL    HW130572   2.293   4.208   4.836 -1.5025 -1.7843 -1.1544
 6370SOL    HW230573   2.166   4.233   4.775  1.8005 -0.0339 -2.2740
 6371SOL     OW30574   0.853   2.143   7.231 -0.2454 -0.1272 -0.6047
 6371SOL    HW130575   0.941   2.179   7.247 -1.0641  1.7435 -0.3759
 6371SOL    HW230576   0.805   2.208   7.180 -0.7172  0.1792  0.2379
 6372SOL     OW30577   1.684   0.465  16.039 -0.3430  0.2971  0.0393
 6372SOL    HW130578   1.697   0.551  15.999  0.1541  2.0883  4.0316
 6372SOL    HW230579   1.699   0.488  16.131 -0.8802  2.9562 -0.5378
 6373SOL     OW30580   4.174   0.119   1.648 -0.1217  0.9749  0.2357
 6373SOL    HW130581   4.156   0.183   1.579 -1.4625 -0.9339 -1.1559
 6373SOL    HW230582   4.244   0.077   1.599  0.3147 -1.6890  3.1040
 6374SOL     OW30583   3.460   0.563   2.137 -0.4959  0.5825  0.5555
 6374SOL    HW130584   3.450   0.491   2.074 -1.1442  1.1058  0.0492
 6374SOL    HW230585   3.546   0.533   2.165 -1.1210  0.1959  2.0306
 6375SOL     OW30586   4.486   0.419   7.096  0.0296  0.0811 -0.0341
 6375SOL    HW130587   4.514   0.486   7.034  0.7160 -0.2368 -0.0671
 6375SOL    HW230588   4.443   0.363   7.031 -1.4150  1.2578 -0.0905
 6376SOL     OW30589   2.214   3.993   9.008  0.0207  0.1929  0.3446
 6376SOL    HW130590   2.131   3.955   8.980 -0.0146 -1.1426  2.2463
 6376SOL    HW230591   2.200   4.007   9.102 -0.7940 -1.7090  0.5133
 6377SOL     OW30592   2.587   1.384  17.514 -0.3129 -0.3319  0.2465
 6377SOL    HW130593   2.601   1.479  17.512  0.2797 -0.4724 -2.6000
 6377SOL    HW230594   2.493   1.371  17.508 -0.1245 -1.3283 -0.4526
 6378SOL     OW30595   0.979   3.251   3.565  0.0399 -1.1547  0.1111
 6378SOL    HW130596   1.015   3.207   3.488 -2.0492  0.0761 -1.5538
 6378SOL    HW230597   0.994   3.187   3.634 -3.1974 -0.9622  0.9680
 6379SOL     OW30598   3.794   0.743  12.142  0.3155 -0.1838  0.4921
 6379SOL    HW130599   3.776   0.777  12.230  0.8070 -0.4834  0.7129
 6379SOL    HW230600   3.717   0.690  12.123 -2.3683  3.4661  1.3245
 6380SOL     OW30601   0.113   1.356   5.278 -0.6552 -0.1669  0.3464
 6380SOL    HW130602   0.096   1.424   5.212 -1.4806 -0.2221  0.5002
 6380SOL    HW230603   0.124   1.274   5.230 -0.1213  1.3303 -2.0822
 6381SOL     OW30604   4.702   0.609   3.248 -0.2260  0.1162 -0.2147
 6381SOL    HW130605   0.042   0.626   3.317  1.6074  0.1117 -1.9090
 6381SOL    HW230606   0.039   0.584   3.179 -0.4638  0.5879 -0.6016
 6382SOL     OW30607   1.669   2.173  11.516 -0.2749 -0.1191 -0.0172
 6382SOL    HW130608   1.615   2.252  11.510 -0.0346  0.2645  2.8965
 6382SOL    HW230609   1.672   2.146  11.424 -0.2856 -1.1399  0.2835
 6383SOL     OW30610   0.046   1.250   7.290  0.3981  0.0062  0.2538
 6383SOL    HW130611   4.713   1.178   7.261  0.4041 -0.5101  1.5276
 6383SOL    HW230612   0.038   1.245   7.385 -1.5217 -0.2912  0.0757
 6384SOL     OW30613   4.526   3.156   3.025  0.3803  0.1776  0.2244
 6384SOL    HW130614   4.462   3.201   2.970  0.2746  0.1303  0.3082
 6384SOL    HW230615   4.570   3.099   2.963  2.1945 -0.1278  1.7829
 6385SOL     OW30616   1.800   0.144   7.452 -0.3924 -0.1845 -0.1093
 6385SOL    HW130617   1.748   0.068   7.477 -0.9343 -0.2182 -1.3333
 6385SOL    HW230618   1.871   0.146   7.516 -2.1600  1.2220  1.7990
 6386SOL     OW30619   0.200   0.977   8.235 -0.1366  0.4835 -0.4862
 6386SOL    HW130620   0.174   0.886   8.226 -3.1096  1.5002 -2.1540
 6386SOL    HW230621   0.130   1.041   8.226  0.3055  0.7646 -1.9721
 6387SOL     OW30622   4.048   0.815   4.302  0.1700  0.5250 -0.2247
 6387SOL    HW130623   4.058   0.772   4.217  0.7174  0.5047 -0.1539
 6387SOL    HW230624   3.966   0.863   4.289 -0.5459 -1.2393 -2.0247
 6388SOL     OW30625   2.649   0.798   7.856 -0.2486  0.1098  0.8820
 6388SOL    HW130626   2.581   0.734   7.874 -0.8291  0.2429 -0.8941
 6388SOL    HW230627   2.630   0.822   7.765 -2.4998 -1.0180  1.0736
 6389SOL     OW30628   0.255   0.142   3.415 -0.3658  0.6792 -0.7250
 6389SOL    HW130629   0.203   0.149   3.494  0.4482  0.2045 -0.1437
 6389SOL    HW230630   0.321   0.210   3.428 -1.1843  1.6114 -1.4168
 6390SOL     OW30631   2.927   0.137  13.428 -0.4384 -0.0192 -1.0633
 6390SOL    HW130632   2.921   0.166  13.520  3.1620 -2.6085 -0.0051
 6390SOL    HW230633   2.857   0.188  13.388 -0.5076  1.7880  1.3447
 6391SOL     OW30634   4.082   2.598   5.303  0.8133 -0.6218  0.3010
 6391SOL    HW130635   4.021   2.544   5.354  1.1198 -0.2252  1.0956
 6391SOL    HW230636   4.021   2.668   5.281  0.8229 -0.8645 -0.4870
 6392SOL     OW30637   1.006   0.020   3.577 -0.2426  0.5188 -0.5783
 6392SOL    HW130638   0.937   0.082   3.604  0.1588  0.8240 -0.2640
 6392SOL    HW230639   1.055   0.078   3.519  1.1492  0.0471  0.1369
 6393SOL     OW30640   1.205   0.242   9.231 -0.5836 -0.2047  0.0835
 6393SOL    HW130641   1.153   0.169   9.199  1.7346 -1.8166 -0.0022
 6393SOL    HW230642   1.295   0.208   9.226 -1.3162 -1.8358 -1.5708
 6394SOL     OW30643   3.824   4.657  12.827 -0.0565 -0.2658  0.0121
 6394SOL    HW130644   3.824   0.006  12.765  0.2331 -0.6706 -0.4644
 6394SOL    HW230645   3.919   4.656  12.842  0.6935 -0.4015 -5.0507
 6395SOL     OW30646   3.183   3.842   5.050 -0.1509 -0.1033  0.2497
 6395SOL    HW130647   3.202   3.913   4.989  0.1330  0.5908  1.1392
 6395SOL    HW230648   3.103   3.868   5.094 -1.6838 -1.3363 -1.8231
 6396SOL     OW30649   2.559   1.392   1.565 -0.8033  0.0876 -0.1433
 6396SOL    HW130650   2.555   1.445   1.645  3.5572 -1.4686  1.0888
 6396SOL    HW230651   2.484   1.423   1.514  0.5382  1.9977 -0.9880
 6397SOL     OW30652   3.286   0.830   6.082 -0.6344 -0.0209 -0.2481
 6397SOL    HW130653   3.302   0.917   6.044 -0.6589 -0.3732 -1.0413
 6397SOL    HW230654   3.214   0.803   6.026 -2.0849  2.2933  0.4575
 6398SOL     OW30655   4.517   2.636   5.859  0.4070 -0.0106  0.3666
 6398SOL    HW130656   4.472   2.665   5.779 -1.7179 -1.1774  1.1378
 6398SOL    HW230657   4.569   2.559   5.836 -0.9579 -0.5431 -0.9512
 6399SOL     OW30658   3.307   0.305   5.789  0.1728  0.1831  0.0428
 6399SOL    HW130659   3.353   0.247   5.728 -4.4762 -2.2718 -1.1481
 6399SOL    HW230660   3.300   0.246   5.864 -0.6968 -2.4829 -2.1325
 6400SOL     OW30661   0.539   3.576   8.406 -0.1228  0.2242  0.5696
 6400SOL    HW130662   0.630   3.550   8.392 -0.1499 -0.0916  0.9757
 6400SOL    HW230663   0.490   3.493   8.406 -1.2529  0.8823  1.5995
 6401SOL     OW30664   3.683   1.773   4.681 -0.1680  0.0397 -0.5074
 6401SOL    HW130665   3.677   1.808   4.592  0.1369 -0.5138 -0.7531
 6401SOL    HW230666   3.688   1.856   4.728 -0.3914 -1.8100  2.7432
 6402SOL     OW30667   1.328   3.145   7.062  0.2886 -0.2056 -0.3069
 6402SOL    HW130668   1.375   3.078   7.011  1.4892 -0.6411  1.3688
 6402SOL    HW230669   1.343   3.125   7.154 -1.8665  0.4359  0.1653
 6403SOL     OW30670   0.460   1.509   9.354  0.4926 -0.3498  0.2790
 6403SOL    HW130671   0.501   1.475   9.275 -0.9446 -1.5702  0.0449
 6403SOL    HW230672   0.465   1.448   9.428  2.5904 -0.3881  0.0897
 6404SOL     OW30673   3.198   3.901   5.915 -0.0561  0.0226 -0.3359
 6404SOL    HW130674   3.148   3.947   5.983  2.1225  1.1540  0.5106
 6404SOL    HW230675   3.285   3.884   5.951 -0.7952 -3.7768 -0.3672
 6405SOL     OW30676   3.725   2.167   2.400 -0.4906 -0.5413  0.3235
 6405SOL    HW130677   3.759   2.189   2.486 -0.3280  0.5302 -0.0052
 6405SOL    HW230678   3.676   2.086   2.409  0.6782 -1.1476  1.1417
 6406SOL     OW30679   4.268   0.494   3.725  0.7174  0.3008 -0.1466
 6406SOL    HW130680   4.264   0.498   3.820 -0.3212  1.0441 -0.2239
 6406SOL    HW230681   4.262   0.399   3.712 -0.3131  0.3447  0.0516
 6407SOL     OW30682   0.283   4.349  15.240  0.2324 -0.0297 -0.1559
 6407SOL    HW130683   0.216   4.398  15.289  1.7969  2.1087 -0.1803
 6407SOL    HW230684   0.275   4.263  15.282 -1.8812  0.1963 -0.0939
 6408SOL     OW30685   1.573   2.539   1.230 -0.2480  0.0225 -0.4011
 6408SOL    HW130686   1.512   2.605   1.262  0.8832  0.9876 -0.2588
 6408SOL    HW230687   1.660   2.580   1.234  0.8364 -2.0932 -2.2846
 6409SOL     OW30688   4.303   3.183   5.908  0.2036  0.1511 -0.3518
 6409SOL    HW130689   4.295   3.094   5.873  1.1569  0.5881 -1.6697
 6409SOL    HW230690   4.396   3.203   5.911  0.0295  0.5443  2.4046
 6410SOL     OW30691   4.067   0.241   4.881 -1.0153  0.5817  0.2839
 6410SOL    HW130692   4.095   0.159   4.842 -2.1591  1.0620 -1.5652
 6410SOL    HW230693   3.987   0.276   4.842 -0.4303  1.3642 -0.2171
 6411SOL     OW30694   1.011   3.348   1.966  0.5155 -0.0434 -0.0621
 6411SOL    HW130695   0.987   3.288   1.896 -1.6628  0.6292  0.1050
 6411SOL    HW230696   0.948   3.338   2.037  1.5823  1.6249  1.1355
 6412SOL     OW30697   3.011   0.892   3.455  0.5859 -0.0591 -0.1994
 6412SOL    HW130698   2.927   0.862   3.489  0.4347 -1.3822 -1.7464
 6412SOL    HW230699   3.053   0.808   3.435  0.8937  0.4063 -1.4596
 6413SOL     OW30700   2.437   2.182   7.021  0.0538 -0.0361 -0.0154
 6413SOL    HW130701   2.444   2.087   7.016  2.2742  0.1444 -0.2133
 6413SOL    HW230702   2.458   2.193   7.114  1.2764  0.9744 -0.4080
 6414SOL     OW30703   4.570   1.022   7.955 -0.1972 -0.4275 -0.4642
 6414SOL    HW130704   4.540   0.969   8.029  3.6440  0.8301  2.0183
 6414SOL    HW230705   4.507   1.094   7.968 -0.8851 -1.2937  0.9549
 6415SOL     OW30706   3.663   1.891   9.356  0.4244  0.1469  0.0781
 6415SOL    HW130707   3.616   1.812   9.332  0.5158  0.2888 -0.5570
 6415SOL    HW230708   3.614   1.960   9.311 -1.0395 -0.4679  0.7275
 6416SOL     OW30709   0.799   2.874  15.168 -0.4517  0.1350 -0.1654
 6416SOL    HW130710   0.878   2.913  15.206 -0.5154 -1.2767  1.4360
 6416SOL    HW230711   0.831   2.839  15.084  1.5452  1.3969  0.0830
 6417SOL     OW30712   4.635   2.170  16.993  0.1809 -0.6302 -0.0613
 6417SOL    HW130713   4.711   2.208  17.037  0.4202  0.4485 -1.4288
 6417SOL    HW230714   4.561   2.203  17.044 -0.3519  0.3409 -1.4710
 6418SOL     OW30715   0.264   3.419   0.631 -0.1769 -0.3678  0.4859
 6418SOL    HW130716   0.340   3.376   0.593  0.1199 -0.5080  1.2375
 6418SOL    HW230717   0.203   3.345   0.622 -0.3881  0.2008 -2.6422
 6419SOL     OW30718   4.627   2.193   6.909  0.1520  0.1140  0.1342
 6419SOL    HW130719   4.574   2.114   6.918  0.7458 -0.5368 -1.9594
 6419SOL    HW230720   4.707   2.147   6.936  1.5453  0.1467 -3.8675
 6420SOL     OW30721   0.501   3.118   1.812  0.0447  0.6617  0.0111
 6420SOL    HW130722   0.429   3.181   1.817 -0.4434  0.1828 -0.9003
 6420SOL    HW230723   0.459   3.041   1.775  2.9054 -1.6208  1.5362
 6421SOL     OW30724   1.865   3.728   9.667  0.4263  0.2561  0.6159
 6421SOL    HW130725   1.867   3.798   9.732 -0.6832  2.1819 -1.4230
 6421SOL    HW230726   1.957   3.702   9.672  0.0808 -1.5304 -2.3073
 6422SOL     OW30727   1.280   1.719  14.754 -1.0255 -0.7519 -0.0670
 6422SOL    HW130728   1.191   1.751  14.767 -0.7520  1.6004 -3.9394
 6422SOL    HW230729   1.295   1.759  14.668 -2.5590 -0.9586 -0.4343
 6423SOL     OW30730   1.414   4.614  11.710  0.9448 -0.3298 -0.6156
 6423SOL    HW130731   1.382   4.677  11.774  0.8794  0.8898 -1.8650
 6423SOL    HW230732   1.331   4.567  11.699  2.0795 -2.1998 -1.1375
 6424SOL     OW30733   2.243   4.180   2.112  0.3899  0.5976  0.4046
 6424SOL    HW130734   2.220   4.262   2.157  0.3835  0.4254  0.7134
 6424SOL    HW230735   2.256   4.125   2.189 -1.0441 -0.3831 -0.0570
 6425SOL     OW30736   3.463   2.015   3.274 -0.2163  0.7267 -0.3698
 6425SOL    HW130737   3.533   2.022   3.209  0.4888 -1.5086  0.1253
 6425SOL    HW230738   3.450   2.108   3.292 -0.3272  1.1491 -2.6795
 6426SOL     OW30739   3.060   3.880   2.669  0.3281  0.5837  0.1304
 6426SOL    HW130740   3.121   3.851   2.737 -1.4231 -4.2498 -0.3629
 6426SOL    HW230741   3.073   3.808   2.607  2.4142 -0.1739  1.4285
 6427SOL     OW30742   4.358   3.006  10.288 -0.3251  0.2014  0.3140
 6427SOL    HW130743   4.284   3.065  10.272  1.5891  2.2260 -1.1328
 6427SOL    HW230744   4.415   3.079  10.314 -0.8917  1.0026 -0.7330
 6428SOL     OW30745   4.119   4.656   8.262 -0.1129 -0.0068  0.9088
 6428SOL    HW130746   4.110   4.687   8.352  1.8581  0.3725  0.9851
 6428SOL    HW230747   4.036   4.688   8.227 -0.2180 -4.4252 -2.9521
 6429SOL     OW30748   1.910   3.942   6.010 -0.2353  0.2862 -0.1319
 6429SOL    HW130749   1.928   3.981   5.924  0.0756  1.4006  0.4368
 6429SOL    HW230750   1.974   3.870   6.005 -2.4446 -1.5643 -1.6644
 6430SOL     OW30751   1.392   1.308   1.221 -0.4773  0.2599 -0.4678
 6430SOL    HW130752   1.390   1.335   1.312  3.9602  1.5989 -0.7803
 6430SOL    HW230753   1.319   1.246   1.216 -0.8552  0.7028 -0.4061
 6431SOL     OW30754   1.509   1.022  11.407  0.4971 -0.0603  0.5058
 6431SOL    HW130755   1.539   0.935  11.377 -0.0393  0.2394 -0.9119
 6431SOL    HW230756   1.587   1.053  11.453  0.9435 -0.2321 -0.1254
 6432SOL     OW30757   4.426   2.048   3.603 -0.1767 -0.4307  0.2426
 6432SOL    HW130758   4.503   2.098   3.575  0.3212 -1.1770  0.2958
 6432SOL    HW230759   4.363   2.063   3.533  1.3648 -0.1460 -1.0759
 6433SOL     OW30760   2.724   0.711   7.076 -0.1415 -0.1406 -0.1325
 6433SOL    HW130761   2.732   0.796   7.119  3.7319 -0.8991  0.6263
 6433SOL    HW230762   2.640   0.730   7.033 -0.6530  2.5254  2.0310
 6434SOL     OW30763   0.952   1.484   8.224  0.2747 -0.0985 -0.2237
 6434SOL    HW130764   1.012   1.411   8.212 -1.9781 -1.9859  0.0377
 6434SOL    HW230765   1.017   1.554   8.237  1.1579 -0.9874  0.1177
 6435SOL     OW30766   1.944   2.385  15.385 -0.0199  0.2932 -0.7543
 6435SOL    HW130767   1.929   2.477  15.404 -1.0720 -0.0970  0.3256
 6435SOL    HW230768   1.884   2.362  15.314  2.0799  1.4914 -2.9303
 6436SOL     OW30769   1.349   0.802   7.580  0.0141 -0.6568  0.0195
 6436SOL    HW130770   1.380   0.893   7.580  1.0828 -1.0230 -1.5728
 6436SOL    HW230771   1.258   0.826   7.567  0.7270  1.6997 -0.6770
 6437SOL     OW30772   4.609   4.301   5.175 -0.1069 -0.1619  0.1363
 6437SOL    HW130773   4.601   4.359   5.099  0.0230  1.4101  1.3289
 6437SOL    HW230774   4.684   4.250   5.143 -2.0328 -0.8629 -3.2943
 6438SOL     OW30775   0.857   4.459  10.852  0.2944  1.1836 -0.6152
 6438SOL    HW130776   0.860   4.364  10.835  0.3801  0.9119  0.9422
 6438SOL    HW230777   0.869   4.490  10.763  0.7852 -0.3877 -1.1101
 6439SOL     OW30778   2.476   0.207   2.577  0.1994  0.2427  0.2190
 6439SOL    HW130779   2.571   0.197   2.579  0.4700  2.4035 -1.6095
 6439SOL    HW230780   2.464   0.199   2.482 -0.7364 -0.1034  0.3690
 6440SOL     OW30781   3.166   1.605   9.601 -0.3483  0.6108  0.4540
 6440SOL    HW130782   3.254   1.572   9.620  0.0518  1.2161 -0.3648
 6440SOL    HW230783   3.196   1.677   9.545 -0.0207  0.4262  0.3910
 6441SOL     OW30784   1.003   0.032   6.480 -0.7987  0.1459  0.4934
 6441SOL    HW130785   0.958   0.109   6.516 -2.7310 -1.6345  1.8688
 6441SOL    HW230786   1.064   0.078   6.422 -0.7098  0.6310  0.9758
 6442SOL     OW30787   2.956   3.115   5.360 -0.4856  0.4402  0.0871
 6442SOL    HW130788   3.018   3.055   5.319 -0.0497  0.5213  0.6237
 6442SOL    HW230789   2.982   3.106   5.452  2.8197 -0.8487 -0.9479
 6443SOL     OW30790   0.880   1.535   3.684  0.1271 -0.0588  0.0168
 6443SOL    HW130791   0.931   1.615   3.669  0.6890 -0.3470  0.4177
 6443SOL    HW230792   0.920   1.514   3.768  0.7801 -1.2411 -0.5932
 6444SOL     OW30793   0.705   1.166   2.823 -0.1406  0.0061 -0.2112
 6444SOL    HW130794   0.635   1.182   2.760 -0.5809  2.1994  0.8328
 6444SOL    HW230795   0.780   1.141   2.769 -2.9695 -2.1142 -3.1042
 6445SOL     OW30796   1.862   3.305  15.212  0.0732  0.0970  0.3415
 6445SOL    HW130797   1.897   3.218  15.192  1.6728  0.3630  2.0004
 6445SOL    HW230798   1.807   3.326  15.136  1.2382 -0.6441 -0.7100
 6446SOL     OW30799   3.079   1.961   1.675 -0.0219  0.1864 -0.3971
 6446SOL    HW130800   3.007   1.991   1.619  0.6712  0.0946 -1.3392
 6446SOL    HW230801   3.123   1.891   1.627  1.9700  0.3134  1.2804
 6447SOL     OW30802   4.242   4.454   4.837  0.0778 -0.3780  0.1273
 6447SOL    HW130803   4.281   4.481   4.921 -2.6032  1.5597  0.7523
 6447SOL    HW230804   4.273   4.363   4.836  1.9507  0.1858  3.5129
 6448SOL     OW30805   4.392   2.294  16.004  0.2946  0.1078  0.0995
 6448SOL    HW130806   4.454   2.365  15.990 -0.0190  0.2916 -0.3774
 6448SOL    HW230807   4.328   2.320  15.938  1.4152  2.0937 -0.2152
 6449SOL     OW30808   4.697   3.498   5.999  0.4955  0.0941 -0.2649
 6449SOL    HW130809   0.013   3.524   6.082  0.1066 -1.8840  0.5623
 6449SOL    HW230810   0.040   3.526   5.938  1.2479  0.3561  0.6922
 6450SOL     OW30811   2.945   2.938  10.284 -0.2274 -0.1446 -0.4504
 6450SOL    HW130812   2.879   2.900  10.226 -0.9521  1.5178 -0.6979
 6450SOL    HW230813   2.887   2.973  10.352  1.3641  1.3399  0.1390
 6451SOL     OW30814   3.411   1.702   8.852 -0.1709 -0.6602 -0.0900
 6451SOL    HW130815   3.444   1.652   8.926  2.8198 -1.3085 -1.8357
 6451SOL    HW230816   3.450   1.644   8.786 -1.2501 -1.4359 -0.0271
 6452SOL     OW30817   4.136   0.825   8.111 -0.4113 -0.5542  0.0594
 6452SOL    HW130818   4.155   0.859   8.023  1.4674 -0.2568  0.5874
 6452SOL    HW230819   4.184   0.742   8.106 -1.2011 -1.0043 -0.0607
 6453SOL     OW30820   3.886   2.434  12.440  0.7518 -0.2032 -0.8150
 6453SOL    HW130821   3.900   2.523  12.471  1.6148 -0.3290 -0.8426
 6453SOL    HW230822   3.792   2.435  12.421  0.5091  0.5330  0.3938
 6454SOL     OW30823   4.480   1.096  11.369  0.2222  0.1699  0.6276
 6454SOL    HW130824   4.523   1.033  11.311 -1.1620 -0.0874 -0.1096
 6454SOL    HW230825   4.545   1.159  11.400  2.4305 -1.6340 -0.3454
 6455SOL     OW30826   4.265   3.510   4.081 -0.0597  0.1716  0.2512
 6455SOL    HW130827   4.296   3.510   3.991 -1.2363  1.2670 -0.1437
 6455SOL    HW230828   4.301   3.593   4.113 -2.0426  1.3768 -0.6980
 6456SOL     OW30829   2.441   1.955   6.585 -0.2521  0.0095 -0.4206
 6456SOL    HW130830   2.423   2.003   6.504 -2.1641 -1.9925 -1.1735
 6456SOL    HW230831   2.383   2.000   6.647 -0.5447  0.8792 -1.3243
 6457SOL     OW30832   1.009   2.920   4.180 -0.0681 -0.1720  0.0906
 6457SOL    HW130833   1.064   2.870   4.121 -0.4690 -2.6289  1.8177
 6457SOL    HW230834   0.919   2.908   4.148 -0.0087  0.7043 -0.4014
 6458SOL     OW30835   3.844   3.075   7.005  0.0946  0.1646 -0.1428
 6458SOL    HW130836   3.913   3.141   7.012  0.9605 -0.7073 -0.3623
 6458SOL    HW230837   3.874   2.999   6.954 -1.4740 -1.0158  0.7100
 6459SOL     OW30838   1.480   2.741   1.564 -0.2729  0.9662 -0.1539
 6459SOL    HW130839   1.403   2.685   1.578  0.9871 -1.0990 -1.5557
 6459SOL    HW230840   1.550   2.676   1.567 -1.9202 -0.7799  1.0016
 6460SOL     OW30841   4.101   3.042   0.952 -0.6671 -0.4631  0.1032
 6460SOL    HW130842   4.031   3.081   0.900 -0.5139 -0.4052 -0.0586
 6460SOL    HW230843   4.181   3.055   0.902 -2.0505  1.0421 -1.7220
 6461SOL     OW30844   0.546   1.747   5.287 -0.1731 -0.3904  0.0559
 6461SOL    HW130845   0.609   1.813   5.315 -0.4490  0.7691 -2.0801
 6461SOL    HW230846   0.537   1.756   5.192  1.2936 -1.9502 -0.2389
 6462SOL     OW30847   2.442   4.189  17.006  0.1947 -0.5122  0.3583
 6462SOL    HW130848   2.508   4.123  17.029  0.3276 -1.3098 -2.3558
 6462SOL    HW230849   2.361   4.147  17.035 -0.6957  2.5736  2.3910
 6463SOL     OW30850   2.456   0.183   0.107  0.1937 -0.0127 -0.6038
 6463SOL    HW130851   2.502   0.132   0.041 -1.0334 -1.6356 -0.1852
 6463SOL    HW230852   2.372   0.142   0.125  0.0866  1.3193  1.9137
 6464SOL     OW30853   4.577   2.679   8.922 -0.1852 -0.1019  0.0948
 6464SOL    HW130854   4.534   2.598   8.896  0.1042 -0.1114 -0.3468
 6464SOL    HW230855   4.633   2.647   8.993  0.0285 -1.3997 -0.6535
 6465SOL     OW30856   2.111   1.471  14.820 -0.1899 -0.4562 -0.3539
 6465SOL    HW130857   2.110   1.380  14.790  2.2904 -0.9398  0.9606
 6465SOL    HW230858   2.188   1.469  14.877 -2.2480  0.3659  2.4397
 6466SOL     OW30859   4.277   1.003   3.807  0.8534 -1.1583 -0.1759
 6466SOL    HW130860   4.237   0.930   3.759  1.6634 -2.0168  0.4586
 6466SOL    HW230861   4.209   1.069   3.824  1.3009 -0.5581 -0.7588
 6467SOL     OW30862   3.257   0.225   6.246 -0.2542  0.2153 -0.4850
 6467SOL    HW130863   3.252   0.199   6.338 -1.6116  2.0740 -0.0229
 6467SOL    HW230864   3.218   0.313   6.244 -1.9967 -0.5212  1.0050
 6468SOL     OW30865   0.808   4.713   0.752  0.4351  0.2573 -0.0450
 6468SOL    HW130866   0.758   0.063   0.718  0.4123 -0.4442 -1.5594
 6468SOL    HW230867   0.898   0.017   0.733 -0.3219  2.1515 -0.7315
 6469SOL     OW30868   0.996   0.363   5.421 -0.0226  0.6241 -0.1542
 6469SOL    HW130869   0.928   0.311   5.463  0.6929 -0.1739  0.0244
 6469SOL    HW230870   1.049   0.369   5.501  1.6646 -0.7608 -1.1697
 6470SOL     OW30871   4.252   1.551  17.496 -1.0088  0.1391 -0.3210
 6470SOL    HW130872   4.333   1.572  17.542  0.0057 -0.6987 -1.7273
 6470SOL    HW230873   4.258   1.612  17.423 -0.6992 -0.5450 -0.8608
 6471SOL     OW30874   2.808   1.443   3.675  0.0894  0.3065  0.1148
 6471SOL    HW130875   2.892   1.480   3.649  0.1957 -0.2849 -0.4007
 6471SOL    HW230876   2.783   1.489   3.755 -0.1967  1.6968 -0.7774
 6472SOL     OW30877   0.656   0.305  11.729 -0.1650 -0.0553  0.4841
 6472SOL    HW130878   0.616   0.290  11.815 -0.3067  0.8396  0.5674
 6472SOL    HW230879   0.653   0.219  11.687  0.8283  0.8206 -1.3856
 6473SOL     OW30880   4.073   4.584   4.142 -0.1645 -0.0847 -0.7135
 6473SOL    HW130881   4.009   4.604   4.073 -1.6399 -1.4745  0.2849
 6473SOL    HW230882   4.017   4.578   4.219  1.1924 -1.3942  0.1636
 6474SOL     OW30883   4.197   3.122   4.934  0.0592 -0.5118  0.7859
 6474SOL    HW130884   4.226   3.031   4.940 -1.0320 -0.7784  1.9548
 6474SOL    HW230885   4.245   3.149   4.855 -0.3888  0.9265  1.0091
 6475SOL     OW30886   2.131   4.543   7.445 -0.6521 -0.0308  0.2419
 6475SOL    HW130887   2.211   4.588   7.418 -0.4086 -0.6186 -0.0162
 6475SOL    HW230888   2.157   4.451   7.440  3.8525  1.2886 -0.4305
 6476SOL     OW30889   1.583   1.878   3.636 -0.3057  0.2849 -0.0896
 6476SOL    HW130890   1.548   1.965   3.652  1.4815  1.2945 -1.6692
 6476SOL    HW230891   1.678   1.889   3.632 -0.1637 -0.9283 -0.1896
 6477SOL     OW30892   0.139   1.855   2.607  0.0790  0.6204 -0.9948
 6477SOL    HW130893   0.053   1.887   2.582 -0.6426  0.4312  1.3114
 6477SOL    HW230894   0.154   1.795   2.534 -0.3277 -0.0116 -0.5554
 6478SOL     OW30895   0.292   2.947   6.935  0.5533 -0.2397 -0.1118
 6478SOL    HW130896   0.228   2.897   6.985  0.9150 -0.8186 -0.2213
 6478SOL    HW230897   0.300   3.027   6.987  0.6418 -0.2582 -0.0976
 6479SOL     OW30898   4.334   1.383   9.436 -0.4708  0.7224 -0.6778
 6479SOL    HW130899   4.378   1.434   9.368  2.0028 -1.8210 -0.9993
 6479SOL    HW230900   4.243   1.404   9.417 -0.1791  0.8453 -1.9704
 6480SOL     OW30901   0.652   3.986   9.656 -0.2896 -0.4215 -0.5966
 6480SOL    HW130902   0.559   3.978   9.635 -0.0569 -3.7279 -0.3154
 6480SOL    HW230903   0.649   4.081   9.669  0.3587 -0.2391 -1.7505
 6481SOL     OW30904   1.989   3.267   2.241  0.2050  0.7811  0.1700
 6481SOL    HW130905   2.016   3.177   2.220 -0.1243  1.0241 -1.3203
 6481SOL    HW230906   1.985   3.304   2.152 -1.9201 -0.2633 -0.1638
 6482SOL     OW30907   3.968   2.466   2.590  0.2654 -0.2789 -0.3374
 6482SOL    HW130908   3.946   2.550   2.630  1.1125 -0.6782  0.9553
 6482SOL    HW230909   4.011   2.496   2.510 -0.1483  1.6068  0.1501
 6483SOL     OW30910   0.886   3.769   0.638  0.8097  0.4940  0.4950
 6483SOL    HW130911   0.957   3.712   0.668  0.1135 -0.0153  1.1651
 6483SOL    HW230912   0.866   3.724   0.556  0.0869 -1.7897  1.9509
 6484SOL     OW30913   2.281   2.180   8.260 -0.0406  0.6355  1.0477
 6484SOL    HW130914   2.245   2.265   8.235  1.0438  0.5912 -0.6221
 6484SOL    HW230915   2.365   2.182   8.214 -0.8549  1.6937 -0.4028
 6485SOL     OW30916   1.007   0.271  10.772 -0.0759 -0.1719 -0.2595
 6485SOL    HW130917   0.916   0.266  10.801  0.9651  1.8891  3.4253
 6485SOL    HW230918   1.047   0.301  10.854 -0.2005 -0.9892  0.1036
 6486SOL     OW30919   1.189   1.784   3.310 -0.6197  0.3148  0.0906
 6486SOL    HW130920   1.249   1.826   3.249 -0.1834 -1.9286 -1.0159
 6486SOL    HW230921   1.141   1.859   3.344  1.1949 -0.0001  3.2843
 6487SOL     OW30922   2.163   2.344   8.578  0.5657  0.1136  0.2750
 6487SOL    HW130923   2.117   2.354   8.661  2.3777 -1.5599  1.4964
 6487SOL    HW230924   2.100   2.385   8.520  2.0790  0.3217 -1.2179
 6488SOL     OW30925   4.037   3.114   4.245 -0.7264  0.0866  0.1140
 6488SOL    HW130926   4.009   3.125   4.154 -1.8613  2.4224  0.7591
 6488SOL    HW230927   4.130   3.099   4.227 -0.5496 -0.1253  1.2067
 6489SOL     OW30928   2.872   3.475  14.335 -0.2404 -0.0040 -0.1228
 6489SOL    HW130929   2.829   3.551  14.375 -2.3747 -1.6272  0.6454
 6489SOL    HW230930   2.799   3.415  14.318 -0.7533  0.6456 -0.2220
 6490SOL     OW30931   2.246   0.549  14.029 -0.1192 -0.4373  0.2128
 6490SOL    HW130932   2.203   0.465  14.046  0.0623 -0.7488 -0.8947
 6490SOL    HW230933   2.248   0.587  14.117 -0.3178 -0.4806  0.2345
 6491SOL     OW30934   1.440   0.257  12.713 -0.2429  0.5429  0.7608
 6491SOL    HW130935   1.528   0.288  12.693 -0.0390  0.2111  1.1363
 6491SOL    HW230936   1.450   0.165  12.688 -0.1658  0.0156  2.7475
 6492SOL     OW30937   0.193   0.066   4.699 -0.4837  0.4545  0.6279
 6492SOL    HW130938   0.207   0.008   4.773  0.7623 -1.9241 -1.4691
 6492SOL    HW230939   0.172   0.150   4.740 -2.6474  0.0325  0.4255
 6493SOL     OW30940   0.508   3.629   6.683  0.1996 -0.0891  0.1388
 6493SOL    HW130941   0.564   3.564   6.726  2.7163  2.1594  0.3042
 6493SOL    HW230942   0.465   3.667   6.760 -1.6879 -0.5330 -0.7136
 6494SOL     OW30943   3.529   0.893   1.643  0.0683 -0.0497  0.6487
 6494SOL    HW130944   3.569   0.859   1.563 -1.3124  0.7179 -0.3662
 6494SOL    HW230945   3.451   0.935   1.605  0.2796 -0.6996 -0.5108
 6495SOL     OW30946   4.121   1.285  14.727  0.2547 -0.1428 -0.1238
 6495SOL    HW130947   4.127   1.360  14.786  2.9557 -0.1901 -0.3376
 6495SOL    HW230948   4.104   1.219  14.795 -1.4974 -0.9413 -1.3195
 6496SOL     OW30949   0.515   0.386   9.315  0.1938 -0.0946  0.0805
 6496SOL    HW130950   0.531   0.481   9.310 -0.8347  0.2743  3.5358
 6496SOL    HW230951   0.588   0.348   9.266 -0.0049 -0.6000  0.1805
 6497SOL     OW30952   3.475   2.900   2.789  0.1738  0.6407 -0.2191
 6497SOL    HW130953   3.429   2.982   2.806 -1.8130 -0.6672  0.7118
 6497SOL    HW230954   3.406   2.861   2.736  1.8310 -1.4460 -0.8569
 6498SOL     OW30955   3.735   0.297   5.052 -0.7214 -0.4139  0.3255
 6498SOL    HW130956   3.777   0.211   5.041  2.9190  1.5995 -1.6062
 6498SOL    HW230957   3.691   0.313   4.968 -0.1598  3.1741  0.7022
 6499SOL     OW30958   4.682   0.137   0.999 -0.3359 -0.2454  0.3231
 6499SOL    HW130959   4.612   0.146   1.064 -1.1451 -1.6028 -0.3676
 6499SOL    HW230960   4.683   0.229   0.973  0.2067 -1.1819 -2.8837
 6500SOL     OW30961   1.847   2.268  11.138 -0.2272  0.0201 -0.2308
 6500SOL    HW130962   1.820   2.285  11.048 -0.5747  0.4414 -0.0484
 6500SOL    HW230963   1.896   2.188  11.118  2.2936  1.2107  1.1353
 6501SOL     OW30964   4.060   3.094   2.974 -0.0362  0.4086  0.3644
 6501SOL    HW130965   4.129   3.154   2.946  0.2373  0.4169  1.0572
 6501SOL    HW230966   4.103   3.074   3.057  2.2736  1.5690 -0.5660
 6502SOL     OW30967   2.727   1.270   9.680 -0.3437  0.2300 -0.4465
 6502SOL    HW130968   2.716   1.195   9.621  0.6966 -2.0202  2.2180
 6502SOL    HW230969   2.641   1.312   9.677 -0.4831 -0.0484 -0.3665
 6503SOL     OW30970   1.047   0.136  14.433 -0.3400  0.0017 -0.2085
 6503SOL    HW130971   1.026   0.222  14.397  0.3844  0.7323  1.1016
 6503SOL    HW230972   1.138   0.151  14.462  0.1909 -0.9579 -1.3975
 6504SOL     OW30973   2.637   3.911   2.878 -0.3146  0.1251  0.2731
 6504SOL    HW130974   2.573   3.981   2.876 -1.5967 -1.0436  0.5791
 6504SOL    HW230975   2.598   3.828   2.852  0.0469  0.1472 -0.3490
 6505SOL     OW30976   3.004   1.004   1.714  0.4220  0.6169 -0.2138
 6505SOL    HW130977   2.994   1.082   1.661  1.4994  0.7764 -0.1834
 6505SOL    HW230978   2.924   0.954   1.700  1.3367 -0.2588 -2.2773
 6506SOL     OW30979   0.494   0.264  10.951  0.1037  0.3115  0.3452
 6506SOL    HW130980   0.423   0.320  10.983 -1.3003  0.6885 -3.4104
 6506SOL    HW230981   0.457   0.181  10.983  1.1543  0.4237  1.8450
 6507SOL     OW30982   4.265   3.902   5.504 -0.0614  0.5093  0.5303
 6507SOL    HW130983   4.259   3.987   5.548  2.4538  1.7936 -1.5482
 6507SOL    HW230984   4.221   3.849   5.570 -0.2907 -0.8986 -0.7580
 6508SOL     OW30985   2.989   1.156  13.264  0.0138 -0.2828  0.0964
 6508SOL    HW130986   2.920   1.186  13.204 -0.0006 -1.1944 -0.3475
 6508SOL    HW230987   3.058   1.150  13.199 -0.9550  0.8047 -1.0465
 6509SOL     OW30988   3.620   1.367   6.861  0.0071 -0.4620  0.2268
 6509SOL    HW130989   3.527   1.386   6.874  0.0876 -0.0998  0.2556
 6509SOL    HW230990   3.641   1.406   6.946  1.6623  1.1430 -0.9329
 6510SOL     OW30991   2.458   3.472   8.261 -0.5120 -0.1705  0.5418
 6510SOL    HW130992   2.406   3.529   8.317 -0.6176  1.0941 -0.8371
 6510SOL    HW230993   2.545   3.482   8.301 -1.1029 -1.7976  2.1920
 6511SOL     OW30994   3.680   1.201   8.522  0.4118 -0.2929 -0.0395
 6511SOL    HW130995   3.708   1.292   8.533  0.4927 -0.2709 -0.4219
 6511SOL    HW230996   3.649   1.189   8.612 -1.3056 -0.7666 -0.6952
 6512SOL     OW30997   1.427   1.740   4.626  0.9513 -0.2131 -0.5333
 6512SOL    HW130998   1.440   1.775   4.714  1.2671 -0.8938 -0.3121
 6512SOL    HW230999   1.466   1.799   4.562  1.6533 -1.5663 -1.3378
 6513SOL     OW31000   3.597   1.216  11.907  0.2365  0.3697 -0.1904
 6513SOL    HW131001   3.661   1.168  11.960 -1.5696 -1.1267  0.6323
 6513SOL    HW231002   3.599   1.175  11.820  0.5980 -1.1238  0.5099
 6514SOL     OW31003   1.034   1.911   8.632 -0.2125 -0.5542 -0.1505
 6514SOL    HW131004   0.971   1.841   8.617  0.3292 -1.4570  1.8742
 6514SOL    HW231005   1.034   1.907   8.727  1.7262 -0.1680 -0.1374
 6515SOL     OW31006   4.235   4.600   2.219  0.5122 -0.6676  0.4754
 6515SOL    HW131007   4.161   4.550   2.185  2.3703 -3.0901 -0.0081
 6515SOL    HW231008   4.273   4.533   2.275  1.2230 -1.9256 -1.5079
 6516SOL     OW31009   3.251   4.450   8.553 -0.0808  0.1003  0.5350
 6516SOL    HW131010   3.284   4.383   8.492  1.9268  0.5371  1.1486
 6516SOL    HW231011   3.159   4.425   8.561 -0.2802  1.6037  2.9118
 6517SOL     OW31012   2.716   3.585   8.981 -0.2518  0.5334  0.0909
 6517SOL    HW131013   2.776   3.571   8.907  0.6398  0.3307  0.8547
 6517SOL    HW231014   2.748   3.521   9.044 -2.7575  0.2755  1.0873
 6518SOL     OW31015   3.861   2.293   8.044  0.0227  0.2262  0.0786
 6518SOL    HW131016   3.842   2.274   8.136  0.2160  0.9252  0.2640
 6518SOL    HW231017   3.772   2.308   8.014  0.0816  0.3861 -0.0145
 6519SOL     OW31018   1.746   2.904  12.041 -0.0872  0.2407  0.2184
 6519SOL    HW131019   1.673   2.917  12.102 -0.4416  2.7612 -0.7222
 6519SOL    HW231020   1.720   2.824  11.996 -0.8517  0.3698  0.4157
 6520SOL     OW31021   4.321   2.418  12.477  0.1457  0.2164  0.1025
 6520SOL    HW131022   4.241   2.448  12.434 -0.9958 -0.5505  1.7126
 6520SOL    HW231023   4.304   2.454  12.564 -0.2069 -0.3990  0.2909
 6521SOL     OW31024   0.961   1.164   6.326 -0.1337  0.1169 -0.2507
 6521SOL    HW131025   0.970   1.258   6.317  2.5897  0.0433  1.4545
 6521SOL    HW231026   1.021   1.125   6.263  1.1886  1.0962  0.3987
 6522SOL     OW31027   3.336   1.663   3.604 -0.3981 -0.3001  0.5370
 6522SOL    HW131028   3.264   1.604   3.580 -0.3220  0.7882 -2.4219
 6522SOL    HW231029   3.411   1.612   3.572 -2.7886 -5.0375  2.5372
 6523SOL     OW31030   1.690   0.347  12.525 -0.2955  0.1073  0.5339
 6523SOL    HW131031   1.749   0.323  12.454 -2.0524 -0.1139 -0.8361
 6523SOL    HW231032   1.698   0.265  12.573  0.4092  0.6359  1.3274
 6524SOL     OW31033   3.555   1.856   1.165  0.2252 -0.8753 -0.1294
 6524SOL    HW131034   3.511   1.889   1.243  1.5574 -0.6372  0.5234
 6524SOL    HW231035   3.502   1.786   1.126 -0.0436 -1.5110  1.4059
 6525SOL     OW31036   3.838   2.596   9.159 -0.5247  0.0637  0.5347
 6525SOL    HW131037   3.850   2.609   9.065  0.4798 -2.6042  0.2773
 6525SOL    HW231038   3.902   2.663   9.184 -0.4478 -0.5125  1.9144
 6526SOL     OW31039   0.598   0.620  10.469 -0.0505 -0.0035  0.4959
 6526SOL    HW131040   0.667   0.568  10.429  0.5661 -1.0737  2.9966
 6526SOL    HW231041   0.631   0.709  10.462  1.0246 -0.4119  0.4664
 6527SOL     OW31042   2.771   0.600   2.549  0.0746 -0.4807 -0.7160
 6527SOL    HW131043   2.683   0.578   2.581 -0.0261  0.0872 -0.6135
 6527SOL    HW231044   2.760   0.567   2.460  0.9535  1.2319 -1.4426
 6528SOL     OW31045   3.819   3.738   2.965  0.3325  0.6255 -0.0165
 6528SOL    HW131046   3.876   3.797   2.915  0.0237 -0.5100 -1.7267
 6528SOL    HW231047   3.757   3.715   2.895 -0.3600 -1.2454  1.2379
 6529SOL     OW31048   2.165   4.623   7.952  0.0422  0.1769 -0.0599
 6529SOL    HW131049   2.240   4.565   7.963 -0.3454 -0.1610  0.8344
 6529SOL    HW231050   2.124   4.592   7.871 -0.0512  1.1811 -0.4045
 6530SOL     OW31051   1.792   3.165  10.466  0.4835 -0.2235 -0.1631
 6530SOL    HW131052   1.820   3.092  10.521  0.1394 -0.7766 -0.7076
 6530SOL    HW231053   1.699   3.142  10.468  0.6404 -0.8608 -0.0631
 6531SOL     OW31054   4.658   1.048  16.155  0.1595  0.3263 -0.3065
 6531SOL    HW131055   4.621   1.088  16.076 -0.8253  1.6825  0.8218
 6531SOL    HW231056   4.580   1.019  16.202  0.6255 -1.2601 -0.5196
 6532SOL     OW31057   2.548   1.228  13.839  0.0665  0.3820  0.1242
 6532SOL    HW131058   2.580   1.318  13.839  1.0034  0.0547  1.3288
 6532SOL    HW231059   2.560   1.201  13.930  0.0449 -2.3126 -0.6814
 6533SOL     OW31060   3.583   0.779  15.467  0.0778  0.0409 -0.2567
 6533SOL    HW131061   3.595   0.873  15.475  1.5797 -0.2175  0.5333
 6533SOL    HW231062   3.509   0.758  15.524 -1.6876 -1.3600 -3.0361
 6534SOL     OW31063   1.800   3.701   7.674 -0.1960  0.0659  0.3054
 6534SOL    HW131064   1.819   3.795   7.677 -2.0768  0.3959  1.8714
 6534SOL    HW231065   1.859   3.667   7.607  0.4943 -0.5253  1.2128
 6535SOL     OW31066   1.841   3.827   4.943 -0.1942 -0.4079  0.0656
 6535SOL    HW131067   1.885   3.792   5.020 -0.6029  1.4281  1.1470
 6535SOL    HW231068   1.776   3.880   4.988 -0.4196  0.6109 -1.4297
 6536SOL     OW31069   4.350   0.105   0.938  0.4183  0.1306 -0.2031
 6536SOL    HW131070   4.304   0.072   0.860 -1.1710  0.9171  0.4191
 6536SOL    HW231071   4.298   0.058   1.002 -0.2236 -0.2701 -1.0205
 6537SOL     OW31072   0.872   3.943  10.661 -0.0019  0.3496 -0.0069
 6537SOL    HW131073   0.842   3.855  10.642  3.4209 -1.1678  1.4785
 6537SOL    HW231074   0.789   3.990  10.657  1.0422  2.1018 -1.1105
 6538SOL     OW31075   0.141   0.610  12.104 -0.0371 -0.3495  0.2441
 6538SOL    HW131076   0.211   0.546  12.087 -2.3116 -2.6274 -0.4857
 6538SOL    HW231077   0.069   0.589  12.046 -1.0361  0.7629  1.0868
 6539SOL     OW31078   1.967   4.054  11.463  0.4159 -0.6294  0.4565
 6539SOL    HW131079   1.887   4.096  11.495  1.0821  1.6035 -0.7623
 6539SOL    HW231080   2.037   4.093  11.515 -1.2988  0.4900  1.9066
 6540SOL     OW31081   4.638   4.442   8.729 -0.2405 -0.6250  0.5295
 6540SOL    HW131082   4.676   4.373   8.674  1.3116  0.7158 -0.0664
 6540SOL    HW231083   4.610   4.387   8.803  1.9862 -0.8233  1.2282
 6541SOL     OW31084   2.157   0.197  15.342 -0.6031  0.4690  0.4143
 6541SOL    HW131085   2.195   0.186  15.429 -1.5911  0.4066  0.8355
 6541SOL    HW231086   2.147   0.108  15.307  1.2581  0.7654 -0.8759
 6542SOL     OW31087   3.232   3.037   7.579  0.0401 -0.1042 -0.6440
 6542SOL    HW131088   3.292   2.996   7.515 -0.5994 -0.6127 -0.9180
 6542SOL    HW231089   3.156   2.982   7.559 -0.8629  0.6080  0.8513
 6543SOL     OW31090   2.377   0.685   7.136 -0.2858 -0.5361 -0.8222
 6543SOL    HW131091   2.415   0.773   7.135 -2.4241  0.4036  0.1159
 6543SOL    HW231092   2.438   0.638   7.193 -0.0714 -0.6492 -1.1504
 6544SOL     OW31093   1.278   2.979  10.175  0.3136  0.7187  0.4441
 6544SOL    HW131094   1.200   2.940  10.215  0.0610  0.8431  0.0653
 6544SOL    HW231095   1.339   2.908  10.155 -0.5868  0.1132 -0.1938
 6545SOL     OW31096   1.457   2.165   0.875  0.2917 -0.1883 -0.2505
 6545SOL    HW131097   1.496   2.248   0.902 -0.9913  0.7213 -1.2279
 6545SOL    HW231098   1.532   2.110   0.897 -0.3243 -1.3928 -1.1893
 6546SOL     OW31099   2.714   0.574   1.801  0.5386  0.0381 -0.2281
 6546SOL    HW131100   2.735   0.495   1.752  0.7274 -0.6066  0.9042
 6546SOL    HW231101   2.793   0.579   1.855  1.3599 -0.2299 -1.4088
 6547SOL     OW31102   4.226   2.455  15.474 -0.0521  0.4589 -0.8257
 6547SOL    HW131103   4.134   2.427  15.477 -0.2596  1.2664  0.2263
 6547SOL    HW231104   4.240   2.479  15.383  1.8661  2.0276 -0.1096
 6548SOL     OW31105   0.032   4.159   7.652  0.2382  0.1088 -0.6300
 6548SOL    HW131106   0.031   4.233   7.592 -0.4487 -0.6147 -1.5142
 6548SOL    HW231107   4.661   4.151   7.663  0.4085 -0.5408  0.3113
 6549SOL     OW31108   1.469   1.068  12.721 -0.2122 -0.7373  0.1243
 6549SOL    HW131109   1.476   0.972  12.718 -0.1565 -0.7276 -0.0340
 6549SOL    HW231110   1.380   1.078  12.687 -0.3395  0.7716  0.8928
 6550SOL     OW31111   2.964   2.784  11.932  0.1481 -0.1391 -0.9312
 6550SOL    HW131112   2.996   2.857  11.985  1.0790 -0.7994 -0.6053
 6550SOL    HW231113   2.934   2.836  11.856 -0.4432 -1.8299 -1.8573
 6551SOL     OW31114   3.312   2.497   1.861  0.0500  0.0105  0.1754
 6551SOL    HW131115   3.354   2.569   1.908 -0.1524  0.7774 -0.8065
 6551SOL    HW231116   3.245   2.478   1.927 -1.5652  0.8017 -1.2038
 6552SOL     OW31117   1.811   2.120   6.265  1.0204  0.0940  0.4969
 6552SOL    HW131118   1.732   2.075   6.236  0.8900  1.1137 -0.7646
 6552SOL    HW231119   1.852   2.152   6.184  0.5733 -0.0125  0.2298
 6553SOL     OW31120   1.688   1.996   3.911 -0.3747 -0.4022  0.3243
 6553SOL    HW131121   1.640   1.917   3.888  1.2206 -0.8811 -1.3680
 6553SOL    HW231122   1.737   1.962   3.986 -1.2980  0.8419  1.4948
 6554SOL     OW31123   3.109   4.025   3.090 -0.2257  0.3479  0.5581
 6554SOL    HW131124   3.109   4.120   3.102  0.1259  0.3912  0.2445
 6554SOL    HW231125   3.022   4.001   3.058  1.0292 -1.6016 -1.4374
 6555SOL     OW31126   2.016   3.643   6.812 -0.1372  0.5433  0.1284
 6555SOL    HW131127   1.953   3.692   6.758  0.8349  0.5598 -1.0017
 6555SOL    HW231128   1.979   3.555   6.814  0.6424  0.2114  0.1287
 6556SOL     OW31129   2.196   2.543  16.005  0.6223  0.5626 -0.2285
 6556SOL    HW131130   2.216   2.526  15.913 -2.4129 -3.6827 -0.0917
 6556SOL    HW231131   2.101   2.529  16.001  0.4883  1.9005 -1.9735
 6557SOL     OW31132   1.859   3.662  13.871  0.1230 -0.8528 -0.1425
 6557SOL    HW131133   1.905   3.745  13.877  0.1025 -0.7902 -0.8171
 6557SOL    HW231134   1.812   3.671  13.954 -0.2140 -0.2857 -0.3978
 6558SOL     OW31135   4.285   0.579   8.122  1.0420 -0.3305 -0.4550
 6558SOL    HW131136   4.351   0.593   8.190 -1.5648 -1.6191  2.3230
 6558SOL    HW231137   4.336   0.597   8.043  3.7958 -1.7805  1.0056
 6559SOL     OW31138   3.427   2.091  11.262  0.2387 -0.0463 -0.2739
 6559SOL    HW131139   3.340   2.112  11.294  0.0984 -0.8116 -0.1374
 6559SOL    HW231140   3.414   1.999  11.236  1.4022 -0.6065  1.1182
 6560SOL     OW31141   1.483   3.511   3.854 -0.3534  0.5010 -0.5529
 6560SOL    HW131142   1.548   3.461   3.904 -1.2312 -0.2876 -0.1872
 6560SOL    HW231143   1.497   3.485   3.763 -2.7563  0.1932 -0.8356
 6561SOL     OW31144   0.109   1.797   3.172 -0.8990 -0.2537 -0.2827
 6561SOL    HW131145   0.114   1.757   3.085 -2.2273 -1.4365  0.1816
 6561SOL    HW231146   0.042   1.741   3.211 -1.1198  1.1155  1.3102
 6562SOL     OW31147   1.285   1.699   8.301  0.4195  0.1951 -0.1764
 6562SOL    HW131148   1.375   1.688   8.272  1.0834 -0.8001  2.2576
 6562SOL    HW231149   1.247   1.697   8.213  0.3508  0.9409 -0.1635
 6563SOL     OW31150   1.474   0.647  16.761  0.0215  0.4039  0.0638
 6563SOL    HW131151   1.506   0.634  16.672 -0.1776  0.4346 -0.0110
 6563SOL    HW231152   1.540   0.604  16.816 -1.8826 -0.6163  1.5538
 6564SOL     OW31153   1.324   2.680   0.929  0.4508  0.6271 -0.1367
 6564SOL    HW131154   1.383   2.728   0.987 -1.0941  1.3931  0.7932
 6564SOL    HW231155   1.371   2.678   0.845 -0.2266  0.6876 -0.5198
 6565SOL     OW31156   0.984   4.340   3.191  0.3299 -0.3155 -0.6221
 6565SOL    HW131157   1.039   4.409   3.152  2.4868 -0.8760  1.4451
 6565SOL    HW231158   0.956   4.389   3.268  1.3033 -1.4192  0.4271
 6566SOL     OW31159   0.701   0.013  12.201  0.1701  0.7129 -0.6061
 6566SOL    HW131160   0.724   0.073  12.130 -0.6738 -0.4665 -1.8799
 6566SOL    HW231161   0.618   4.697  12.173 -0.3383  0.5527  1.0902
 6567SOL     OW31162   2.761   0.122   2.582  0.0715 -0.0247 -0.4337
 6567SOL    HW131163   2.769   0.055   2.514  1.6237 -0.0321 -0.2462
 6567SOL    HW231164   2.790   0.198   2.533 -0.4640  1.5464  1.6952
 6568SOL     OW31165   0.602   0.208   8.717 -0.1345  0.6562 -0.1726
 6568SOL    HW131166   0.571   0.126   8.756  0.3125  0.8214  0.5398
 6568SOL    HW231167   0.695   0.208   8.739 -0.0990 -1.2615 -0.3495
 6569SOL     OW31168   3.715   3.486  15.133 -0.0431  0.1130  0.1862
 6569SOL    HW131169   3.657   3.412  15.152 -1.0268  0.7384 -0.3780
 6569SOL    HW231170   3.767   3.474  15.212  1.7739 -3.0710 -1.4790
 6570SOL     OW31171   0.358   3.981   8.847 -0.0256 -0.1772 -0.2715
 6570SOL    HW131172   0.321   3.901   8.809  2.3407 -1.2393 -0.3263
 6570SOL    HW231173   0.349   3.964   8.941  0.3007  2.3297  0.2140
 6571SOL     OW31174   1.527   4.003  11.637 -0.1643  0.6600 -0.1321
 6571SOL    HW131175   1.465   4.016  11.565 -0.7152  1.4280  0.4867
 6571SOL    HW231176   1.473   4.007  11.715  0.4773  1.6233  0.2685
 6572SOL     OW31177   2.364   3.392   2.429  0.5597 -0.2286 -0.0493
 6572SOL    HW131178   2.409   3.417   2.349 -0.2769 -0.3267 -0.5504
 6572SOL    HW231179   2.436   3.408   2.490  0.1954  0.0065  0.3265
 6573SOL     OW31180   1.497   1.620   7.186  0.2010  0.3136 -0.5214
 6573SOL    HW131181   1.465   1.699   7.229 -0.4139  0.6472 -1.5975
 6573SOL    HW231182   1.564   1.595   7.249 -1.1695 -1.8658  0.0583
 6574SOL     OW31183   2.725   3.294   3.288  0.4184  0.2648 -0.4421
 6574SOL    HW131184   2.645   3.340   3.310  0.1171  1.4758 -4.1300
 6574SOL    HW231185   2.691   3.233   3.223  1.0376 -1.1436  0.5453
 6575SOL     OW31186   1.543   2.860   2.130  0.5545 -0.4310  0.0715
 6575SOL    HW131187   1.631   2.836   2.100  1.2882  0.7378  1.3060
 6575SOL    HW231188   1.571   2.894   2.215 -0.7288 -0.3942  0.4805
 6576SOL     OW31189   4.078   3.265   8.424  0.0745  0.3825  0.5347
 6576SOL    HW131190   3.991   3.302   8.407 -0.4561 -2.0818 -2.0822
 6576SOL    HW231191   4.075   3.274   8.519 -0.4977 -2.3922  0.7839
 6577SOL     OW31192   3.706   1.842   5.436  0.0770 -0.6163 -0.1341
 6577SOL    HW131193   3.670   1.913   5.384 -0.9484 -2.9505 -2.6001
 6577SOL    HW231194   3.782   1.830   5.380  0.2378  0.7764 -0.2188
 6578SOL     OW31195   1.856   2.129   5.326  0.6569 -0.3460  0.5051
 6578SOL    HW131196   1.889   2.154   5.240 -3.0855  2.3837 -0.1301
 6578SOL    HW231197   1.879   2.206   5.378 -0.6167 -0.5218  1.3448
 6579SOL     OW31198   0.487   4.581  11.127 -0.5111 -0.7804 -0.0202
 6579SOL    HW131199   0.420   4.644  11.100  0.4996 -0.1622 -1.1028
 6579SOL    HW231200   0.516   4.552  11.041 -2.7786  0.5618 -1.2545
 6580SOL     OW31201   0.112   3.999   6.719 -0.2874  0.4286 -0.1506
 6580SOL    HW131202   0.080   3.998   6.809  0.5420 -2.4921  0.0934
 6580SOL    HW231203   0.104   3.906   6.699 -0.9671  0.9885 -2.5423
 6581SOL     OW31204   0.178   3.223   4.610  0.0564  0.4708 -0.2044
 6581SOL    HW131205   0.261   3.201   4.567 -1.0019 -0.7634 -1.6003
 6581SOL    HW231206   0.212   3.289   4.671 -0.9287 -1.3586  2.2894
 6582SOL     OW31207   2.828   0.700  15.454 -0.4384 -0.2287 -0.8439
 6582SOL    HW131208   2.910   0.707  15.406 -0.3913 -2.7827 -1.1243
 6582SOL    HW231209   2.786   0.624  15.413 -0.6090 -1.4544  1.6355
 6583SOL     OW31210   1.001   2.206   4.676 -0.1086 -0.1203  0.1958
 6583SOL    HW131211   1.047   2.229   4.596  1.4366 -0.3987  1.0203
 6583SOL    HW231212   1.023   2.113   4.684  1.1411  0.2156  0.5906
 6584SOL     OW31213   1.294   3.781  15.063  0.6362 -0.2284 -0.6210
 6584SOL    HW131214   1.376   3.788  15.014 -0.1503 -2.4153 -2.2652
 6584SOL    HW231215   1.321   3.758  15.152  2.7385  1.1969 -0.9045
 6585SOL     OW31216   0.925   0.942   0.953  0.2126 -0.2709  0.2224
 6585SOL    HW131217   0.960   1.011   1.010 -0.5827 -0.4703  0.9524
 6585SOL    HW231218   1.007   0.911   0.915  1.1215  0.3144  1.6628
 6586SOL     OW31219   3.180   1.312   2.919 -0.5738  0.3311 -0.3455
 6586SOL    HW131220   3.166   1.252   2.846 -1.0471 -0.2527  0.2225
 6586SOL    HW231221   3.092   1.349   2.912 -0.9278 -0.3400  0.5810
 6587SOL     OW31222   0.114   2.199   7.800 -0.0654  0.0932  0.2281
 6587SOL    HW131223   0.070   2.266   7.852 -1.5161 -1.1054  0.5609
 6587SOL    HW231224   0.193   2.176   7.847  0.1593 -0.3174 -0.3448
 6588SOL     OW31225   1.044   4.280   2.147  0.1448 -0.0030 -0.2752
 6588SOL    HW131226   1.014   4.313   2.062  0.0018 -0.0711 -0.2513
 6588SOL    HW231227   1.061   4.188   2.125 -0.9326 -0.2361 -0.1453
 6589SOL     OW31228   2.869   1.180   2.149 -0.1748 -0.2567 -0.7153
 6589SOL    HW131229   2.775   1.177   2.134 -0.3634  1.1855  0.2135
 6589SOL    HW231230   2.878   1.127   2.228 -2.9026 -2.0140 -1.5642
 6590SOL     OW31231   3.896   4.513   4.321  0.8969  0.0456 -0.0050
 6590SOL    HW131232   3.824   4.470   4.275 -0.0271 -0.6476  2.0909
 6590SOL    HW231233   3.899   4.450   4.393 -3.4384 -1.6977 -1.3505
 6591SOL     OW31234   2.836   4.346   8.031 -0.3370  0.4467 -0.1285
 6591SOL    HW131235   2.807   4.337   8.122  2.9410 -0.0941  0.8684
 6591SOL    HW231236   2.759   4.323   7.980  1.6602  0.3309 -3.0526
 6592SOL     OW31237   1.874   2.056  11.657  0.1941  0.0878  0.3375
 6592SOL    HW131238   1.910   1.990  11.597  0.3882  0.0278  0.5186
 6592SOL    HW231239   1.803   2.094  11.606  1.2487  1.2158 -0.2854
 6593SOL     OW31240   2.454   0.574   8.991 -0.1996 -0.3659  0.2393
 6593SOL    HW131241   2.477   0.618   8.909 -1.0710  0.7146  0.5724
 6593SOL    HW231242   2.359   0.571   8.979 -0.2011 -0.1473  0.1927
 6594SOL     OW31243   1.608   3.174   2.938 -0.1311 -0.5558  0.1275
 6594SOL    HW131244   1.626   3.171   3.032  0.7200  1.6167  0.0337
 6594SOL    HW231245   1.532   3.232   2.932  1.0389  1.0503  1.1525
 6595SOL     OW31246   4.266   1.834   9.789 -0.1453 -0.4439 -0.1165
 6595SOL    HW131247   4.237   1.792   9.871 -0.6642  0.8265  0.3581
 6595SOL    HW231248   4.328   1.772   9.752 -1.8981 -0.7792 -2.5051
 6596SOL     OW31249   0.354   0.266   2.421  0.0466  0.4077 -0.5041
 6596SOL    HW131250   0.358   0.246   2.514 -0.6808 -1.2902 -0.8512
 6596SOL    HW231251   0.374   0.360   2.431  0.6225  0.2306 -0.0001
 6597SOL     OW31252   3.148   1.340   8.455 -0.0052 -0.4398  0.1192
 6597SOL    HW131253   3.168   1.259   8.410  1.9359  1.0912 -1.7360
 6597SOL    HW231254   3.085   1.313   8.522 -1.0252 -1.3778 -1.2271
 6598SOL     OW31255   2.016   3.013  15.257  0.1160  0.1766 -0.1826
 6598SOL    HW131256   2.107   2.995  15.283 -0.1930  0.6483  1.2476
 6598SOL    HW231257   1.971   2.951  15.315  2.2085 -1.4991 -0.3457
 6599SOL     OW31258   4.340   1.821   8.481 -0.2895  0.4011  0.3365
 6599SOL    HW131259   4.257   1.780   8.505  0.8204 -3.4316 -2.3186
 6599SOL    HW231260   4.337   1.821   8.385 -0.3397  1.3032  0.3401
 6600SOL     OW31261   2.368   2.951  13.778  0.6804 -0.1800  0.1656
 6600SOL    HW131262   2.383   2.911  13.693  0.3234 -0.9277  0.4531
 6600SOL    HW231263   2.423   2.894  13.831  1.9329 -0.0104 -0.9660
 6601SOL     OW31264   3.348   3.252   3.637 -0.1299 -0.5122 -0.3631
 6601SOL    HW131265   3.376   3.316   3.572 -0.2338 -0.0003  0.1017
 6601SOL    HW231266   3.304   3.322   3.686  1.6534  1.0409 -0.9761
 6602SOL     OW31267   0.956   4.391   8.822  0.2710  0.0643  0.2614
 6602SOL    HW131268   0.927   4.306   8.789  0.1154  0.0601  0.4075
 6602SOL    HW231269   1.022   4.429   8.764  1.0947 -1.5763  0.1088
 6603SOL     OW31270   1.503   2.655   7.898 -0.3832 -0.0055 -0.0023
 6603SOL    HW131271   1.588   2.662   7.856 -0.6563  1.1567 -0.3794
 6603SOL    HW231272   1.527   2.674   7.989  1.3987  0.1183 -0.5029
 6604SOL     OW31273   3.658   3.445  17.061  0.6985 -0.3881 -0.7084
 6604SOL    HW131274   3.644   3.500  16.983 -1.3239  0.3870  0.1917
 6604SOL    HW231275   3.593   3.479  17.123 -0.6788 -1.1595 -1.7129
 6605SOL     OW31276   0.605   0.917  15.054  0.0140  0.5201 -0.1290
 6605SOL    HW131277   0.668   0.895  14.985  0.7263  0.0004  0.6911
 6605SOL    HW231278   0.645   1.001  15.077  2.2121 -0.2603 -1.0541
 6606SOL     OW31279   0.370   3.360   5.448  0.2562  0.4135 -0.0335
 6606SOL    HW131280   0.312   3.434   5.466  2.0894  1.3907  1.7702
 6606SOL    HW231281   0.312   3.295   5.487  0.4233  1.8319  2.5818
 6607SOL     OW31282   2.072   3.893   4.759  0.2207  0.4073 -0.2868
 6607SOL    HW131283   2.019   3.936   4.692  0.0701 -0.8801 -0.9897
 6607SOL    HW231284   2.004   3.864   4.820  0.8339  0.0894  0.2546
 6608SOL     OW31285   3.282   0.830   4.824 -0.6834 -0.0700  0.5844
 6608SOL    HW131286   3.323   0.868   4.903  0.6962 -1.4793  0.5406
 6608SOL    HW231287   3.191   0.822   4.853 -0.4863 -0.2913  1.1441
 6609SOL     OW31288   2.528   4.378  10.403 -0.5210 -0.1484 -0.0625
 6609SOL    HW131289   2.438   4.363  10.431  0.3481  1.0389  3.4289
 6609SOL    HW231290   2.511   4.359  10.311  0.1100  2.7453 -0.7834
 6610SOL     OW31291   1.827   2.086   2.060 -0.7596  0.3754  0.3377
 6610SOL    HW131292   1.870   2.000   2.058  2.0112  1.7400  0.9646
 6610SOL    HW231293   1.906   2.140   2.062 -0.6484  0.1965  0.7645
 6611SOL     OW31294   1.988   2.664   3.520  0.8397  0.5291  0.2777
 6611SOL    HW131295   2.028   2.605   3.585  0.3360 -2.3344 -2.0241
 6611SOL    HW231296   2.062   2.682   3.462  1.6844  0.0336  1.1944
 6612SOL     OW31297   1.494   0.484  11.896 -0.1008  0.1290 -0.2011
 6612SOL    HW131298   1.552   0.414  11.925 -0.9247  0.5047  2.4164
 6612SOL    HW231299   1.414   0.439  11.924  2.2169 -2.7304  1.8221
 6613SOL     OW31300   3.800   1.441   7.686  0.2653 -0.0876  0.2523
 6613SOL    HW131301   3.782   1.350   7.665 -2.6496  0.6043 -0.2095
 6613SOL    HW231302   3.749   1.453   7.766  1.6991  0.8427  1.0407
 6614SOL     OW31303   2.280   2.978  15.998 -0.1729  0.0327 -0.2822
 6614SOL    HW131304   2.198   2.930  15.991  0.9213 -1.7069 -1.2396
 6614SOL    HW231305   2.294   2.999  15.906  0.1992  0.9078 -0.0243
 6615SOL     OW31306   1.749   2.907  11.374  0.0031  0.4593 -0.1101
 6615SOL    HW131307   1.694   2.966  11.323 -1.7891 -0.9759  0.1857
 6615SOL    HW231308   1.773   2.967  11.444  0.7501  0.8353 -0.6794
 6616SOL     OW31309   1.109   2.810  15.651 -0.0553  0.4576  0.4504
 6616SOL    HW131310   1.162   2.888  15.636  1.5106 -0.9056 -1.1905
 6616SOL    HW231311   1.062   2.790  15.570  2.4793 -1.5813 -0.5357
 6617SOL     OW31312   2.289   4.076  11.367 -0.1424  0.2991 -0.4230
 6617SOL    HW131313   2.300   3.986  11.398 -3.0118 -0.8603 -2.7075
 6617SOL    HW231314   2.357   4.089  11.301 -1.9629 -0.7131 -2.5177
 6618SOL     OW31315   2.620   1.520   1.814  0.1075  0.0347 -0.1013
 6618SOL    HW131316   2.697   1.577   1.817  2.2017 -2.8894  1.3245
 6618SOL    HW231317   2.594   1.532   1.906  2.8497 -1.7955  0.9054
 6619SOL     OW31318   4.391   4.633   3.182 -0.1381  0.5702  0.3480
 6619SOL    HW131319   4.387   4.569   3.112  0.0427 -0.8162  1.6185
 6619SOL    HW231320   4.411   4.570   3.251  0.2512 -0.1718 -0.4476
 6620SOL     OW31321   3.896   4.515   8.960 -0.2666  0.4374 -0.4097
 6620SOL    HW131322   3.840   4.455   9.009  0.8529 -0.0335  0.3096
 6620SOL    HW231323   3.853   4.596   8.985 -0.5061 -0.2979  1.5645
 6621SOL     OW31324   3.801   2.212   5.741  0.4031 -0.0224  0.6095
 6621SOL    HW131325   3.783   2.180   5.830  1.9557  0.8500  1.2441
 6621SOL    HW231326   3.892   2.237   5.754  0.3462  1.1147 -1.1025
 6622SOL     OW31327   0.553   2.942   6.571  0.3424 -0.6277  0.3905
 6622SOL    HW131328   0.466   2.970   6.600  0.2812 -0.6591  0.2348
 6622SOL    HW231329   0.525   2.870   6.515  2.1188  0.0187 -1.3212
 6623SOL     OW31330   4.567   3.188   5.957  0.4209  0.5593 -0.0706
 6623SOL    HW131331   4.626   3.150   5.892  3.0487  0.3589  2.4662
 6623SOL    HW231332   4.586   3.132   6.032 -0.1607  0.4719  0.0134
 6624SOL     OW31333   2.334   0.077   1.490 -0.8193  0.7382  0.3902
 6624SOL    HW131334   2.372   0.164   1.475  0.6441  0.1443  0.6445
 6624SOL    HW231335   2.278   0.071   1.413 -0.8347  0.2729  0.4349
 6625SOL     OW31336   0.177   3.469  15.289 -0.1832  0.0742  0.2737
 6625SOL    HW131337   0.225   3.512  15.359 -0.3110 -1.7198  1.4552
 6625SOL    HW231338   0.167   3.540  15.225  1.3441  0.9624  1.0243
 6626SOL     OW31339   0.893   2.598   4.273  0.0523  0.1486  0.1999
 6626SOL    HW131340   0.962   2.598   4.339  0.8208 -0.5195 -0.5946
 6626SOL    HW231341   0.927   2.524   4.223  0.1548  1.3757 -1.5307
 6627SOL     OW31342   0.358   1.063   2.782 -0.2762 -0.5543 -0.1843
 6627SOL    HW131343   0.386   1.114   2.707  1.4454 -1.6084 -0.2612
 6627SOL    HW231344   0.282   1.020   2.742 -0.9584  0.4984 -0.0431
 6628SOL     OW31345   0.388   2.578  10.022 -0.3862 -0.2068 -0.5645
 6628SOL    HW131346   0.361   2.489  10.043  1.4756 -0.5623  0.3321
 6628SOL    HW231347   0.319   2.611   9.965 -0.9178  0.6726  0.5932
 6629SOL     OW31348   3.312   0.517   5.134  0.2610  0.1908 -0.2538
 6629SOL    HW131349   3.312   0.491   5.041 -0.9197  0.0480 -0.2041
 6629SOL    HW231350   3.395   0.563   5.122  1.4884 -2.1617 -0.8399
 6630SOL     OW31351   0.292   2.057   8.624  0.1749 -0.5387  0.0622
 6630SOL    HW131352   0.305   2.064   8.719 -0.4837 -0.9841  0.1814
 6630SOL    HW231353   0.369   2.108   8.599 -1.3524  1.8892  0.3764
 6631SOL     OW31354   3.913   0.241  13.219  0.1846 -0.2760  0.2448
 6631SOL    HW131355   3.903   0.167  13.279  0.1699  0.9209  1.7328
 6631SOL    HW231356   3.822   0.261  13.197  0.4053  1.1299  0.5855
 6632SOL     OW31357   1.363   2.583  11.848 -0.6372 -0.4409 -0.1689
 6632SOL    HW131358   1.426   2.544  11.788  1.0831  0.7572  0.8365
 6632SOL    HW231359   1.328   2.653  11.793 -0.3419  1.9709  2.7056
 6633SOL     OW31360   1.932   2.362   8.747  0.2996 -0.5945  0.1847
 6633SOL    HW131361   1.863   2.301   8.720  0.0986  0.1409 -0.9251
 6633SOL    HW231362   1.979   2.313   8.816  0.6397 -1.2253 -0.4934
 6634SOL     OW31363   4.218   0.281   2.615 -0.2168 -0.0032 -0.0654
 6634SOL    HW131364   4.289   0.231   2.656 -1.4333 -0.0959  1.9749
 6634SOL    HW231365   4.230   0.264   2.522  0.6935 -0.1661  0.0784
 6635SOL     OW31366   1.917   2.201   7.088  0.1209  0.0811  0.2163
 6635SOL    HW131367   1.865   2.274   7.055 -1.7321 -2.6718 -3.0169
 6635SOL    HW231368   1.954   2.230   7.171 -0.8115  1.4143  0.1600
 6636SOL     OW31369   1.421   0.449   4.010  0.0724 -0.1442  0.0018
 6636SOL    HW131370   1.407   0.445   4.104 -1.0353 -1.7561 -0.2426
 6636SOL    HW231371   1.378   0.530   3.980 -0.3048  0.2479  1.6158
 6637SOL     OW31372   0.290   0.059  11.626  0.6160 -0.0445  0.2985
 6637SOL    HW131373   0.282   0.074  11.531 -1.9330 -0.9823  0.3432
 6637SOL    HW231374   0.250   4.696  11.627  3.0544 -1.1310  0.8875
 6638SOL     OW31375   0.431   0.343  10.571 -0.3508  0.3573 -0.2576
 6638SOL    HW131376   0.430   0.394  10.490 -1.7269  2.0003  0.8027
 6638SOL    HW231377   0.372   0.398  10.622 -2.0800 -2.1183  0.4480
 6639SOL     OW31378   0.216   3.651   2.483 -0.0695  0.5552 -0.7602
 6639SOL    HW131379   0.190   3.563   2.510  0.1236  0.3236 -1.3421
 6639SOL    HW231380   0.252   3.689   2.564 -0.4766  0.5159 -0.5579
 6640SOL     OW31381   1.948   0.183   3.652 -0.4490 -0.0664  0.6425
 6640SOL    HW131382   1.914   0.094   3.660 -0.2276 -0.2589 -0.6139
 6640SOL    HW231383   2.026   0.179   3.597  0.4910  0.4464  1.9655
 6641SOL     OW31384   2.871   1.638   1.845  0.0593  0.3373  0.2456
 6641SOL    HW131385   2.865   1.730   1.870 -1.1486  0.0308  1.1291
 6641SOL    HW231386   2.965   1.624   1.850  0.0899  0.0184 -1.1676
 6642SOL     OW31387   1.945   3.621  16.859 -0.3473 -0.2025 -0.0482
 6642SOL    HW131388   1.866   3.607  16.808 -0.2668 -0.5570 -0.0768
 6642SOL    HW231389   1.988   3.691  16.809  1.5586 -0.2723  1.5237
 6643SOL     OW31390   2.966   2.145   2.753 -0.1282  0.6935  0.1802
 6643SOL    HW131391   2.952   2.056   2.720 -2.8333  1.1428  0.0732
 6643SOL    HW231392   2.939   2.197   2.677  1.3730 -0.2781 -1.0026
 6644SOL     OW31393   0.216   1.306   8.357  0.1067 -0.2164 -0.3580
 6644SOL    HW131394   0.193   1.373   8.293  0.3498 -1.5506 -1.8435
 6644SOL    HW231395   0.165   1.329   8.435 -2.8936 -0.7186 -2.1912
 6645SOL     OW31396   2.812   3.240   5.876  0.5051 -0.7091  0.1320
 6645SOL    HW131397   2.889   3.296   5.863  0.9298 -0.9062  1.8221
 6645SOL    HW231398   2.793   3.191   5.796  0.6294 -0.3859 -0.0989
 6646SOL     OW31399   0.829   3.546  13.141 -0.2801  0.5160 -0.0382
 6646SOL    HW131400   0.894   3.616  13.141  0.9305 -0.5850  0.5251
 6646SOL    HW231401   0.885   3.468  13.149  1.1705  1.5799  0.2152
 6647SOL     OW31402   1.212   1.273  15.926  0.1444  0.0527  0.5918
 6647SOL    HW131403   1.162   1.222  15.863  0.9106  1.5796 -1.2592
 6647SOL    HW231404   1.297   1.228  15.921  0.3749  0.5333  0.1174
 6648SOL     OW31405   0.511   1.231   2.628 -0.4419 -0.4899 -0.0404
 6648SOL    HW131406   0.578   1.208   2.564 -1.0433 -0.6172 -0.6214
 6648SOL    HW231407   0.498   1.321   2.597 -0.5893  0.3890  2.5103
 6649SOL     OW31408   4.038   3.082   5.164 -0.2624  0.5790 -0.3028
 6649SOL    HW131409   4.004   2.996   5.139 -1.1668  0.2054  2.2633
 6649SOL    HW231410   4.094   3.103   5.089  0.0687 -0.2724 -0.2902
 6650SOL     OW31411   4.244   3.434   5.815 -0.6000  0.1253  0.1642
 6650SOL    HW131412   4.241   3.345   5.850  1.6021 -0.4827 -1.2292
 6650SOL    HW231413   4.338   3.440   5.803 -0.6600  1.9141  0.5877
 6651SOL     OW31414   1.171   4.544   6.912  0.2058  0.5116  0.1566
 6651SOL    HW131415   1.139   4.522   6.999  0.1732 -2.7712 -0.6723
 6651SOL    HW231416   1.089   4.536   6.863 -1.0154  1.9288  2.0326
 6652SOL     OW31417   4.691   4.274   9.199 -0.0029  0.2980 -0.2323
 6652SOL    HW131418   4.647   4.322   9.269  2.4091  0.9805  0.8323
 6652SOL    HW231419   4.650   4.187   9.203  0.1968  0.1797 -0.8605
 6653SOL     OW31420   3.318   4.694   9.429 -0.4714 -0.3036  0.2143
 6653SOL    HW131421   3.378   0.037   9.462 -0.0638  0.1176 -1.3884
 6653SOL    HW231422   3.346   4.623   9.487  1.4615 -0.0778 -0.4489
 6654SOL     OW31423   4.015   2.264   7.105  0.6407 -0.0850 -0.0415
 6654SOL    HW131424   3.966   2.298   7.180  1.2322  0.8853 -0.0902
 6654SOL    HW231425   4.047   2.182   7.141  1.3993  0.6626  0.9704
 6655SOL     OW31426   3.270   0.010   8.657  0.3410  0.7543 -0.3601
 6655SOL    HW131427   3.262   4.641   8.634 -2.7865  0.6291  1.2288
 6655SOL    HW231428   3.357   0.031   8.623  0.4824  0.5673 -0.1164
 6656SOL     OW31429   1.599   2.383   8.834  0.3289  1.0285  0.1691
 6656SOL    HW131430   1.533   2.318   8.856  1.7255  0.0255  1.4294
 6656SOL    HW231431   1.663   2.318   8.805 -1.0906 -0.1515 -0.3315
 6657SOL     OW31432   2.958   3.984   9.068 -0.2859 -0.1589  0.3903
 6657SOL    HW131433   2.890   3.918   9.084  0.8505 -0.6734  3.0600
 6657SOL    HW231434   2.918   3.993   8.981  0.6833 -2.3897 -0.2922
 6658SOL     OW31435   3.474   4.060   9.359  0.1953 -0.2129  0.1822
 6658SOL    HW131436   3.497   3.973   9.390 -2.1617 -0.6814  0.6264
 6658SOL    HW231437   3.544   4.111   9.399 -0.1886 -0.7829  1.5732
 6659SOL     OW31438   0.197   3.645  13.788 -0.1295 -0.7037  0.5248
 6659SOL    HW131439   0.233   3.723  13.746  0.2222 -0.4981  1.2092
 6659SOL    HW231440   0.174   3.680  13.874  0.0209 -0.4896  0.4811
 6660SOL     OW31441   1.984   1.805  11.557 -0.0953  0.4651  0.1654
 6660SOL    HW131442   2.032   1.749  11.497 -1.4845 -1.0138  0.4047
 6660SOL    HW231443   2.028   1.788  11.640  0.8550  2.2546  0.0324
 6661SOL     OW31444   4.560   0.771   7.407  0.8117 -0.0870 -0.2500
 6661SOL    HW131445   4.478   0.722   7.399  1.5021 -0.8568 -2.7726
 6661SOL    HW231446   4.539   0.830   7.479  1.8258 -0.8549  0.6871
 6662SOL     OW31447   4.092   1.224   1.687  0.2867 -0.0843 -0.4469
 6662SOL    HW131448   4.145   1.170   1.628  0.0187 -2.3069  1.3517
 6662SOL    HW231449   4.158   1.285   1.720  0.9351 -0.6843 -0.6418
 6663SOL     OW31450   1.568   2.872   1.291 -0.1333 -0.5747  0.3637
 6663SOL    HW131451   1.541   2.963   1.298  2.7124  0.2041  0.9552
 6663SOL    HW231452   1.537   2.834   1.373 -0.6074  1.3072  1.0555
 6664SOL     OW31453   3.077   2.864   5.226 -0.1527  0.4039  0.6749
 6664SOL    HW131454   3.102   2.850   5.135 -0.8775  0.2365  0.4997
 6664SOL    HW231455   3.088   2.776   5.262  0.6663  0.9957  1.8794
 6665SOL     OW31456   0.935   0.892   3.796  0.6906 -0.0588 -0.7588
 6665SOL    HW131457   0.930   0.987   3.782 -1.2590 -0.1951 -1.0141
 6665SOL    HW231458   0.842   0.879   3.813  0.2735  0.7567 -2.3420
 6666SOL     OW31459   0.734   3.149   3.021  0.1241 -0.2617  0.5291
 6666SOL    HW131460   0.682   3.203   3.080 -1.0815 -1.4986  0.5972
 6666SOL    HW231461   0.688   3.067   3.041  2.7823 -1.0627  3.3323
 6667SOL     OW31462   2.263   1.977   7.862  0.1886  0.3785 -0.7861
 6667SOL    HW131463   2.326   1.952   7.930  0.1419  0.3784 -0.7427
 6667SOL    HW231464   2.200   2.024   7.917 -0.7847 -0.4688 -1.1647
 6668SOL     OW31465   1.220   0.762  10.201  0.1915 -0.5046  0.3634
 6668SOL    HW131466   1.202   0.818  10.125 -0.3285  0.1547  0.9644
 6668SOL    HW231467   1.292   0.704  10.178 -0.3587 -0.4437 -1.4785
 6669SOL     OW31468   2.852   0.746   8.850 -0.1031  0.3175  0.1502
 6669SOL    HW131469   2.795   0.823   8.843  0.2547  0.3397 -2.3254
 6669SOL    HW231470   2.878   0.740   8.942  1.1557  0.5563 -0.1919
 6670SOL     OW31471   2.639   0.609   3.251 -0.5611  0.0312 -0.2077
 6670SOL    HW131472   2.566   0.671   3.254 -2.1458 -1.7774 -1.2946
 6670SOL    HW231473   2.641   0.585   3.158  3.4699 -1.5164  0.2728
 6671SOL     OW31474   2.998   2.605   6.039  0.1169  0.1579 -0.0193
 6671SOL    HW131475   3.080   2.555   6.033  0.6064  0.7859  1.4092
 6671SOL    HW231476   2.992   2.627   5.946 -0.1527  0.1468 -0.0027
 6672SOL     OW31477   0.060   1.432   1.765 -0.0403 -0.5131  0.1298
 6672SOL    HW131478   0.120   1.441   1.691 -0.0128 -1.0358  0.0892
 6672SOL    HW231479   0.114   1.457   1.840  0.0418  0.5694 -0.2796
 6673SOL     OW31480   3.204   0.755   2.025 -0.2535  0.0188  0.1195
 6673SOL    HW131481   3.112   0.777   2.039 -0.0384  0.2806  1.1591
 6673SOL    HW231482   3.196   0.660   2.033  1.8247 -0.0476  1.7181
 6674SOL     OW31483   2.237   2.649   1.620  0.2105  0.1897 -0.0767
 6674SOL    HW131484   2.191   2.639   1.537  0.2397  2.6592 -0.3787
 6674SOL    HW231485   2.245   2.557   1.646  0.4009  0.1584 -0.2468
 6675SOL     OW31486   4.584   3.258   7.590  0.5094  0.3165 -0.2765
 6675SOL    HW131487   4.607   3.168   7.566  1.8311  0.7235 -0.5155
 6675SOL    HW231488   4.496   3.258   7.551 -0.1083 -1.4300  1.0967
 6676SOL     OW31489   1.819   3.786   5.495  0.1428  0.3628  0.0594
 6676SOL    HW131490   1.809   3.696   5.464  2.5016  0.0292  0.2902
 6676SOL    HW231491   1.756   3.780   5.567  2.3923 -0.3849  1.9294
 6677SOL     OW31492   2.705   1.066   7.892 -0.1981  0.0055 -0.9144
 6677SOL    HW131493   2.681   0.975   7.874  1.1000 -0.7613  1.1958
 6677SOL    HW231494   2.649   1.089   7.966 -4.1571 -4.7357 -2.4303
 6678SOL     OW31495   0.339   1.048  11.717 -0.4970  0.4185  0.3673
 6678SOL    HW131496   0.317   0.985  11.786  1.8215 -0.7226  0.0888
 6678SOL    HW231497   0.269   1.039  11.653 -2.1049  2.4097  1.8390
 6679SOL     OW31498   0.020   2.509   3.912 -0.0508  0.1643 -0.2159
 6679SOL    HW131499   4.650   2.511   3.898 -0.3223 -1.6058  1.4575
 6679SOL    HW231500   0.049   2.466   3.831 -0.3482 -1.5051  0.5787
 6680SOL     OW31501   1.002   1.992   3.910  0.0465  0.2497 -0.2799
 6680SOL    HW131502   0.960   2.063   3.861  0.8133  1.3182  0.6250
 6680SOL    HW231503   0.930   1.930   3.915  0.7372 -0.7566 -2.4219
 6681SOL     OW31504   0.372   0.662   9.182  0.4349  0.2270  0.3636
 6681SOL    HW131505   0.314   0.699   9.115  1.8915 -0.3644 -1.2054
 6681SOL    HW231506   0.336   0.573   9.187 -0.2013  0.5238  1.1531
 6682SOL     OW31507   3.400   3.333   5.173 -0.2194  0.5411 -0.2365
 6682SOL    HW131508   3.318   3.327   5.124  0.2790 -2.7007 -0.6637
 6682SOL    HW231509   3.463   3.322   5.102 -0.3107 -0.6817 -0.1365
 6683SOL     OW31510   0.740   0.978   8.718  0.1010  0.0135  0.5775
 6683SOL    HW131511   0.737   0.953   8.625  1.8438  0.7660  0.3203
 6683SOL    HW231512   0.823   0.939   8.745 -1.2313 -1.3693  2.7019
 6684SOL     OW31513   0.711   2.120  11.521  0.0362 -0.1127  0.3244
 6684SOL    HW131514   0.745   2.122  11.610 -0.1969 -0.1453  0.4161
 6684SOL    HW231515   0.717   2.028  11.493 -0.7100  0.0036 -0.2218
 6685SOL     OW31516   2.861   0.653  17.129 -0.0873 -0.3958  0.0840
 6685SOL    HW131517   2.915   0.687  17.057  0.0355  1.3947  1.0307
 6685SOL    HW231518   2.939   0.648  17.184 -1.2585  1.6433  1.9116
 6686SOL     OW31519   1.773   2.669   2.121  0.9787 -0.3171  0.2299
 6686SOL    HW131520   1.845   2.606   2.117  1.4852  0.1519  2.3881
 6686SOL    HW231521   1.731   2.661   2.035  1.9714 -0.8011 -0.2115
 6687SOL     OW31522   2.933   4.230   2.408  0.2908  0.1252 -0.1812
 6687SOL    HW131523   2.983   4.244   2.489  1.9362 -0.3056 -1.1048
 6687SOL    HW231524   3.004   4.242   2.344  0.8160  0.3364  0.4321
 6688SOL     OW31525   3.579   4.054   4.601  0.1142 -0.1696 -0.4513
 6688SOL    HW131526   3.597   4.130   4.546  0.3948 -0.6600 -1.0432
 6688SOL    HW231527   3.566   4.090   4.689 -0.4717 -0.7012 -0.3209
 6689SOL     OW31528   3.385   1.530   7.904 -0.0656  0.1786  0.1762
 6689SOL    HW131529   3.298   1.547   7.867  0.1207  0.6772 -0.0404
 6689SOL    HW231530   3.374   1.532   7.999  2.3657 -0.2860  0.4560
 6690SOL     OW31531   1.675   2.643   7.068 -0.0703 -0.3289  0.3520
 6690SOL    HW131532   1.666   2.705   6.995 -2.8506 -0.7321  0.3453
 6690SOL    HW231533   1.655   2.694   7.146  1.9270  3.6159 -1.7094
 6691SOL     OW31534   1.427   3.343   2.692 -0.1221  0.0044  0.1776
 6691SOL    HW131535   1.448   3.342   2.785  0.1834 -2.2345  0.0649
 6691SOL    HW231536   1.342   3.388   2.687 -0.0536  0.1663  0.5278
 6692SOL     OW31537   3.115   2.503  16.120  0.0082  0.4662 -0.0669
 6692SOL    HW131538   3.033   2.475  16.081 -0.6817 -1.1817  2.6077
 6692SOL    HW231539   3.114   2.598  16.108  1.1939  0.0864 -3.1238
 6693SOL     OW31540   2.318   1.077  16.101 -0.2000 -0.1154 -0.0519
 6693SOL    HW131541   2.406   1.061  16.068  0.3337  0.3976  1.1015
 6693SOL    HW231542   2.263   1.029  16.039 -1.1506  1.8262 -0.6988
 6694SOL     OW31543   0.663   2.620   7.389  0.3855  0.3243  0.6045
 6694SOL    HW131544   0.734   2.584   7.338  1.1637  0.9972  1.2053
 6694SOL    HW231545   0.592   2.562   7.363  1.7763 -1.5278  0.9477
 6695SOL     OW31546   0.313   1.420   2.360 -0.4808  0.0897  0.0413
 6695SOL    HW131547   0.258   1.486   2.402 -1.4781 -0.1416 -0.9173
 6695SOL    HW231548   0.248   1.351   2.351 -0.1468 -0.2731  0.4146
 6696SOL     OW31549   4.189   2.649   0.401  0.0610 -0.3880  0.1231
 6696SOL    HW131550   4.104   2.632   0.359  0.6320 -1.4721 -0.5820
 6696SOL    HW231551   4.175   2.641   0.495 -0.5425 -3.5397 -0.2396
 6697SOL     OW31552   4.592   1.417   5.939  0.2095 -0.0529 -0.2334
 6697SOL    HW131553   4.686   1.402   5.941 -0.3217 -3.4514 -0.9098
 6697SOL    HW231554   4.576   1.395   5.847  2.4272 -0.1822 -0.5913
 6698SOL     OW31555   2.174   1.582   7.428 -0.1506 -0.0868 -0.1048
 6698SOL    HW131556   2.086   1.595   7.392  0.1357  0.2007 -0.7023
 6698SOL    HW231557   2.230   1.588   7.350 -0.7781 -2.6189 -0.7502
 6699SOL     OW31558   1.912   0.753  17.183  0.4856 -0.3334 -0.7165
 6699SOL    HW131559   1.833   0.746  17.237  1.6883 -0.4352  1.0525
 6699SOL    HW231560   1.898   0.700  17.105  0.5205  1.9232 -2.2356
 6700SOL     OW31561   1.811   2.449   4.178 -0.3065 -0.5852  0.2312
 6700SOL    HW131562   1.894   2.495   4.191 -1.0592  0.1621  2.4211
 6700SOL    HW231563   1.849   2.362   4.184 -1.4911 -0.8801  3.4234
 6701SOL     OW31564   1.976   2.506   0.681  0.3279  0.3432 -0.1644
 6701SOL    HW131565   1.974   2.422   0.636 -0.0211  0.0964  0.3107
 6701SOL    HW231566   2.061   2.499   0.725 -1.2976  0.6444  3.0045
 6702SOL     OW31567   1.697   2.721   4.797  0.7027 -0.3992  0.1303
 6702SOL    HW131568   1.615   2.673   4.808  1.4658 -1.4630  1.0610
 6702SOL    HW231569   1.716   2.751   4.886 -0.2294  0.9053 -0.1098
 6703SOL     OW31570   4.215   2.103   4.297 -0.4587 -0.4478  0.3728
 6703SOL    HW131571   4.130   2.059   4.298  0.0784 -1.4709  1.0420
 6703SOL    HW231572   4.277   2.031   4.285  0.6899  0.6415 -0.2554
 6704SOL     OW31573   1.022   2.520   5.593 -0.0783 -0.2140  0.4309
 6704SOL    HW131574   1.066   2.545   5.674 -0.1267 -2.9321  1.2820
 6704SOL    HW231575   1.090   2.534   5.527 -1.5472  0.9207 -0.8446
 6705SOL     OW31576   2.458   0.495   1.652 -0.2352  0.6033  0.2798
 6705SOL    HW131577   2.549   0.488   1.625 -0.0418 -1.5056  1.4952
 6705SOL    HW231578   2.469   0.462   1.741  0.9018 -1.3211 -0.5918
 6706SOL     OW31579   1.270   2.347   5.940  0.2066  0.1326 -0.1174
 6706SOL    HW131580   1.228   2.314   6.020  1.7135  0.4166  0.7889
 6706SOL    HW231581   1.227   2.287   5.879 -3.8991  1.7123  1.2786
 6707SOL     OW31582   3.703   2.675  11.564 -0.5392 -0.3798  0.1674
 6707SOL    HW131583   3.660   2.714  11.641  1.3224  2.3799 -0.2194
 6707SOL    HW231584   3.789   2.714  11.576 -1.1519  1.0932 -0.1924
 6708SOL     OW31585   4.505   4.523   0.774 -0.2617  0.1230 -0.0242
 6708SOL    HW131586   4.415   4.493   0.759  0.4479 -1.5736 -1.0150
 6708SOL    HW231587   4.500   4.594   0.837 -0.5093 -2.9172  3.3786
 6709SOL     OW31588   4.508   3.995   8.552 -0.1166  0.6150 -0.3210
 6709SOL    HW131589   4.427   3.998   8.602 -1.6363  0.0528 -2.7154
 6709SOL    HW231590   4.492   4.059   8.482 -0.8493  3.0064  2.0629
 6710SOL     OW31591   3.932   4.627   3.171 -1.0701  0.0385 -0.1703
 6710SOL    HW131592   3.994   4.599   3.238  1.3553  1.3543 -1.8500
 6710SOL    HW231593   3.983   4.692   3.122  3.2833 -1.7270  2.0671
 6711SOL     OW31594   3.897   1.807   8.189  0.2919 -0.1539 -0.4528
 6711SOL    HW131595   3.946   1.728   8.212  2.0981  0.3973 -2.5088
 6711SOL    HW231596   3.962   1.851   8.134 -0.6195  0.5642 -0.9495
 6712SOL     OW31597   3.505   3.164  10.744  0.2062 -0.3363  0.5038
 6712SOL    HW131598   3.499   3.170  10.839  1.1466  1.5413  0.4409
 6712SOL    HW231599   3.463   3.247  10.721 -1.5924 -0.5873  2.8808
 6713SOL     OW31600   0.588   1.568   7.416  0.3532  0.6026 -0.2096
 6713SOL    HW131601   0.557   1.535   7.500  1.1175  1.1668  0.2931
 6713SOL    HW231602   0.663   1.513   7.394 -0.8358 -1.1482  0.1844
 6714SOL     OW31603   2.624   2.911  11.765  0.2004  0.2386  0.4810
 6714SOL    HW131604   2.596   2.845  11.829  2.0415  0.9549  2.0587
 6714SOL    HW231605   2.547   2.961  11.741 -0.9418 -1.3921  0.7352
 6715SOL     OW31606   1.867   1.469  17.332  0.1459 -0.5622  0.3083
 6715SOL    HW131607   1.776   1.495  17.343 -0.4783 -1.1875 -3.5769
 6715SOL    HW231608   1.894   1.509  17.250 -3.5657  0.6934 -0.2730
 6716SOL     OW31609   3.772   2.236  16.092  0.1178  0.2725  0.3715
 6716SOL    HW131610   3.730   2.318  16.117  0.3363  0.5961 -0.3371
 6716SOL    HW231611   3.713   2.205  16.024  0.6047 -0.2617  0.1898
 6717SOL     OW31612   1.167   3.748   5.465 -0.4009 -0.0506  0.5289
 6717SOL    HW131613   1.243   3.779   5.514 -0.1385 -1.0296  0.7245
 6717SOL    HW231614   1.196   3.774   5.378 -0.5256 -1.2604  0.1316
 6718SOL     OW31615   3.790   1.167   7.628 -0.2260  0.0323  0.8466
 6718SOL    HW131616   3.712   1.122   7.659 -0.5168 -0.0193  0.0411
 6718SOL    HW231617   3.790   1.124   7.543 -1.1776 -1.3318  1.5391
 6719SOL     OW31618   1.767   1.623   8.076 -0.0311 -0.0464 -0.2721
 6719SOL    HW131619   1.800   1.544   8.118 -2.4411  0.1223  1.9357
 6719SOL    HW231620   1.792   1.604   7.986  1.1234 -0.3354  0.1171
 6720SOL     OW31621   4.665   0.564  11.158 -0.1738  0.7599  0.2423
 6720SOL    HW131622   4.692   0.477  11.187  0.3287  0.9728  0.3978
 6720SOL    HW231623   0.004   0.618  11.205 -1.2527  1.7773  0.5459
 6721SOL     OW31624   3.052   4.062   0.965 -0.3674 -0.2308 -0.3737
 6721SOL    HW131625   3.076   4.150   0.993 -0.7275  0.0694 -1.0094
 6721SOL    HW231626   3.038   4.068   0.870 -2.5985 -0.3318 -0.0482
 6722SOL     OW31627   1.096   4.529  10.996  0.1481 -0.4050  0.0402
 6722SOL    HW131628   1.159   4.524  10.924 -1.9691  3.7990 -2.1435
 6722SOL    HW231629   1.019   4.494  10.950 -0.9687  1.3079  0.5875
 6723SOL     OW31630   3.492   1.065  13.937  0.4285  0.1759  0.3373
 6723SOL    HW131631   3.543   1.001  13.888 -1.3981  0.2515 -1.6471
 6723SOL    HW231632   3.501   1.142  13.882 -0.5374  0.4165  0.5052
 6724SOL     OW31633   3.579   2.481   7.340  0.2349 -0.4523 -0.1980
 6724SOL    HW131634   3.610   2.546   7.403  2.3630 -1.6921  0.0044
 6724SOL    HW231635   3.521   2.435   7.401  0.5677  1.1934  1.3624
 6725SOL     OW31636   0.185   3.049   6.363 -0.3889  0.7513  0.3022
 6725SOL    HW131637   0.258   3.087   6.314  0.8295 -1.6866  0.2188
 6725SOL    HW231638   0.181   2.965   6.318 -1.0519  0.9437 -0.0121
 6726SOL     OW31639   1.549   1.874  11.208  0.2682 -0.4915 -0.0885
 6726SOL    HW131640   1.469   1.923  11.225  0.3309 -1.0014  1.7484
 6726SOL    HW231641   1.543   1.861  11.114 -0.0284  2.7265 -0.4874
 6727SOL     OW31642   3.505   1.215   9.048  0.4708  0.4170  0.1162
 6727SOL    HW131643   3.415   1.217   9.014  0.5929  0.3186 -0.2228
 6727SOL    HW231644   3.538   1.296   9.009 -0.3241  0.2166 -0.9838
 6728SOL     OW31645   0.418   1.733  15.564 -0.5524  0.1784 -0.9706
 6728SOL    HW131646   0.498   1.709  15.518 -0.4505  0.4376 -0.9283
 6728SOL    HW231647   0.398   1.643  15.590 -0.5812 -0.3272 -2.7873
 6729SOL     OW31648   2.535   0.946   8.315 -0.3339 -0.3162 -0.3184
 6729SOL    HW131649   2.492   0.969   8.397  0.5797 -0.0637  0.0966
 6729SOL    HW231650   2.469   0.965   8.250  1.7753  1.8715 -1.8220
 6730SOL     OW31651   0.510   2.496   4.178 -0.1474  0.2609 -0.4532
 6730SOL    HW131652   0.423   2.489   4.139  1.2841  1.2338 -3.8106
 6730SOL    HW231653   0.500   2.470   4.270  3.5053 -1.5514 -0.5643
 6731SOL     OW31654   0.207   1.683  11.426  0.4572 -0.7020  0.0200
 6731SOL    HW131655   0.224   1.626  11.501  2.1637  0.2235  0.3417
 6731SOL    HW231656   0.131   1.649  11.378 -1.0009  1.6575  0.6294
 6732SOL     OW31657   1.593   0.344   3.823 -0.4555  1.0636  0.3026
 6732SOL    HW131658   1.568   0.405   3.755 -0.1747 -1.8115 -2.3757
 6732SOL    HW231659   1.552   0.389   3.897  0.0528  1.0892  0.5689
 6733SOL     OW31660   1.904   0.663  11.465 -0.2984  0.1264  0.1323
 6733SOL    HW131661   1.920   0.641  11.373 -1.9722 -6.4233  1.4086
 6733SOL    HW231662   1.840   0.598  11.495 -0.9245  1.5240  1.8193
 6734SOL     OW31663   1.851   4.061  11.939 -0.4459 -0.4654 -0.0308
 6734SOL    HW131664   1.929   4.083  11.890 -1.5404  2.2360 -0.5345
 6734SOL    HW231665   1.798   4.141  11.936  0.5836  0.1283 -1.7957
 6735SOL     OW31666   3.694   3.468  16.653 -0.0295 -0.3883 -0.1929
 6735SOL    HW131667   3.737   3.418  16.584 -0.6166 -0.2545 -0.6615
 6735SOL    HW231668   3.646   3.538  16.608 -1.9527 -0.8360  1.1979
 6736SOL     OW31669   3.434   1.583   4.919  0.1880 -0.6395  0.6667
 6736SOL    HW131670   3.425   1.618   4.830  0.8531  2.1608  1.7137
 6736SOL    HW231671   3.505   1.520   4.906 -0.2948 -1.1551  0.4940
 6737SOL     OW31672   3.439   4.144   0.216  0.0444 -0.0549  0.4418
 6737SOL    HW131673   3.531   4.172   0.220  0.6636 -1.9402 -0.5877
 6737SOL    HW231674   3.437   4.073   0.152 -1.4533 -0.0514  0.4977
 6738SOL     OW31675   3.061   1.350   1.763 -0.4754  0.2139  0.1423
 6738SOL    HW131676   2.969   1.327   1.753  0.2802 -2.3625 -0.9618
 6738SOL    HW231677   3.056   1.428   1.818  0.5692  0.6315 -0.3439
 6739SOL     OW31678   0.943   4.594  10.622 -0.0563 -0.3695  0.0649
 6739SOL    HW131679   0.987   4.512  10.601  0.3981  0.2187 -1.2915
 6739SOL    HW231680   1.013   4.659  10.630 -0.9946  0.7092 -0.3761
 6740SOL     OW31681   3.045   4.691   5.675 -0.0968  0.0644 -0.1202
 6740SOL    HW131682   3.088   4.623   5.623 -1.9709 -0.6466 -0.7227
 6740SOL    HW231683   3.035   4.648   5.759 -0.3345 -1.2902 -0.8508
 6741SOL     OW31684   1.871   2.432  15.706  0.0018 -0.0648 -0.5792
 6741SOL    HW131685   1.818   2.429  15.627  0.7864 -0.2375 -1.0958
 6741SOL    HW231686   1.838   2.356  15.753 -0.1549 -0.4523 -1.3130
 6742SOL     OW31687   4.225   2.978   6.316 -0.1236 -0.0169  0.8082
 6742SOL    HW131688   4.193   2.897   6.356 -1.8392 -0.7381 -1.9980
 6742SOL    HW231689   4.314   2.984   6.350  0.1495 -2.6752  0.5700
 6743SOL     OW31690   3.439   3.914   6.061 -0.2350 -0.2728  0.0333
 6743SOL    HW131691   3.383   3.911   6.138 -1.3942 -0.6143 -0.8150
 6743SOL    HW231692   3.522   3.932   6.105 -0.2330  1.8709 -0.8365
 6744SOL     OW31693   2.473   3.520  15.354  0.0581 -0.7357 -0.0020
 6744SOL    HW131694   2.456   3.459  15.282  1.1638 -0.9037 -0.1243
 6744SOL    HW231695   2.397   3.501  15.408 -0.4406 -1.7273 -1.0534
 6745SOL     OW31696   1.939   1.847   8.064 -1.0694  0.0044 -0.3246
 6745SOL    HW131697   1.857   1.798   8.061  0.0148 -1.8360  0.2239
 6745SOL    HW231698   1.984   1.815   7.986  0.3900 -0.9587  0.9204
 6746SOL     OW31699   3.259   0.026   7.471  0.3889 -0.4628  0.0033
 6746SOL    HW131700   3.307   0.003   7.550 -1.9057  0.4080  1.6461
 6746SOL    HW231701   3.228   0.116   7.484 -0.0389 -0.5663 -0.2624
 6747SOL     OW31702   1.837   1.961  11.280  0.3792 -0.7005  0.4784
 6747SOL    HW131703   1.765   1.925  11.228  1.3435 -0.1822 -1.2234
 6747SOL    HW231704   1.907   1.957  11.214  0.3207  2.2529  0.2375
 6748SOL     OW31705   2.104   3.923  16.034  0.3121  0.0526 -0.1525
 6748SOL    HW131706   2.095   4.011  15.998 -0.9369  0.0391  0.1564
 6748SOL    HW231707   2.195   3.929  16.065  0.8100 -3.4027 -1.0419
 6749SOL     OW31708   3.100   0.615   3.430  0.5991  0.4339  0.6116
 6749SOL    HW131709   3.146   0.612   3.514  0.8705 -2.3287  0.3473
 6749SOL    HW231710   3.019   0.569   3.450  1.6577 -2.0507 -0.8589
 6750SOL     OW31711   0.158   2.803  14.538  0.2673  0.1485 -0.0746
 6750SOL    HW131712   0.135   2.818  14.447  1.8862 -1.0965 -0.6778
 6750SOL    HW231713   0.248   2.774  14.524  0.3042  0.8276 -1.1994
 6751SOL     OW31714   1.023   1.900  13.528  0.2330 -0.1063 -0.6641
 6751SOL    HW131715   1.021   1.942  13.615 -0.5209  0.7576 -1.0898
 6751SOL    HW231716   1.103   1.936  13.489 -0.3689  0.6000 -1.2535
 6752SOL     OW31717   0.982   4.536   5.577  0.0892 -0.3504  0.5755
 6752SOL    HW131718   0.898   4.564   5.615 -0.8335 -0.4762 -1.3585
 6752SOL    HW231719   1.004   4.450   5.611 -0.0293 -0.1658  1.1110
 6753SOL     OW31720   2.727   3.199   7.041 -0.1213 -0.1150 -0.1224
 6753SOL    HW131721   2.747   3.148   7.120 -3.5170 -1.6571 -0.2688
 6753SOL    HW231722   2.814   3.229   7.015  0.1446 -0.3651  0.4644
 6754SOL     OW31723   1.785   1.811   5.657 -0.4979  0.1441 -0.6476
 6754SOL    HW131724   1.872   1.823   5.696  0.6802 -1.4494 -2.8037
 6754SOL    HW231725   1.801   1.773   5.571 -0.1598  0.7836 -0.8636
 6755SOL     OW31726   3.683   2.996   8.254 -0.1381 -0.3917  0.1305
 6755SOL    HW131727   3.724   2.958   8.331  1.3502 -0.1849 -0.5614
 6755SOL    HW231728   3.689   3.091   8.269 -1.2826 -0.7316  2.8455
 6756SOL     OW31729   0.782   0.683   6.428  0.4510  0.2194  0.4685
 6756SOL    HW131730   0.865   0.729   6.437 -0.9661  3.4368 -2.8982
 6756SOL    HW231731   0.793   0.622   6.501  4.0231  1.4872  0.9733
 6757SOL     OW31732   1.903   1.530   4.610 -0.1549  0.1472  0.1723
 6757SOL    HW131733   1.998   1.531   4.599 -0.4716 -0.1521 -2.6771
 6757SOL    HW231734   1.895   1.607   4.666  2.8293 -0.5632  1.5650
 6758SOL     OW31735   0.127   1.709   2.894  0.0467  0.0115  0.1415
 6758SOL    HW131736   0.037   1.731   2.869  0.7305  1.0815 -1.3534
 6758SOL    HW231737   0.179   1.737   2.818  0.8543 -0.8399  0.3869
 6759SOL     OW31738   3.367   2.143   3.572 -0.3302  0.3052 -0.7868
 6759SOL    HW131739   3.416   2.173   3.649 -0.0167  0.8367 -1.1959
 6759SOL    HW231740   3.389   2.050   3.564 -0.9549  0.1991 -1.1616
 6760SOL     OW31741   0.138   0.405   3.781 -0.3337 -0.1642 -0.0266
 6760SOL    HW131742   0.102   0.449   3.858  2.3626  1.3279  0.3727
 6760SOL    HW231743   0.060   0.393   3.726 -1.3614  0.1206  1.3568
 6761SOL     OW31744   1.106   1.018  10.681 -0.2858  0.1309  0.1188
 6761SOL    HW131745   1.116   1.088  10.616 -1.3344 -1.2139 -1.5129
 6761SOL    HW231746   1.012   1.001  10.681 -0.4171  0.8875 -0.0402
 6762SOL     OW31747   2.132   2.963   6.811 -0.1565 -0.1550 -0.0348
 6762SOL    HW131748   2.206   3.015   6.779  0.2767 -1.3036 -0.8787
 6762SOL    HW231749   2.128   2.882   6.760 -0.9203  0.8084 -1.4999
 6763SOL     OW31750   2.589   3.111   9.342  0.0985  0.9670  0.5240
 6763SOL    HW131751   2.659   3.174   9.324  1.4140 -0.1182  1.8924
 6763SOL    HW231752   2.619   3.031   9.298  2.0757  0.7782  2.2901
 6764SOL     OW31753   3.066   2.833   3.319  0.2780 -0.2221  0.2683
 6764SOL    HW131754   2.986   2.782   3.314 -0.8433  1.4990  0.4977
 6764SOL    HW231755   3.062   2.852   3.412  2.1091  0.2505  0.2564
 6765SOL     OW31756   2.502   1.327  16.200 -0.6303  0.2147  1.1605
 6765SOL    HW131757   2.476   1.408  16.244  2.5402 -0.1066  3.6008
 6765SOL    HW231758   2.480   1.357  16.111  0.3211 -0.8233  0.5835
 6766SOL     OW31759   4.116   1.800   9.409 -0.6976  0.1125 -0.4879
 6766SOL    HW131760   4.113   1.716   9.365  0.9259  1.4770 -3.2296
 6766SOL    HW231761   4.172   1.767   9.479 -1.3725  1.9170  0.9137
 6767SOL     OW31762   4.714   2.993   5.816  0.1838 -0.0009 -1.0789
 6767SOL    HW131763   4.714   2.949   5.901 -1.3431 -0.4915 -1.3222
 6767SOL    HW231764   0.085   3.007   5.813 -0.0266  1.9179  0.6559
 6768SOL     OW31765   4.324   3.503   8.772  0.0565  0.1343  0.1339
 6768SOL    HW131766   4.278   3.465   8.847 -1.3064  1.3056 -0.1094
 6768SOL    HW231767   4.397   3.546   8.816  0.5695 -0.2645 -0.3341
 6769SOL     OW31768   2.113   4.264   7.473  0.1249  0.0319 -0.0551
 6769SOL    HW131769   2.144   4.247   7.384 -2.7470 -3.2429 -0.4518
 6769SOL    HW231770   2.018   4.256   7.463  0.1159  1.5227 -1.3295
 6770SOL     OW31771   3.691   3.021   6.063 -0.0175  0.0513  0.8318
 6770SOL    HW131772   3.755   3.000   5.996 -0.0788  2.1274  0.1218
 6770SOL    HW231773   3.652   2.935   6.078 -0.4071  0.3972  1.8002
 6771SOL     OW31774   0.586   1.672   8.803  0.5364  0.2022  0.3448
 6771SOL    HW131775   0.514   1.704   8.856 -0.1084  0.3659 -0.6310
 6771SOL    HW231776   0.540   1.642   8.725  1.5664 -1.2324  0.2764
 6772SOL     OW31777   4.430   1.939   5.652  0.4232 -0.1476  0.1574
 6772SOL    HW131778   4.345   1.919   5.692  0.6891  1.5761  1.5632
 6772SOL    HW231779   4.495   1.899   5.710  0.5748 -0.2721 -0.0973
 6773SOL     OW31780   0.312   3.806   3.674 -0.1203  0.1794  0.3110
 6773SOL    HW131781   0.390   3.855   3.649  0.1682 -0.9686 -1.0148
 6773SOL    HW231782   0.350   3.732   3.722  1.0331  0.0660 -0.7740
 6774SOL     OW31783   3.273   2.841   6.833 -0.1895 -0.0112  0.3130
 6774SOL    HW131784   3.303   2.884   6.913 -3.3065  1.0966  0.8706
 6774SOL    HW231785   3.303   2.894   6.759 -0.6468  1.1637  0.9635
 6775SOL     OW31786   3.665   1.233   2.863 -0.1615  0.2963 -0.0257
 6775SOL    HW131787   3.665   1.141   2.837 -1.8398 -0.1514  1.5071
 6775SOL    HW231788   3.633   1.237   2.953 -0.5435 -1.0849 -0.0990
 6776SOL     OW31789   3.506   3.256   0.259  0.4299 -0.1488 -0.4952
 6776SOL    HW131790   3.427   3.291   0.220  0.0043 -0.3893  0.1421
 6776SOL    HW231791   3.530   3.182   0.204 -0.3162 -0.0818 -0.8964
 6777SOL     OW31792   3.791   2.207  14.444  0.0929  0.0478 -0.5008
 6777SOL    HW131793   3.840   2.248  14.516  0.1214  0.1050 -0.5528
 6777SOL    HW231794   3.753   2.288  14.409 -1.5291 -0.0600  0.9646
 6778SOL     OW31795   0.897   0.992   9.171 -0.3184 -0.5473  0.1105
 6778SOL    HW131796   0.986   0.961   9.185 -0.0880  0.2033  0.2692
 6778SOL    HW231797   0.838   0.918   9.152 -0.7673 -0.2862  0.4808
 6779SOL     OW31798   2.875   2.262   3.710 -0.3351 -0.1351 -0.8119
 6779SOL    HW131799   2.817   2.192   3.680 -0.0679 -0.7809  0.1659
 6779SOL    HW231800   2.953   2.226   3.669 -0.2722 -0.6823 -0.2155
 6780SOL     OW31801   1.874   4.157   6.821 -0.0023 -0.6425  0.1008
 6780SOL    HW131802   1.845   4.123   6.737  0.3216  0.5658 -0.4991
 6780SOL    HW231803   1.926   4.082   6.850  1.4731  0.5167  0.4911
 6781SOL     OW31804   4.140   2.294   3.623 -0.0643 -0.1050 -0.6165
 6781SOL    HW131805   4.189   2.308   3.542  1.4895 -1.0519  0.1596
 6781SOL    HW231806   4.204   2.249   3.678  3.5103  2.8674 -2.3364
 6782SOL     OW31807   3.966   2.544   6.594 -0.1263 -0.2515 -0.1036
 6782SOL    HW131808   3.973   2.593   6.512 -1.0914 -1.7302 -1.0761
 6782SOL    HW231809   3.971   2.452   6.569  0.9120 -0.8921  2.4717
 6783SOL     OW31810   3.733   0.835   9.237  0.0789 -0.0770  0.3037
 6783SOL    HW131811   3.730   0.833   9.333 -2.6771  4.0319  0.3149
 6783SOL    HW231812   3.687   0.918   9.227 -0.5132 -0.3026  1.1359
 6784SOL     OW31813   1.494   4.107  16.940 -0.1273  0.4686  0.1595
 6784SOL    HW131814   1.498   4.159  16.859 -0.9327 -0.4456 -0.4748
 6784SOL    HW231815   1.400   4.115  16.955 -0.0029  0.9484  0.6531
 6785SOL     OW31816   3.555   1.044   9.316 -0.2829  0.5828  0.3688
 6785SOL    HW131817   3.490   0.985   9.355  0.0639 -0.4581 -0.6291
 6785SOL    HW231818   3.510   1.070   9.235  0.4188 -1.9115 -0.8097
 6786SOL     OW31819   1.016   1.088   8.394  0.0199  0.2419  0.5307
 6786SOL    HW131820   1.037   1.164   8.339  1.0601  0.3552  1.0836
 6786SOL    HW231821   1.095   1.056   8.436 -0.1545 -1.6197 -0.5739
 6787SOL     OW31822   4.497   1.360   8.742  0.1861 -0.2035 -0.0617
 6787SOL    HW131823   4.442   1.308   8.684  2.1718 -0.8352 -1.3906
 6787SOL    HW231824   4.569   1.375   8.681  0.2026  0.7321  0.1880
 6788SOL     OW31825   3.825   2.724   3.064 -0.3414 -0.5279  1.1778
 6788SOL    HW131826   3.738   2.755   3.039 -0.1448 -0.5235  0.4908
 6788SOL    HW231827   3.807   2.682   3.148 -3.1362 -0.7992  0.4643
 6789SOL     OW31828   2.609   3.721   3.606  0.1700 -0.1241  0.1555
 6789SOL    HW131829   2.565   3.643   3.642  0.8504 -0.0174  1.2248
 6789SOL    HW231830   2.588   3.709   3.514 -0.0712  0.5749  0.1202
 6790SOL     OW31831   2.253   1.258   8.234 -0.1269 -0.1419  0.0894
 6790SOL    HW131832   2.244   1.211   8.151 -0.2827  0.2702 -0.1312
 6790SOL    HW231833   2.180   1.320   8.234  0.6992  0.8441  0.6520
 6791SOL     OW31834   2.320   4.027   5.588  0.6999 -0.0447 -0.0863
 6791SOL    HW131835   2.334   4.063   5.675 -0.7416 -3.1934  1.4123
 6791SOL    HW231836   2.389   3.963   5.572  0.6581  0.2975 -1.6541
 6792SOL     OW31837   1.684   2.679   3.061 -0.0310 -0.2677 -0.5846
 6792SOL    HW131838   1.626   2.621   3.012 -3.4378  2.6714 -0.0624
 6792SOL    HW231839   1.727   2.608   3.108 -0.7520 -0.1367  0.2679
 6793SOL     OW31840   0.166   0.230  16.712  0.3019  0.4779  0.2486
 6793SOL    HW131841   0.242   0.267  16.757  1.0176 -0.6221 -0.0495
 6793SOL    HW231842   0.092   0.244  16.771  0.2074 -2.1861  0.7587
 6794SOL     OW31843   4.392   0.222   0.271 -0.1851 -0.4981  0.0139
 6794SOL    HW131844   4.460   0.284   0.298  0.4189 -0.8290 -0.7550
 6794SOL    HW231845   4.420   0.142   0.314  0.8070 -0.2084 -0.0907
 6795SOL     OW31846   3.104   3.456  10.274 -0.5548  0.4037  0.1337
 6795SOL    HW131847   3.085   3.378  10.223 -1.1188  0.4713  0.2368
 6795SOL    HW231848   3.147   3.413  10.348  2.7947  0.9680 -1.4924
 6796SOL     OW31849   4.194   4.480   7.556  0.1451 -0.1293 -0.1833
 6796SOL    HW131850   4.196   4.456   7.649 -0.5731 -0.4961 -0.2680
 6796SOL    HW231851   4.103   4.506   7.541  0.5795  1.9564  0.6823
 6797SOL     OW31852   3.395   1.017   2.370  0.9432 -0.2928 -0.0402
 6797SOL    HW131853   3.422   1.042   2.281 -0.8519 -0.9400 -0.7774
 6797SOL    HW231854   3.317   0.963   2.354  1.4869 -1.5404  1.5186
 6798SOL     OW31855   3.764   0.796  12.392  0.1898 -0.1918 -0.2814
 6798SOL    HW131856   3.698   0.840  12.445  0.4420  0.8990 -0.8782
 6798SOL    HW231857   3.826   0.778  12.463 -0.4799  0.5800  0.5061
 6799SOL     OW31858   1.136   0.084   1.972 -0.6743 -0.2614 -0.1343
 6799SOL    HW131859   1.143   0.165   2.023  1.0255 -0.8735  0.5968
 6799SOL    HW231860   1.062   0.105   1.915 -0.3697 -1.8531 -1.0976
 6800SOL     OW31861   2.607   1.236   5.342  0.1379  0.0548  0.1576
 6800SOL    HW131862   2.618   1.300   5.271  0.0651  0.4809  0.5362
 6800SOL    HW231863   2.543   1.182   5.294 -1.8228  1.4062  1.2891
 6801SOL     OW31864   1.177   3.415  13.120 -0.0775  0.1778 -0.0199
 6801SOL    HW131865   1.207   3.364  13.044 -0.2720  1.0211 -0.6685
 6801SOL    HW231866   1.097   3.373  13.150 -0.1439  0.8417  0.7383
 6802SOL     OW31867   0.202   0.515  16.747 -0.5304  0.9079 -0.1608
 6802SOL    HW131868   0.241   0.511  16.660  0.2570  2.7082  0.1184
 6802SOL    HW231869   0.128   0.453  16.747 -0.5683  0.9750  4.3066
 6803SOL     OW31870   4.347   2.910   2.913  0.0080 -0.4173  0.2580
 6803SOL    HW131871   4.381   2.878   2.829  0.0472  0.8645 -0.2002
 6803SOL    HW231872   4.345   3.004   2.896 -2.4531 -0.6716 -0.8721
 6804SOL     OW31873   3.239   2.520   7.412 -0.0210 -0.3060 -0.2021
 6804SOL    HW131874   3.308   2.464   7.447  0.7939 -0.3226 -1.7945
 6804SOL    HW231875   3.159   2.477   7.441 -0.4237  1.3944  1.1682
 6805SOL     OW31876   4.551   3.902   5.286 -0.2970 -0.0797  0.7605
 6805SOL    HW131877   4.616   3.957   5.328 -1.2010  2.2694 -0.9281
 6805SOL    HW231878   4.524   3.843   5.356 -1.7934 -1.1359 -0.6958
 6806SOL     OW31879   4.203   1.464   2.969  0.2179 -0.2117 -0.0790
 6806SOL    HW131880   4.154   1.540   3.001 -2.1380 -1.9334  0.4223
 6806SOL    HW231881   4.144   1.407   2.919 -1.0348 -1.3746  2.7358
 6807SOL     OW31882   1.409   1.316  12.809 -0.2939  0.0918 -0.5754
 6807SOL    HW131883   1.338   1.305  12.872  0.5218 -2.8986 -0.2024
 6807SOL    HW231884   1.439   1.230  12.781 -0.7411  0.4221 -2.0813
 6808SOL     OW31885   2.825   4.002  10.719  0.1885 -0.1125  0.4899
 6808SOL    HW131886   2.787   3.991  10.806  0.0297  0.6750  0.5249
 6808SOL    HW231887   2.772   4.072  10.681 -1.1394 -1.1810  0.3784
 6809SOL     OW31888   1.068   0.137   8.288  0.1614 -0.6154  0.4986
 6809SOL    HW131889   1.156   0.102   8.281 -0.4006 -2.2157  1.5910
 6809SOL    HW231890   1.049   0.158   8.380  0.1689 -0.2328  0.4160
 6810SOL     OW31891   0.184   0.640   3.081 -0.1204  0.1429 -0.1618
 6810SOL    HW131892   0.215   0.717   3.128  1.2578 -2.3554  2.9879
 6810SOL    HW231893   0.141   0.684   3.007 -0.7322  1.0687  0.7515
 6811SOL     OW31894   0.027   3.128   2.036  0.2421 -0.0272 -0.5676
 6811SOL    HW131895   0.116   3.113   2.068  0.2884  0.9381 -0.2216
 6811SOL    HW231896   0.017   3.221   2.055  2.2725  0.2968 -1.0503
 6812SOL     OW31897   2.947   1.275   8.638 -0.5246 -0.0334  0.7165
 6812SOL    HW131898   2.926   1.354   8.687  1.6746  1.8348 -1.3802
 6812SOL    HW231899   2.872   1.218   8.657 -0.5151 -0.5073 -0.6293
 6813SOL     OW31900   3.453   1.705  10.402  0.6533  0.2181 -0.0107
 6813SOL    HW131901   3.449   1.801  10.397  1.7625  0.2632 -0.1537
 6813SOL    HW231902   3.548   1.699  10.419  0.4579 -1.4075  0.4947
 6814SOL     OW31903   2.924   4.083   7.244 -0.6458 -0.1113  0.2101
 6814SOL    HW131904   2.942   4.147   7.176 -0.1661  0.5859  0.9938
 6814SOL    HW231905   2.830   4.066   7.238 -0.8344  0.6032  1.1494
 6815SOL     OW31906   2.469   3.382   3.302 -0.5733  0.1985  0.6259
 6815SOL    HW131907   2.376   3.369   3.322 -0.8458 -0.5303 -1.0495
 6815SOL    HW231908   2.467   3.345   3.213  1.8327 -2.7079  1.7929
 6816SOL     OW31909   0.347   0.069   1.229 -0.0496 -0.3008 -0.1977
 6816SOL    HW131910   0.364   0.038   1.318 -1.2522  1.0556  0.4993
 6816SOL    HW231911   0.257   0.100   1.240 -0.3714 -0.9555 -0.9763
 6817SOL     OW31912   3.196   1.335   4.741  0.4478  0.4095 -0.1479
 6817SOL    HW131913   3.276   1.284   4.752 -0.0528 -1.0955 -3.5180
 6817SOL    HW231914   3.176   1.345   4.835 -0.6024 -4.8107  0.1928
 6818SOL     OW31915   4.461   3.419   2.529 -0.1640 -0.3079  0.0489
 6818SOL    HW131916   4.450   3.487   2.463  1.7541 -0.9880 -0.9661
 6818SOL    HW231917   4.393   3.444   2.591 -0.9677  0.0431 -0.9844
 6819SOL     OW31918   4.262   1.718   5.488  0.2279 -0.2080  0.9052
 6819SOL    HW131919   4.259   1.781   5.416  0.9949  0.5045  1.4894
 6819SOL    HW231920   4.354   1.695   5.481  0.0046 -1.3897  1.8836
 6820SOL     OW31921   0.840   3.468   1.702  0.0070  0.1679 -0.5734
 6820SOL    HW131922   0.814   3.415   1.777 -0.3858 -0.1609 -0.9397
 6820SOL    HW231923   0.857   3.403   1.634  1.4488 -1.5569  1.4839
 6821SOL     OW31924   1.273   4.437  14.183 -0.2949  0.0663 -0.3689
 6821SOL    HW131925   1.226   4.516  14.210  2.8120  1.2323  1.7033
 6821SOL    HW231926   1.204   4.372  14.190  0.3257 -0.2411  2.7211
 6822SOL     OW31927   3.596   1.669   5.192 -0.6953  0.1705  0.6432
 6822SOL    HW131928   3.561   1.704   5.111 -1.2226 -0.3244  0.6557
 6822SOL    HW231929   3.523   1.672   5.254 -0.8684 -0.4277  0.4668
 6823SOL     OW31930   1.222   3.174   5.033  0.1233 -0.5243  0.3500
 6823SOL    HW131931   1.146   3.212   5.077  1.3712 -0.1124  2.1585
 6823SOL    HW231932   1.237   3.227   4.955  0.3185 -1.4319 -0.2384
 6824SOL     OW31933   1.481   0.611   7.409 -0.0302 -0.5347  0.0505
 6824SOL    HW131934   1.410   0.590   7.469  0.1493  1.5674  1.0034
 6824SOL    HW231935   1.459   0.704   7.398  1.1502 -0.0117  2.1824
 6825SOL     OW31936   1.531   0.162  14.373  1.0189 -0.3799 -0.2862
 6825SOL    HW131937   1.547   0.128  14.461 -2.2180  2.8463  1.5639
 6825SOL    HW231938   1.621   0.171  14.341  1.2523 -1.7485 -0.0046
 6826SOL     OW31939   1.920   1.118   3.279 -0.3857  0.1042 -0.0286
 6826SOL    HW131940   1.967   1.171   3.343  0.5758 -3.4204  2.1771
 6826SOL    HW231941   1.852   1.181   3.255  1.9881  1.9059 -2.0221
 6827SOL     OW31942   0.692   3.472  10.948 -0.6312 -0.9373  0.0028
 6827SOL    HW131943   0.723   3.395  10.995  0.4172 -0.6606 -0.2357
 6827SOL    HW231944   0.604   3.449  10.919 -0.1536 -1.1795 -1.2463
 6828SOL     OW31945   4.645   0.927  14.179 -0.1450 -0.2926  1.1105
 6828SOL    HW131946   4.716   0.920  14.114  0.9507  0.6693  2.2001
 6828SOL    HW231947   4.594   0.997  14.137 -0.4429 -0.2327  1.5688
 6829SOL     OW31948   0.017   1.059   5.881 -0.4775 -1.0117 -0.1485
 6829SOL    HW131949   0.072   1.041   5.805 -1.2778  0.2233 -1.0244
 6829SOL    HW231950   4.661   1.091   5.839  0.7555  1.9659 -0.1789
 6830SOL     OW31951   1.874   2.833   2.944 -0.3515 -0.2805  0.6257
 6830SOL    HW131952   1.791   2.803   2.981 -0.6563  0.7488  0.7629
 6830SOL    HW231953   1.848   2.908   2.891  1.0211 -1.4957 -1.7735
 6831SOL     OW31954   4.517   3.549   5.088  0.4698  0.0180  0.4963
 6831SOL    HW131955   4.521   3.457   5.112  0.7306 -0.0317  0.2643
 6831SOL    HW231956   4.423   3.563   5.093  0.2801 -1.1770  0.2967
 6832SOL     OW31957   2.337   0.739   5.665 -0.8660 -0.5047  0.1384
 6832SOL    HW131958   2.367   0.679   5.597  0.9407  0.4231  0.1199
 6832SOL    HW231959   2.265   0.784   5.623 -0.0522  0.6481 -0.0229
 6833SOL     OW31960   1.281   0.956  10.872  0.2594  0.0255  0.4015
 6833SOL    HW131961   1.300   1.037  10.921 -0.6457  0.3070  0.3049
 6833SOL    HW231962   1.206   0.985  10.819  1.2308 -0.6077 -1.2909
 6834SOL     OW31963   3.723   0.645   8.287 -0.0005  0.0327 -0.6801
 6834SOL    HW131964   3.727   0.624   8.194  0.5854  0.4005 -0.7365
 6834SOL    HW231965   3.653   0.708   8.275  0.4069  0.6992  0.3869
 6835SOL     OW31966   1.776   4.434   9.351 -0.2572  0.3986 -0.2509
 6835SOL    HW131967   1.872   4.425   9.348 -0.5191 -1.5443 -2.2381
 6835SOL    HW231968   1.766   4.430   9.447  0.2949  1.5864 -0.1430
 6836SOL     OW31969   0.958   0.754   8.921 -0.6518 -0.0663 -0.7385
 6836SOL    HW131970   0.898   0.699   8.872 -0.0629 -1.3658  0.0068
 6836SOL    HW231971   0.989   0.823   8.861 -2.4190  1.8010  0.4868
 6837SOL     OW31972   0.171   0.540   1.879 -0.2440 -0.5671 -0.1001
 6837SOL    HW131973   0.124   0.581   1.806  0.4408  0.6926  0.1733
 6837SOL    HW231974   0.257   0.580   1.883 -1.7686  2.7476 -0.6345
 6838SOL     OW31975   1.207   4.540   2.021  0.5671  0.3804 -0.5263
 6838SOL    HW131976   1.213   4.635   2.022 -0.8461  0.4640  0.3118
 6838SOL    HW231977   1.113   4.528   2.004  0.6206  0.0173 -0.5811
 6839SOL     OW31978   0.744   2.974   6.007  0.4710 -0.3875 -0.6865
 6839SOL    HW131979   0.771   2.960   5.916 -1.4955  3.5467 -1.8698
 6839SOL    HW231980   0.651   2.989   5.992  0.2191 -0.2924  1.0533
 6840SOL     OW31981   1.598   1.124   6.042  0.2561  0.0727 -0.2100
 6840SOL    HW131982   1.655   1.048   6.053 -0.1138 -0.4996 -2.3604
 6840SOL    HW231983   1.605   1.175   6.123 -1.2732 -0.5179  0.2888
 6841SOL     OW31984   3.194   4.374  11.987  0.1620  0.5987 -0.1422
 6841SOL    HW131985   3.171   4.413  11.902 -0.4513  0.6121  0.0333
 6841SOL    HW231986   3.283   4.407  11.999  1.3527 -2.5715 -0.0996
 6842SOL     OW31987   0.902   2.642   7.939  0.0936 -0.0603 -0.3438
 6842SOL    HW131988   0.904   2.640   7.843  1.4748 -1.0422 -0.2903
 6842SOL    HW231989   0.984   2.683   7.966 -0.5259  1.4743 -0.7843
 6843SOL     OW31990   2.631   2.435  17.663  0.4810  0.2360 -0.2040
 6843SOL    HW131991   2.601   2.355   0.007 -2.1063  1.3444  0.0488
 6843SOL    HW231992   2.551   2.488  17.666  0.1504 -0.2053 -1.1421
 6844SOL     OW31993   2.072   4.317   8.109 -0.3231 -0.0706 -0.3573
 6844SOL    HW131994   2.128   4.250   8.150 -2.0272  0.4841  2.8700
 6844SOL    HW231995   2.101   4.304   8.019  0.7495 -1.8838  0.2404
 6845SOL     OW31996   1.921   2.242   5.100  0.2240 -0.3086 -0.0662
 6845SOL    HW131997   2.007   2.283   5.091 -0.0949  0.4412  0.2692
 6845SOL    HW231998   1.867   2.312   5.136 -1.0813 -0.9138 -0.8105
 6846SOL     OW31999   1.399   3.501  14.943  0.8787  0.2219 -0.2390
 6846SOL    HW132000   1.383   3.482  14.850  1.6109 -0.8467 -0.1480
 6846SOL    HW232001   1.439   3.588  14.938 -0.3063  0.7526 -0.3832
 6847SOL     OW32002   2.072   0.385   3.313  0.0204  0.7340 -0.0305
 6847SOL    HW132003   2.102   0.297   3.337 -1.2827  0.3627  0.2561
 6847SOL    HW232004   2.010   0.399   3.384 -1.8051 -0.2488 -1.4446
 6848SOL     OW32005   1.031   2.032   1.482 -0.2718 -0.4360  0.1797
 6848SOL    HW132006   1.019   2.050   1.389  0.9913  0.5569  0.2065
 6848SOL    HW232007   1.088   1.955   1.486 -0.6544 -0.7461 -0.3871
 6849SOL     OW32008   0.910   1.081  16.939  0.3359  0.1277  0.2759
 6849SOL    HW132009   0.911   1.171  16.905  1.2860  0.7753  2.0249
 6849SOL    HW232010   0.823   1.056  16.909  0.2341 -0.1149  0.7730
 6850SOL     OW32011   0.177   4.446  12.344  0.2802 -0.4898  0.1685
 6850SOL    HW132012   0.245   4.424  12.407  0.1826 -2.5000 -0.4415
 6850SOL    HW232013   0.120   4.369  12.338  0.6674 -0.6962 -0.7538
 6851SOL     OW32014   1.959   4.048  10.679  0.1658 -0.2070 -0.1717
 6851SOL    HW132015   1.876   4.065  10.724  1.7592  0.9842  2.2865
 6851SOL    HW232016   1.942   4.090  10.594 -0.7199 -0.2023  0.0092
 6852SOL     OW32017   1.606   2.276   1.291  0.8368  0.0445 -0.5811
 6852SOL    HW132018   1.579   2.241   1.376 -1.2800  1.2261 -0.7670
 6852SOL    HW232019   1.536   2.339   1.276  2.0278  1.4354 -0.3731
 6853SOL     OW32020   2.936   2.808  14.618  0.0992 -0.0389  0.2109
 6853SOL    HW132021   3.030   2.825  14.618  0.1376 -0.2497  0.4798
 6853SOL    HW232022   2.930   2.817  14.713 -2.1852 -1.2985  0.1837
 6854SOL     OW32023   3.589   0.810   7.523 -0.2785  0.0994 -0.1441
 6854SOL    HW132024   3.574   0.742   7.457 -1.7485 -0.9706  1.2799
 6854SOL    HW232025   3.579   0.764   7.606 -0.2990  1.5668  0.6585
 6855SOL     OW32026   1.188   3.791   5.192 -0.3533  0.2837  0.8421
 6855SOL    HW132027   1.161   3.756   5.107  1.4238  1.2926 -0.1545
 6855SOL    HW232028   1.176   3.885   5.180 -0.9647  0.4535  2.8883
 6856SOL     OW32029   3.762   0.830   2.520  0.6806  0.0272  0.1782
 6856SOL    HW132030   3.675   0.860   2.545 -0.0342 -1.3279 -0.6694
 6856SOL    HW232031   3.808   0.909   2.547  0.6437 -1.3925  4.3462
 6857SOL     OW32032   2.907   1.577  16.275 -0.1385 -0.2392 -1.0472
 6857SOL    HW132033   2.886   1.484  16.263  2.0444 -0.8322 -0.4074
 6857SOL    HW232034   2.998   1.569  16.304 -1.0377  0.2308  1.8391
 6858SOL     OW32035   4.377   3.220   8.604 -0.0970  0.1481  0.2445
 6858SOL    HW132036   4.421   3.287   8.551  0.2542 -0.5664 -0.3530
 6858SOL    HW232037   4.314   3.277   8.649  0.5620  1.6896 -0.7779
 6859SOL     OW32038   2.254   3.271  11.230  0.0692  0.1343 -0.2236
 6859SOL    HW132039   2.182   3.208  11.237  0.0105  0.6407  3.3084
 6859SOL    HW232040   2.335   3.219  11.231 -2.0769 -3.1844 -0.4825
 6860SOL     OW32041   2.253   2.989   8.966 -0.3198  0.3291 -0.1327
 6860SOL    HW132042   2.246   3.072   9.012  0.0878 -0.8788  2.1207
 6860SOL    HW232043   2.346   2.994   8.944 -0.1284  0.0915  0.6227
 6861SOL     OW32044   1.612   3.732   8.870 -0.3942 -0.1154  0.2010
 6861SOL    HW132045   1.542   3.687   8.823  0.4566 -1.0144 -0.1857
 6861SOL    HW232046   1.593   3.697   8.958 -4.2212 -1.6542 -1.2102
 6862SOL     OW32047   0.931   4.267  17.641 -0.1519 -0.0904 -0.5923
 6862SOL    HW132048   0.957   4.309   0.025 -1.4256  1.5323 -1.0330
 6862SOL    HW232049   0.842   4.300  17.636  0.2037  0.8366 -0.7601
 6863SOL     OW32050   0.946   4.147   2.813 -0.1670 -0.2589 -0.3061
 6863SOL    HW132051   0.879   4.126   2.879  0.1661  0.6215  0.3190
 6863SOL    HW232052   1.022   4.093   2.835 -0.5922 -1.1728 -1.0827
 6864SOL     OW32053   4.094   1.692   6.634 -0.0789 -0.2800  0.1871
 6864SOL    HW132054   4.093   1.765   6.572  0.0211 -0.7361 -0.3469
 6864SOL    HW232055   4.189   1.683   6.644 -0.0737 -1.0833 -0.6251
 6865SOL     OW32056   3.455   1.501   4.474 -0.0901  0.1539  0.4762
 6865SOL    HW132057   3.487   1.414   4.450 -2.9950 -0.4863 -0.9941
 6865SOL    HW232058   3.518   1.551   4.421  0.0943 -0.5972 -0.0072
 6866SOL     OW32059   0.470   3.542   7.624 -0.5956  0.1434  0.3609
 6866SOL    HW132060   0.563   3.535   7.646 -0.9935 -2.5434  1.2199
 6866SOL    HW232061   0.458   3.459   7.577  1.5460 -1.7065  3.0761
 6867SOL     OW32062   4.077   2.200   2.635  0.1003  0.5216 -0.6562
 6867SOL    HW132063   4.030   2.280   2.610 -2.6513 -1.0116 -0.4267
 6867SOL    HW232064   4.012   2.139   2.672  0.9744 -0.2550 -0.4131
 6868SOL     OW32065   4.114   4.395  14.367  0.1150  0.1664 -0.0762
 6868SOL    HW132066   4.082   4.485  14.362 -0.7171 -0.1033  0.4653
 6868SOL    HW232067   4.078   4.379  14.454  1.0430  0.8661  0.4354
 6869SOL     OW32068   4.666   3.833   7.179  0.4947  0.4407 -0.7553
 6869SOL    HW132069   4.570   3.828   7.174  0.4393 -1.5176  2.4075
 6869SOL    HW232070   4.673   3.850   7.273  1.1152  1.6669 -1.0255
 6870SOL     OW32071   1.256   3.385  15.164 -0.7005 -0.3676  0.8414
 6870SOL    HW132072   1.198   3.461  15.158  1.1746  1.0906  0.8802
 6870SOL    HW232073   1.309   3.396  15.085 -1.8120 -0.7968  0.0448
 6871SOL     OW32074   2.062   3.566   1.239  0.5244 -0.3461 -0.2732
 6871SOL    HW132075   1.979   3.542   1.196 -0.6413  2.4035  0.4413
 6871SOL    HW232076   2.095   3.476   1.243 -0.2750 -0.7273 -2.2092
 6872SOL     OW32077   2.572   4.123  13.294 -0.1040  0.0525 -0.1561
 6872SOL    HW132078   2.533   4.206  13.265  0.2834  0.0716 -0.6203
 6872SOL    HW232079   2.666   4.136  13.283  0.4042 -0.9319  3.2071
 6873SOL     OW32080   0.821   4.153   8.781 -0.2118  0.0424 -0.1875
 6873SOL    HW132081   0.767   4.153   8.860 -1.9921 -2.7735 -1.3930
 6873SOL    HW232082   0.756   4.124   8.717 -0.3255  1.3752 -0.6762
 6874SOL     OW32083   3.178   4.472  11.754  0.3827  0.8981  0.4767
 6874SOL    HW132084   3.258   4.437  11.716  0.6121  1.0840  0.7878
 6874SOL    HW232085   3.162   4.548  11.698 -1.1895 -0.9359 -1.5561
 6875SOL     OW32086   1.247   3.582   3.938 -0.8423 -0.7044  0.2871
 6875SOL    HW132087   1.320   3.555   3.883 -0.9420  0.6030 -0.4838
 6875SOL    HW232088   1.172   3.554   3.886  0.0865 -0.7982 -0.9962
 6876SOL     OW32089   4.173   0.871   1.872 -0.1651  0.2690 -0.1935
 6876SOL    HW132090   4.224   0.922   1.936  0.9030 -1.5901  0.4228
 6876SOL    HW232091   4.124   0.817   1.934 -0.3967  2.0986  1.2224
 6877SOL     OW32092   4.002   4.661  14.389  0.7922  0.5052 -0.2442
 6877SOL    HW132093   3.914   4.660  14.427 -0.2646  1.7318 -2.6957
 6877SOL    HW232094   4.030   0.029  14.393  3.3810 -0.2907  0.2630
 6878SOL     OW32095   1.053   4.518   9.030  0.2061  0.1811  0.1325
 6878SOL    HW132096   1.012   4.451   8.976 -0.1342  1.3104 -1.0146
 6878SOL    HW232097   1.142   4.511   8.997  0.2542 -0.5004  0.4056
 6879SOL     OW32098   2.504   3.394  15.958  0.3408 -0.1012  0.0774
 6879SOL    HW132099   2.457   3.328  16.008 -0.0745 -0.1047 -0.3198
 6879SOL    HW232100   2.584   3.406  16.009  0.9638  2.4001 -1.4917
 6880SOL     OW32101   4.397   0.264   9.607 -0.2705 -0.0570 -0.2494
 6880SOL    HW132102   4.482   0.226   9.630  0.3044 -0.3937 -2.8529
 6880SOL    HW232103   4.431   0.288   9.520  0.7916  1.8335  0.6778
 6881SOL     OW32104   4.594   4.046   8.261  0.2991 -0.1200  0.6587
 6881SOL    HW132105   4.540   3.967   8.250  1.2480 -0.2170 -3.1224
 6881SOL    HW232106   4.518   4.104   8.271  1.2636  0.5557  3.9499
 6882SOL     OW32107   0.251   3.355   8.446  0.7371  0.7101  0.9081
 6882SOL    HW132108   0.230   3.415   8.517 -0.0279  2.1345 -0.5374
 6882SOL    HW232109   0.224   3.404   8.369 -1.4977 -2.9089 -0.6451
 6883SOL     OW32110   4.429   3.906  10.577  0.9724  0.2138  0.5131
 6883SOL    HW132111   4.406   3.847  10.506  0.9564  0.6855  0.1264
 6883SOL    HW232112   4.518   3.873  10.573  1.0315  0.4222  0.1626
 6884SOL     OW32113   4.156   0.408  16.859 -0.2918 -0.5410  0.7035
 6884SOL    HW132114   4.080   0.353  16.841 -1.2527  0.5214  1.4998
 6884SOL    HW232115   4.115   0.495  16.857  0.9532  0.0300 -0.1354
 6885SOL     OW32116   0.899   0.161  15.945  0.0018 -0.0982 -0.1145
 6885SOL    HW132117   0.977   0.214  15.931  0.9563 -2.0766 -2.1923
 6885SOL    HW232118   0.940   0.089  15.993  0.6017  0.4612  0.2218
 6886SOL     OW32119   0.245   2.787   6.508 -0.4013 -0.5617  0.5970
 6886SOL    HW132120   0.235   2.874   6.469  1.4210  0.4974  2.5247
 6886SOL    HW232121   0.322   2.746   6.469 -1.1084  0.0570 -1.4782
 6887SOL     OW32122   3.032   0.670   4.502 -0.1489 -0.3538 -0.1961
 6887SOL    HW132123   2.981   0.705   4.430 -0.4554 -0.7603 -0.1782
 6887SOL    HW232124   2.976   0.693   4.576 -0.3265 -2.8583  0.4514
 6888SOL     OW32125   2.607   3.464   5.447  0.4337  0.3384  0.4370
 6888SOL    HW132126   2.575   3.380   5.414 -1.7181  1.6154 -0.7155
 6888SOL    HW232127   2.649   3.444   5.531  0.4760  1.0716  0.5890
 6889SOL     OW32128   3.949   4.697   5.049 -0.1573 -0.4009  0.6959
 6889SOL    HW132129   3.974   4.605   5.039  0.0804 -0.1564 -1.0022
 6889SOL    HW232130   3.855   4.692   5.067 -0.5063 -0.5606 -1.1895
 6890SOL     OW32131   1.427   1.884   2.074 -0.0756 -0.0795  0.4764
 6890SOL    HW132132   1.467   1.896   2.160 -2.5612 -0.7806  1.7068
 6890SOL    HW232133   1.489   1.933   2.019 -0.0551 -0.9462 -0.2662
 6891SOL     OW32134   2.703   2.114   3.575 -0.0814  0.3864 -0.1056
 6891SOL    HW132135   2.711   2.142   3.484 -1.9289  1.5938  0.0979
 6891SOL    HW232136   2.697   2.020   3.559 -0.9156  0.5198 -0.6069
 6892SOL     OW32137   0.035   2.395   7.971 -0.9042  0.5540 -0.5965
 6892SOL    HW132138   4.669   2.364   7.979  0.2012 -1.9069  2.4053
 6892SOL    HW232139   0.063   2.347   8.049  1.0118  0.6570 -1.2089
 6893SOL     OW32140   0.289   2.530   9.297 -0.2965 -0.0319  0.3954
 6893SOL    HW132141   0.241   2.600   9.342  1.3024  1.8696 -0.8530
 6893SOL    HW232142   0.322   2.481   9.371 -0.0548 -0.8883 -0.2786
 6894SOL     OW32143   0.575   0.682   9.339 -0.3200 -0.4087 -0.0242
 6894SOL    HW132144   0.497   0.693   9.284  0.5682  0.0969 -1.1628
 6894SOL    HW232145   0.641   0.680   9.270  1.0759  0.8468  1.2798
 6895SOL     OW32146   2.968   0.282   4.090 -0.4003 -0.4056  0.3290
 6895SOL    HW132147   2.907   0.315   4.155 -0.6856  0.3832 -0.3387
 6895SOL    HW232148   2.906   0.250   4.025 -1.0045  1.9239 -0.2453
 6896SOL     OW32149   3.424   0.453   2.567 -0.0554  0.5598 -0.0525
 6896SOL    HW132150   3.513   0.481   2.546 -0.0305  0.6839  0.2177
 6896SOL    HW232151   3.423   0.466   2.662 -0.5134 -0.5670  0.0988
 6897SOL     OW32152   2.413   3.093  11.745 -0.2757 -0.2342 -0.1193
 6897SOL    HW132153   2.318   3.083  11.741 -0.3785  0.6460  0.1952
 6897SOL    HW232154   2.430   3.143  11.665  1.3922  0.0323  0.4096
 6898SOL     OW32155   3.836   0.605   5.728  0.4599  0.6451 -0.0270
 6898SOL    HW132156   3.883   0.553   5.793 -0.0506  1.5675  1.0863
 6898SOL    HW232157   3.911   0.650   5.692 -0.4968  1.1811 -1.3291
 6899SOL     OW32158   2.263   1.435   1.769 -0.1324 -0.4853 -0.1770
 6899SOL    HW132159   2.295   1.450   1.681  0.1983  1.9010  0.3637
 6899SOL    HW232160   2.169   1.433   1.754 -0.3871  1.2633  1.2487
 6900SOL     OW32161   4.214   4.172  15.907  0.2194  0.6758  0.3731
 6900SOL    HW132162   4.184   4.101  15.851 -1.2734  0.4326  1.4718
 6900SOL    HW232163   4.287   4.198  15.852  0.8105  0.1725  0.9127
 6901SOL     OW32164   1.595   3.893   6.622 -0.0812  0.4405  0.1377
 6901SOL    HW132165   1.565   3.984   6.619  1.0877  0.8926  2.4554
 6901SOL    HW232166   1.525   3.854   6.569  0.6317  0.0569 -0.5299
 6902SOL     OW32167   3.980   3.918   2.875 -0.1541 -0.3962 -0.3317
 6902SOL    HW132168   3.901   3.947   2.829  0.5898 -2.5464 -2.9101
 6902SOL    HW232169   4.048   3.984   2.857  0.5998 -0.9418  0.5114
 6903SOL     OW32170   1.853   1.827   7.207  0.1415  0.2234 -0.5778
 6903SOL    HW132171   1.846   1.876   7.289 -1.6437 -2.6266  0.9529
 6903SOL    HW232172   1.782   1.863   7.154 -0.2539 -0.7065 -0.6841
 6904SOL     OW32173   2.361   1.096  16.372  0.4843  0.1304 -0.0552
 6904SOL    HW132174   2.287   1.113  16.430  0.0602 -1.5845 -0.0864
 6904SOL    HW232175   2.318   1.098  16.286 -1.2512  1.5537  0.8535
 6905SOL     OW32176   0.612   3.341   5.800  0.1995 -0.0988 -0.0305
 6905SOL    HW132177   0.604   3.293   5.883 -1.7999  2.1953  1.0871
 6905SOL    HW232178   0.600   3.430   5.835  0.1956 -0.4829  0.9679
 6906SOL     OW32179   1.752   4.648   3.570 -0.0552  0.7008  0.2769
 6906SOL    HW132180   1.657   4.638   3.580 -0.2778  1.4555 -1.0558
 6906SOL    HW232181   1.753   4.676   3.478 -0.3808 -1.0243 -0.2574
 6907SOL     OW32182   2.361   2.539  17.668  0.6581 -0.5006 -0.8062
 6907SOL    HW132183   2.374   2.633  17.674  0.3561 -0.5588  0.9530
 6907SOL    HW232184   2.272   2.535  17.634  0.8324  3.7928 -1.6957
 6908SOL     OW32185   0.008   0.216  16.945  0.0912 -0.0347 -0.5067
 6908SOL    HW132186   4.652   0.170  16.971  1.0412 -1.2691  0.2692
 6908SOL    HW232187   0.057   0.223  17.027 -0.3794 -1.0482 -0.1349
 6909SOL     OW32188   4.396   4.556  14.710 -0.3111  0.2316 -0.1631
 6909SOL    HW132189   4.377   4.590  14.622  0.5429  0.6280 -0.1920
 6909SOL    HW232190   4.332   4.604  14.762  1.1447  1.1377  0.8118
 6910SOL     OW32191   0.138   2.068   8.367 -0.1921 -0.2301 -0.3661
 6910SOL    HW132192   0.047   2.040   8.363 -0.2961 -0.1692  1.8903
 6910SOL    HW232193   0.153   2.079   8.461 -0.3667  1.8612 -0.5850
 6911SOL     OW32194   0.654   2.788  12.146  0.1798 -0.0051 -0.1546
 6911SOL    HW132195   0.688   2.711  12.191  1.6861 -0.4576 -2.0375
 6911SOL    HW232196   0.588   2.831  12.200 -0.9270 -2.8576  0.7593
 6912SOL     OW32197   0.589   2.691  16.017  0.1830 -0.4019  0.2454
 6912SOL    HW132198   0.495   2.697  16.001  0.5288  0.1223 -1.5988
 6912SOL    HW232199   0.610   2.635  15.943 -0.8613 -1.5730  0.8355
 6913SOL     OW32200   0.963   0.615   5.325  0.0839 -0.3913  0.1953
 6913SOL    HW132201   0.994   0.625   5.235 -1.1244  4.5590  0.3025
 6913SOL    HW232202   0.979   0.523   5.345 -0.1404 -1.2546 -3.4747
 6914SOL     OW32203   1.156   0.517   1.881 -0.3393 -0.1740  0.2944
 6914SOL    HW132204   1.146   0.443   1.941 -2.7676  0.1796  0.3263
 6914SOL    HW232205   1.074   0.503   1.833 -0.5221 -0.7418  0.7699
 6915SOL     OW32206   4.696   3.693   4.779  0.2483 -0.3990 -0.4421
 6915SOL    HW132207   4.664   3.711   4.868  2.5764  1.1733  0.0661
 6915SOL    HW232208   4.707   3.787   4.763 -2.0123  0.0776  0.7402
 6916SOL     OW32209   4.598   0.061   8.036  0.1062 -0.5942  0.1084
 6916SOL    HW132210   4.556   0.035   7.954  0.8894 -1.3187 -0.0672
 6916SOL    HW232211   4.523   0.039   8.092  0.9744 -1.2573  1.0219
 6917SOL     OW32212   2.918   0.668  14.150 -0.2372 -0.4142 -0.0922
 6917SOL    HW132213   2.832   0.696  14.181  0.1769 -0.8009  1.3894
 6917SOL    HW232214   2.938   0.588  14.198 -2.1514 -0.6044  0.3722
 6918SOL     OW32215   1.278   0.752   0.584  0.1509 -0.0630  0.3484
 6918SOL    HW132216   1.276   0.657   0.594 -0.5725  0.0286  1.0979
 6918SOL    HW232217   1.317   0.759   0.497 -0.0725  0.7216  0.3121
 6919SOL     OW32218   4.284   4.133   5.660 -0.0872 -0.2036 -0.1210
 6919SOL    HW132219   4.372   4.143   5.697 -0.0830 -1.2840  0.1743
 6919SOL    HW232220   4.249   4.214   5.695  0.9708  0.2726 -0.1473
 6920SOL     OW32221   4.381   3.088   5.608 -0.4618  0.3594  0.4722
 6920SOL    HW132222   4.454   3.133   5.565 -0.5166 -0.3955 -0.4318
 6920SOL    HW232223   4.424   3.044   5.681 -0.7578 -0.1194  0.3545
 6921SOL     OW32224   1.259   1.738   8.026 -0.2014  0.2477  0.1062
 6921SOL    HW132225   1.273   1.721   7.933  0.6072  0.7048  0.1451
 6921SOL    HW232226   1.193   1.807   8.022 -0.0156  0.5170  2.0733
 6922SOL     OW32227   4.167   3.805   9.936 -0.1693  0.2366 -0.1599
 6922SOL    HW132228   4.170   3.900   9.925  0.3746  0.2497  0.0869
 6922SOL    HW232229   4.076   3.793   9.963  0.4619 -3.8411  0.2383
 6923SOL     OW32230   0.017   1.033   6.380 -0.8280 -0.2096 -0.3424
 6923SOL    HW132231   4.667   0.990   6.422 -1.5989 -0.6485 -2.1513
 6923SOL    HW232232   0.037   0.987   6.299 -1.0627 -0.1944 -0.4075
 6924SOL     OW32233   1.016   0.925   8.732 -0.4750 -0.2063 -0.4544
 6924SOL    HW132234   1.045   0.930   8.641  1.7668  0.1090  0.2953
 6924SOL    HW232235   1.075   0.980   8.783 -0.0180 -0.6325 -0.5282
 6925SOL     OW32236   2.992   2.303  11.439 -0.4646 -0.3080  0.5109
 6925SOL    HW132237   3.022   2.393  11.449  1.5691 -1.2257  2.8101
 6925SOL    HW232238   2.958   2.292  11.528 -1.5347  1.5972  0.3497
 6926SOL     OW32239   3.312   1.001   1.522 -0.6795 -0.4238  0.2667
 6926SOL    HW132240   3.229   1.001   1.568 -1.5832  0.5109 -1.3689
 6926SOL    HW232241   3.307   1.094   1.503  0.7848 -0.1340  1.2414
 6927SOL     OW32242   0.992   1.987  13.841 -0.1258 -0.0392  0.2735
 6927SOL    HW132243   0.910   1.967  13.885  0.9966 -1.3489  1.7779
 6927SOL    HW232244   1.044   1.910  13.864 -2.1960  0.3218  6.0866
 6928SOL     OW32245   1.140   2.798   6.041 -0.1172 -0.3468 -0.2183
 6928SOL    HW132246   1.149   2.891   6.060  0.6136 -0.7310  1.2864
 6928SOL    HW232247   1.117   2.769   6.129 -0.2876 -2.6128 -0.9831
 6929SOL     OW32248   0.092   4.156   5.082  0.1367  0.0289 -0.3857
 6929SOL    HW132249   0.146   4.097   5.029 -0.6976 -1.1614  0.0764
 6929SOL    HW232250   0.063   4.098   5.153  0.1628  1.8851  1.1291
 6930SOL     OW32251   0.720   0.827   4.884  0.1226 -0.2032 -0.6776
 6930SOL    HW132252   0.643   0.790   4.840 -0.7524  0.5599  0.2199
 6930SOL    HW232253   0.763   0.752   4.925 -0.2995 -0.1308 -0.1168
 6931SOL     OW32254   3.071   0.136   4.962  0.4397  0.4013 -0.1328
 6931SOL    HW132255   2.985   0.095   4.949  0.2709  1.3217 -1.8558
 6931SOL    HW232256   3.102   0.155   4.874  2.0555  1.4262  0.6800
 6932SOL     OW32257   4.264   2.164   9.334 -0.5183 -0.1565 -0.0351
 6932SOL    HW132258   4.205   2.108   9.385 -1.5295  1.1496  0.2466
 6932SOL    HW232259   4.309   2.098   9.281  1.7235  3.0066 -2.0324
 6933SOL     OW32260   2.123   3.524   7.792 -0.6377  0.4914 -0.0414
 6933SOL    HW132261   2.202   3.523   7.847  0.8450  0.5335 -2.1967
 6933SOL    HW232262   2.107   3.611   7.755  0.7330  1.3177  1.2847
 6934SOL     OW32263   2.285   0.454   9.650 -0.4887  0.0996  0.2533
 6934SOL    HW132264   2.213   0.468   9.712  0.3487  1.8517  0.8117
 6934SOL    HW232265   2.249   0.383   9.596  0.7951  1.2768 -2.1235
 6935SOL     OW32266   2.786   0.792  12.140  0.2505 -0.3496  0.5144
 6935SOL    HW132267   2.732   0.786  12.061 -2.8821  0.2435  2.6220
 6935SOL    HW232268   2.765   0.722  12.201 -0.7535 -0.1069  0.4343
 6936SOL     OW32269   3.075   0.901   6.543 -0.5769  0.1714 -0.1243
 6936SOL    HW132270   3.010   0.969   6.562 -0.0468  0.2548  1.4088
 6936SOL    HW232271   3.024   0.824   6.518 -0.3373 -0.0051 -0.0741
 6937SOL     OW32272   2.976   1.842   4.197  0.0860 -0.4926  0.1618
 6937SOL    HW132273   3.021   1.906   4.142 -0.9623 -0.1939 -0.3492
 6937SOL    HW232274   3.030   1.764   4.183 -2.0352 -1.8002 -0.6901
 6938SOL     OW32275   3.818   0.404   1.657  0.1948 -0.0674 -1.2870
 6938SOL    HW132276   3.880   0.470   1.689  1.7627 -0.9151 -2.5658
 6938SOL    HW232277   3.747   0.469   1.651  1.1210  1.1424  0.7679
 6939SOL     OW32278   0.005   2.246   9.005  0.9055 -0.1925  0.4779
 6939SOL    HW132279   0.014   2.341   9.011  1.6735 -0.1551 -1.2328
 6939SOL    HW232280   0.023   2.228   9.097 -0.6016  1.0679  1.0108
 6940SOL     OW32281   2.475   2.929  15.113 -0.1149  0.5749 -0.3229
 6940SOL    HW132282   2.408   2.902  15.051  1.0347 -0.2922 -1.1720
 6940SOL    HW232283   2.535   2.979  15.058  0.9457 -2.0709 -1.5770
 6941SOL     OW32284   3.195   3.094   4.628  0.1144 -0.2749 -0.0537
 6941SOL    HW132285   3.248   3.137   4.695  0.9314 -1.7337  0.2168
 6941SOL    HW232286   3.167   3.167   4.572 -0.5595 -1.3370 -1.1136
 6942SOL     OW32287   4.356   2.419   4.977 -0.2569 -0.6654 -0.3909
 6942SOL    HW132288   4.318   2.419   4.890 -1.3491  0.1390  0.0907
 6942SOL    HW232289   4.450   2.405   4.966 -0.0887  0.0880  0.0876
 6943SOL     OW32290   1.856   4.226   7.434 -0.3018  0.2560  0.6323
 6943SOL    HW132291   1.794   4.166   7.392 -0.2360  0.4487  0.2500
 6943SOL    HW232292   1.793   4.259   7.498  0.0704  3.5028 -0.6550
 6944SOL     OW32293   4.669   1.111   8.265  0.1653 -0.0857  0.0907
 6944SOL    HW132294   4.652   1.197   8.227 -0.3355 -0.9558 -1.6587
 6944SOL    HW232295   4.581   1.075   8.278  0.7502 -1.5245  0.1330
 6945SOL     OW32296   4.716   3.774  12.924 -0.2775 -0.2869 -0.3913
 6945SOL    HW132297   0.075   3.748  12.963 -0.4952 -0.3092  0.0592
 6945SOL    HW232298   0.021   3.829  12.851  0.4997 -0.0802  0.0737
 6946SOL     OW32299   1.155   0.459   0.144  0.4477  0.0912  0.0450
 6946SOL    HW132300   1.183   0.419   0.062  0.3993 -1.7918  0.9480
 6946SOL    HW232301   1.182   0.384   0.196  2.1276  0.5810 -0.1344
 6947SOL     OW32302   1.802   3.215  12.460  0.1489  0.3625 -0.3068
 6947SOL    HW132303   1.717   3.255  12.478  0.8510  2.0856 -0.8166
 6947SOL    HW232304   1.853   3.247  12.534  0.3950  0.7591 -0.6470
 6948SOL     OW32305   1.536   1.427   4.615 -0.6161  0.4544  0.0226
 6948SOL    HW132306   1.610   1.407   4.558  0.4988 -0.7159  1.8926
 6948SOL    HW232307   1.515   1.517   4.589 -3.1017 -0.8748 -2.6968
 6949SOL     OW32308   0.054   1.953   9.651 -0.8078 -0.5074  0.3290
 6949SOL    HW132309   0.012   1.873   9.681 -1.9661  0.3704  1.0467
 6949SOL    HW232310   4.701   2.006   9.672 -1.7794 -1.0650 -1.8298
 6950SOL     OW32311   0.827   0.987  10.679 -0.4931 -0.1267 -0.2748
 6950SOL    HW132312   0.751   1.041  10.700  0.7940  0.8713  1.8985
 6950SOL    HW232313   0.797   0.898  10.694  1.0298 -0.8121 -1.3032
 6951SOL     OW32314   0.844   3.964   6.219 -0.2988 -0.1127  0.1677
 6951SOL    HW132315   0.774   3.982   6.156 -0.1316 -0.9422 -0.2458
 6951SOL    HW232316   0.862   3.874   6.193  2.3953  0.6549 -0.6706
 6952SOL     OW32317   0.924   0.998  14.605 -0.0802 -0.1817  0.0752
 6952SOL    HW132318   0.937   0.959  14.692  1.6094  0.3983  0.0900
 6952SOL    HW232319   0.932   0.922  14.547  2.4781 -0.4283  0.7332
 6953SOL     OW32320   2.235   3.544   3.609  0.4332 -0.1174 -0.6256
 6953SOL    HW132321   2.263   3.609   3.544 -0.4208  0.4665 -0.4148
 6953SOL    HW232322   2.308   3.550   3.671 -1.5079  1.4063  1.5333
 6954SOL     OW32323   3.501   0.469   8.748 -0.0249  0.2752 -0.8636
 6954SOL    HW132324   3.497   0.557   8.710  0.3850  0.8677  0.4588
 6954SOL    HW232325   3.549   0.413   8.687 -1.1798 -0.0922 -1.4307
 6955SOL     OW32326   1.935   3.479  17.393 -0.1662  0.1334 -0.6398
 6955SOL    HW132327   1.865   3.544  17.400  0.7973  1.1715 -0.5954
 6955SOL    HW232328   2.012   3.535  17.379  0.8323 -0.7625  1.2610
 6956SOL     OW32329   2.085   1.024   4.372 -0.0183 -0.5234  0.3492
 6956SOL    HW132330   2.064   1.005   4.463  0.3122  1.2980  0.7986
 6956SOL    HW232331   2.081   1.120   4.375 -1.6492 -0.5090 -2.3612
 6957SOL     OW32332   2.384   2.034   7.604  0.1674  0.6708 -0.6056
 6957SOL    HW132333   2.335   1.955   7.581 -1.1186  0.9129  1.2380
 6957SOL    HW232334   2.360   2.042   7.697  0.0923  1.1871 -0.6702
 6958SOL     OW32335   1.371   2.284  16.831  0.0420  0.5538 -0.0408
 6958SOL    HW132336   1.291   2.309  16.786  0.7482  2.4929 -0.2189
 6958SOL    HW232337   1.396   2.204  16.785 -0.5344  1.5882 -2.1449
 6959SOL     OW32338   3.922   0.768   7.729 -0.6248 -0.0281  0.3425
 6959SOL    HW132339   3.918   0.675   7.750 -1.8550 -0.5429 -2.2071
 6959SOL    HW232340   3.888   0.779   7.641  1.3594  0.7081 -0.3191
 6960SOL     OW32341   3.264   3.505   5.951  0.8347  0.3600 -0.0706
 6960SOL    HW132342   3.271   3.574   6.016  2.0531 -0.0961  0.2828
 6960SOL    HW232343   3.347   3.507   5.903 -0.3981 -0.4554 -2.2983
 6961SOL     OW32344   3.081   0.209  14.592 -0.4227  0.0029  0.1769
 6961SOL    HW132345   3.156   0.245  14.545 -0.1733  0.4221  0.8884
 6961SOL    HW232346   3.041   0.158  14.522  2.5645 -0.8318 -0.8984
 6962SOL     OW32347   0.905   4.651  17.379  0.4107  0.4749  0.1452
 6962SOL    HW132348   0.814   4.626  17.368  0.7387 -0.4839 -0.3978
 6962SOL    HW232349   0.943   4.563  17.374  0.3734  0.3972  1.1834
 6963SOL     OW32350   1.856   2.679   6.759 -0.4350 -0.3045  0.3329
 6963SOL    HW132351   1.852   2.585   6.776 -0.4015 -0.5367 -0.8964
 6963SOL    HW232352   1.940   2.695   6.800 -1.7485  0.8177  2.5893
 6964SOL     OW32353   1.861   0.688   2.033  0.1093  0.4051  0.1082
 6964SOL    HW132354   1.949   0.725   2.023 -0.3881  1.1361 -1.4527
 6964SOL    HW232355   1.854   0.644   1.948 -0.2778 -0.1997  0.4484
 6965SOL     OW32356   2.771   1.385   6.249 -0.1523  0.5666 -0.6988
 6965SOL    HW132357   2.767   1.297   6.287 -0.1496  0.6417 -0.5241
 6965SOL    HW232358   2.864   1.397   6.230 -0.2332 -1.1030 -2.1907
 6966SOL     OW32359   2.074   4.330  12.022  0.2752  0.2125 -0.5939
 6966SOL    HW132360   1.978   4.337  12.026  0.3117  0.2514  0.2835
 6966SOL    HW232361   2.099   4.348  12.113 -1.9669 -1.0411  0.2880
 6967SOL     OW32362   0.846   0.597   4.564  0.4396  0.0404  0.1350
 6967SOL    HW132363   0.760   0.607   4.524  0.4196  1.7836  0.6087
 6967SOL    HW232364   0.860   0.691   4.576  0.5296  0.1625 -0.9213
 6968SOL     OW32365   1.946   3.818  12.404 -0.3319 -0.2288  0.5093
 6968SOL    HW132366   1.858   3.824  12.367  1.0008  0.6468 -2.4601
 6968SOL    HW232367   1.997   3.879  12.351 -1.8935  2.2415  1.8485
 6969SOL     OW32368   0.344   3.604   0.425 -0.1485  0.3658 -0.3980
 6969SOL    HW132369   0.295   3.547   0.485  1.2288 -0.4705 -0.0682
 6969SOL    HW232370   0.362   3.546   0.351  0.0182 -0.5205  0.3285
 6970SOL     OW32371   4.559   1.109   6.107  0.2957 -0.3923 -0.0868
 6970SOL    HW132372   4.616   1.163   6.162  1.3216  0.1562 -1.7048
 6970SOL    HW232373   4.608   1.086   6.029  2.4910  0.0584  1.1658
 6971SOL     OW32374   4.434   1.424   5.283  0.0763 -0.2830  0.1095
 6971SOL    HW132375   4.341   1.434   5.304  0.2409  0.1159  0.6433
 6971SOL    HW232376   4.475   1.490   5.338  1.1668 -0.9495  0.0941
 6972SOL     OW32377   0.702   2.383   3.724 -0.3176  0.0390 -0.3848
 6972SOL    HW132378   0.767   2.417   3.662 -0.0026  2.0646  1.0473
 6972SOL    HW232379   0.758   2.323   3.773 -0.2655 -1.2712 -2.0472
 6973SOL     OW32380   1.475   2.759   9.373  0.6777 -0.0463  0.4842
 6973SOL    HW132381   1.488   2.798   9.459  0.9990 -0.9530  0.8450
 6973SOL    HW232382   1.501   2.825   9.309 -0.6363 -1.8386 -1.8893
 6974SOL     OW32383   1.523   0.310   6.750  0.0805  0.3306 -0.2642
 6974SOL    HW132384   1.554   0.263   6.827  0.6935  1.6330  0.2810
 6974SOL    HW232385   1.604   0.317   6.701 -0.2169 -1.7340 -1.0132
 6975SOL     OW32386   0.316   2.626   3.626 -0.2195  0.3048 -0.3022
 6975SOL    HW132387   0.396   2.680   3.628 -1.7313  2.5407 -0.3755
 6975SOL    HW232388   0.256   2.687   3.583 -0.1182 -1.3909 -2.8712
 6976SOL     OW32389   1.522   1.626   9.286 -0.3663 -0.7332 -0.5939
 6976SOL    HW132390   1.598   1.633   9.229  0.0253  0.3665  0.0712
 6976SOL    HW232391   1.498   1.718   9.296 -2.3603 -1.1952 -0.9881
 6977SOL     OW32392   0.317   3.388   6.890  0.1696 -0.3179 -0.5390
 6977SOL    HW132393   0.403   3.427   6.900 -0.5448  0.9788  0.5160
 6977SOL    HW232394   0.256   3.459   6.910  1.5105  0.2451  1.4634
 6978SOL     OW32395   0.111   1.979   7.180  0.1568 -0.1199 -0.0283
 6978SOL    HW132396   0.136   2.007   7.092 -2.6549  1.2599 -0.3964
 6978SOL    HW232397   0.066   2.055   7.217 -0.4629 -0.6758  0.3630
 6979SOL     OW32398   0.271   2.825   1.975 -0.0927  0.0828  0.3650
 6979SOL    HW132399   0.330   2.752   1.961  0.0106  0.5464 -1.6786
 6979SOL    HW232400   0.325   2.891   2.019 -0.0906  0.2530  0.1109
 6980SOL     OW32401   1.676   1.707   1.645  0.0033  0.4063  0.3728
 6980SOL    HW132402   1.635   1.642   1.702  1.0944 -2.2404 -1.8216
 6980SOL    HW232403   1.616   1.705   1.570 -1.3257 -3.5031  1.5145
 6981SOL     OW32404   4.102   3.117   6.592 -0.2042  0.0301 -0.7074
 6981SOL    HW132405   4.147   3.201   6.585  1.5322 -0.8445 -0.0201
 6981SOL    HW232406   4.160   3.071   6.653 -0.6049  0.3110 -0.1115
 6982SOL     OW32407   0.190   0.673  11.147  0.1908  0.1797 -0.1641
 6982SOL    HW132408   0.146   0.734  11.089 -1.3960 -0.3196  0.5121
 6982SOL    HW232409   0.250   0.734  11.190 -0.0071  0.9705 -1.0196
 6983SOL     OW32410   1.143   3.120   7.607  0.1568  0.0277 -0.6378
 6983SOL    HW132411   1.175   3.208   7.588 -0.4599  0.9020  2.3434
 6983SOL    HW232412   1.070   3.138   7.666  0.1151  0.2868 -0.7703
 6984SOL     OW32413   0.102   2.771   0.326 -0.5962  0.3585  0.7347
 6984SOL    HW132414   0.070   2.860   0.343 -2.0096 -0.0143  0.0308
 6984SOL    HW232415   0.110   2.768   0.231 -2.8508  2.1642  0.4817
 6985SOL     OW32416   3.596   3.745   9.474  0.1027  0.7734 -0.4805
 6985SOL    HW132417   3.576   3.651   9.471  1.4421  0.5345 -2.2093
 6985SOL    HW232418   3.683   3.747   9.433  0.5751  0.2417  0.4943
 6986SOL     OW32419   0.244   4.198   4.767 -0.8785 -0.0702  0.2202
 6986SOL    HW132420   0.323   4.175   4.815  0.4756  1.3278 -1.3496
 6986SOL    HW232421   0.270   4.280   4.725  0.3185  0.1617  1.4228
 6987SOL     OW32422   3.643   3.969   3.702  0.3365 -0.4010  0.1412
 6987SOL    HW132423   3.676   4.048   3.661  1.0574 -1.6663 -1.7032
 6987SOL    HW232424   3.602   3.926   3.627  0.5536  0.9898 -0.7790
 6988SOL     OW32425   3.635   2.086   8.018 -0.1668 -0.2298 -0.1187
 6988SOL    HW132426   3.612   2.175   7.993  0.8996 -0.5593 -2.3162
 6988SOL    HW232427   3.648   2.087   8.113 -1.2628  0.3839  0.0264
 6989SOL     OW32428   0.318   1.225   7.204 -0.0191 -0.3880  0.0987
 6989SOL    HW132429   0.314   1.250   7.111 -0.0309 -0.9987 -0.0679
 6989SOL    HW232430   0.232   1.249   7.240 -0.0389  0.6509 -0.6303
 6990SOL     OW32431   0.874   4.681   4.076 -0.1533  0.3864 -0.5724
 6990SOL    HW132432   0.929   4.603   4.065  1.3098  1.4174 -0.5459
 6990SOL    HW232433   0.790   4.637   4.072  0.1676 -0.1282 -1.9392
 6991SOL     OW32434   4.257   1.249  11.303  1.1658  0.1833 -0.2214
 6991SOL    HW132435   4.212   1.208  11.377  0.0861 -0.6085 -1.3155
 6991SOL    HW232436   4.345   1.212  11.312  0.2291 -1.9963 -0.0484
 6992SOL     OW32437   1.713   3.411   6.203  0.0533 -0.3187 -0.1075
 6992SOL    HW132438   1.714   3.413   6.299 -1.2620 -1.1047 -0.0734
 6992SOL    HW232439   1.741   3.502   6.191  1.3121 -0.5667  1.0120
 6993SOL     OW32440   1.612   3.851   4.008 -0.4804  0.6468  0.0229
 6993SOL    HW132441   1.571   3.770   4.038  0.4459  0.2892  0.3173
 6993SOL    HW232442   1.537   3.911   3.996 -0.5087  0.8567  1.2020
 6994SOL     OW32443   3.813   4.478   3.480 -0.1668  0.2513 -0.0032
 6994SOL    HW132444   3.851   4.531   3.409 -3.6681  0.9225 -1.3619
 6994SOL    HW232445   3.722   4.458   3.461 -0.0265  0.0981 -0.5287
 6995SOL     OW32446   2.715   3.402   5.071 -0.3110  0.0624  0.1201
 6995SOL    HW132447   2.797   3.394   5.119 -2.0814 -1.3518  2.8895
 6995SOL    HW232448   2.744   3.412   4.980  1.1785 -0.2792  0.5693
 6996SOL     OW32449   2.834   4.133   5.041  0.4061  0.2483  0.2848
 6996SOL    HW132450   2.876   4.194   5.102  1.1374 -1.3067  1.3430
 6996SOL    HW232451   2.872   4.051   5.072 -0.1343 -0.8744 -2.0809
 6997SOL     OW32452   1.598   1.551   2.589 -0.6130  0.4398 -0.1094
 6997SOL    HW132453   1.589   1.637   2.547 -0.7582  0.7979  0.6673
 6997SOL    HW232454   1.540   1.494   2.538 -0.4448  0.0843  0.0984
 6998SOL     OW32455   3.783   2.302  14.982  0.0356  0.4923  0.3383
 6998SOL    HW132456   3.874   2.288  15.009 -0.0641 -0.1899  0.3228
 6998SOL    HW232457   3.795   2.361  14.907  0.2358  0.5701  0.4325
 6999SOL     OW32458   4.163   4.282   1.298  0.5502  0.6804  0.7137
 6999SOL    HW132459   4.217   4.349   1.340 -0.5954  0.9558  1.7526
 6999SOL    HW232460   4.130   4.332   1.223 -0.6299 -1.0799  0.0449
 7000SOL     OW32461   0.825   1.348  10.627 -0.3004  0.1928 -0.1827
 7000SOL    HW132462   0.735   1.315  10.624 -1.0304  2.1408  1.1429
 7000SOL    HW232463   0.815   1.433  10.584 -4.6895  0.7257  1.8871
 7001SOL     OW32464   0.356   0.151   2.975 -0.1726 -0.1901 -0.0600
 7001SOL    HW132465   0.370   0.115   2.888  0.7328 -1.3660  0.5763
 7001SOL    HW232466   0.262   0.171   2.982  0.6130  3.6069 -0.4389
 7002SOL     OW32467   4.078   1.634   0.091 -0.4119 -0.0147 -0.1309
 7002SOL    HW132468   4.008   1.681   0.046 -0.8898  1.1371  1.8151
 7002SOL    HW232469   4.117   1.598   0.011  0.9823 -0.1237  0.5973
 7003SOL     OW32470   1.784   3.862   0.487 -0.1519  0.1611 -0.0423
 7003SOL    HW132471   1.801   3.822   0.573  1.8700  1.2633  0.0715
 7003SOL    HW232472   1.811   3.951   0.509 -1.6132  0.6775 -0.3855
 7004SOL     OW32473   0.672   0.012   7.796 -0.3671  0.2117  0.6055
 7004SOL    HW132474   0.656   0.036   7.705 -2.1756  1.8437  1.3619
 7004SOL    HW232475   0.744   0.073   7.810  0.9272 -0.8441 -1.5560
 7005SOL     OW32476   1.350   1.320   8.564 -0.1382  0.3734  0.1595
 7005SOL    HW132477   1.299   1.388   8.609 -0.6751 -0.2131  0.4306
 7005SOL    HW232478   1.421   1.373   8.527 -0.0074 -1.3116 -1.9696
 7006SOL     OW32479   2.094   2.204   7.399 -0.8946  0.2593 -0.0854
 7006SOL    HW132480   2.082   2.165   7.485  1.0102  2.2469  1.0979
 7006SOL    HW232481   2.131   2.125   7.359 -1.0543 -0.1631  0.5988
 7007SOL     OW32482   4.606   0.745   5.808  0.1947 -0.1802  0.3194
 7007SOL    HW132483   4.577   0.744   5.899  0.5432  1.7778  0.4556
 7007SOL    HW232484   4.690   0.700   5.814  1.3466  1.3879 -4.0293
 7008SOL     OW32485   1.887   2.186   2.763  0.0471  0.5270  0.0774
 7008SOL    HW132486   1.955   2.211   2.701 -0.4641  0.0583 -0.6772
 7008SOL    HW232487   1.821   2.176   2.693  2.3743 -3.7810 -1.4904
 7009SOL     OW32488   1.487   1.083   4.680 -0.9979 -0.1647 -0.0665
 7009SOL    HW132489   1.444   1.022   4.740 -0.1608 -2.8375 -2.1752
 7009SOL    HW232490   1.543   1.126   4.745  2.6204 -1.2826 -2.4079
 7010SOL     OW32491   2.534   2.720   2.958  0.1598 -0.1651  0.1055
 7010SOL    HW132492   2.439   2.707   2.953  0.1465 -1.0788  2.7552
 7010SOL    HW232493   2.555   2.721   3.052 -0.9318 -1.4086  0.3663
 7011SOL     OW32494   0.608   0.227   3.038 -0.2690  0.2430 -0.1525
 7011SOL    HW132495   0.519   0.203   3.010 -0.2776 -0.4844  0.5041
 7011SOL    HW232496   0.667   0.184   2.976 -0.6167 -1.6581  0.8315
 7012SOL     OW32497   3.748   0.820   2.078 -0.0411  0.0859 -1.1624
 7012SOL    HW132498   3.707   0.743   2.117 -0.3363  1.2293  0.8224
 7012SOL    HW232499   3.683   0.842   2.011 -1.0924  2.4433  0.6055
 7013SOL     OW32500   1.979   2.353   6.337 -0.1301 -0.2270  0.1278
 7013SOL    HW132501   1.945   2.269   6.368  0.4780 -0.8059 -0.7721
 7013SOL    HW232502   2.002   2.330   6.247 -1.3392  0.1705 -0.2791
 7014SOL     OW32503   2.521   0.440  17.662  0.2872 -0.0313 -0.0126
 7014SOL    HW132504   2.617   0.442  17.663  0.2735 -0.5959  1.6718
 7014SOL    HW232505   2.497   0.357   0.006  0.6666  0.1758  0.6058
 7015SOL     OW32506   4.654   1.016  17.194 -0.2551  0.0491  0.0481
 7015SOL    HW132507   4.674   0.957  17.122 -0.4898  0.3145 -0.2311
 7015SOL    HW232508   4.561   1.036  17.180 -0.4418 -3.2658 -3.1797
 7016SOL     OW32509   2.096   3.516   5.756 -0.0137  0.5902 -0.1259
 7016SOL    HW132510   2.183   3.490   5.726  0.0917  0.2897  0.4269
 7016SOL    HW232511   2.048   3.542   5.677  0.5865  1.4347 -0.2011
 7017SOL     OW32512   3.436   3.429   3.466 -0.3145 -0.4511  0.2030
 7017SOL    HW132513   3.458   3.360   3.403  0.6143 -0.5415  0.6211
 7017SOL    HW232514   3.454   3.510   3.419 -0.7289  1.4330  3.2714
 7018SOL     OW32515   2.895   2.317  16.548  0.8748  0.4973 -0.2726
 7018SOL    HW132516   2.955   2.253  16.588 -0.4449 -2.2940 -2.7884
 7018SOL    HW232517   2.927   2.319  16.458  2.0273 -1.9604  0.0657
 7019SOL     OW32518   2.765   4.124  16.196 -0.1388 -0.4603  0.7069
 7019SOL    HW132519   2.672   4.148  16.199  0.4543  2.1861 -1.8211
 7019SOL    HW232520   2.785   4.142  16.288 -1.7125 -1.9693  1.3497
 7020SOL     OW32521   1.923   0.387   7.779  0.2918  0.2516 -0.4445
 7020SOL    HW132522   1.884   0.466   7.817  1.1727  0.2245  0.5143
 7020SOL    HW232523   1.851   0.359   7.722  1.5482 -0.3204 -1.7508
 7021SOL     OW32524   4.498   1.542   9.272  0.3599 -0.2822  0.1932
 7021SOL    HW132525   4.569   1.538   9.336 -0.0609  0.5287  0.7111
 7021SOL    HW232526   4.531   1.473   9.214  0.1795  0.0229 -0.2736
 7022SOL     OW32527   0.840   2.802  12.480 -0.2124 -0.2974  0.0224
 7022SOL    HW132528   0.818   2.775  12.569  2.1047  1.6267  1.1909
 7022SOL    HW232529   0.883   2.721  12.451 -1.4841 -1.0489  0.2502
 7023SOL     OW32530   2.079   4.399   4.474 -0.1358  0.0464 -0.2159
 7023SOL    HW132531   2.069   4.463   4.544  2.0495  0.3643 -0.1741
 7023SOL    HW232532   2.152   4.438   4.426 -0.4055 -1.1385 -1.5794
 7024SOL     OW32533   2.081   0.608   4.219  0.2142  0.0637 -0.0371
 7024SOL    HW132534   2.115   0.664   4.289 -2.1519  0.7385  0.5734
 7024SOL    HW232535   2.004   0.663   4.202 -0.2015  0.0571  1.8322
 7025SOL     OW32536   3.621   1.738  15.044  0.3444 -0.0319  0.0742
 7025SOL    HW132537   3.611   1.827  15.009 -4.8149 -0.4930  0.4004
 7025SOL    HW232538   3.625   1.690  14.961 -2.6239  0.6858 -0.4700
 7026SOL     OW32539   2.577   0.743   5.288  0.1243  0.4974  0.1801
 7026SOL    HW132540   2.615   0.803   5.352  0.9434  2.7573 -2.4540
 7026SOL    HW232541   2.660   0.695   5.289 -0.1677 -0.0329 -1.3803
 7027SOL     OW32542   3.606   1.588  15.413  0.3342 -0.6119 -0.2232
 7027SOL    HW132543   3.696   1.604  15.385  0.4708  0.4902  0.8144
 7027SOL    HW232544   3.607   1.613  15.506 -0.2603  0.6159 -0.5438
 7028SOL     OW32545   1.440   1.304   0.835  0.5145 -0.0135 -0.2244
 7028SOL    HW132546   1.406   1.216   0.822 -1.4118  0.6114  0.4889
 7028SOL    HW232547   1.519   1.286   0.886  0.8599  0.3624 -0.6268
 7029SOL     OW32548   0.045   2.432   9.482 -0.7181  0.3805  0.3383
 7029SOL    HW132549   0.017   2.369   9.416 -2.8504  0.8151  0.8363
 7029SOL    HW232550   0.084   2.378   9.550  1.4719 -0.1705 -1.3532
 7030SOL     OW32551   4.577   2.227   9.373 -0.6029  0.5894 -0.0967
 7030SOL    HW132552   4.540   2.181   9.299  1.0498 -2.1546  0.7844
 7030SOL    HW232553   4.672   2.213   9.365 -1.0575 -2.3273 -0.1456
 7031SOL     OW32554   3.740   1.904  14.642  0.2572  0.2671 -0.1081
 7031SOL    HW132555   3.661   1.855  14.666  0.5357  0.2508  0.7711
 7031SOL    HW232556   3.730   1.983  14.696 -3.0587 -0.3315  0.1374
 7032SOL     OW32557   2.116   3.575   8.755  0.1192  0.5012 -0.0618
 7032SOL    HW132558   2.115   3.481   8.767 -0.8753  0.3159 -1.5692
 7032SOL    HW232559   2.044   3.594   8.815 -1.0561 -2.4676 -0.5724
 7033SOL     OW32560   4.162   0.862   7.841 -0.1488 -0.4412  0.0035
 7033SOL    HW132561   4.076   0.825   7.823 -0.9104  1.8255 -1.0528
 7033SOL    HW232562   4.220   0.808   7.787 -0.2990 -0.2583 -0.3448
 7034SOL     OW32563   3.173   0.047  10.611  0.4533  0.2005 -0.5391
 7034SOL    HW132564   3.089   0.066  10.570  0.4982  1.8977  0.1655
 7034SOL    HW232565   3.204   4.703  10.552 -1.2583  0.2586 -1.5098
 7035SOL     OW32566   0.888   1.273   5.501  0.1904  0.5557  0.2404
 7035SOL    HW132567   0.800   1.300   5.526  0.5025  1.8358 -0.0065
 7035SOL    HW232568   0.898   1.309   5.413  2.0133 -0.7763 -0.1168
 7036SOL     OW32569   0.738   4.095   1.508  0.0362 -0.2424  0.3813
 7036SOL    HW132570   0.820   4.061   1.542  1.9545  2.7102 -1.2736
 7036SOL    HW232571   0.737   4.044   1.428  0.0253  1.5416 -0.7571
 7037SOL     OW32572   1.431   0.490   9.163 -0.7823 -0.0514  0.5046
 7037SOL    HW132573   1.388   0.443   9.235  0.5973 -1.5752  0.3496
 7037SOL    HW232574   1.521   0.497   9.195 -0.7499 -0.8558  0.5892
 7038SOL     OW32575   1.013   4.553  10.160 -0.2884 -0.2629 -0.2980
 7038SOL    HW132576   0.939   4.553  10.220 -1.8403  0.2757 -2.2033
 7038SOL    HW232577   1.040   4.645  10.161 -2.6717  0.4102  1.4664
 7039SOL     OW32578   0.794   1.171  10.223 -0.0710  0.4702  0.3954
 7039SOL    HW132579   0.791   1.213  10.137 -2.4270  0.0969  0.2780
 7039SOL    HW232580   0.720   1.211  10.269 -0.9932  0.4140 -1.0537
 7040SOL     OW32581   3.133   2.624   8.445  0.5548 -0.0257 -0.5373
 7040SOL    HW132582   3.180   2.706   8.434 -0.4740  0.4929 -1.0858
 7040SOL    HW232583   3.190   2.578   8.506 -0.6631 -2.0886 -0.9650
 7041SOL     OW32584   1.145   4.443   6.025  0.0162 -0.3624  0.0642
 7041SOL    HW132585   1.183   4.429   5.939  0.0039 -2.0598  0.3446
 7041SOL    HW232586   1.213   4.491   6.073 -0.3460  0.1083  0.1141
 7042SOL     OW32587   2.283   3.616   2.618  0.3803 -0.2046 -0.5581
 7042SOL    HW132588   2.272   3.579   2.706 -0.5858 -2.7849 -1.7431
 7042SOL    HW232589   2.272   3.538   2.563  0.5979 -0.8996  0.3854
 7043SOL     OW32590   1.774   2.681   8.148  0.2052  0.5627  0.1672
 7043SOL    HW132591   1.865   2.667   8.174  0.9677  0.6969 -2.4426
 7043SOL    HW232592   1.743   2.590   8.151  1.3029  0.1772 -0.1552
 7044SOL     OW32593   1.608   3.695   4.649 -0.3184  0.0217 -0.3488
 7044SOL    HW132594   1.590   3.648   4.730 -2.6492 -1.5712 -1.7820
 7044SOL    HW232595   1.537   3.669   4.590  1.1562 -0.1862 -2.0323
 7045SOL     OW32596   0.033   3.310   2.345 -0.2287 -0.3412 -0.2119
 7045SOL    HW132597   0.025   3.332   2.252 -0.6166 -0.2404 -0.1535
 7045SOL    HW232598   4.664   3.296   2.365  0.3547 -0.3359  2.5157
 7046SOL     OW32599   3.113   2.281   3.189  0.0671  0.0652 -0.1126
 7046SOL    HW132600   3.160   2.203   3.161  0.3809 -0.3839  1.6529
 7046SOL    HW232601   3.109   2.329   3.107  0.5387 -1.3945 -0.9860
 7047SOL     OW32602   0.947   0.664   4.258  0.4297 -0.0877  0.0143
 7047SOL    HW132603   1.016   0.682   4.195 -0.3116  0.8265 -0.5437
 7047SOL    HW232604   0.994   0.686   4.339  2.5565 -0.3753 -1.1588
 7048SOL     OW32605   4.226   2.580   5.545  0.0440 -0.5796 -0.1338
 7048SOL    HW132606   4.172   2.601   5.469  2.9191 -3.2904 -2.9253
 7048SOL    HW232607   4.187   2.500   5.580  0.1164  0.1995  1.7386
 7049SOL     OW32608   1.354   3.751   9.412 -0.1072  0.3101 -0.1006
 7049SOL    HW132609   1.334   3.658   9.423 -0.8987  0.5552  0.5337
 7049SOL    HW232610   1.412   3.729   9.339 -0.7332 -0.0908 -0.4844
 7050SOL     OW32611   1.658   1.706   0.614  0.1042 -0.5220 -0.1877
 7050SOL    HW132612   1.577   1.661   0.636  0.4845  0.4080  3.0902
 7050SOL    HW232613   1.637   1.751   0.532 -0.3619  1.1132  0.8325
 7051SOL     OW32614   3.824   0.551   3.246  0.8139 -0.0279 -0.4454
 7051SOL    HW132615   3.857   0.473   3.201  1.9741  0.4864 -0.4808
 7051SOL    HW232616   3.882   0.538   3.321  2.3907  1.7591 -1.3891
 7052SOL     OW32617   4.451   2.411  10.290 -0.1277 -0.2214  0.3703
 7052SOL    HW132618   4.383   2.461  10.335 -1.4136  0.5327 -2.4109
 7052SOL    HW232619   4.499   2.367  10.360 -0.5055 -0.1736  0.6611
 7053SOL     OW32620   0.061   1.858   8.611  0.5941 -0.2876 -0.1286
 7053SOL    HW132621   0.016   1.894   8.687  0.4834  1.1315 -0.8775
 7053SOL    HW232622   0.149   1.895   8.622  1.6773 -2.5290 -1.0794
 7054SOL     OW32623   2.997   4.065   7.693 -0.2955  0.4606 -0.1357
 7054SOL    HW132624   2.951   4.138   7.653 -1.8435 -1.2431 -1.4097
 7054SOL    HW232625   3.082   4.084   7.653 -0.1455 -1.6346 -0.8149
 7055SOL     OW32626   1.138   1.287   8.201  0.1797  0.3791 -0.2864
 7055SOL    HW132627   1.169   1.294   8.111 -0.7616 -1.2604 -0.7302
 7055SOL    HW232628   1.214   1.275   8.259  0.6952  0.2990 -0.9808
 7056SOL     OW32629   1.008   0.850   6.683  0.5153 -0.0314 -0.2246
 7056SOL    HW132630   1.063   0.802   6.620 -2.6225 -2.6119 -1.0528
 7056SOL    HW232631   0.999   0.778   6.745  5.0708 -0.0394  0.4223
 7057SOL     OW32632   3.639   0.443   6.049 -0.4440  0.0420 -0.2443
 7057SOL    HW132633   3.655   0.529   6.087  1.4997 -0.1617 -0.6233
 7057SOL    HW232634   3.632   0.397   6.132 -0.0507  2.9083  1.3679
 7058SOL     OW32635   2.748   2.619  16.769  0.4900  0.2359 -0.0389
 7058SOL    HW132636   2.740   2.714  16.776 -0.6876  0.2411 -1.4511
 7058SOL    HW232637   2.720   2.614  16.677  0.3355  0.6800 -0.0180
 7059SOL     OW32638   4.161   4.226   3.014  0.0468 -0.0787 -0.7076
 7059SOL    HW132639   4.195   4.312   2.988  0.8234  0.0974  0.8667
 7059SOL    HW232640   4.073   4.236   3.049 -0.2382 -0.5505 -1.2955
 7060SOL     OW32641   3.853   1.603   0.794 -0.3417  0.0200 -0.5103
 7060SOL    HW132642   3.903   1.575   0.718  3.1369  1.1412  1.4013
 7060SOL    HW232643   3.908   1.571   0.865  0.7834  1.0329 -0.9241
 7061SOL     OW32644   0.513   3.566   9.162  0.3294  0.4715 -0.2051
 7061SOL    HW132645   0.568   3.536   9.091  0.9450 -0.2454  0.5788
 7061SOL    HW232646   0.537   3.496   9.223  1.0461 -0.2673 -1.3347
 7062SOL     OW32647   3.432   4.667   7.681 -0.7540 -0.0154  0.1034
 7062SOL    HW132648   3.492   4.597   7.654 -1.0573 -0.7340  1.2620
 7062SOL    HW232649   3.490   0.013   7.710 -1.8859  1.1622 -0.4864
 7063SOL     OW32650   3.814   1.374   9.073 -0.0252  0.0794 -0.2102
 7063SOL    HW132651   3.795   1.315   9.146  0.7844 -1.2877 -1.1011
 7063SOL    HW232652   3.848   1.319   9.003  0.9165 -2.3091  2.1095
 7064SOL     OW32653   4.422   3.810   9.073  0.2207  0.0220  0.0239
 7064SOL    HW132654   4.446   3.742   9.136  0.9311 -1.2383 -1.5989
 7064SOL    HW232655   4.330   3.823   9.095 -0.3644 -0.1325 -2.3118
 7065SOL     OW32656   4.402   1.444  17.192  0.4237 -0.0857  0.2766
 7065SOL    HW132657   4.358   1.527  17.211  0.9110 -0.0056  1.0550
 7065SOL    HW232658   4.405   1.403  17.279  0.7077 -0.7263 -0.0330
 7066SOL     OW32659   2.398   2.772  13.578  0.4291 -0.1143 -0.2010
 7066SOL    HW132660   2.465   2.716  13.537  0.7281 -0.5541  0.9037
 7066SOL    HW232661   2.403   2.848  13.520  1.4281 -0.5927 -0.7520
 7067SOL     OW32662   2.903   0.248   2.972 -0.3554  0.2272 -0.1421
 7067SOL    HW132663   2.810   0.263   2.989  0.2438  1.3318  2.1653
 7067SOL    HW232664   2.925   0.336   2.941 -0.4708  0.5498  0.6909
 7068SOL     OW32665   4.126   3.986   4.313  0.4298  0.0482  0.5071
 7068SOL    HW132666   4.058   4.039   4.272 -1.0538 -3.5685 -1.7361
 7068SOL    HW232667   4.105   3.900   4.276 -0.9878  0.6185 -0.0154
 7069SOL     OW32668   4.369   2.990   4.194  0.2189 -0.0365 -0.2155
 7069SOL    HW132669   4.436   3.038   4.244  0.4862 -1.1837  0.5202
 7069SOL    HW232670   4.418   2.960   4.118  1.9042  3.8723 -0.6887
 7070SOL     OW32671   0.180   3.811   6.021 -0.2412 -0.3642  0.2367
 7070SOL    HW132672   0.156   3.813   6.114 -0.6666 -4.2214  0.2302
 7070SOL    HW232673   0.212   3.722   6.008 -0.0965 -0.3722  0.6581
 7071SOL     OW32674   2.342   3.454   4.755 -0.3620  0.1745  0.2045
 7071SOL    HW132675   2.256   3.414   4.742 -0.6497 -0.3040  3.6000
 7071SOL    HW232676   2.395   3.379   4.785 -0.9780 -0.0866  0.6402
 7072SOL     OW32677   3.858   0.393   1.258 -0.1407  0.6041 -0.2551
 7072SOL    HW132678   3.822   0.446   1.330 -1.7509 -0.9799  0.1051
 7072SOL    HW232679   3.874   0.447   1.181  0.4714  2.0443  0.8707
 7073SOL     OW32680   2.680   2.472   8.448  0.1882 -1.0301 -0.2826
 7073SOL    HW132681   2.763   2.437   8.414  1.0535  1.1926 -0.4456
 7073SOL    HW232682   2.656   2.398   8.503 -1.4983 -1.0350 -1.0384
 7074SOL     OW32683   4.022   3.349   4.055 -0.2264 -0.1311 -0.1350
 7074SOL    HW132684   4.100   3.404   4.047 -1.1943  1.4524  1.3672
 7074SOL    HW232685   4.016   3.317   3.965 -1.1711 -1.5193  0.4357
 7075SOL     OW32686   1.072   0.419   9.437  0.3140 -0.0256 -0.5561
 7075SOL    HW132687   1.049   0.484   9.370 -2.9442  0.0146  0.5962
 7075SOL    HW232688   1.164   0.402   9.418  0.2593  0.1177 -0.9540
 7076SOL     OW32689   0.319   3.413   4.763 -0.0058  0.2157  0.2758
 7076SOL    HW132690   0.413   3.399   4.751  0.2893  1.9438  0.5369
 7076SOL    HW232691   0.308   3.508   4.756 -0.8172  0.2463  1.8111
 7077SOL     OW32692   2.589   2.739   3.228  0.8082 -0.3607  0.0773
 7077SOL    HW132693   2.503   2.697   3.227  0.3001  0.6827 -0.2472
 7077SOL    HW232694   2.585   2.780   3.315 -0.1237  1.2136 -0.7024
 7078SOL     OW32695   1.898   4.337  11.750  0.4804  0.5534 -0.7569
 7078SOL    HW132696   1.855   4.276  11.690 -1.4793  1.4575 -0.2721
 7078SOL    HW232697   1.820   4.384  11.777  0.6069 -0.8340  1.9439
 7079SOL     OW32698   4.365   0.338  13.938 -0.0981 -0.1107  0.0988
 7079SOL    HW132699   4.273   0.311  13.933  0.3959 -1.4598 -1.3344
 7079SOL    HW232700   4.367   0.369  14.029 -0.2449  1.9256 -0.5884
 7080SOL     OW32701   0.515   2.582   9.569 -0.0121 -0.2243 -0.0357
 7080SOL    HW132702   0.570   2.573   9.491  1.5444  0.3692  0.9656
 7080SOL    HW232703   0.485   2.492   9.561 -2.6523  0.6023  0.6890
 7081SOL     OW32704   1.854   4.135  14.124  0.3816 -0.0613 -0.2381
 7081SOL    HW132705   1.836   4.212  14.178 -0.8236  1.1207 -2.3011
 7081SOL    HW232706   1.886   4.071  14.187 -0.9904 -0.3071  0.2114
 7082SOL     OW32707   0.465   1.071  13.326 -0.0442 -0.2075  0.6154
 7082SOL    HW132708   0.499   0.995  13.279  1.4770  0.3615  0.7930
 7082SOL    HW232709   0.541   1.085  13.383  1.8845  0.2589 -2.0590
 7083SOL     OW32710   3.378   2.302   1.685  0.3075 -0.0830 -0.3333
 7083SOL    HW132711   3.376   2.366   1.756 -1.5215 -0.4843 -0.0167
 7083SOL    HW232712   3.340   2.222   1.722  1.5555  0.5885  2.4069
 7084SOL     OW32713   1.549   2.225   3.198  0.1622  0.1609  0.0120
 7084SOL    HW132714   1.612   2.218   3.126  0.0077  1.7834 -0.2738
 7084SOL    HW232715   1.592   2.175   3.268 -0.9544 -2.0084 -0.8315
 7085SOL     OW32716   2.465   4.227   8.144  0.2244  0.2938 -0.6195
 7085SOL    HW132717   2.387   4.191   8.186  0.1615 -1.7145 -2.4057
 7085SOL    HW232718   2.440   4.197   8.057 -2.7672  0.3344  0.2397
 7086SOL     OW32719   3.469   1.238  12.215 -0.3352  0.2234  0.1129
 7086SOL    HW132720   3.445   1.299  12.144  1.7462 -0.3301 -1.0666
 7086SOL    HW232721   3.534   1.182  12.172 -0.0267 -0.8591  2.0351
 7087SOL     OW32722   1.244   2.248   2.036 -0.1108  0.0756  0.2658
 7087SOL    HW132723   1.230   2.339   2.065  1.4155  0.1609  0.7263
 7087SOL    HW232724   1.338   2.231   2.029 -0.0866 -0.4763  1.9445
 7088SOL     OW32725   2.798   4.339   4.852 -0.6793  0.0333  0.3617
 7088SOL    HW132726   2.807   4.244   4.864  0.0716  0.1309  0.5601
 7088SOL    HW232727   2.829   4.381   4.932 -0.5432 -0.6732  0.6849
 7089SOL     OW32728   1.147   1.259  12.053  0.2378  0.2054 -0.1631
 7089SOL    HW132729   1.101   1.343  12.059  0.5758  0.6182 -3.2783
 7089SOL    HW232730   1.129   1.219  12.138 -0.7588 -0.2689 -0.5956
 7090SOL     OW32731   4.257   4.598   3.926 -0.2650  0.0112  0.1222
 7090SOL    HW132732   4.208   4.645   3.994 -0.7897 -0.7878  0.2893
 7090SOL    HW232733   4.311   4.537   3.976 -0.3014  0.9620  1.3205
 7091SOL     OW32734   4.453   2.602   1.970 -0.2572  0.0345  0.8334
 7091SOL    HW132735   4.495   2.593   1.884 -0.4199 -3.2266  1.1099
 7091SOL    HW232736   4.523   2.642   2.021  2.3438 -2.4461 -0.8017
 7092SOL     OW32737   2.098   1.361   2.583 -0.1412  0.0805 -0.2860
 7092SOL    HW132738   2.106   1.456   2.586  2.2973 -0.1369 -0.5109
 7092SOL    HW232739   2.110   1.340   2.490  0.0134 -1.8039  0.1494
 7093SOL     OW32740   1.871   2.625   2.552 -0.1544  0.0748 -0.0384
 7093SOL    HW132741   1.806   2.665   2.493  1.0614 -1.0527 -2.1498
 7093SOL    HW232742   1.914   2.585   2.476 -1.4966  1.2919 -1.4518
 7094SOL     OW32743   4.691   3.715   7.792  0.2287  0.4553 -0.2665
 7094SOL    HW132744   4.720   3.778   7.727 -3.0927  1.9200 -0.2804
 7094SOL    HW232745   4.625   3.670   7.739  1.6091 -0.9713 -0.7656
 7095SOL     OW32746   2.543   0.305  17.285 -0.1829 -0.4704 -0.1635
 7095SOL    HW132747   2.488   0.295  17.363 -0.4655  0.5332 -0.2349
 7095SOL    HW232748   2.534   0.399  17.269  0.2918 -0.1566  1.3625
 7096SOL     OW32749   4.519   4.577   6.441 -0.2811  0.0018  0.8444
 7096SOL    HW132750   4.445   4.526   6.474 -1.4277 -0.8770 -3.0098
 7096SOL    HW232751   4.530   4.537   6.355  1.7352  2.2220  0.0730
 7097SOL     OW32752   3.241   3.585  16.341 -0.1706 -0.1347  0.5130
 7097SOL    HW132753   3.280   3.626  16.263  0.1148 -1.0311  0.1864
 7097SOL    HW232754   3.150   3.571  16.315  0.2709  1.3528 -1.8506
 7098SOL     OW32755   0.732   0.340   9.552 -0.4229 -0.5163 -0.1251
 7098SOL    HW132756   0.687   0.306   9.475 -1.1437 -0.1289  0.1138
 7098SOL    HW232757   0.815   0.294   9.560  0.6222  1.9576  3.5678
 7099SOL     OW32758   3.362   1.766   3.341  0.3118  0.1129 -0.2019
 7099SOL    HW132759   3.445   1.773   3.293  2.1248 -1.0086  2.7649
 7099SOL    HW232760   3.340   1.859   3.339 -0.7179 -0.1087  0.7935
 7100SOL     OW32761   3.010   0.134   3.172 -0.0939 -0.1869  0.5458
 7100SOL    HW132762   2.967   0.182   3.100 -0.3349 -1.1287  0.0658
 7100SOL    HW232763   3.099   0.138   3.137 -0.0552  0.9195  0.7504
 7101SOL     OW32764   0.280   3.820   6.349 -0.1379  0.3636 -0.5875
 7101SOL    HW132765   0.369   3.851   6.366  0.9829 -3.2999  0.2186
 7101SOL    HW232766   0.295   3.727   6.361 -2.3189  0.2523  1.0756
 7102SOL     OW32767   1.789   3.157   4.037  0.2332 -0.0208 -0.2953
 7102SOL    HW132768   1.799   3.240   3.990  0.2364 -0.3407 -0.8637
 7102SOL    HW232769   1.869   3.109   4.012 -0.1725  0.1249 -1.8927
 7103SOL     OW32770   1.742   1.016   7.957 -0.1431 -0.0427  0.3091
 7103SOL    HW132771   1.687   1.094   7.967 -0.6555 -0.6539  2.1836
 7103SOL    HW232772   1.728   0.988   7.866 -1.5689 -1.6998  1.0356
 7104SOL     OW32773   1.703   1.264   6.761  0.6942  0.1655 -0.3119
 7104SOL    HW132774   1.686   1.171   6.746  0.8974  0.4909 -2.5764
 7104SOL    HW232775   1.624   1.309   6.731  0.5262  0.7548  1.0154
 7105SOL     OW32776   0.575   3.898  11.832  0.0468 -0.4764  0.8636
 7105SOL    HW132777   0.636   3.892  11.759  0.1698  1.9093  0.7818
 7105SOL    HW232778   0.622   3.940  11.905 -0.3695  0.9276  0.3185
 7106SOL     OW32779   0.997   1.104  14.303  0.0464  0.6751 -0.3552
 7106SOL    HW132780   1.039   1.186  14.276  1.4628 -0.1004 -0.5153
 7106SOL    HW232781   1.055   1.062  14.367 -0.2023 -0.3318 -0.7829
 7107SOL     OW32782   3.171   2.339  10.666 -0.5322 -0.3009  0.4729
 7107SOL    HW132783   3.263   2.363  10.677 -0.6344  0.1406  0.3610
 7107SOL    HW232784   3.153   2.295  10.749 -0.0203  2.0573  1.8245
 7108SOL     OW32785   0.778   0.246  10.942 -0.0775 -0.2351  0.1324
 7108SOL    HW132786   0.819   0.221  11.025 -1.9310  0.5295  1.2787
 7108SOL    HW232787   0.689   0.269  10.970  0.4868 -0.6216  2.2417
 7109SOL     OW32788   3.200   2.746   5.633  0.6189  0.5434 -0.3985
 7109SOL    HW132789   3.214   2.838   5.614  3.8575 -0.4006 -2.5031
 7109SOL    HW232790   3.106   2.736   5.615  1.1628 -2.1374 -1.6922
 7110SOL     OW32791   3.647   3.171  11.561  0.0505 -0.0428 -0.4677
 7110SOL    HW132792   3.678   3.150  11.473  0.0061  2.5205 -1.1044
 7110SOL    HW232793   3.723   3.153  11.616 -0.5471  1.7994  0.9560
 7111SOL     OW32794   0.376   0.216   6.387 -0.1606 -0.2027 -0.3675
 7111SOL    HW132795   0.381   0.279   6.315  1.2206  0.7000  0.5118
 7111SOL    HW232796   0.368   0.271   6.465  2.3644  0.2592 -0.4374
 7112SOL     OW32797   3.674   0.556  12.863  0.4207 -0.1513  0.5368
 7112SOL    HW132798   3.710   0.468  12.853 -1.2364 -1.0790  2.8840
 7112SOL    HW232799   3.648   0.578  12.773  0.7996  1.7319  0.8923
 7113SOL     OW32800   0.189   0.325   6.146  0.0357  0.5042  0.3592
 7113SOL    HW132801   0.110   0.360   6.187 -2.1730 -3.6406 -0.3671
 7113SOL    HW232802   0.168   0.233   6.131  0.6787 -0.2275  3.9650
 7114SOL     OW32803   0.506   3.071   5.674 -0.8574 -0.3906  0.3388
 7114SOL    HW132804   0.598   3.046   5.688  0.0107  1.4830 -1.9512
 7114SOL    HW232805   0.520   3.159   5.710  0.5229 -0.6968  0.5700
 7115SOL     OW32806   2.048   0.308   4.662  0.1720 -0.1949  0.1248
 7115SOL    HW132807   1.983   0.257   4.709  0.8091  0.5065  1.7908
 7115SOL    HW232808   2.084   0.242   4.603  0.6515  1.4941 -1.4819
 7116SOL     OW32809   1.756   2.593   8.489 -0.4338  0.2455  0.5087
 7116SOL    HW132810   1.768   2.686   8.507 -2.7276  0.4638  0.9754
 7116SOL    HW232811   1.661   2.582   8.488 -0.5127  0.7951  1.4128
 7117SOL     OW32812   0.901   2.109   8.500 -0.4509 -0.3351  0.8111
 7117SOL    HW132813   0.950   2.190   8.487 -1.1317  0.1815  1.4085
 7117SOL    HW232814   0.970   2.050   8.529  0.0601 -1.0068 -1.8430
 7118SOL     OW32815   4.546   0.886   6.501 -0.3482  0.4089 -0.2626
 7118SOL    HW132816   4.589   0.823   6.559  0.7912  0.7888 -0.6889
 7118SOL    HW232817   4.486   0.933   6.558 -0.7073 -0.8975  0.4304
 7119SOL     OW32818   0.429   0.459   1.687 -0.1111  0.0407 -0.6784
 7119SOL    HW132819   0.427   0.551   1.716  0.8459  0.4543 -1.8842
 7119SOL    HW232820   0.421   0.408   1.767 -0.5142  2.8066  1.0318
 7120SOL     OW32821   4.175   1.956   6.542 -0.8484 -0.3695  0.3110
 7120SOL    HW132822   4.214   2.000   6.618  0.5745  0.1207 -0.6808
 7120SOL    HW232823   4.254   1.940   6.489 -1.5476  0.2506 -0.9254
 7121SOL     OW32824   1.587   2.526   6.615  0.0411 -0.1547 -0.4108
 7121SOL    HW132825   1.577   2.453   6.554  0.5169  0.0536 -0.7320
 7121SOL    HW232826   1.634   2.583   6.555 -0.5838 -0.4312 -1.1639
 7122SOL     OW32827   0.415   2.506   3.846  0.1059 -0.7481 -0.1958
 7122SOL    HW132828   0.344   2.500   3.910  1.4314 -0.3695  1.3185
 7122SOL    HW232829   0.370   2.531   3.766  0.3336  2.0723  0.5817
 7123SOL     OW32830   0.934   3.064   9.928  0.6892 -0.1612  0.2234
 7123SOL    HW132831   0.971   3.046  10.014 -0.0976 -2.2264  0.1305
 7123SOL    HW232832   0.859   3.006   9.938  0.2031  0.2836 -0.7452
 7124SOL     OW32833   1.072   3.992   6.378  0.2137 -0.2315  0.1295
 7124SOL    HW132834   1.082   4.065   6.317  1.2222 -0.0970  0.4499
 7124SOL    HW232835   0.989   3.954   6.351  0.1724 -0.7605  0.9929
 7125SOL     OW32836   0.131   3.200   6.996 -0.3012  0.0240 -0.0225
 7125SOL    HW132837   0.154   3.177   7.086  0.2990 -0.4014 -0.2879
 7125SOL    HW232838   0.212   3.230   6.956  0.2649 -0.8970  0.4422
 7126SOL     OW32839   3.175   1.130  13.025 -0.5372 -0.0562 -0.0328
 7126SOL    HW132840   3.242   1.185  13.067  0.2695 -0.5545 -0.6777
 7126SOL    HW232841   3.223   1.091  12.952 -0.6690  2.2382 -1.3264
 7127SOL     OW32842   2.838   3.415   3.878  0.6361  0.0210 -0.3956
 7127SOL    HW132843   2.789   3.381   3.953 -0.3716  0.5816 -0.8063
 7127SOL    HW232844   2.904   3.345   3.877 -1.7143 -2.2565  3.2364
 7128SOL     OW32845   2.774   2.495   7.150  0.3605 -0.5182  0.3220
 7128SOL    HW132846   2.705   2.509   7.215  1.1106  1.7547  0.6274
 7128SOL    HW232847   2.733   2.526   7.069  3.1620  2.2949  0.0013
 7129SOL     OW32848   0.557   2.282   1.210 -0.2851  0.4819  0.4424
 7129SOL    HW132849   0.532   2.366   1.249  0.9924  1.4705 -0.8642
 7129SOL    HW232850   0.567   2.308   1.118 -2.2359  0.5712  0.2582
 7130SOL     OW32851   3.301   3.741   3.588  0.6110 -0.3529  0.0525
 7130SOL    HW132852   3.392   3.719   3.608  0.5752 -0.0655  0.5389
 7130SOL    HW232853   3.249   3.667   3.618  0.4212  0.3407  1.4299
 7131SOL     OW32854   0.756   3.779   6.458 -0.2105  0.8265  0.2329
 7131SOL    HW132855   0.789   3.793   6.546 -0.5209  0.1695  0.4590
 7131SOL    HW232856   0.831   3.737   6.416 -1.0269  1.0666 -1.4623
 7132SOL     OW32857   1.980   0.884   6.416 -0.7985 -0.1649  0.3466
 7132SOL    HW132858   1.967   0.831   6.495  0.7741 -0.4421  0.4315
 7132SOL    HW232859   2.066   0.852   6.388 -0.5420  0.8008  0.0299
 7133SOL     OW32860   3.743   3.519   6.284 -0.3327  0.2303 -0.3671
 7133SOL    HW132861   3.814   3.456   6.294 -0.3466  0.5717  1.9004
 7133SOL    HW232862   3.779   3.599   6.321  1.4417 -0.8056  0.1231
 7134SOL     OW32863   2.419   2.541  14.354  0.2375  0.1872  0.4698
 7134SOL    HW132864   2.370   2.622  14.335 -1.0463 -0.3859  1.3079
 7134SOL    HW232865   2.354   2.474  14.376  0.0251  0.6887  1.3820
 7135SOL     OW32866   0.331   1.675  15.129 -0.6611 -0.7556 -0.2366
 7135SOL    HW132867   0.417   1.655  15.091 -1.0994 -0.8708 -1.1577
 7135SOL    HW232868   0.351   1.647  15.218  0.3309  1.6164  0.2834
 7136SOL     OW32869   0.090   3.336   6.709 -0.3380 -0.4407 -0.2186
 7136SOL    HW132870   0.158   3.334   6.776  0.7152  2.0684 -1.2408
 7136SOL    HW232871   0.031   3.407   6.733  0.5804  0.3340 -0.2641
 7137SOL     OW32872   4.029   2.836   8.493  0.4389 -0.0067 -0.2952
 7137SOL    HW132873   4.077   2.895   8.435  0.4102  0.1260 -0.1850
 7137SOL    HW232874   3.985   2.776   8.433 -4.1980  1.2587  1.7678
 7138SOL     OW32875   4.208   0.437   7.179  0.4130 -0.8513 -0.7932
 7138SOL    HW132876   4.303   0.430   7.169  0.6906  2.8386 -0.8695
 7138SOL    HW232877   4.190   0.482   7.096  1.2014  0.3988 -0.2795
 7139SOL     OW32878   1.495   0.016   1.758 -0.2576 -0.1299 -0.6684
 7139SOL    HW132879   1.429   0.028   1.689 -0.5967  0.6564 -0.2049
 7139SOL    HW232880   1.582   0.003   1.719 -1.8714 -0.3458 -4.2060
 7140SOL     OW32881   2.788   0.496   6.728  0.0808 -0.3374  0.3643
 7140SOL    HW132882   2.879   0.468   6.716  0.2288  1.7172 -3.2596
 7140SOL    HW232883   2.748   0.420   6.771 -2.4234  0.8892  0.2263
 7141SOL     OW32884   2.623   1.629  16.387  0.1414 -0.3693 -0.1805
 7141SOL    HW132885   2.678   1.554  16.408 -1.8071 -1.5017  0.8047
 7141SOL    HW232886   2.692   1.674  16.338 -0.3278 -1.4124 -1.8080
 7142SOL     OW32887   3.091   2.064  16.414 -0.8841  0.6641 -0.3209
 7142SOL    HW132888   3.108   2.104  16.500  0.1380  1.2267 -0.7745
 7142SOL    HW232889   3.077   2.147  16.367  0.4168  1.1397  0.1101
 7143SOL     OW32890   2.946   4.265   1.717 -0.2957 -0.0161  0.1268
 7143SOL    HW132891   2.982   4.231   1.799 -4.1141 -0.5787  1.5611
 7143SOL    HW232892   2.856   4.279   1.747  0.2312  1.6486  0.9528
 7144SOL     OW32893   1.722   2.992   2.791 -0.4489  0.4702  0.3624
 7144SOL    HW132894   1.653   2.932   2.760 -0.3960  0.4033  0.3732
 7144SOL    HW232895   1.658   3.041   2.842 -1.0354  0.2171 -0.1249
 7145SOL     OW32896   0.745   4.461  12.774  0.4983  0.8738 -0.0204
 7145SOL    HW132897   0.740   4.479  12.868 -1.9766 -0.6698  0.1604
 7145SOL    HW232898   0.817   4.397  12.776 -0.7576 -0.5878 -1.7372
 7146SOL     OW32899   0.236   1.505   7.084  0.5293  0.3602  0.1186
 7146SOL    HW132900   0.322   1.478   7.115 -0.5446 -1.6487  1.3378
 7146SOL    HW232901   0.247   1.589   7.039  0.4219  0.1643 -0.2798
 7147SOL     OW32902   4.147   2.575   0.655 -0.2342  0.4718 -0.1602
 7147SOL    HW132903   4.154   2.496   0.708 -0.3365 -0.5679 -1.7085
 7147SOL    HW232904   4.097   2.637   0.709 -1.6179 -1.7036  1.0461
 7148SOL     OW32905   2.002   0.192  13.009  0.1023  0.6295  0.4631
 7148SOL    HW132906   2.020   0.280  13.042 -0.7073  0.8744  0.2543
 7148SOL    HW232907   1.980   0.220  12.920  1.6178  1.2575  0.2728
 7149SOL     OW32908   1.682   3.921   9.942  0.2035 -0.2479  0.0994
 7149SOL    HW132909   1.662   3.859  10.012 -1.4382 -1.0446 -1.0889
 7149SOL    HW232910   1.661   4.003   9.987 -2.7127  0.0158 -1.7449
 7150SOL     OW32911   4.286   2.799  10.131  0.5226 -0.5274 -0.0038
 7150SOL    HW132912   4.324   2.868  10.184  1.1156 -2.0848  1.5774
 7150SOL    HW232913   4.223   2.839  10.071  0.4921  0.3445  0.6230
 7151SOL     OW32914   2.382   1.319   7.160  0.0265 -0.0493  0.1369
 7151SOL    HW132915   2.452   1.320   7.094 -1.0557  1.7850 -0.9893
 7151SOL    HW232916   2.319   1.267   7.110 -0.2861  1.5593 -1.1667
 7152SOL     OW32917   1.757   0.940  14.173  0.1655 -0.5516 -0.2844
 7152SOL    HW132918   1.832   0.880  14.171 -0.2673 -1.0582 -1.0802
 7152SOL    HW232919   1.774   0.987  14.091 -1.7299  1.0377  0.2493
 7153SOL     OW32920   2.825   0.752  15.133 -0.3526  0.4068 -0.3842
 7153SOL    HW132921   2.776   0.805  15.196  0.2955 -1.4936  1.6842
 7153SOL    HW232922   2.876   0.698  15.193  2.3563  2.6801 -0.6188
 7154SOL     OW32923   3.650   0.276  13.139  0.7413 -0.1279 -0.3574
 7154SOL    HW132924   3.580   0.322  13.092 -0.0323  0.1659  1.0949
 7154SOL    HW232925   3.624   0.185  13.121 -0.4445 -0.1832  1.6626
 7155SOL     OW32926   0.246   4.683   6.564  0.3000 -0.1046 -0.6010
 7155SOL    HW132927   0.228   4.593   6.591  1.7185 -0.6468 -1.4377
 7155SOL    HW232928   0.298   4.657   6.488  1.4306  1.0385 -0.2121
 7156SOL     OW32929   1.479   1.903   9.281 -0.6486 -0.2520 -0.4544
 7156SOL    HW132930   1.388   1.874   9.275 -1.2306  1.4690 -0.1921
 7156SOL    HW232931   1.471   1.998   9.273  0.0351 -0.0146  1.7304
 7157SOL     OW32932   1.783   4.667  15.080  0.2176  0.5537  0.7367
 7157SOL    HW132933   1.864   4.658  15.031 -0.1287  1.4171  0.0133
 7157SOL    HW232934   1.797   4.698  15.170 -0.6424 -0.3766  1.1946
 7158SOL     OW32935   2.982   1.892  17.218  0.7919 -0.4299  0.9615
 7158SOL    HW132936   3.022   1.978  17.231  0.9016 -0.7872  3.0584
 7158SOL    HW232937   3.058   1.840  17.191  0.2416  0.6536 -2.6044
 7159SOL     OW32938   3.371   1.883   7.614 -0.8774  0.2444  0.2823
 7159SOL    HW132939   3.327   1.799   7.601 -0.3283  0.2245 -1.4884
 7159SOL    HW232940   3.348   1.928   7.532 -1.0304 -0.1437  0.1089
 7160SOL     OW32941   2.999   3.815  14.885  0.6146 -0.9667 -0.2574
 7160SOL    HW132942   2.953   3.776  14.960  3.0580  0.1592  1.8189
 7160SOL    HW232943   3.087   3.797  14.920  0.4858 -0.7261  0.1816
 7161SOL     OW32944   0.324   1.990   6.379 -0.4067  0.4719  0.3851
 7161SOL    HW132945   0.305   1.964   6.289 -1.7668  2.3644  0.1252
 7161SOL    HW232946   0.238   2.028   6.400  0.3358  3.8065 -2.5541
 7162SOL     OW32947   1.847   3.038   4.970 -0.0957  0.2666  0.2047
 7162SOL    HW132948   1.770   3.042   4.913  0.0515  1.6069  0.0891
 7162SOL    HW232949   1.872   2.946   4.969  0.0274  0.2944  0.6074
 7163SOL     OW32950   1.058   2.502   9.191  0.4933  0.3321 -0.0833
 7163SOL    HW132951   1.070   2.587   9.148  0.1185 -0.2383 -1.3237
 7163SOL    HW232952   1.026   2.536   9.274 -1.6408 -1.4123 -0.1891
 7164SOL     OW32953   4.325   2.880   1.358  0.0435  0.2418  0.4598
 7164SOL    HW132954   4.315   2.899   1.265  1.7145 -2.1126 -0.1959
 7164SOL    HW232955   4.238   2.898   1.392 -0.2832 -1.4821  0.5232
 7165SOL     OW32956   3.092   2.722   0.513  0.0029 -0.1232 -0.4660
 7165SOL    HW132957   3.153   2.755   0.448 -0.2810  0.1020 -0.6182
 7165SOL    HW232958   3.152   2.677   0.572  0.1506  0.7775  0.0716
 7166SOL     OW32959   0.909   3.912  11.382 -0.1275  0.0773 -0.7743
 7166SOL    HW132960   0.956   3.829  11.367 -2.8723 -1.5593 -0.2782
 7166SOL    HW232961   0.984   3.971  11.369  0.8313 -0.3415  2.6841
 7167SOL     OW32962   1.468   1.171  15.908  0.3752 -0.1335 -0.2329
 7167SOL    HW132963   1.526   1.120  15.964  1.1655 -0.2513 -1.1519
 7167SOL    HW232964   1.491   1.262  15.925  1.0915 -0.4290  0.3953
 7168SOL     OW32965   2.802   3.340  13.378 -0.2205  0.0269  0.1559
 7168SOL    HW132966   2.827   3.432  13.388 -0.2004 -0.0684  0.9958
 7168SOL    HW232967   2.707   3.350  13.388 -0.0120  0.3081  1.9605
 7169SOL     OW32968   4.451   2.651   0.709  0.4717  0.5009  0.4792
 7169SOL    HW132969   4.363   2.624   0.681 -0.4827  0.8997  3.0813
 7169SOL    HW232970   4.452   2.614   0.797  0.9222 -2.8464 -0.9619
 7170SOL     OW32971   3.862   4.549   8.044  0.2911  0.2111 -0.5866
 7170SOL    HW132972   3.843   4.499   7.964 -0.0299 -0.4293 -0.1035
 7170SOL    HW232973   3.892   4.476   8.098  0.7385  0.7533 -0.1042
 7171SOL     OW32974   0.743   2.794   6.788  0.1629  0.2622 -0.5113
 7171SOL    HW132975   0.656   2.797   6.749  1.2162 -0.9113 -2.9389
 7171SOL    HW232976   0.758   2.883   6.820  1.7687  0.2765 -1.3083
 7172SOL     OW32977   1.982   2.582   3.837  0.2431 -0.1812  0.1379
 7172SOL    HW132978   2.006   2.509   3.894 -0.7892 -1.1208 -0.6082
 7172SOL    HW232979   1.898   2.550   3.803 -0.3787  2.4918 -0.8761
 7173SOL     OW32980   1.857   2.204  14.697 -0.0521 -0.2369  0.0541
 7173SOL    HW132981   1.910   2.228  14.621  1.1045  0.1650  0.9860
 7173SOL    HW232982   1.900   2.255  14.766  0.9274 -0.5071 -0.3626
 7174SOL     OW32983   1.269   1.926   8.848  0.0079 -0.2278  0.0431
 7174SOL    HW132984   1.208   1.984   8.892  0.4002 -0.3622  0.7823
 7174SOL    HW232985   1.261   1.846   8.901 -2.7502  1.2081  1.7864
 7175SOL     OW32986   3.997   2.750   0.794  0.1954  0.1313  0.2886
 7175SOL    HW132987   3.921   2.808   0.800 -0.4775 -0.8865  1.5337
 7175SOL    HW232988   4.049   2.808   0.738 -0.1071  0.6741  0.5702
 7176SOL     OW32989   2.192   0.191  14.330  0.4883 -0.0975  0.2319
 7176SOL    HW132990   2.126   0.126  14.349  0.3020  0.2842  0.8987
 7176SOL    HW232991   2.275   0.146  14.344  0.5129  0.2452  1.2029
 7177SOL     OW32992   0.733   2.436   5.257 -0.1062 -0.4988 -0.0847
 7177SOL    HW132993   0.723   2.527   5.287 -1.0979 -0.3398 -0.8988
 7177SOL    HW232994   0.821   2.413   5.287 -0.8783 -0.8000  1.9808
 7178SOL     OW32995   3.056   1.152   3.388 -0.4441  0.0261  0.7071
 7178SOL    HW132996   3.047   1.059   3.406  2.2145 -0.3670 -0.0338
 7178SOL    HW232997   2.991   1.189   3.448  0.1416  0.9046  0.8022
 7179SOL     OW32998   1.993   0.951   4.635  0.0298 -0.2099  0.4064
 7179SOL    HW132999   1.975   1.036   4.674 -0.4160  0.3804 -1.1187
 7179SOL    HW233000   1.989   0.899   4.716  1.2288  0.0559  0.6417
 7180SOL     OW33001   2.630   3.801   0.451  0.0929  0.3374 -0.9275
 7180SOL    HW133002   2.694   3.825   0.384 -0.4048 -0.0441 -1.5414
 7180SOL    HW233003   2.615   3.708   0.431  0.4060 -0.4321  2.4767
 7181SOL     OW33004   1.235   3.671  11.010  0.0147  0.0702 -0.2425
 7181SOL    HW133005   1.177   3.747  10.999  0.1278  0.1386 -0.3647
 7181SOL    HW233006   1.174   3.608  10.971 -0.5757 -0.3106  1.3117
 7182SOL     OW33007   1.043   1.316   2.847 -0.6038  0.3008  0.3156
 7182SOL    HW133008   1.064   1.229   2.880  0.7358  0.4364 -0.1681
 7182SOL    HW233009   0.952   1.309   2.817  0.1220  1.0519 -2.1212
 7183SOL     OW33010   3.320   4.326   9.754  0.3433 -1.2568  0.1004
 7183SOL    HW133011   3.373   4.251   9.783  1.8249  0.1532  1.0198
 7183SOL    HW233012   3.239   4.283   9.728 -1.7121  1.2769  2.3477
 7184SOL     OW33013   2.882   3.260   1.971 -0.4794 -0.1554  0.0306
 7184SOL    HW133014   2.969   3.223   1.956  0.0106  0.3560  1.5888
 7184SOL    HW233015   2.841   3.238   1.887 -2.9524 -0.3545  1.2886
 7185SOL     OW33016   1.766   3.881  11.567  0.2128  0.1915 -0.4332
 7185SOL    HW133017   1.673   3.904  11.579  0.8782  1.3790  2.5665
 7185SOL    HW233018   1.799   3.931  11.643  3.0632  0.3180 -1.7760
 7186SOL     OW33019   0.615   3.224   6.413 -0.4178 -0.2014  0.3847
 7186SOL    HW133020   0.644   3.312   6.434 -3.0329  0.6587  0.4922
 7186SOL    HW233021   0.699   3.179   6.411 -1.4993 -2.3063  0.9481
 7187SOL     OW33022   3.658   0.896   3.592  0.5925 -0.5946  0.0930
 7187SOL    HW133023   3.604   0.915   3.515 -1.3088  1.7564  1.9968
 7187SOL    HW233024   3.738   0.945   3.569 -0.6818  1.6642  0.4437
 7188SOL     OW33025   3.420   0.122   4.562  0.2673 -0.0252  0.4171
 7188SOL    HW133026   3.405   0.159   4.475  2.2187 -0.1927  0.0160
 7188SOL    HW233027   3.509   0.157   4.557  0.6339 -1.1597 -1.2782
 7189SOL     OW33028   1.828   3.453   7.804  0.6041 -0.4487  0.0273
 7189SOL    HW133029   1.914   3.413   7.791  3.1081  4.4714  1.7478
 7189SOL    HW233030   1.835   3.537   7.758  1.4756 -0.1030  0.7850
 7190SOL     OW33031   4.464   2.259   8.634 -0.2572  0.0105 -0.6139
 7190SOL    HW133032   4.414   2.340   8.643  0.4578  0.4612 -0.6974
 7190SOL    HW233033   4.552   2.285   8.661 -0.3553  0.4861 -0.7517
 7191SOL     OW33034   2.220   1.795   5.513  0.3815 -0.4380  0.3180
 7191SOL    HW133035   2.275   1.758   5.444 -0.3987 -0.0297 -0.5169
 7191SOL    HW233036   2.252   1.885   5.514 -0.5225 -0.1080 -1.6253
 7192SOL     OW33037   1.617   0.938  12.524  0.1175  0.7769  0.5289
 7192SOL    HW133038   1.692   0.886  12.551  0.4865  1.3056  0.5146
 7192SOL    HW233039   1.547   0.876  12.547  1.7559 -1.3394 -0.2390
 7193SOL     OW33040   2.380   3.319   7.259 -0.3600 -0.0641 -0.3850
 7193SOL    HW133041   2.465   3.337   7.299 -1.0793  2.4637  0.0392
 7193SOL    HW233042   2.319   3.346   7.328 -0.1065 -0.8146  0.1240
 7194SOL     OW33043   3.060   2.590  11.177  0.6082 -0.2827  0.1522
 7194SOL    HW133044   3.074   2.587  11.271 -0.5877  3.1988  0.4705
 7194SOL    HW233045   3.154   2.583  11.162  0.7707 -0.7297  1.3695
 7195SOL     OW33046   1.350   4.309   5.564  0.3523 -0.6801  0.1208
 7195SOL    HW133047   1.277   4.268   5.517  1.2139  0.6115 -2.3466
 7195SOL    HW233048   1.407   4.346   5.497  2.5444 -1.7655  1.3724
 7196SOL     OW33049   3.226   2.958   1.653 -0.3659 -0.1991  0.0913
 7196SOL    HW133050   3.212   3.052   1.654 -2.0228 -0.4297 -1.6107
 7196SOL    HW233051   3.245   2.934   1.562 -0.5247 -0.2159  0.0634
 7197SOL     OW33052   2.515   2.512   2.461  0.4423 -0.0768 -0.7761
 7197SOL    HW133053   2.492   2.459   2.537  1.5097  1.0237  0.3242
 7197SOL    HW233054   2.500   2.600   2.498 -3.1849 -1.7641  1.8093
 7198SOL     OW33055   2.184   1.612   6.404  0.1962  0.6105 -0.0403
 7198SOL    HW133056   2.186   1.557   6.482  0.6166  2.1299  1.0099
 7198SOL    HW233057   2.095   1.647   6.414 -0.6014 -1.1860 -0.7470
 7199SOL     OW33058   2.725   3.471   5.686 -0.2128 -0.2416 -0.6173
 7199SOL    HW133059   2.743   3.535   5.756  1.0604 -0.0211 -1.1379
 7199SOL    HW233060   2.654   3.425   5.731  0.8943 -0.8239  0.5384
 7200SOL     OW33061   2.723   2.794   7.747  0.4678 -0.0953 -0.2054
 7200SOL    HW133062   2.704   2.716   7.800 -1.2400  0.9607  0.7069
 7200SOL    HW233063   2.650   2.844   7.782 -0.5298 -1.9322  0.3703
 7201SOL     OW33064   2.114   4.428   7.747  0.0451  0.0272  0.6899
 7201SOL    HW133065   2.127   4.426   7.652  0.2147  1.7361  0.6728
 7201SOL    HW233066   2.020   4.446   7.745 -0.0172  0.0070  3.2368
 7202SOL     OW33067   2.015   3.724   8.116 -0.0646 -0.4451  0.4715
 7202SOL    HW133068   1.932   3.744   8.072 -1.8751 -1.3652  3.4634
 7202SOL    HW233069   2.019   3.790   8.185 -1.6225  1.3204 -1.1138
 7203SOL     OW33070   2.795   4.191   8.594  0.6501 -0.0181  0.2224
 7203SOL    HW133071   2.860   4.258   8.570 -0.9046  1.7358  0.9192
 7203SOL    HW233072   2.775   4.225   8.681  0.1226 -2.0614  0.9052
 7204SOL     OW33073   4.549   2.089  13.366  0.1748 -0.1540  0.2075
 7204SOL    HW133074   4.473   2.051  13.411  0.3561 -0.5714  0.1534
 7204SOL    HW233075   4.616   2.048  13.420  2.2737 -0.8279 -2.9349
 7205SOL     OW33076   4.313   4.195   4.853 -0.1310  0.0338 -0.2145
 7205SOL    HW133077   4.353   4.117   4.815  1.8822  0.8244  0.2813
 7205SOL    HW233078   4.258   4.164   4.925 -1.6597 -1.7462 -2.1465
 7206SOL     OW33079   1.297   4.097   0.069  0.4643  0.1119 -0.0609
 7206SOL    HW133080   1.232   4.076   0.136  1.7364 -1.0554  0.8118
 7206SOL    HW233081   1.325   4.005   0.060 -0.0917 -0.0714  0.0562
 7207SOL     OW33082   4.104   3.567  14.269  0.0157 -0.2919 -0.4066
 7207SOL    HW133083   4.192   3.604  14.261  0.3390 -1.2767 -1.3262
 7207SOL    HW233084   4.101   3.565  14.365 -2.5561 -0.2383 -0.4958
 7208SOL     OW33085   2.851   0.469  14.941  0.1068  0.5724  0.6039
 7208SOL    HW133086   2.917   0.510  14.885  0.7433 -2.3129 -0.7578
 7208SOL    HW233087   2.862   0.382  14.902  0.5290  1.1592 -0.5994
 7209SOL     OW33088   0.909   0.723   8.163 -0.8184  0.3425  0.0038
 7209SOL    HW133089   0.935   0.664   8.092 -3.5310 -0.6167 -0.1851
 7209SOL    HW233090   0.912   0.807   8.117  0.1672  0.1958 -0.1991
 7210SOL     OW33091   3.619   0.179  16.130  0.2834  0.4977 -0.1327
 7210SOL    HW133092   3.592   0.089  16.152 -1.7765  0.5835 -2.3948
 7210SOL    HW233093   3.696   0.190  16.186 -0.6475  2.2685  0.8030
 7211SOL     OW33094   0.764   3.475   6.538  0.3966  0.3549 -0.2542
 7211SOL    HW133095   0.744   3.548   6.596  0.6864 -1.0272  1.5735
 7211SOL    HW233096   0.823   3.415   6.584  0.2581  1.3928  1.2440
 7212SOL     OW33097   2.133   0.580  12.754 -0.4069 -0.2320 -0.4643
 7212SOL    HW133098   2.184   0.627  12.689 -1.4568 -2.3637 -2.8262
 7212SOL    HW233099   2.063   0.642  12.776  1.3030  1.1315  1.1586
 7213SOL     OW33100   1.792   3.197   6.896  0.3843  0.6999  0.2203
 7213SOL    HW133101   1.699   3.222   6.895  1.2995  4.2646  2.6083
 7213SOL    HW233102   1.794   3.131   6.965  1.2270  0.9249  0.4116
 7214SOL     OW33103   3.589   3.605  14.530  0.3014  0.3970 -0.4855
 7214SOL    HW133104   3.500   3.581  14.505  0.1785 -0.0034  0.3649
 7214SOL    HW233105   3.587   3.615  14.625 -0.4254 -2.2720 -0.2321
 7215SOL     OW33106   0.404   1.285  11.611  0.1555 -0.3406 -1.2688
 7215SOL    HW133107   0.417   1.364  11.662 -0.1111 -0.7569 -0.5508
 7215SOL    HW233108   0.399   1.217  11.678  2.2404 -0.6188 -1.3970
 7216SOL     OW33109   2.654   1.722  17.314  0.3677  0.3001 -0.2777
 7216SOL    HW133110   2.621   1.661  17.248 -1.0658  0.2480  0.5067
 7216SOL    HW233111   2.590   1.703  17.382  2.9981 -2.0890  1.5798
 7217SOL     OW33112   0.167   1.723   6.025 -0.1712 -0.8855 -0.2897
 7217SOL    HW133113   0.203   1.642   6.060 -0.6608 -0.1231  1.9891
 7217SOL    HW233114   0.208   1.721   5.939  1.0729  0.4006  0.2811
 7218SOL     OW33115   3.455   4.266  16.771  0.7162 -0.3448  0.1520
 7218SOL    HW133116   3.498   4.280  16.686 -1.4288  0.9469 -0.7082
 7218SOL    HW233117   3.509   4.311  16.837  1.6108 -0.8676 -0.2188
 7219SOL     OW33118   2.478   2.973  13.400  0.0060  0.5681  0.0580
 7219SOL    HW133119   2.451   3.062  13.421 -0.2710 -0.3779  3.6913
 7219SOL    HW233120   2.539   2.988  13.328  1.2195  0.4642  1.0616
 7220SOL     OW33121   4.426   1.236   7.965  0.7662  0.3986 -0.2361
 7220SOL    HW133122   4.429   1.331   7.981  3.2789  0.2479  0.2824
 7220SOL    HW233123   4.376   1.231   7.883  2.2763 -0.8541 -1.0783
 7221SOL     OW33124   0.061   0.257   8.882 -1.0442  0.6481 -0.5011
 7221SOL    HW133125   0.134   0.247   8.821  0.0455  0.2972  0.8567
 7221SOL    HW233126   0.008   0.178   8.869  0.3862 -0.7742  2.1812
 7222SOL     OW33127   0.152   4.665  13.862 -0.0766 -0.0528 -0.0062
 7222SOL    HW133128   0.223   4.658  13.798 -2.6343 -1.6166 -2.6860
 7222SOL    HW233129   0.125   0.032  13.858  1.3706  0.4596  1.7823
 7223SOL     OW33130   3.977   0.795   1.523 -0.0629  0.7410  0.3829
 7223SOL    HW133131   3.996   0.859   1.454  0.7940 -1.2110 -1.2159
 7223SOL    HW233132   4.060   0.788   1.569 -0.1673 -1.8094  0.2275
 7224SOL     OW33133   2.072   3.574  12.471 -0.0532  0.2419 -0.0579
 7224SOL    HW133134   2.029   3.645  12.424  0.2073 -0.2034 -0.9741
 7224SOL    HW233135   2.076   3.512  12.398  2.4770 -1.9700  1.9397
 7225SOL     OW33136   1.721   1.798  10.655  0.2402 -0.2100  0.1873
 7225SOL    HW133137   1.662   1.725  10.671 -1.9015  2.0614  2.6090
 7225SOL    HW233138   1.678   1.872  10.699  0.3164  0.2886 -0.5625
 7226SOL     OW33139   0.445   3.478   3.317  0.1903 -0.4344  0.2335
 7226SOL    HW133140   0.441   3.526   3.234 -1.2335 -0.2088  0.4362
 7226SOL    HW233141   0.511   3.528   3.366  3.1163 -0.6297 -3.5334
 7227SOL     OW33142   3.866   3.936   3.492  0.5037  0.2710 -0.3830
 7227SOL    HW133143   3.956   3.937   3.526  0.3322  2.2690 -0.0066
 7227SOL    HW233144   3.828   4.012   3.535  0.8309  1.1630 -1.6439
 7228SOL     OW33145   0.962   4.218   1.746 -0.3429 -0.9182 -0.4173
 7228SOL    HW133146   1.054   4.229   1.722  0.1093 -0.2443  1.6766
 7228SOL    HW233147   0.964   4.122   1.748 -2.4749 -0.9604  0.2695
 7229SOL     OW33148   0.166   4.042  12.105  0.0998 -0.1989  1.1179
 7229SOL    HW133149   0.247   4.064  12.151  0.2844 -0.3631  0.8736
 7229SOL    HW233150   0.177   3.957  12.063 -3.4332 -0.9166  1.6744
 7230SOL     OW33151   1.417   2.075  16.689  0.2058 -0.5267 -0.1660
 7230SOL    HW133152   1.380   1.987  16.678 -0.5800 -0.4729  2.0754
 7230SOL    HW233153   1.495   2.063  16.635 -0.2599 -0.5530 -0.8395
 7231SOL     OW33154   3.501   1.955  11.571  0.0229  0.2003 -0.2275
 7231SOL    HW133155   3.473   1.978  11.483  2.8248  1.2700 -0.8215
 7231SOL    HW233156   3.532   2.038  11.608  1.3275  0.1760 -1.3188
 7232SOL     OW33157   3.987   1.303   1.409 -0.0100 -0.3682 -0.2372
 7232SOL    HW133158   3.933   1.375   1.377  0.8359  0.7010  0.7307
 7232SOL    HW233159   4.008   1.331   1.498 -1.2269 -1.5468  0.4248
 7233SOL     OW33160   4.053   2.027   6.162 -0.0474  0.3128  0.1069
 7233SOL    HW133161   4.050   1.990   6.250  0.6196  1.3384  0.5666
 7233SOL    HW233162   3.988   2.097   6.164  1.4411  1.7094  0.5801
 7234SOL     OW33163   2.129   3.640  12.928 -0.5612 -0.3675  0.0872
 7234SOL    HW133164   2.092   3.579  12.863 -1.5694 -0.7632  1.0259
 7234SOL    HW233165   2.222   3.637  12.908 -0.6134  3.7393 -0.7033
 7235SOL     OW33166   2.851   0.350   8.340  0.3664  0.2929  0.4053
 7235SOL    HW133167   2.799   0.403   8.278  1.3380  0.3574 -0.3639
 7235SOL    HW233168   2.786   0.323   8.404 -0.1459  0.9325  0.1552
 7236SOL     OW33169   2.876   2.459  10.366  0.2165 -0.2960 -0.0957
 7236SOL    HW133170   2.782   2.445  10.369  0.0693  0.7033  0.0022
 7236SOL    HW233171   2.888   2.554  10.372 -1.3896  0.0849 -2.7465
 7237SOL     OW33172   2.239   2.544  13.395 -0.0907  0.0850 -0.9513
 7237SOL    HW133173   2.296   2.535  13.319  0.5209  1.3520 -0.6525
 7237SOL    HW233174   2.244   2.638  13.413 -0.1765  0.0017 -0.4960
 7238SOL     OW33175   2.444   1.263   9.077 -0.1544  0.1329  0.6164
 7238SOL    HW133176   2.351   1.241   9.089 -0.3614 -0.6991 -2.5492
 7238SOL    HW233177   2.430   1.353   9.105 -1.8205 -0.7317  2.5814
 7239SOL     OW33178   2.013   2.617   4.302 -0.5261 -0.7772  0.0535
 7239SOL    HW133179   2.101   2.582   4.287 -0.4568 -0.1933 -0.8993
 7239SOL    HW233180   2.031   2.693   4.247  2.6757  0.9067  3.4527
 7240SOL     OW33181   2.897   0.394  12.324 -0.0442 -0.1243 -0.2819
 7240SOL    HW133182   2.861   0.418  12.239  2.0463 -1.9777 -1.7055
 7240SOL    HW233183   2.891   0.480  12.365 -1.1105 -0.4422  0.2513
 7241SOL     OW33184   1.500   3.450   3.597  0.7571 -0.1619 -0.0962
 7241SOL    HW133185   1.554   3.471   3.521  0.7736  0.6499  0.1418
 7241SOL    HW233186   1.419   3.495   3.573 -0.4882 -1.5591  1.5164
 7242SOL     OW33187   2.145   0.314   5.578  0.3422 -0.0654 -0.5839
 7242SOL    HW133188   2.233   0.350   5.589  1.1930 -1.8418 -1.4330
 7242SOL    HW233189   2.111   0.321   5.667 -0.6721  0.9428 -1.0587
 7243SOL     OW33190   0.597   0.275  15.589  0.3136 -0.4545  0.1111
 7243SOL    HW133191   0.585   0.230  15.673  0.4069 -0.6509  0.0207
 7243SOL    HW233192   0.562   0.209  15.529 -3.0333 -0.6642  2.3141
 7244SOL     OW33193   1.683   1.385   3.667  0.8474 -0.0374  0.1575
 7244SOL    HW133194   1.651   1.358   3.754  0.8429  2.7832  1.0413
 7244SOL    HW233195   1.635   1.467   3.668 -0.2087 -0.6258 -2.1834
 7245SOL     OW33196   0.714   4.178   7.126 -0.3234 -0.3740 -0.5408
 7245SOL    HW133197   0.686   4.245   7.063 -2.0896  0.1912  0.8497
 7245SOL    HW233198   0.799   4.216   7.145 -0.2871 -0.1749 -1.1066
 7246SOL     OW33199   2.172   1.519   4.535 -0.1548  0.3842  0.0441
 7246SOL    HW133200   2.193   1.457   4.604  2.9476  0.4763 -0.8113
 7246SOL    HW233201   2.255   1.524   4.487  0.2376 -1.0961  0.5858
 7247SOL     OW33202   1.299   0.420   7.024 -0.9275 -0.1402  0.0074
 7247SOL    HW133203   1.290   0.324   7.022 -0.5818 -0.1391 -2.3797
 7247SOL    HW233204   1.381   0.428   7.073 -1.8871  2.4574  1.1646
 7248SOL     OW33205   0.522   2.788   1.251  0.3347  0.5801  0.4193
 7248SOL    HW133206   0.590   2.849   1.279 -0.8054  1.5964  0.9549
 7248SOL    HW233207   0.556   2.768   1.164 -0.0580 -0.7070  0.5684
 7249SOL     OW33208   3.586   0.450   1.167 -0.6220  0.1433  0.1883
 7249SOL    HW133209   3.637   0.479   1.243 -2.0763 -1.7951  1.9148
 7249SOL    HW233210   3.512   0.505   1.190 -0.1370  0.1057  1.8455
 7250SOL     OW33211   3.727   4.614  17.463  0.4248 -0.2495 -0.0152
 7250SOL    HW133212   3.692   4.702  17.480 -1.1039 -0.8449 -0.0459
 7250SOL    HW233213   3.818   4.626  17.436  0.6404  0.4718  1.0310
 7251SOL     OW33214   1.008   1.594   3.087 -0.1968 -0.3451 -0.2008
 7251SOL    HW133215   1.014   1.595   2.991  0.6049  0.5623 -0.1398
 7251SOL    HW233216   1.067   1.668   3.101 -0.1223 -0.5657  0.6753
 7252SOL     OW33217   2.150   3.923   4.225  0.1932  0.0896 -0.3174
 7252SOL    HW133218   2.124   3.858   4.290  1.5906  1.0821  1.2341
 7252SOL    HW233219   2.082   3.921   4.158  0.2601  1.4372 -0.4314
 7253SOL     OW33220   2.578   3.614   3.322  0.2064  0.3770 -0.3730
 7253SOL    HW133221   2.540   3.527   3.322 -0.3735  0.6299  0.4862
 7253SOL    HW233222   2.669   3.600   3.297  0.4220  0.9219  0.0987
 7254SOL     OW33223   3.749   3.478   6.010  0.3263 -0.4661  0.3328
 7254SOL    HW133224   3.819   3.412   6.007  0.7128 -0.0083 -0.6301
 7254SOL    HW233225   3.730   3.473   6.104 -1.2701 -0.4578 -0.0029
 7255SOL     OW33226   4.392   3.051   0.339 -0.2915  0.4759 -0.2950
 7255SOL    HW133227   4.426   2.981   0.284 -0.5821  0.4686 -0.4617
 7255SOL    HW233228   4.305   3.015   0.354  0.0800 -0.0188  0.6840
 7256SOL     OW33229   3.367   2.103   2.618 -0.1366  0.4939 -0.2752
 7256SOL    HW133230   3.302   2.140   2.557 -1.0894 -0.6465  0.0580
 7256SOL    HW233231   3.439   2.080   2.559  0.7282 -0.4444  1.1652
 7257SOL     OW33232   2.592   4.154   6.943 -0.7333 -0.0237 -0.4741
 7257SOL    HW133233   2.504   4.127   6.916 -1.0626  1.3749 -0.7649
 7257SOL    HW233234   2.628   4.070   6.971 -0.0876  0.2564 -0.4702
 7258SOL     OW33235   0.130   2.844   9.158 -0.1698  0.1077 -0.8331
 7258SOL    HW133236   0.151   2.924   9.207 -0.4820 -0.6744  0.5872
 7258SOL    HW233237   0.053   2.814   9.206 -0.5932  1.0116 -0.9445
 7259SOL     OW33238   1.175   4.450  12.686 -0.4659 -0.0001  0.2906
 7259SOL    HW133239   1.257   4.457  12.636 -0.0862  3.1956  1.3376
 7259SOL    HW233240   1.208   4.445  12.775 -0.5658 -0.1837  0.3169
 7260SOL     OW33241   2.620   0.443   7.583 -0.2562 -0.1421 -0.2249
 7260SOL    HW133242   2.657   0.385   7.650 -1.5028 -1.4525 -0.6691
 7260SOL    HW233243   2.611   0.528   7.627  2.0689  0.9053 -1.7570
 7261SOL     OW33244   3.679   2.573  10.971 -0.0735  0.0754 -0.2266
 7261SOL    HW133245   3.729   2.653  10.990 -1.3758  0.9436 -0.5237
 7261SOL    HW233246   3.712   2.521  11.044 -0.7293  1.3749  1.0002
 7262SOL     OW33247   2.258   2.920   5.921  0.1533  0.3858 -0.1043
 7262SOL    HW133248   2.237   2.827   5.914  1.6112 -0.0433  1.3772
 7262SOL    HW233249   2.212   2.946   6.001  2.2179  0.4875  1.0278
 7263SOL     OW33250   2.117   0.610   6.771 -0.1044  0.8439  0.7277
 7263SOL    HW133251   2.210   0.593   6.788 -0.4173 -2.8651 -1.2555
 7263SOL    HW233252   2.086   0.632   6.859  0.6276  3.9068  0.2255
 7264SOL     OW33253   1.507   2.150   4.985 -0.0312 -0.4192 -0.3271
 7264SOL    HW133254   1.540   2.064   5.015  0.0778 -0.2722 -0.0219
 7264SOL    HW233255   1.435   2.124   4.928 -1.4295  0.4398  1.0350
 7265SOL     OW33256   1.295   3.120   8.870  0.4115 -0.5764 -0.0856
 7265SOL    HW133257   1.380   3.127   8.912 -0.0411 -1.4005  0.9651
 7265SOL    HW233258   1.252   3.066   8.936 -1.7366 -0.4674 -1.3505
 7266SOL     OW33259   1.057   2.946   6.517  0.0619 -0.0761 -0.1532
 7266SOL    HW133260   1.035   2.860   6.554 -0.1687 -0.9973 -2.4407
 7266SOL    HW233261   0.974   2.993   6.521  1.7997  3.0819 -1.2823
 7267SOL     OW33262   1.571   3.629  12.393 -0.0842 -0.2472 -0.2212
 7267SOL    HW133263   1.601   3.612  12.483  0.1531  0.8438 -0.0927
 7267SOL    HW233264   1.483   3.598  12.413  0.3365 -1.1193  0.3030
 7268SOL     OW33265   1.216   1.338   7.788  0.3129 -0.1079 -0.1319
 7268SOL    HW133266   1.284   1.397   7.820 -0.4158  0.7226 -0.1315
 7268SOL    HW233267   1.214   1.260   7.844  1.1222  0.2637  0.4144
 7269SOL     OW33268   1.535   2.538   3.519 -0.2311  0.3550 -0.3211
 7269SOL    HW133269   1.604   2.578   3.465 -0.5691  0.6054 -0.5685
 7269SOL    HW233270   1.511   2.613   3.574  1.0983 -0.3808  1.2639
 7270SOL     OW33271   1.416   3.785   9.779  0.4630 -0.4038  0.7344
 7270SOL    HW133272   1.476   3.817   9.711 -1.2937  0.3056 -0.4593
 7270SOL    HW233273   1.345   3.848   9.788  2.1966  1.4994  1.2307
 7271SOL     OW33274   4.325   1.728   1.662 -0.5555 -0.2057 -0.5236
 7271SOL    HW133275   4.409   1.691   1.687 -0.2215  1.0930  0.2704
 7271SOL    HW233276   4.276   1.728   1.745  0.2154  0.0719 -0.0662
 7272SOL     OW33277   1.059   3.899  10.961  0.2500 -0.7307  0.3912
 7272SOL    HW133278   1.038   3.967  11.025 -0.3173 -0.4426 -0.1044
 7272SOL    HW233279   0.969   3.887  10.931 -0.7990  3.3838  1.9442
 7273SOL     OW33280   2.572   1.598   2.073  0.6253 -0.5660 -0.3249
 7273SOL    HW133281   2.513   1.524   2.056 -1.6863  1.3966 -0.8866
 7273SOL    HW233282   2.525   1.629   2.150 -1.7862 -2.3248 -1.0797
 7274SOL     OW33283   1.336   2.718   8.271  0.4486  0.1610 -0.5303
 7274SOL    HW133284   1.408   2.763   8.227 -0.7346  0.9986 -1.5828
 7274SOL    HW233285   1.312   2.781   8.339  0.9319 -0.4459  0.2068
 7275SOL     OW33286   4.322   4.278   3.586 -0.0367 -0.3212 -0.0878
 7275SOL    HW133287   4.282   4.194   3.565 -0.1814  0.3052 -2.3850
 7275SOL    HW233288   4.253   4.317   3.640  1.9860 -0.0760  2.3022
 7276SOL     OW33289   2.251   0.148   1.054  0.2223  0.2269 -0.5744
 7276SOL    HW133290   2.231   0.193   1.136 -0.2140  1.6172 -1.4386
 7276SOL    HW233291   2.165   0.110   1.038 -0.1547  1.3833 -1.2882
 7277SOL     OW33292   3.718   0.622   3.677  0.1965  0.2322 -0.2338
 7277SOL    HW133293   3.706   0.712   3.647 -0.3691  0.3874  0.4749
 7277SOL    HW233294   3.791   0.629   3.738 -0.9006  0.9351  0.9907
 7278SOL     OW33295   4.159   2.931   5.589 -0.0177 -0.5543  0.0291
 7278SOL    HW133296   4.200   2.903   5.507 -0.5565  0.0018 -0.4293
 7278SOL    HW233297   4.231   2.988   5.618 -0.9048  2.2090 -3.1297
 7279SOL     OW33298   0.308   3.263  11.295  0.9175 -0.4015  0.2672
 7279SOL    HW133299   0.358   3.188  11.262 -2.1530 -1.6412 -1.5520
 7279SOL    HW233300   0.228   3.276  11.245  0.4331  1.9648  1.6955
 7280SOL     OW33301   0.346   1.293   2.957  0.0698 -0.7637 -0.5021
 7280SOL    HW133302   0.355   1.231   2.884 -2.4904 -0.4355 -1.0789
 7280SOL    HW233303   0.430   1.339   2.965 -0.2603  0.0142 -1.6126
 7281SOL     OW33304   1.614   3.395   4.130  0.0865  0.3860 -0.3969
 7281SOL    HW133305   1.666   3.421   4.206 -1.9869 -3.7473  2.4090
 7281SOL    HW233306   1.684   3.401   4.064 -1.1228  0.9422 -1.6250
 7282SOL     OW33307   1.555   1.501   1.791 -0.0392 -0.2527  0.2737
 7282SOL    HW133308   1.465   1.511   1.820 -0.4995 -0.4179 -1.0655
 7282SOL    HW233309   1.577   1.421   1.839  1.1796 -1.2233 -1.8969
 7283SOL     OW33310   3.311   0.173   7.192  0.6310  0.1874  0.0454
 7283SOL    HW133311   3.254   0.117   7.140  0.2734  1.7823 -1.2960
 7283SOL    HW233312   3.290   0.262   7.164  0.6893  0.6375  1.3923
 7284SOL     OW33313   3.690   2.985  16.045 -0.5264  0.0242 -0.4342
 7284SOL    HW133314   3.649   3.060  16.089 -1.4963 -1.6473  1.5160
 7284SOL    HW233315   3.727   3.012  15.961 -1.0829  0.5938 -0.4961
 7285SOL     OW33316   4.044   0.268   8.207  0.1276  0.0123  0.3326
 7285SOL    HW133317   4.123   0.238   8.253  1.3785  0.4325 -1.5049
 7285SOL    HW233318   3.983   0.197   8.224  1.1562 -0.4951  1.8551
 7286SOL     OW33319   2.026   3.097   3.926  0.3923  0.7666  0.5486
 7286SOL    HW133320   2.087   3.126   3.858 -0.7651 -0.4855 -1.0205
 7286SOL    HW233321   2.059   3.009   3.946 -0.8480 -0.0346 -0.9264
 7287SOL     OW33322   0.552   4.469   4.871  0.3032 -0.0114  0.2157
 7287SOL    HW133323   0.482   4.531   4.848  0.5779  0.6940  1.2740
 7287SOL    HW233324   0.521   4.446   4.958 -0.3890 -2.5771 -0.7224
 7288SOL     OW33325   1.641   0.227   6.409  0.4803 -0.4988  0.3438
 7288SOL    HW133326   1.599   0.188   6.486  0.5394 -1.2659 -0.0123
 7288SOL    HW233327   1.723   0.178   6.397 -0.9694 -2.2025 -2.3925
 7289SOL     OW33328   3.434   3.925   7.402  0.2875  0.1741 -0.5563
 7289SOL    HW133329   3.434   3.830   7.389 -1.7676 -0.1012  1.5247
 7289SOL    HW233330   3.472   3.936   7.489  0.2876 -0.7727 -0.4353
 7290SOL     OW33331   4.440   0.699  11.283 -0.5575 -0.0591  0.0493
 7290SOL    HW133332   4.373   0.719  11.218 -0.1037 -2.0230 -1.0194
 7290SOL    HW233333   4.492   0.633  11.238 -0.8330  0.6650 -1.3190
 7291SOL     OW33334   3.034   2.358   5.692 -0.1634 -0.0727  0.0299
 7291SOL    HW133335   3.104   2.318   5.641  0.8752 -0.2160  1.5752
 7291SOL    HW233336   3.018   2.286   5.752 -0.4924 -1.9481 -2.2958
 7292SOL     OW33337   3.114   1.526   1.967 -0.1344  0.0411 -0.1432
 7292SOL    HW133338   3.114   1.433   1.991 -1.7289  0.4750  1.5512
 7292SOL    HW233339   3.097   1.568   2.051 -0.4059  0.6312 -0.4963
 7293SOL     OW33340   1.298   4.172  14.000  0.2517 -0.2689  0.2594
 7293SOL    HW133341   1.239   4.197  14.071 -1.0746 -0.1339 -0.8843
 7293SOL    HW233342   1.380   4.176  14.048 -0.3128 -3.8298  1.4728
 7294SOL     OW33343   0.015   3.600  10.899  0.0716  0.5943  0.0130
 7294SOL    HW133344   4.668   3.555  10.854 -0.0393  1.1980 -0.4102
 7294SOL    HW233345   0.064   3.620  10.820 -0.0442  1.8573  0.2669
 7295SOL     OW33346   1.030   0.090   4.271 -0.0963 -0.0825  0.3886
 7295SOL    HW133347   1.110   0.060   4.228 -0.4457 -0.3289 -0.0914
 7295SOL    HW233348   0.969   0.071   4.199  1.7654 -2.2494 -0.5944
 7296SOL     OW33349   3.736   0.467   8.916  1.0638  0.5488  0.0459
 7296SOL    HW133350   3.676   0.501   8.982  0.1378  0.3987 -0.7107
 7296SOL    HW233351   3.673   0.453   8.845  1.4462  0.7134 -0.3292
 7297SOL     OW33352   3.687   2.518   8.400 -0.5181 -0.1218 -0.2807
 7297SOL    HW133353   3.674   2.447   8.462  0.3343 -0.5115 -0.5560
 7297SOL    HW233354   3.775   2.553   8.415 -0.2776 -0.9601  0.2597
 7298SOL     OW33355   1.949   0.450   5.221  0.0020  0.3820 -0.4392
 7298SOL    HW133356   1.907   0.369   5.247 -0.5047  1.1105  1.0229
 7298SOL    HW233357   1.942   0.444   5.125 -0.1445  3.0287 -0.6076
 7299SOL     OW33358   2.854   3.034  11.485  0.1795  0.3660 -0.1157
 7299SOL    HW133359   2.798   3.105  11.518  1.5513  2.1571 -1.6519
 7299SOL    HW233360   2.795   3.003  11.417  0.9323  2.0712 -1.5550
 7300SOL     OW33361   4.182   0.191   8.773  0.0408  0.3562 -0.3728
 7300SOL    HW133362   4.140   0.228   8.695 -1.6763 -1.8207 -0.4697
 7300SOL    HW233363   4.266   0.237   8.765  0.1190  0.4839  1.1025
 7301SOL     OW33364   2.756   1.641   2.471 -0.2843 -0.7176 -0.0510
 7301SOL    HW133365   2.764   1.578   2.399 -0.6103 -0.6629 -0.1358
 7301SOL    HW233366   2.673   1.681   2.446 -0.3142 -0.1524  0.9857
 7302SOL     OW33367   4.457   2.988   5.055  0.0529 -0.4844  0.1658
 7302SOL    HW133368   4.448   3.038   5.136  0.1208 -1.0439  0.5188
 7302SOL    HW233369   4.500   3.053   5.001 -0.1381  1.3777  2.2662
 7303SOL     OW33370   1.200   1.282  11.145  0.2709  0.6550  0.4238
 7303SOL    HW133371   1.119   1.328  11.166  1.1537  2.1316  0.5417
 7303SOL    HW233372   1.183   1.241  11.060 -0.9175  0.4288  0.7682
 7304SOL     OW33373   4.457   0.542   0.962  0.2812 -0.2333 -0.0392
 7304SOL    HW133374   4.417   0.613   0.911  0.2785 -2.8963 -3.7725
 7304SOL    HW233375   4.390   0.485   0.998 -1.4647  1.5418 -0.4371
 7305SOL     OW33376   4.657   0.436   2.332  0.0633 -0.1195  0.0816
 7305SOL    HW133377   0.019   0.474   2.312  0.3685 -0.5048  0.6526
 7305SOL    HW233378   4.686   0.350   2.364  0.9206  0.7626  1.6529
 7306SOL     OW33379   2.564   3.936  13.676 -0.4656  0.5787 -0.5826
 7306SOL    HW133380   2.613   3.920  13.596 -1.3021 -0.2748 -0.9202
 7306SOL    HW233381   2.550   3.849  13.714  1.7669 -1.5365 -4.5892
 7307SOL     OW33382   2.004   4.426   6.254 -0.5153  0.0064  0.1009
 7307SOL    HW133383   2.053   4.493   6.205  1.1572 -2.4930 -1.6297
 7307SOL    HW233384   1.967   4.365   6.191 -1.1825 -0.3998  0.8987
 7308SOL     OW33385   3.980   0.997   5.333  0.3154  0.4411 -0.0962
 7308SOL    HW133386   3.960   1.068   5.272 -0.7461 -0.3284 -0.6470
 7308SOL    HW233387   4.038   0.939   5.284  0.7460 -0.0919  1.0404
 7309SOL     OW33388   1.362   3.069   6.778 -0.2063 -0.3257  0.6090
 7309SOL    HW133389   1.284   3.123   6.768 -0.1406 -0.3540 -0.0435
 7309SOL    HW233390   1.392   3.085   6.688  2.0588 -4.0675  0.6645
 7310SOL     OW33391   0.956   1.283   4.624 -0.0482  0.0808 -0.1765
 7310SOL    HW133392   0.951   1.190   4.649 -0.3722  0.5559  1.5468
 7310SOL    HW233393   0.983   1.278   4.532  1.6940  1.0814  0.2784
 7311SOL     OW33394   3.439   4.349   7.133  0.2564  0.5038  0.6973
 7311SOL    HW133395   3.442   4.261   7.168  2.1105  0.8085  1.3108
 7311SOL    HW233396   3.385   4.399   7.194  1.0611  0.3210  1.5485
 7312SOL     OW33397   3.351   3.647  16.576  0.2230 -0.4888 -0.1506
 7312SOL    HW133398   3.325   3.656  16.484 -0.0504 -0.4008 -0.0640
 7312SOL    HW233399   3.304   3.723  16.609 -0.4084 -0.5125 -0.9912
 7313SOL     OW33400   3.624   1.158   4.522 -0.3064  0.1276 -0.1920
 7313SOL    HW133401   3.569   1.191   4.451  1.5454  1.0121 -1.2112
 7313SOL    HW233402   3.560   1.107   4.571  0.4442 -0.0098  0.6452
 7314SOL     OW33403   1.877   4.278   3.346  0.0951  0.1461 -1.3354
 7314SOL    HW133404   1.929   4.296   3.268  1.9321 -0.3012 -0.2025
 7314SOL    HW233405   1.796   4.246   3.304 -0.6071 -0.5397  0.5425
 7315SOL     OW33406   0.440   2.309   3.633 -0.2672 -0.7030  0.0224
 7315SOL    HW133407   0.518   2.356   3.662  0.7217 -3.4234  1.7477
 7315SOL    HW233408   0.385   2.341   3.704  0.3413 -0.7897  0.5319
 7316SOL     OW33409   1.182   0.998   7.712  0.1040  0.6157 -0.1574
 7316SOL    HW133410   1.223   1.021   7.796  0.9030 -1.5043  0.0328
 7316SOL    HW233411   1.145   0.912   7.733  0.1706  0.2627 -1.5320
 7317SOL     OW33412   1.660   4.556   5.646 -0.4042  0.2328  0.2158
 7317SOL    HW133413   1.576   4.570   5.602 -0.5520 -0.6544  0.2079
 7317SOL    HW233414   1.686   4.465   5.636  2.1699  0.8524  1.1675
 7318SOL     OW33415   1.722   0.712   4.917 -0.2435 -0.7183  0.7296
 7318SOL    HW133416   1.721   0.630   4.869 -0.8570 -1.4004  1.9001
 7318SOL    HW233417   1.675   0.680   4.995 -1.8291 -2.1413 -0.8209
 7319SOL     OW33418   2.158   1.420   6.610  0.7479  0.3072  0.4458
 7319SOL    HW133419   2.132   1.362   6.538 -0.5643 -0.5753  1.6313
 7319SOL    HW233420   2.119   1.370   6.682  1.0960 -1.3112 -0.4890
 7320SOL     OW33421   3.337   0.986   5.042  0.2518  0.5179  0.2884
 7320SOL    HW133422   3.372   0.949   5.123 -0.8807  0.5606  0.8032
 7320SOL    HW233423   3.264   1.036   5.079 -0.7164 -0.6285 -0.0958
 7321SOL     OW33424   2.257   1.094   6.726  0.2427  0.2395  0.0831
 7321SOL    HW133425   2.342   1.054   6.746  0.7155 -0.1854 -2.7658
 7321SOL    HW233426   2.269   1.118   6.634 -1.4203  2.9600  0.5559
 7322SOL     OW33427   0.511   2.345  14.727  0.1403  0.7071 -0.2558
 7322SOL    HW133428   0.526   2.373  14.637 -1.1301  0.0190 -0.6723
 7322SOL    HW233429   0.604   2.327  14.744 -0.5886 -1.1890  1.6424
 7323SOL     OW33430   2.659   1.203   1.385  0.2760 -0.0631  0.1340
 7323SOL    HW133431   2.642   1.263   1.457  0.8259 -1.4137  1.4052
 7323SOL    HW233432   2.587   1.234   1.331 -0.5953 -0.6967  0.9352
 7324SOL     OW33433   1.364   1.165   5.546  0.0686  0.3756 -0.3247
 7324SOL    HW133434   1.336   1.182   5.636  0.5570 -0.5150 -0.0106
 7324SOL    HW233435   1.457   1.185   5.555 -0.2253  1.6363 -0.0457
 7325SOL     OW33436   1.556   4.479  17.090 -0.6692  0.3131  0.1958
 7325SOL    HW133437   1.496   4.408  17.113  0.5319 -0.8714 -0.3450
 7325SOL    HW233438   1.567   4.481  16.995  1.1568 -1.3134  0.3606
 7326SOL     OW33439   1.380   4.202  15.655  0.1390 -0.2759  0.3152
 7326SOL    HW133440   1.466   4.227  15.690  0.3028  0.0567 -0.3304
 7326SOL    HW233441   1.328   4.266  15.704 -1.0883 -0.9260 -0.1404
 7327SOL     OW33442   3.618   1.063  16.588  0.8174 -0.2143  0.5160
 7327SOL    HW133443   3.552   1.087  16.523  1.6989  2.6506  0.6533
 7327SOL    HW233444   3.655   1.147  16.618 -0.3357  0.0621  1.1271
 7328SOL     OW33445   1.235   4.405   7.922  0.0013  0.5709  0.1663
 7328SOL    HW133446   1.156   4.443   7.960  0.3144  2.4057 -1.0259
 7328SOL    HW233447   1.305   4.431   7.982  0.3792 -1.3833  0.6005
 7329SOL     OW33448   4.466   3.266   4.431  0.0107  0.2792 -0.2741
 7329SOL    HW133449   4.468   3.352   4.473 -0.1505 -1.1203  2.6056
 7329SOL    HW233450   4.501   3.208   4.498  0.3817 -0.7462 -1.3494
 7330SOL     OW33451   0.417   1.698  10.099  0.2474 -0.5229  0.0845
 7330SOL    HW133452   0.327   1.726  10.114  0.0096 -0.6092 -1.1199
 7330SOL    HW233453   0.476   1.773  10.086 -1.5804  1.0332  0.7925
 7331SOL     OW33454   4.686   4.271   6.872  0.3049  0.0929 -0.0132
 7331SOL    HW133455   0.020   4.328   6.921 -0.1277 -1.4727  2.3483
 7331SOL    HW233456   4.652   4.206   6.934  0.4469 -1.0858 -1.1694
 7332SOL     OW33457   1.740   1.285   5.370 -0.0709 -0.5640 -0.1989
 7332SOL    HW133458   1.768   1.198   5.400 -2.1283 -1.0442  0.3087
 7332SOL    HW233459   1.713   1.263   5.280 -3.5703 -2.2428  1.2706
 7333SOL     OW33460   3.522   0.780   0.745 -0.4318 -0.1643  0.0827
 7333SOL    HW133461   3.582   0.733   0.803 -1.4666 -0.9602  0.4958
 7333SOL    HW233462   3.562   0.774   0.658  1.6601 -0.5457  1.0673
 7334SOL     OW33463   3.443   1.105  16.182  0.0948  0.0779  0.4857
 7334SOL    HW133464   3.474   1.196  16.188 -0.3223  0.3865 -2.0463
 7334SOL    HW233465   3.527   1.060  16.176  0.3203  0.6351 -0.6252
 7335SOL     OW33466   3.008   3.644   7.966 -0.3685 -0.2217  0.1923
 7335SOL    HW133467   2.917   3.627   7.944 -0.5229 -0.0654  0.7113
 7335SOL    HW233468   3.005   3.718   8.027 -2.5797  0.3157 -0.5900
 7336SOL     OW33469   3.299   2.067   1.765 -0.2807 -0.2222  0.1218
 7336SOL    HW133470   3.222   2.034   1.719 -0.3718  2.7732 -1.9023
 7336SOL    HW233471   3.359   2.018   1.708 -1.2852 -3.2058  1.6490
 7337SOL     OW33472   2.195   4.580   6.133  0.0518 -0.3867  0.0155
 7337SOL    HW133473   2.238   4.507   6.089  1.2619  0.1377  0.3309
 7337SOL    HW233474   2.195   4.650   6.067 -0.1359  0.3412  0.7820
 7338SOL     OW33475   4.128   2.940   7.124  0.2919 -0.0176 -0.2908
 7338SOL    HW133476   4.085   2.922   7.041 -1.6749  0.6707  0.5913
 7338SOL    HW233477   4.162   2.853   7.147  1.3953  1.2448  2.9891
 7339SOL     OW33478   1.590   2.141   5.334 -0.6063  0.5276  0.0395
 7339SOL    HW133479   1.618   2.226   5.300 -2.2612  0.7187 -0.8683
 7339SOL    HW233480   1.677   2.102   5.329 -1.5345 -1.1804 -2.8841
 7340SOL     OW33481   1.619   0.759   2.906  0.0013  0.0692  0.6798
 7340SOL    HW133482   1.654   0.712   2.830  0.1949  0.6323  0.4220
 7340SOL    HW233483   1.690   0.812   2.942  1.7316 -0.5254 -1.8290
 7341SOL     OW33484   1.750   4.441   1.773 -0.4179  0.2106  0.3335
 7341SOL    HW133485   1.843   4.428   1.793  0.3902  0.9559 -2.8862
 7341SOL    HW233486   1.720   4.495   1.846 -2.9287 -1.3498  0.4699
 7342SOL     OW33487   2.709   4.352   8.801  0.7740  0.0815  0.2777
 7342SOL    HW133488   2.719   4.404   8.881 -0.7817 -0.8899  1.1038
 7342SOL    HW233489   2.661   4.424   8.760  0.7785  0.5323  1.0614
 7343SOL     OW33490   0.475   0.120  12.048  0.2747  0.0627 -0.0386
 7343SOL    HW133491   0.486   0.030  12.015 -0.3408 -0.5820  1.5217
 7343SOL    HW233492   0.417   0.163  11.985  1.8566 -0.5860 -1.9521
 7344SOL     OW33493   2.500   1.348   2.982  0.4197  0.2426 -0.2174
 7344SOL    HW133494   2.472   1.439   2.968 -1.9758 -0.0199  2.7040
 7344SOL    HW233495   2.501   1.354   3.078  0.5059 -0.4654 -0.1757
 7345SOL     OW33496   2.331   1.260   5.195  1.0233 -0.4628  0.4224
 7345SOL    HW133497   2.301   1.315   5.267 -0.0149 -0.1886 -0.2219
 7345SOL    HW233498   2.251   1.208   5.190  1.2949 -0.7189 -1.2672
 7346SOL     OW33499   2.302   3.664   3.347  0.1616  0.3120 -0.1244
 7346SOL    HW133500   2.388   3.630   3.324 -0.6866 -1.2229 -1.0728
 7346SOL    HW233501   2.239   3.610   3.298 -0.8957 -0.3878  1.9819
 7347SOL     OW33502   0.458   2.124   4.196  0.2867  0.2553  0.3514
 7347SOL    HW133503   0.518   2.162   4.133 -0.7112  1.6007  0.2148
 7347SOL    HW233504   0.430   2.041   4.155 -1.0056 -0.1446  2.0357
 7348SOL     OW33505   0.040   0.621   8.857 -0.1969 -0.0940 -0.4457
 7348SOL    HW133506   4.719   0.537   8.870 -0.9394  0.3291 -0.3090
 7348SOL    HW233507   0.051   0.626   8.762 -0.5384  0.1995 -0.4699
 7349SOL     OW33508   2.662   1.461   6.540 -0.1728 -0.0399 -0.5829
 7349SOL    HW133509   2.628   1.550   6.528 -0.8625 -0.1151  0.8992
 7349SOL    HW233510   2.688   1.438   6.450  2.1430 -3.1949  0.9070
 7350SOL     OW33511   1.547   2.906   3.747 -0.2307 -0.1233  0.1370
 7350SOL    HW133512   1.631   2.938   3.714 -0.8135 -0.0604 -1.2747
 7350SOL    HW233513   1.515   2.983   3.795  1.1989 -0.4538  1.6170
 7351SOL     OW33514   0.778   0.625   6.988  0.4021 -0.6805 -0.3400
 7351SOL    HW133515   0.835   0.675   7.046  1.3016 -0.0935 -1.7256
 7351SOL    HW233516   0.717   0.695   6.966 -0.2034 -0.6898  1.2894
 7352SOL     OW33517   4.159   3.046   9.966 -0.1205  0.2634  0.0031
 7352SOL    HW133518   4.197   3.130   9.940 -0.2821  0.4380  0.3440
 7352SOL    HW233519   4.140   3.060  10.058 -0.4379 -2.7357  0.4090
 7353SOL     OW33520   1.634   2.039  16.528  0.2519  0.0196  0.0022
 7353SOL    HW133521   1.614   2.125  16.493  0.8395  0.0435 -0.2801
 7353SOL    HW233522   1.727   2.025  16.506 -0.1600 -0.8627 -1.2006
 7354SOL     OW33523   3.949   3.374   6.365  0.4304  0.4098  1.0135
 7354SOL    HW133524   3.950   3.279   6.378  1.1903  0.1498 -0.9920
 7354SOL    HW233525   4.040   3.397   6.343  0.0728 -1.8132 -2.7346
 7355SOL     OW33526   2.317   3.113   7.531  0.2179 -0.0316  0.2053
 7355SOL    HW133527   2.281   3.167   7.601 -1.5027  0.0892 -0.7698
 7355SOL    HW233528   2.411   3.120   7.548  0.6015 -1.8609 -1.1949
 7356SOL     OW33529   3.288   2.770  10.476 -0.2764 -0.0750 -0.3333
 7356SOL    HW133530   3.233   2.755  10.399 -1.1610  3.5731 -0.3858
 7356SOL    HW233531   3.246   2.704  10.532  1.5020 -1.5426 -0.7152
 7357SOL     OW33532   4.271   1.003   4.316 -0.0073  0.6127 -0.0641
 7357SOL    HW133533   4.199   0.944   4.294 -1.8707  2.6208  0.6565
 7357SOL    HW233534   4.346   0.944   4.310 -1.0715 -0.7055 -0.3322
 7358SOL     OW33535   2.511   1.646   2.322 -0.1924 -0.4398 -0.0144
 7358SOL    HW133536   2.433   1.699   2.307 -1.0240 -2.1867 -1.7985
 7358SOL    HW233537   2.477   1.569   2.369 -1.7198 -0.0976 -0.5617
 7359SOL     OW33538   2.582   0.675   5.797 -0.3735  0.2877 -0.1471
 7359SOL    HW133539   2.632   0.608   5.750 -0.1672  0.8543 -0.7218
 7359SOL    HW233540   2.528   0.710   5.726 -0.6777  0.9545  0.4118
 7360SOL     OW33541   0.887   4.564   7.334  0.0562  0.3374 -0.3424
 7360SOL    HW133542   0.827   4.629   7.297 -0.7240  0.4405  1.1105
 7360SOL    HW233543   0.830   4.489   7.345 -1.4532  1.2854 -1.7754
 7361SOL     OW33544   4.390   0.539  11.526 -0.4154  0.1358  0.3699
 7361SOL    HW133545   4.425   0.583  11.448  1.8892 -2.0318  0.1770
 7361SOL    HW233546   4.298   0.523  11.509  0.1783 -2.3471 -0.5127
 7362SOL     OW33547   0.957   1.777   8.193 -0.0168  0.1262 -0.0608
 7362SOL    HW133548   0.991   1.778   8.104 -0.9055 -1.0887 -0.4155
 7362SOL    HW233549   1.010   1.843   8.238 -0.1758  0.7774 -0.8149
 7363SOL     OW33550   2.407   3.116  12.649  0.0294  0.2617 -0.0088
 7363SOL    HW133551   2.384   3.197  12.602  1.1304  0.1978 -0.6657
 7363SOL    HW233552   2.368   3.131  12.735 -1.3429  0.5844 -0.7012
 7364SOL     OW33553   3.588   0.241   3.167 -0.0416  0.2899 -0.3279
 7364SOL    HW133554   3.589   0.178   3.239 -1.1640  0.2066 -0.3768
 7364SOL    HW233555   3.676   0.277   3.174 -0.1677  0.6111 -0.3973
 7365SOL     OW33556   4.635   1.387   3.325 -0.1362 -0.3998  0.1219
 7365SOL    HW133557   4.638   1.366   3.418  0.0283 -2.3108 -0.3115
 7365SOL    HW233558   4.541   1.395   3.310  0.1021  1.4568 -0.4107
 7366SOL     OW33559   0.092   1.231   4.254 -0.0313  0.0254 -0.4678
 7366SOL    HW133560   0.074   1.160   4.314 -1.7500  0.7681 -0.1106
 7366SOL    HW233561   0.084   1.308   4.311  0.1882 -1.9998  2.2582
 7367SOL     OW33562   2.543   2.395   5.796 -0.2863 -0.3233  0.4616
 7367SOL    HW133563   2.522   2.388   5.889 -1.6072 -0.9890  0.1151
 7367SOL    HW233564   2.626   2.349   5.796  0.8763  1.7180 -0.9883
 7368SOL     OW33565   0.997   3.543   8.868  0.1252  0.2340  0.2797
 7368SOL    HW133566   1.050   3.468   8.896  1.0760  0.5994 -0.5426
 7368SOL    HW233567   0.952   3.573   8.946  1.4729  3.8093 -0.3391
 7369SOL     OW33568   1.271   1.173   3.129  0.4470 -0.0801  0.0222
 7369SOL    HW133569   1.194   1.139   3.084 -0.2407  1.6975 -0.1118
 7369SOL    HW233570   1.271   1.267   3.110 -0.9565  0.6508  3.5875
 7370SOL     OW33571   1.493   3.448   5.002  0.2799 -0.3176  0.5755
 7370SOL    HW133572   1.419   3.419   4.949 -0.3940  2.6933 -0.0802
 7370SOL    HW233573   1.562   3.417   4.944  0.3729  1.2378 -0.1196
 7371SOL     OW33574   1.030   4.564   3.818  0.3508 -0.1760 -0.5541
 7371SOL    HW133575   1.124   4.583   3.811 -0.1697  1.9756 -1.7259
 7371SOL    HW233576   1.004   4.619   3.744 -0.5752  0.9099  0.5785
 7372SOL     OW33577   1.232   1.092   3.557 -0.1803  0.3915 -0.2991
 7372SOL    HW133578   1.138   1.072   3.563  0.2178 -1.2478  0.4214
 7372SOL    HW233579   1.261   1.017   3.608  0.2295 -0.3471 -1.6078
 7373SOL     OW33580   4.496   2.411  15.539  0.0764 -0.5102  0.6249
 7373SOL    HW133581   4.435   2.467  15.491 -0.1308  0.4082  1.9838
 7373SOL    HW233582   4.574   2.455  15.505  0.4317 -1.1881  0.5530
 7374SOL     OW33583   4.641   2.914   5.497 -0.1045 -0.0993 -0.0533
 7374SOL    HW133584   4.562   2.918   5.444  0.0924  1.6452 -0.2148
 7374SOL    HW233585   4.613   2.861   5.572 -2.1525 -0.0524 -0.7880
 7375SOL     OW33586   1.124   2.242   9.323  0.0957 -0.3239 -0.3644
 7375SOL    HW133587   1.086   2.317   9.278 -0.8064 -0.6020 -0.0683
 7375SOL    HW233588   1.045   2.210   9.367  1.0868 -0.6826  1.1657
 7376SOL     OW33589   0.560   4.501   7.914  0.4689 -0.4943  0.0984
 7376SOL    HW133590   0.612   4.571   7.875 -1.0888 -1.0067 -2.8928
 7376SOL    HW233591   0.525   4.448   7.843  0.3525  0.5503 -0.6230
 7377SOL     OW33592   3.864   2.261  10.540 -0.4582 -0.6739  0.0543
 7377SOL    HW133593   3.952   2.264  10.503  0.0703 -1.1966  1.2356
 7377SOL    HW233594   3.881   2.261  10.635  0.9594  1.0487 -0.2230
 7378SOL     OW33595   3.888   1.832  14.902 -0.2467  0.1812  0.0175
 7378SOL    HW133596   3.827   1.760  14.920  1.8723 -1.4879  0.5450
 7378SOL    HW233597   3.827   1.904  14.890  2.1419  1.7620 -2.6958
 7379SOL     OW33598   1.350   2.102   8.140  0.0582 -0.1866  0.2920
 7379SOL    HW133599   1.261   2.110   8.174  0.3641  0.2806  0.9906
 7379SOL    HW233600   1.405   2.061   8.207 -1.0155 -2.3078 -0.1556
 7380SOL     OW33601   3.852   0.233   6.805  0.3999 -0.1183  0.2341
 7380SOL    HW133602   3.848   0.266   6.715 -0.6097 -2.4645 -0.5757
 7380SOL    HW233603   3.942   0.204   6.821  0.1980 -1.5526 -1.2258
 7381SOL     OW33604   2.742   2.134   5.645  0.2971 -0.2458  0.4429
 7381SOL    HW133605   2.692   2.063   5.684 -1.2976  1.3807  1.3438
 7381SOL    HW233606   2.778   2.175   5.723  0.5786  0.2067  0.0738
 7382SOL     OW33607   2.700   3.775   8.680  0.1693 -0.3940  0.2086
 7382SOL    HW133608   2.614   3.740   8.704  0.7732  0.5403  3.6275
 7382SOL    HW233609   2.755   3.699   8.698  0.7779 -0.4832 -1.9492
 7383SOL     OW33610   0.879   0.083   5.718  0.7394  0.2648 -0.4385
 7383SOL    HW133611   0.863   0.032   5.797 -1.8971 -0.1147 -1.2194
 7383SOL    HW233612   0.812   0.050   5.658  0.5898 -0.6815  0.2456
 7384SOL     OW33613   3.601   0.325  11.117 -0.0263  0.0172  0.2239
 7384SOL    HW133614   3.521   0.318  11.067  0.4696 -0.6172 -0.4813
 7384SOL    HW233615   3.567   0.286  11.198  0.4711  1.2079  1.0060
 7385SOL     OW33616   2.777   1.722   6.153  0.2323  0.2535  0.3790
 7385SOL    HW133617   2.816   1.759   6.231 -0.1699  0.8068  0.3170
 7385SOL    HW233618   2.746   1.638   6.189  1.1355 -0.3232 -0.1829
 7386SOL     OW33619   0.456   3.871   4.782  0.4374 -0.0943  0.0769
 7386SOL    HW133620   0.540   3.845   4.819  0.9177 -0.1965 -1.0764
 7386SOL    HW233621   0.459   3.965   4.762 -4.3430 -0.2716 -1.5242
 7387SOL     OW33622   4.247   0.382  17.315 -1.0037 -0.4849  0.4687
 7387SOL    HW133623   4.328   0.369  17.363  1.3201  0.2856 -3.2321
 7387SOL    HW233624   4.192   0.395  17.392 -0.5256 -0.7807  0.8547
 7388SOL     OW33625   3.025   0.898   8.432 -0.1242 -0.3219 -0.8050
 7388SOL    HW133626   2.939   0.884   8.471 -0.2655 -0.7064 -1.2729
 7388SOL    HW233627   3.013   0.844   8.355  1.0540 -0.3902 -0.9373
 7389SOL     OW33628   0.191   4.413   6.622  0.1847 -0.1341 -0.6712
 7389SOL    HW133629   0.265   4.358   6.646 -0.4429 -1.3960 -1.6327
 7389SOL    HW233630   0.126   4.347   6.598  0.2596 -0.6369  0.5134
 7390SOL     OW33631   3.669   2.781  11.803 -0.3394  0.0052 -0.5081
 7390SOL    HW133632   3.737   2.810  11.864 -0.4246 -0.7778 -0.0400
 7390SOL    HW233633   3.587   2.786  11.853  0.3985  2.4673  0.5080
 7391SOL     OW33634   4.403   3.934   2.631 -0.5896  0.2382  0.3403
 7391SOL    HW133635   4.341   3.997   2.669 -0.5243  0.7441 -0.4002
 7391SOL    HW233636   4.441   3.900   2.712 -0.7854 -2.0877 -0.5375
 7392SOL     OW33637   0.299   0.381   9.186  0.5722  0.5537 -0.2800
 7392SOL    HW133638   0.339   0.349   9.105 -2.1423 -1.0129 -1.0061
 7392SOL    HW233639   0.354   0.363   9.262  0.2730 -0.8078 -0.3892
 7393SOL     OW33640   3.143   3.533   4.692  0.1645  0.5434  0.5927
 7393SOL    HW133641   3.061   3.575   4.666 -0.6663 -0.1293  2.1005
 7393SOL    HW233642   3.145   3.559   4.785 -0.0342 -0.9297  0.9983
 7394SOL     OW33643   1.243   3.865   9.013 -0.0180 -0.4264  0.1721
 7394SOL    HW133644   1.276   3.880   8.925 -1.1362  3.3383  0.4099
 7394SOL    HW233645   1.167   3.923   9.019 -0.8690 -1.7461  2.3315
 7395SOL     OW33646   0.244   3.970   3.408 -0.1173 -0.2035  0.0445
 7395SOL    HW133647   0.210   3.880   3.415 -1.6815  0.5507  2.0169
 7395SOL    HW233648   0.165   4.024   3.414  0.1487  0.2084 -0.2177
 7396SOL     OW33649   4.316   1.736   6.861  0.1656 -0.2133  0.5668
 7396SOL    HW133650   4.316   1.659   6.803  1.8020  0.3565 -0.1998
 7396SOL    HW233651   4.332   1.692   6.944 -0.9369  0.0758  0.9210
 7397SOL     OW33652   1.073   4.174   6.192  0.4132  0.2657  0.5682
 7397SOL    HW133653   1.157   4.220   6.182  0.0086  1.6279  3.4231
 7397SOL    HW233654   1.011   4.238   6.158 -0.8145 -0.8327  0.7676
 7398SOL     OW33655   1.563   3.217  16.720 -0.4312  0.1759  0.1219
 7398SOL    HW133656   1.622   3.181  16.653 -0.6161 -1.4619  0.8327
 7398SOL    HW233657   1.568   3.311  16.703  0.2482 -0.2001 -1.7616
 7399SOL     OW33658   3.658   0.786   5.923 -0.3673  0.1220  0.5920
 7399SOL    HW133659   3.703   0.765   6.005 -0.4684 -0.2025  0.5642
 7399SOL    HW233660   3.698   0.723   5.863 -0.3700  0.5513  0.1356
 7400SOL     OW33661   2.759   0.359   1.648 -1.1017  0.2126  0.4947
 7400SOL    HW133662   2.743   0.272   1.613  0.5911  0.5282 -1.0488
 7400SOL    HW233663   2.814   0.406   1.585 -1.7061  0.5075  0.1852
 7401SOL     OW33664   0.378   2.417   8.423 -0.0122 -0.0286 -0.1685
 7401SOL    HW133665   0.311   2.371   8.371 -0.4460 -1.6813  1.8484
 7401SOL    HW233666   0.325   2.446   8.498  0.3451 -0.5513  0.2867
 7402SOL     OW33667   3.631   0.404   3.822  0.2968  0.3212  0.5223
 7402SOL    HW133668   3.669   0.480   3.779  0.9768 -0.6675 -0.6213
 7402SOL    HW233669   3.574   0.367   3.756  1.0690  0.7143 -0.3602
 7403SOL     OW33670   2.929   1.690  14.736 -0.4550  0.4345 -0.2469
 7403SOL    HW133671   2.971   1.659  14.816  1.6760  0.3268 -1.4059
 7403SOL    HW233672   2.859   1.625  14.732  1.2487 -1.3730 -0.7509
 7404SOL     OW33673   3.640   2.068   7.435  0.0257  0.2590  0.1134
 7404SOL    HW133674   3.644   2.107   7.348 -1.4431 -1.4060 -0.6830
 7404SOL    HW233675   3.553   2.091   7.468  0.2428  1.8972 -0.4473
 7405SOL     OW33676   0.243   4.347   8.990 -0.7522  0.8223 -0.5501
 7405SOL    HW133677   0.288   4.308   8.915 -1.6616 -1.0319 -0.1375
 7405SOL    HW233678   0.179   4.276   9.000 -1.9187  1.7007 -1.8375
 7406SOL     OW33679   1.256   2.445   8.318 -0.5036 -0.5191  0.3575
 7406SOL    HW133680   1.272   2.469   8.226 -0.0218  2.1221  1.1352
 7406SOL    HW233681   1.263   2.533   8.354 -2.5380 -1.0084  1.9454
 7407SOL     OW33682   1.293   0.180   5.006  0.5083 -0.5376 -0.1806
 7407SOL    HW133683   1.278   0.146   5.094  1.4321  2.2236  1.0188
 7407SOL    HW233684   1.219   0.143   4.958 -1.5975  1.6807  1.3812
 7408SOL     OW33685   0.100   4.093   1.978 -0.1736 -0.3790 -0.1977
 7408SOL    HW133686   0.132   4.058   1.894 -0.8563 -0.3887 -0.4558
 7408SOL    HW233687   0.005   4.094   1.968 -0.2827  3.4789  1.4781
 7409SOL     OW33688   3.668   2.744   8.666  0.0411 -0.5228  0.0240
 7409SOL    HW133689   3.699   2.773   8.580 -2.3861  1.6707 -0.1360
 7409SOL    HW233690   3.736   2.763   8.730  0.3782  1.1638 -0.8338
 7410SOL     OW33691   2.382   0.433   3.406  0.8794  0.3262  0.3734
 7410SOL    HW133692   2.307   0.374   3.418  2.3158 -1.2582  1.4979
 7410SOL    HW233693   2.464   0.386   3.393  0.9123  0.2315  0.9070
 7411SOL     OW33694   2.211   0.504   5.220 -0.7409 -0.3459 -0.9452
 7411SOL    HW133695   2.117   0.500   5.202 -0.4257 -0.7239 -2.5066
 7411SOL    HW233696   2.252   0.434   5.169  1.9204 -0.4532  1.3558
 7412SOL     OW33697   0.077   0.450   8.417 -0.3027  0.8669  0.0984
 7412SOL    HW133698   0.044   0.428   8.504 -1.0325  1.9391  0.0873
 7412SOL    HW233699   0.153   0.395   8.399 -1.8315 -0.9792 -0.5856
 7413SOL     OW33700   4.278   3.179  11.047  0.3275 -0.3199  0.2115
 7413SOL    HW133701   4.200   3.191  10.993  1.0691 -2.9373 -1.4587
 7413SOL    HW233702   4.292   3.266  11.086  3.6770 -1.4425  1.5151
 7414SOL     OW33703   4.521   3.907   6.796  0.5116 -0.1736 -0.4168
 7414SOL    HW133704   4.479   3.958   6.727 -0.9377 -1.9736 -0.8966
 7414SOL    HW233705   4.555   3.970   6.858 -2.1341  1.5445 -0.7339
 7415SOL     OW33706   3.892   3.877   4.890 -0.0463  0.5124  0.4040
 7415SOL    HW133707   3.850   3.915   4.967  0.3014  2.3731 -0.3210
 7415SOL    HW233708   3.980   3.915   4.895  0.0311  0.1930  1.5455
 7416SOL     OW33709   3.186   2.495   7.125 -0.1706 -0.6858 -0.2884
 7416SOL    HW133710   3.217   2.493   7.216  1.4811 -1.0233 -0.8585
 7416SOL    HW233711   3.158   2.586   7.120  1.3311 -0.2397 -0.6096
 7417SOL     OW33712   2.607   4.321   7.853  0.2517 -1.2463  0.0613
 7417SOL    HW133713   2.611   4.292   7.762  0.8171  0.7459 -0.5399
 7417SOL    HW233714   2.517   4.348   7.871  0.0028 -1.9511 -0.1203
 7418SOL     OW33715   4.572   3.608   6.447  0.4060  0.0012  0.0479
 7418SOL    HW133716   4.562   3.517   6.477 -1.3234 -0.0021 -0.5530
 7418SOL    HW233717   4.647   3.637   6.499  0.5572  0.0349 -0.1898
 7419SOL     OW33718   0.169   1.255   6.459  0.1435  0.4665  0.1858
 7419SOL    HW133719   0.136   1.260   6.549 -2.9906 -0.4753 -0.9234
 7419SOL    HW233720   0.139   1.168   6.433 -0.2756 -0.1134  2.5630
 7420SOL     OW33721   1.223   4.689  13.733 -0.0649 -0.3994  0.0097
 7420SOL    HW133722   1.241   4.598  13.757 -0.0118 -0.8758 -1.8416
 7420SOL    HW233723   1.151   4.721  13.787 -0.5011  3.3968 -2.8839
 7421SOL     OW33724   0.906   2.800  16.102 -0.6258 -1.0932 -0.4176
 7421SOL    HW133725   0.982   2.796  16.044 -0.0764 -0.0313  0.2145
 7421SOL    HW233726   0.933   2.863  16.169  0.4046 -0.3741 -1.5012
 7422SOL     OW33727   4.678   4.690   4.748  0.0887 -0.2327 -0.1298
 7422SOL    HW133728   0.027   4.674   4.689  0.2845 -1.0850  0.3341
 7422SOL    HW233729   4.606   4.675   4.686 -0.1049 -3.4646  0.8381
 7423SOL     OW33730   0.824   3.132   2.747  0.7941  0.2174  0.4868
 7423SOL    HW133731   0.809   3.091   2.832 -1.0953  0.7910  0.4239
 7423SOL    HW233732   0.810   3.224   2.769  2.2084  0.7010 -0.6292
 7424SOL     OW33733   3.786   2.013   8.757  0.1176  0.5532  0.2472
 7424SOL    HW133734   3.758   1.922   8.767  0.0807  0.3413 -1.9177
 7424SOL    HW233735   3.881   2.010   8.746 -0.0293  0.1728 -0.8430
 7425SOL     OW33736   1.499   4.190   7.148  0.2018  0.6025  0.3810
 7425SOL    HW133737   1.412   4.218   7.120 -0.6514 -2.7565 -0.3092
 7425SOL    HW233738   1.547   4.190   7.066 -0.4647  0.1752 -0.0087
 7426SOL     OW33739   4.433   0.076   4.126 -0.0709 -0.1590  0.1943
 7426SOL    HW133740   4.481   4.721   4.150 -1.1253 -0.9824 -0.4109
 7426SOL    HW233741   4.457   0.123   4.206  1.2917 -0.4145 -0.0678
 7427SOL     OW33742   0.395   3.514   9.886  0.3504 -0.0571 -0.2048
 7427SOL    HW133743   0.330   3.583   9.879  0.8292  0.3609 -0.5713
 7427SOL    HW233744   0.342   3.456   9.940  1.4676 -0.1061  0.8413
 7428SOL     OW33745   3.260   1.026   1.134 -0.2741  0.4528  0.0089
 7428SOL    HW133746   3.289   0.940   1.164 -1.6089 -0.0211 -0.0569
 7428SOL    HW233747   3.305   1.079   1.200 -0.3518 -0.4825  0.8198
 7429SOL     OW33748   4.173   0.961   2.123 -0.2498 -0.0760  0.3493
 7429SOL    HW133749   4.081   0.952   2.151 -0.6642  0.5330 -0.8348
 7429SOL    HW233750   4.228   0.941   2.199  0.5016 -0.8184 -0.3880
 7430SOL     OW33751   2.969   0.351   5.144  0.1843 -0.3066  0.8623
 7430SOL    HW133752   2.992   0.281   5.083  0.4007  0.6334 -0.1258
 7430SOL    HW233753   2.986   0.305   5.227  1.6292 -0.6327  0.3773
 7431SOL     OW33754   1.443   4.453  13.963  0.3613  0.1798  0.3318
 7431SOL    HW133755   1.461   4.361  13.977  0.4227 -0.1095 -1.6204
 7431SOL    HW233756   1.384   4.473  14.035  0.5932  1.0256  0.2893
 7432SOL     OW33757   2.660   1.029  16.285  0.2394 -0.5155  0.0586
 7432SOL    HW133758   2.663   0.934  16.276  1.3511 -0.4379 -0.3829
 7432SOL    HW233759   2.688   1.060  16.199  0.7657 -0.5687  0.2102
 7433SOL     OW33760   2.465   0.922   0.270  0.2669 -0.1657  0.5863
 7433SOL    HW133761   2.441   1.015   0.275  0.9913  0.0502  0.0849
 7433SOL    HW233762   2.512   0.907   0.352  1.7452  0.8842 -0.0725
 7434SOL     OW33763   3.265   0.688   0.843 -0.2974 -0.2576  0.1586
 7434SOL    HW133764   3.350   0.728   0.824  0.3055 -1.1838  0.9329
 7434SOL    HW233765   3.220   0.759   0.889 -1.7181 -0.6358 -0.6598
 7435SOL     OW33766   4.632   2.967  14.489 -0.1318 -0.4126 -0.2699
 7435SOL    HW133767   4.537   2.964  14.491 -0.2490  3.0378 -0.7820
 7435SOL    HW233768   4.651   2.908  14.562 -0.2615  0.1317  0.1982
 7436SOL     OW33769   1.973   2.444   8.409 -0.5067 -0.0405 -0.5877
 7436SOL    HW133770   1.934   2.390   8.340 -0.2812  0.5009 -1.1347
 7436SOL    HW233771   1.900   2.504   8.424 -2.6925 -2.5374 -1.0468
 7437SOL     OW33772   1.431   2.622   0.458 -0.2036 -0.0134  0.2150
 7437SOL    HW133773   1.438   2.536   0.417  2.8592  0.1797  0.3184
 7437SOL    HW233774   1.513   2.671   0.447  0.0368 -0.4279  0.1538
 7438SOL     OW33775   1.822   3.547   9.872  0.4577 -0.2117 -0.2228
 7438SOL    HW133776   1.907   3.590   9.872  0.3302  0.0410 -0.0938
 7438SOL    HW233777   1.778   3.614   9.820 -1.2752 -2.4354 -1.6029
 7439SOL     OW33778   4.689   2.832   9.662  0.1219 -0.1188 -0.3874
 7439SOL    HW133779   4.703   2.774   9.737 -0.6133 -0.0655 -0.2061
 7439SOL    HW233780   4.678   2.915   9.708 -1.5358  0.4475 -1.7905
 7440SOL     OW33781   3.009   1.400   9.689  0.1902 -0.2479  0.3775
 7440SOL    HW133782   2.962   1.371   9.610  1.3257 -0.4947 -0.2121
 7440SOL    HW233783   3.068   1.465   9.651 -1.3259  0.4585 -0.7612
 7441SOL     OW33784   3.130   4.460   5.543 -0.1350 -0.4894  0.0322
 7441SOL    HW133785   3.210   4.415   5.569 -0.8338 -3.5666 -3.2272
 7441SOL    HW233786   3.154   4.482   5.453 -3.4116  1.0008 -0.4877
 7442SOL     OW33787   2.855   4.060  13.895  0.0031  0.2309 -0.3821
 7442SOL    HW133788   2.882   4.100  13.978  0.8178  1.5831 -1.2882
 7442SOL    HW233789   2.760   4.054  13.904  0.0460 -1.3860 -1.0702
 7443SOL     OW33790   2.479   1.563   5.178 -0.0096  0.6433  0.1495
 7443SOL    HW133791   2.498   1.654   5.154  1.9144  0.2646  0.2977
 7443SOL    HW233792   2.404   1.585   5.234 -1.0378 -1.5282 -0.4002
 7444SOL     OW33793   2.110   0.454   1.797  0.2223 -0.2188  0.0303
 7444SOL    HW133794   2.051   0.380   1.811  0.0907  0.0643  0.9971
 7444SOL    HW233795   2.183   0.444   1.859  0.1668  0.0889  0.1449
 7445SOL     OW33796   1.280   2.287  12.110 -0.1167  0.8682 -0.1113
 7445SOL    HW133797   1.362   2.267  12.064 -0.8264 -0.0085 -0.9730
 7445SOL    HW233798   1.239   2.203  12.091 -0.4770  1.6795 -2.8901
 7446SOL     OW33799   1.920   0.626   8.013 -0.5262  0.1585 -0.0653
 7446SOL    HW133800   1.979   0.556   8.040 -0.5486 -0.0645 -0.5903
 7446SOL    HW233801   1.888   0.655   8.098  1.9699  0.1899  0.8420
 7447SOL     OW33802   0.788   2.718   3.692 -0.5242  0.3913 -0.3123
 7447SOL    HW133803   0.714   2.746   3.638 -0.6878 -1.0578 -0.8447
 7447SOL    HW233804   0.774   2.768   3.772  0.1693 -3.3995  2.1769
 7448SOL     OW33805   0.079   0.537   1.279 -0.6326 -0.3546  0.4610
 7448SOL    HW133806   0.027   0.611   1.309 -0.4226 -0.1646  0.3573
 7448SOL    HW233807   0.167   0.560   1.309 -1.2253  0.4536  1.5777
 7449SOL     OW33808   1.597   3.320   5.453 -0.7092 -0.2112  0.2589
 7449SOL    HW133809   1.519   3.375   5.464 -1.4261 -1.2728  0.4111
 7449SOL    HW233810   1.639   3.317   5.539  1.4559  2.8570 -0.6884
 7450SOL     OW33811   0.289   2.538  16.503 -0.1682  0.0780  0.4091
 7450SOL    HW133812   0.245   2.539  16.418  1.1365  0.3904 -0.2529
 7450SOL    HW233813   0.296   2.633  16.511 -0.7430 -0.0626  2.6917
 7451SOL     OW33814   4.215   4.381   4.457 -0.1419 -0.0513  0.0578
 7451SOL    HW133815   4.235   4.465   4.416  1.5806 -0.2561  0.5238
 7451SOL    HW233816   4.304   4.356   4.480  0.1468  0.1927 -0.7940
 7452SOL     OW33817   3.743   3.807   9.141  0.2299  0.3666 -0.0866
 7452SOL    HW133818   3.691   3.731   9.116  0.9676 -0.5759  1.2482
 7452SOL    HW233819   3.771   3.774   9.226  1.7132  1.9905  0.0457
 7453SOL     OW33820   3.780   3.133   2.908  0.3261  0.8404  0.1729
 7453SOL    HW133821   3.753   3.101   2.822 -0.7228  0.9656  0.4576
 7453SOL    HW233822   3.865   3.095   2.931  0.4067  1.6228  1.1862
 7454SOL     OW33823   2.605   4.521   4.162 -0.5374 -0.4657  0.1509
 7454SOL    HW133824   2.679   4.470   4.195  0.3559  0.1702 -0.8463
 7454SOL    HW233825   2.585   4.462   4.089  1.3008 -1.1215  0.1605
 7455SOL     OW33826   0.188   1.817   7.685 -1.0772 -0.7870 -0.0363
 7455SOL    HW133827   0.237   1.854   7.612 -1.6598  1.4811  0.7083
 7455SOL    HW233828   0.260   1.814   7.748  0.8534 -2.6346 -2.3473
 7456SOL     OW33829   1.453   3.108  14.869  0.1823  0.0421  0.3405
 7456SOL    HW133830   1.434   3.101  14.962  1.1342 -1.9556  0.3590
 7456SOL    HW233831   1.542   3.080  14.848  0.5706 -0.5735  2.8243
 7457SOL     OW33832   2.222   0.600  15.122 -0.1379 -0.7234  0.6763
 7457SOL    HW133833   2.178   0.523  15.086  0.9209 -0.7599 -0.5307
 7457SOL    HW233834   2.154   0.633  15.180 -0.3493  2.8169 -1.6384
 7458SOL     OW33835   2.249   3.269   6.243 -0.1029 -0.2854 -0.3470
 7458SOL    HW133836   2.188   3.298   6.311 -0.0601  0.9693 -0.8317
 7458SOL    HW233837   2.258   3.343   6.182 -1.1778  0.5506  0.4958
 7459SOL     OW33838   1.340   0.708  14.531 -0.1298 -0.1441 -0.8076
 7459SOL    HW133839   1.433   0.728  14.517 -0.3390  0.3713 -1.4911
 7459SOL    HW233840   1.312   0.772  14.596 -2.7966 -2.1542  0.0218
 7460SOL     OW33841   0.523   0.652   8.554  0.2483  0.1379  0.2164
 7460SOL    HW133842   0.526   0.593   8.629  0.6978  0.9932  0.8695
 7460SOL    HW233843   0.468   0.718   8.596  0.7979 -0.7136  2.2590
 7461SOL     OW33844   1.391   0.943   3.958  0.2372  0.0883 -0.3377
 7461SOL    HW133845   1.314   0.998   3.941 -0.0693  0.6716  2.8758
 7461SOL    HW233846   1.454   1.006   3.994 -0.5275  0.6547  0.0170
 7462SOL     OW33847   1.697   0.171  16.152  0.0970  0.3962  0.2502
 7462SOL    HW133848   1.670   0.257  16.120  0.7321  0.6548  0.4229
 7462SOL    HW233849   1.686   0.120  16.072 -1.9868  1.6703 -0.2653
 7463SOL     OW33850   4.077   3.882  10.818 -0.3090  0.7569  0.6472
 7463SOL    HW133851   4.084   3.972  10.851  1.0025  1.4341 -1.4692
 7463SOL    HW233852   4.060   3.910  10.728  1.8844  1.0892  0.3368
 7464SOL     OW33853   3.693   2.915   7.521 -0.4582  0.1141 -0.6883
 7464SOL    HW133854   3.739   2.858   7.460  2.2630  0.7711  0.7693
 7464SOL    HW233855   3.760   2.915   7.589  0.4579 -0.2829 -1.6046
 7465SOL     OW33856   0.535   4.153   2.982 -0.2082 -0.3906 -0.4249
 7465SOL    HW133857   0.613   4.127   3.030  0.7541 -0.8176 -2.2537
 7465SOL    HW233858   0.468   4.139   3.049 -0.6118  3.8942  0.0748
 7466SOL     OW33859   4.559   2.314   5.438  0.2484 -0.3406 -0.9288
 7466SOL    HW133860   4.643   2.353   5.459  0.1067  0.3141 -1.5865
 7466SOL    HW233861   4.569   2.292   5.345 -1.2444 -0.7144 -1.0056
 7467SOL     OW33862   1.865   0.439   0.472 -0.1102  0.3256  0.4430
 7467SOL    HW133863   1.773   0.449   0.495  0.1654  2.8503  0.4671
 7467SOL    HW233864   1.859   0.434   0.376 -1.1175  0.7803  0.4838
 7468SOL     OW33865   1.112   0.086   7.243 -0.0946  0.5694 -0.2399
 7468SOL    HW133866   1.047   0.145   7.207  0.3945  0.1698 -1.7636
 7468SOL    HW233867   1.068   0.062   7.325 -0.1473 -1.4083 -0.8434
 7469SOL     OW33868   0.347   4.651  16.388  0.3545 -0.3776 -0.7485
 7469SOL    HW133869   0.402   4.618  16.459 -0.4093 -0.1869 -0.0605
 7469SOL    HW233870   0.302   0.001  16.428 -0.5825 -2.0414  1.3006
 7470SOL     OW33871   0.779   1.101   7.117  0.4584  0.2079 -0.6255
 7470SOL    HW133872   0.693   1.106   7.074 -1.1916  1.3032  2.7928
 7470SOL    HW233873   0.830   1.148   7.051  1.1732  0.9006  0.4090
 7471SOL     OW33874   2.473   0.105   7.719 -0.1171 -0.6149 -0.3655
 7471SOL    HW133875   2.379   0.114   7.704  0.0925  0.0213 -1.3163
 7471SOL    HW233876   2.496   0.036   7.657  0.5474 -2.8457  2.3952
 7472SOL     OW33877   4.108   4.031   7.017 -0.2521 -0.0839 -0.2297
 7472SOL    HW133878   4.062   4.013   7.099 -1.3332  1.3295 -0.5291
 7472SOL    HW233879   4.188   4.079   7.039  0.3909 -1.3154  0.1052
 7473SOL     OW33880   4.326   2.907  13.645  0.1707  0.6266  0.3583
 7473SOL    HW133881   4.413   2.901  13.605  0.9314 -0.9925  2.2599
 7473SOL    HW233882   4.360   2.887  13.732 -0.1563 -0.0041  0.3398
 7474SOL     OW33883   3.554   2.938   3.537 -1.0947 -0.0066  0.3030
 7474SOL    HW133884   3.574   2.988   3.616  0.0353  0.9174 -0.5637
 7474SOL    HW233885   3.460   2.954   3.532 -0.3453  3.1517 -2.7307
 7475SOL     OW33886   1.392   0.715   8.975 -0.1067 -0.4840 -0.3565
 7475SOL    HW133887   1.394   0.762   9.058 -0.4069  1.1140 -1.2490
 7475SOL    HW233888   1.476   0.674   8.991  1.6207  3.5082  0.9623
 7476SOL     OW33889   4.615   1.010   1.244 -0.9171 -0.3805  0.0095
 7476SOL    HW133890   4.598   1.074   1.174 -0.8646 -1.1370 -0.6936
 7476SOL    HW233891   4.527   1.005   1.280 -1.3533  2.8849 -0.5966
 7477SOL     OW33892   0.367   3.765  11.881 -0.4356  0.2118 -0.4682
 7477SOL    HW133893   0.371   3.693  11.817 -0.4606 -1.3842  1.3334
 7477SOL    HW233894   0.452   3.809  11.879 -0.4961  0.3286 -0.4504
 7478SOL     OW33895   2.358   0.294   0.856  0.1586 -0.3787 -0.0075
 7478SOL    HW133896   2.405   0.224   0.810  0.8043 -0.2276  0.4090
 7478SOL    HW233897   2.344   0.247   0.938 -1.2596 -0.4583 -0.3024
 7479SOL     OW33898   1.759   4.700   9.572  0.3653 -0.8386 -0.9445
 7479SOL    HW133899   1.686   4.706   9.633  0.0746  0.2941 -1.3959
 7479SOL    HW233900   1.773   0.063   9.534 -0.7229  0.1284  0.8933
 7480SOL     OW33901   1.406   2.214   8.876 -0.3177  0.1745  0.6398
 7480SOL    HW133902   1.387   2.130   8.835  1.2557 -0.6744  1.6545
 7480SOL    HW233903   1.319   2.245   8.902 -0.9264 -0.6607 -0.3988
 7481SOL     OW33904   3.321   2.548   6.871 -0.0643 -0.3552 -0.1787
 7481SOL    HW133905   3.292   2.639   6.876 -1.3237 -0.8770  2.0543
 7481SOL    HW233906   3.279   2.506   6.946  1.2972  1.3313  1.5439
 7482SOL     OW33907   4.346   3.610   2.725 -0.7425  0.2335 -0.2782
 7482SOL    HW133908   4.286   3.645   2.789  1.0373  1.0899  0.9137
 7482SOL    HW233909   4.286   3.572   2.661 -0.3384  0.8973 -1.0646
 7483SOL     OW33910   2.007   3.642  13.511  0.3772  0.0105  0.6343
 7483SOL    HW133911   2.031   3.574  13.574 -0.4682 -1.2940 -0.4369
 7483SOL    HW233912   2.082   3.643  13.451 -1.0590  0.2144 -1.1660
 7484SOL     OW33913   0.735   1.438   6.343 -0.0738  0.2129  0.3271
 7484SOL    HW133914   0.828   1.455   6.353  0.0751  0.7902 -1.8660
 7484SOL    HW233915   0.707   1.439   6.434 -2.0110 -1.1000 -0.2473
 7485SOL     OW33916   1.274   2.491   4.188 -0.2595  0.0885 -0.2464
 7485SOL    HW133917   1.364   2.478   4.217 -0.4374 -0.3232  0.1391
 7485SOL    HW233918   1.247   2.399   4.188  1.1014 -0.3088 -0.2501
 7486SOL     OW33919   3.681   1.559   6.264  0.8645  0.0218  0.6476
 7486SOL    HW133920   3.741   1.487   6.245  1.0839  0.0622  1.1683
 7486SOL    HW233921   3.617   1.520   6.323  1.1766 -0.7217  0.4923
 7487SOL     OW33922   1.347   3.972   2.106 -0.2271  0.1645 -0.3165
 7487SOL    HW133923   1.386   3.910   2.167 -1.5703  0.5627  0.9488
 7487SOL    HW233924   1.268   3.926   2.077 -0.5289  0.2074  0.4226
 7488SOL     OW33925   4.682   3.242  11.587  0.4410  0.6312  0.0279
 7488SOL    HW133926   4.695   3.278  11.499 -0.5494 -2.0340 -1.2176
 7488SOL    HW233927   0.017   3.167  11.588 -0.8871 -0.4363 -1.2037
 7489SOL     OW33928   1.952   1.206  17.398 -0.4168 -0.0511  0.2256
 7489SOL    HW133929   1.943   1.138  17.331 -0.7176 -0.0650  0.2814
 7489SOL    HW233930   1.910   1.286  17.367  2.0139  0.1664 -2.6015
 7490SOL     OW33931   2.723   3.892   7.185  0.0194  0.2029  0.0297
 7490SOL    HW133932   2.782   3.829   7.144  0.5926  0.4585  0.4663
 7490SOL    HW233933   2.636   3.871   7.151 -0.4599 -0.1010  1.4433
 7491SOL     OW33934   3.915   0.898   9.650 -0.3557  0.1812 -0.0481
 7491SOL    HW133935   3.856   0.942   9.711 -0.9150  1.8411 -1.7468
 7491SOL    HW233936   3.858   0.842   9.597 -1.0315 -0.9725  1.8978
 7492SOL     OW33937   3.148   2.308  12.933  0.5189  0.2058 -0.3359
 7492SOL    HW133938   3.197   2.241  12.981 -0.8949 -0.5331  0.0642
 7492SOL    HW233939   3.063   2.269  12.912  1.2235  0.0630 -3.0477
 7493SOL     OW33940   3.807   2.586  10.419  0.0388  0.3769 -0.2001
 7493SOL    HW133941   3.866   2.514  10.438  0.8511  0.9968 -0.3726
 7493SOL    HW233942   3.726   2.550  10.455  0.8304 -1.4675 -0.2822
 7494SOL     OW33943   1.048   3.925   9.582 -0.0628 -0.3286  0.2738
 7494SOL    HW133944   1.000   3.851   9.619 -0.1026 -0.3870  0.1070
 7494SOL    HW233945   1.097   3.965   9.654 -0.4632  1.1903 -0.3071
 7495SOL     OW33946   2.037   0.300   8.671 -0.0413 -0.1799  0.2692
 7495SOL    HW133947   2.033   0.388   8.707  2.6499 -0.8547  2.2429
 7495SOL    HW233948   2.099   0.315   8.600  0.3777 -0.1536  0.6399
 7496SOL     OW33949   3.107   4.641   2.985 -0.2449 -0.2946  0.5795
 7496SOL    HW133950   3.083   4.700   3.056 -0.5473 -0.2194  0.4096
 7496SOL    HW233951   3.102   4.698   2.909 -1.6216 -1.0463  0.1179
 7497SOL     OW33952   3.604   2.347   7.978  0.7046  0.0554 -0.1858
 7497SOL    HW133953   3.605   2.430   7.930 -0.7156  0.1313 -0.1032
 7497SOL    HW233954   3.534   2.365   8.041 -0.1089 -0.1645 -1.0111
 7498SOL     OW33955   3.012   0.388   9.472 -0.1600 -0.0195  0.0675
 7498SOL    HW133956   3.055   0.333   9.537 -2.2236  0.0506  1.4975
 7498SOL    HW233957   3.039   0.474   9.503  0.3209 -0.2107  0.1737
 7499SOL     OW33958   0.952   4.468  12.410  0.7210  0.0928 -0.3039
 7499SOL    HW133959   0.961   4.539  12.474  1.5766 -1.1462  0.9353
 7499SOL    HW233960   1.007   4.398  12.445  1.8256  2.7825  3.2658
 7500SOL     OW33961   1.382   1.101  11.985 -0.1838 -0.6031 -0.0388
 7500SOL    HW133962   1.328   1.177  12.006  2.5559  1.6276 -1.0336
 7500SOL    HW233963   1.420   1.073  12.068  1.1719 -0.6129 -0.6646
 7501SOL     OW33964   2.260   1.474   4.967 -0.7280 -0.1320  0.0060
 7501SOL    HW133965   2.169   1.469   4.996 -0.7065  1.9609  0.4623
 7501SOL    HW233966   2.311   1.475   5.048 -1.9712  0.0559  0.7937
 7502SOL     OW33967   2.951   3.939  12.971  0.5156 -0.1077 -0.2703
 7502SOL    HW133968   2.970   3.864  12.916 -0.5012 -0.6041  0.0510
 7502SOL    HW233969   3.021   3.942  13.036  1.3246 -1.1542 -1.1252
 7503SOL     OW33970   3.203   0.665   6.930 -0.1090 -0.4189 -0.0034
 7503SOL    HW133971   3.117   0.650   6.890  0.8561 -0.6480 -1.9355
 7503SOL    HW233972   3.193   0.608   7.007 -1.2588 -0.0110  0.1548
 7504SOL     OW33973   3.035   3.847   4.337 -0.4570 -0.4264  1.0961
 7504SOL    HW133974   2.979   3.924   4.329  0.7440  0.3072 -0.2803
 7504SOL    HW233975   2.971   3.776   4.327  0.5718 -1.5115  2.1849
 7505SOL     OW33976   3.337   3.287   7.600  0.2973 -0.0109  0.5420
 7505SOL    HW133977   3.308   3.198   7.578  1.3616  0.0076 -0.9453
 7505SOL    HW233978   3.355   3.275   7.693 -0.9446  0.6654  0.8497
 7506SOL     OW33979   1.484   4.597   3.485  0.3245 -0.2869  0.0539
 7506SOL    HW133980   1.403   4.605   3.434  0.2982  1.6155  0.3974
 7506SOL    HW233981   1.493   4.691   3.477  1.6742 -0.3893  0.4537
 7507SOL     OW33982   1.865   4.070   7.933  0.9291  0.1461  0.0675
 7507SOL    HW133983   1.821   4.138   7.985  1.6163  0.5252  0.1649
 7507SOL    HW233984   1.907   4.024   8.005  0.8005 -0.3848 -0.2015
 7508SOL     OW33985   2.843   2.164   4.154  0.0140 -0.5946 -0.6717
 7508SOL    HW133986   2.816   2.249   4.119 -0.3770 -0.0407  0.9865
 7508SOL    HW233987   2.780   2.101   4.118 -2.7905  1.2194  1.0698
 7509SOL     OW33988   4.303   2.409  14.474 -0.1762 -0.1544 -0.2005
 7509SOL    HW133989   4.356   2.476  14.431 -1.4827 -0.5847 -2.5095
 7509SOL    HW233990   4.330   2.418  14.565  0.0701  1.6947 -0.4538
 7510SOL     OW33991   1.416   1.387   1.476  0.0021  0.4806  0.2610
 7510SOL    HW133992   1.436   1.478   1.495 -0.5711  0.5189  0.6923
 7510SOL    HW233993   1.338   1.364   1.527  0.6633 -0.8982  0.6495
 7511SOL     OW33994   2.491   4.241   2.735 -0.1124  0.0552 -0.3488
 7511SOL    HW133995   2.581   4.215   2.752  0.0209  0.5423 -0.3075
 7511SOL    HW233996   2.486   4.324   2.784 -1.3571 -0.7627  0.9228
 7512SOL     OW33997   1.111   3.842   2.415 -0.2197  0.4456  0.8952
 7512SOL    HW133998   1.069   3.761   2.386  1.4449 -0.3160  0.6459
 7512SOL    HW233999   1.199   3.836   2.379  0.3434  1.7662  2.0239
 7513SOL     OW34000   1.877   1.800   2.019  0.1547 -0.2660  0.3402
 7513SOL    HW134001   1.826   1.720   2.033 -0.1072 -0.5958 -2.5877
 7513SOL    HW234002   1.862   1.810   1.925 -0.4320  0.4466  0.5028
 7514SOL     OW34003   2.409   4.475   4.762 -0.1044 -0.3747 -0.0867
 7514SOL    HW134004   2.481   4.430   4.718  1.4868  2.1480 -0.0907
 7514SOL    HW234005   2.348   4.404   4.781  0.4041 -1.3330 -2.0453
 7515SOL     OW34006   1.036   1.896   7.963 -0.0725 -0.3535  0.0954
 7515SOL    HW134007   1.008   1.857   7.880 -1.7112  1.2280 -0.0985
 7515SOL    HW234008   0.965   1.958   7.978  0.2430 -0.5790  2.3910
 7516SOL     OW34009   2.608   4.451   3.136  0.5087  0.0864  0.2125
 7516SOL    HW134010   2.555   4.477   3.211 -1.6867 -1.0398 -0.9774
 7516SOL    HW234011   2.682   4.508   3.160  0.0723 -0.0205  1.8410
 7517SOL     OW34012   4.685   2.913  16.361 -0.8620  0.4819 -0.2358
 7517SOL    HW134013   4.628   2.921  16.284  0.7843  1.0540 -1.4099
 7517SOL    HW234014   4.688   2.818  16.368  2.0404  0.6899  1.4264
 7518SOL     OW34015   0.978   3.660  11.454 -0.0053 -0.4835  0.0795
 7518SOL    HW134016   1.016   3.599  11.391 -1.5485 -0.0898 -1.2482
 7518SOL    HW234017   1.040   3.655  11.526 -1.8389  1.0752  1.7646
 7519SOL     OW34018   1.987   0.432   8.932 -0.4425 -0.3924  0.6314
 7519SOL    HW134019   1.894   0.424   8.910  0.0654 -1.6417 -1.0487
 7519SOL    HW234020   2.029   0.351   8.904 -0.9126  0.4931 -2.7143
 7520SOL     OW34021   3.186   0.435   0.769 -1.2862 -0.1248  0.5072
 7520SOL    HW134022   3.215   0.523   0.794  1.5028 -1.3952  1.8608
 7520SOL    HW234023   3.094   0.435   0.795 -1.2453  1.0788  0.6478
 7521SOL     OW34024   1.056   2.642   1.733 -0.3990 -0.4145  0.3848
 7521SOL    HW134025   0.999   2.566   1.720 -2.3447  0.4893  3.5605
 7521SOL    HW234026   1.016   2.664   1.817 -0.5136 -0.8279  0.4376
 7522SOL     OW34027   0.142   4.434   3.546 -0.2780 -0.2618  1.0056
 7522SOL    HW134028   0.151   4.529   3.553  1.4933 -0.4909  1.6369
 7522SOL    HW234029   0.217   4.423   3.489 -0.2065  0.0723  1.0338
 7523SOL     OW34030   3.590   2.727   4.366 -0.1313  0.4254  0.3220
 7523SOL    HW134031   3.683   2.732   4.388  0.3172 -2.1224 -1.0328
 7523SOL    HW234032   3.547   2.742   4.450  1.5215  0.3560  1.1772
 7524SOL     OW34033   4.318   3.728  12.749  0.4952 -0.6126  0.2532
 7524SOL    HW134034   4.372   3.656  12.782  1.6043  0.2227  0.2657
 7524SOL    HW234035   4.301   3.694  12.662 -0.6493  0.8240 -0.0856
 7525SOL     OW34036   3.182   3.355   4.469  0.1969 -0.2425  0.0371
 7525SOL    HW134037   3.104   3.368   4.414 -0.8705  1.8796  2.0287
 7525SOL    HW234038   3.168   3.434   4.521 -0.0107 -1.7173  2.2216
 7526SOL     OW34039   1.758   1.905   8.467  0.0982  0.0746 -0.5167
 7526SOL    HW134040   1.693   1.966   8.433  0.3887 -0.2095 -1.5862
 7526SOL    HW234041   1.837   1.959   8.466  0.3066 -0.2124 -0.0720
 7527SOL     OW34042   1.471   2.213  15.315  0.2508 -0.6432 -0.2421
 7527SOL    HW134043   1.467   2.131  15.266  0.0862 -0.5253 -0.4292
 7527SOL    HW234044   1.464   2.275  15.242  0.3317 -1.6833 -1.1289
 7528SOL     OW34045   1.131   0.643   8.517 -0.6731 -0.1684 -0.4962
 7528SOL    HW134046   1.172   0.558   8.528 -0.6004  0.2459  2.4692
 7528SOL    HW234047   1.183   0.693   8.581 -0.8764  1.7832 -1.8370
 7529SOL     OW34048   2.467   1.938   4.778  0.5197 -0.4745  0.1170
 7529SOL    HW134049   2.443   1.846   4.784  1.6438 -0.8611 -1.3655
 7529SOL    HW234050   2.555   1.920   4.745  0.3145  1.0070 -1.2861
 7530SOL     OW34051   0.283   3.753  17.008 -0.2003 -0.4698 -0.0693
 7530SOL    HW134052   0.198   3.792  17.029 -1.0554 -3.2793  1.7100
 7530SOL    HW234053   0.320   3.734  17.094  3.5249  0.0479 -1.5393
 7531SOL     OW34054   2.633   0.706  17.575 -0.1494 -0.3152 -0.5394
 7531SOL    HW134055   2.601   0.626  17.617 -1.3346  0.7612  0.5801
 7531SOL    HW234056   2.648   0.678  17.485 -0.4125  0.0650 -0.6980
 7532SOL     OW34057   1.103   4.074   3.411  0.0747  0.1032  0.6956
 7532SOL    HW134058   1.113   4.140   3.479 -1.6229 -0.9540  1.9744
 7532SOL    HW234059   1.009   4.064   3.397 -0.4016  1.9398  2.5970
 7533SOL     OW34060   3.338   4.220   8.430  0.1837 -0.0542 -0.2388
 7533SOL    HW134061   3.278   4.175   8.372  2.8170 -2.8439 -0.8174
 7533SOL    HW234062   3.397   4.159   8.475 -1.4780 -0.4937  1.3093
 7534SOL     OW34063   3.332   2.433  10.386  0.2040 -0.0397 -0.2106
 7534SOL    HW134064   3.261   2.491  10.415  0.1551  0.2746 -0.9522
 7534SOL    HW234065   3.331   2.453  10.292 -0.7042 -1.2369 -0.4503
 7535SOL     OW34066   1.111   1.714   7.019  1.2605 -0.0202 -0.0306
 7535SOL    HW134067   1.186   1.772   7.009  1.4411 -0.1628  0.4848
 7535SOL    HW234068   1.041   1.763   6.976  1.1707 -0.7834 -0.7492
 7536SOL     OW34069   0.950   0.782   7.132  0.4328  0.1653  0.1293
 7536SOL    HW134070   1.033   0.751   7.168 -0.6493 -1.4443  1.2101
 7536SOL    HW234071   0.975   0.874   7.137  0.4886  0.2240 -1.1548
 7537SOL     OW34072   2.148   2.986   3.491  0.5247 -0.3309 -0.2331
 7537SOL    HW134073   2.133   3.080   3.499 -2.2466 -0.8551  0.5042
 7537SOL    HW234074   2.127   2.956   3.579  0.2326 -3.4331 -1.3422
 7538SOL     OW34075   1.839   0.480   0.156  0.8674 -0.4297 -0.4568
 7538SOL    HW134076   1.750   0.476   0.189  1.1607 -0.0878  0.3813
 7538SOL    HW234077   1.853   0.396   0.113 -4.2497 -2.1192  1.1636
 7539SOL     OW34078   3.598   0.727  13.064 -0.0187  0.0419  0.3669
 7539SOL    HW134079   3.683   0.771  13.070 -1.0562  2.1681 -0.7054
 7539SOL    HW234080   3.621   0.641  13.030  1.9457  0.6620  0.1242
 7540SOL     OW34081   1.222   4.688   4.134  0.0017 -0.4346  0.7185
 7540SOL    HW134082   1.235   4.598   4.166 -1.9640 -0.4814  1.4055
 7540SOL    HW234083   1.299   0.017   4.155  0.7203 -0.6610 -1.3521
 7541SOL     OW34084   1.369   0.413   5.389 -0.0995  0.7115 -0.3801
 7541SOL    HW134085   1.349   0.433   5.481 -2.3422 -0.4676 -0.5994
 7541SOL    HW234086   1.462   0.391   5.391 -0.4151 -0.4103  1.5624
 7542SOL     OW34087   1.752   0.150   8.300 -0.0603  0.8430 -0.1366
 7542SOL    HW134088   1.814   0.213   8.265 -1.8784  0.1649 -4.5295
 7542SOL    HW234089   1.789   0.135   8.388 -0.3825  0.5538 -0.0504
 7543SOL     OW34090   2.564   0.653   4.202  0.7396  0.0914  0.1152
 7543SOL    HW134091   2.520   0.736   4.222  0.6444 -0.1057  0.7117
 7543SOL    HW234092   2.569   0.616   4.290 -0.5828 -0.3571 -0.0011
 7544SOL     OW34093   3.568   2.053  10.909 -0.0356  0.0216  0.1948
 7544SOL    HW134094   3.617   2.031  10.988  1.2377  0.1798 -0.5404
 7544SOL    HW234095   3.482   2.058  10.950 -0.8718  0.6081 -1.6278
 7545SOL     OW34096   3.013   0.430   5.582 -0.2273 -0.2872 -0.0167
 7545SOL    HW134097   3.048   0.468   5.501  0.1908 -0.2112  0.2052
 7545SOL    HW234098   3.079   0.460   5.644 -1.2144  2.6366 -0.3802
 7546SOL     OW34099   1.564   4.270   1.908 -0.0760 -0.2527  0.3817
 7546SOL    HW134100   1.614   4.319   1.843 -1.5455  0.9778  0.1813
 7546SOL    HW234101   1.509   4.341   1.941  1.1958  0.3143  1.3030
 7547SOL     OW34102   1.293   4.458   9.225 -0.0066  0.5452  0.4287
 7547SOL    HW134103   1.279   4.499   9.139  1.1664  0.6715  0.3069
 7547SOL    HW234104   1.273   4.364   9.223 -2.0077  0.9863 -0.4851
 7548SOL     OW34105   3.813   2.705   3.934  0.3252  0.3324 -0.7791
 7548SOL    HW134106   3.909   2.706   3.925  0.2676  0.1630 -1.3917
 7548SOL    HW234107   3.786   2.663   3.853 -0.8446  0.8586 -0.6598
 7549SOL     OW34108   2.899   4.052  12.450  0.2317  0.1489 -0.0472
 7549SOL    HW134109   2.816   4.097  12.464 -0.2013 -0.4431 -0.7165
 7549SOL    HW234110   2.897   4.069  12.356 -3.8643  0.1596  0.0669
 7550SOL     OW34111   3.160   0.847   2.298  0.2549  0.2411  0.3233
 7550SOL    HW134112   3.187   0.780   2.361  0.1995 -0.8790 -0.8540
 7550SOL    HW234113   3.168   0.798   2.217  0.2088 -0.7361  0.9031
 7551SOL     OW34114   1.775   3.409   3.892 -0.2030 -0.4586  0.3771
 7551SOL    HW134115   1.760   3.354   3.815  2.7900 -0.2778 -0.3109
 7551SOL    HW234116   1.859   3.447   3.868 -0.5105  0.8126  1.3246
 7552SOL     OW34117   1.606   1.528   5.172  0.1543 -0.4917 -0.2662
 7552SOL    HW134118   1.645   1.441   5.157  0.4064 -0.1977 -1.3245
 7552SOL    HW234119   1.640   1.563   5.254  0.5577 -0.3399 -0.4949
 7553SOL     OW34120   3.696   1.766   8.759 -0.1882 -0.3469  0.0101
 7553SOL    HW134121   3.666   1.736   8.845  0.1862 -1.4788 -0.2614
 7553SOL    HW234122   3.657   1.702   8.700 -0.0769  1.0841 -1.6008
 7554SOL     OW34123   3.966   3.786  11.094  0.3674  0.0490 -0.2252
 7554SOL    HW134124   4.036   3.823  11.040  0.0442 -0.6626 -1.1149
 7554SOL    HW234125   3.891   3.842  11.075  0.9298  0.7546 -0.4136
 7555SOL     OW34126   4.345   4.564   5.072  0.3265  0.5710  0.0299
 7555SOL    HW134127   4.388   4.649   5.081 -0.3082  0.9120 -0.1586
 7555SOL    HW234128   4.325   4.543   5.163 -1.2331 -3.3556 -1.2330
 7556SOL     OW34129   0.441   2.308   9.796 -0.6287 -0.0626  0.3279
 7556SOL    HW134130   0.365   2.356   9.830  0.1617  1.3583  0.0687
 7556SOL    HW234131   0.402   2.220   9.799 -0.0692 -0.3700 -1.4763
 7557SOL     OW34132   3.104   3.155  15.185 -0.2195 -0.0571 -0.4012
 7557SOL    HW134133   3.034   3.198  15.235 -0.0037 -1.1504  0.8230
 7557SOL    HW234134   3.073   3.065  15.180  1.4507 -0.7664  2.2612
 7558SOL     OW34135   1.315   3.995   6.125  0.8585  0.4439  0.9748
 7558SOL    HW134136   1.271   3.913   6.146 -0.5737  0.5229 -1.6940
 7558SOL    HW234137   1.347   4.033   6.207 -0.5054 -0.3701  1.8824
 7559SOL     OW34138   1.709   0.407   4.819  0.0399  0.2686 -0.2739
 7559SOL    HW134139   1.711   0.368   4.731 -1.8914  0.3882 -0.3692
 7559SOL    HW234140   1.616   0.416   4.839 -0.2161 -1.4594 -0.7057
 7560SOL     OW34141   2.038   4.049   2.994  0.5611 -0.2647  0.0210
 7560SOL    HW134142   2.112   4.086   2.946  0.4891 -1.1036 -0.7355
 7560SOL    HW234143   2.036   4.113   3.065  0.3138  0.0055 -0.2314
 7561SOL     OW34144   2.976   1.606   4.382 -0.0004  0.0995  0.4935
 7561SOL    HW134145   3.056   1.579   4.427 -0.7411  0.4889  2.0205
 7561SOL    HW234146   2.997   1.696   4.356  0.1882 -0.1075 -0.0621
 7562SOL     OW34147   1.198   2.727   2.729 -0.5257  0.0781 -0.0954
 7562SOL    HW134148   1.220   2.642   2.766 -1.4369  0.0694  0.4334
 7562SOL    HW234149   1.235   2.720   2.641 -1.9529  1.1941 -0.7857
 7563SOL     OW34150   1.903   3.858  10.368  0.0408  0.5411  0.5052
 7563SOL    HW134151   1.926   3.943  10.406 -0.7591  0.6758  0.6852
 7563SOL    HW234152   1.961   3.851  10.293 -1.6747  2.4492 -1.0211
 7564SOL     OW34153   1.230   1.963   4.325 -0.4239 -0.4259  0.1911
 7564SOL    HW134154   1.234   1.882   4.376 -2.4550  0.6140  2.0186
 7564SOL    HW234155   1.224   1.925   4.238  2.2328  0.4959 -0.3883
 7565SOL     OW34156   3.871   2.634   8.101 -0.4813 -0.3811  0.0102
 7565SOL    HW134157   3.922   2.713   8.082  0.8638 -1.6219 -1.5718
 7565SOL    HW234158   3.790   2.680   8.080 -0.9228 -1.3061 -0.3035
 7566SOL     OW34159   4.378   1.788   2.955  0.3091  0.4469 -0.0538
 7566SOL    HW134160   4.447   1.853   2.951  2.9436 -2.4032 -0.4852
 7566SOL    HW234161   4.431   1.710   2.942  0.0095  0.3190 -0.5126
 7567SOL     OW34162   2.742   1.816   4.017 -0.2992 -0.6771  0.1699
 7567SOL    HW134163   2.825   1.842   4.057  0.3390 -0.4718 -1.2877
 7567SOL    HW234164   2.685   1.802   4.093  0.0598 -3.4053 -0.0587
 7568SOL     OW34165   4.522   0.877   5.590 -0.8362  0.6414  0.3833
 7568SOL    HW134166   4.545   0.818   5.662 -0.1677 -0.2035 -0.5178
 7568SOL    HW234167   4.545   0.822   5.515  2.6664  2.0555  0.4104
 7569SOL     OW34168   2.822   0.748   3.545 -0.4803 -0.3836 -0.1314
 7569SOL    HW134169   2.786   0.786   3.625  0.4262 -1.0372  0.5922
 7569SOL    HW234170   2.765   0.672   3.528  1.4255 -1.2851 -2.3853
 7570SOL     OW34171   4.153   0.639  17.213  0.0706  0.7659 -0.3207
 7570SOL    HW134172   4.180   0.553  17.244  0.4695  0.9275 -0.2264
 7570SOL    HW234173   4.158   0.627  17.118 -0.3709  1.3776 -0.4210
 7571SOL     OW34174   2.054   1.731  11.255  0.0017 -0.6635 -0.3501
 7571SOL    HW134175   2.081   1.668  11.321 -0.4697  0.2660  0.7164
 7571SOL    HW234176   1.966   1.696  11.239 -0.3268  0.0294 -0.0549
 7572SOL     OW34177   0.148   4.657  15.208 -0.6535 -0.0684 -0.1566
 7572SOL    HW134178   0.128   4.598  15.281  0.5418 -3.9417 -2.9789
 7572SOL    HW234179   0.107   0.015  15.237 -0.2226 -0.2900  1.0964
 7573SOL     OW34180   4.024   4.324   7.289  0.5914 -0.1053  0.4539
 7573SOL    HW134181   4.022   4.367   7.375  0.9959 -0.7613  0.7884
 7573SOL    HW234182   4.091   4.378   7.248 -0.8649  1.4174  0.0708
 7574SOL     OW34183   0.748   4.305   7.430  0.0659 -0.0137  0.4335
 7574SOL    HW134184   0.679   4.243   7.405 -2.4596  1.9130  2.6964
 7574SOL    HW234185   0.686   4.377   7.441 -0.2216 -0.0359 -1.0206
 7575SOL     OW34186   1.962   1.884   2.254  0.0263 -0.1544  0.6231
 7575SOL    HW134187   1.941   1.849   2.167  0.0552  0.1379  0.4996
 7575SOL    HW234188   2.040   1.938   2.236  0.2141 -0.4074  0.6701
 7576SOL     OW34189   2.267   3.985   8.750 -0.7038  0.9886 -0.2867
 7576SOL    HW134190   2.268   4.026   8.837 -0.8033 -0.6183  0.4743
 7576SOL    HW234191   2.173   4.001   8.735 -0.7060  1.2540 -0.0022
 7577SOL     OW34192   1.631   2.095   4.234 -0.6702  0.5626  0.5664
 7577SOL    HW134193   1.646   2.105   4.140 -1.4268  0.4805  0.4348
 7577SOL    HW234194   1.721   2.088   4.264 -0.6929  1.0910  0.7558
 7578SOL     OW34195   3.208   4.158   5.051  0.2015 -0.2757 -0.0723
 7578SOL    HW134196   3.186   4.128   5.139 -0.0170  0.8796  0.2670
 7578SOL    HW234197   3.217   4.252   5.066  0.1315  0.3155 -3.6469
 7579SOL     OW34198   2.027   3.715  13.167  0.1256 -0.0936 -0.3838
 7579SOL    HW134199   2.096   3.678  13.222 -0.4661 -0.7208 -0.0694
 7579SOL    HW234200   2.049   3.682  13.079 -0.9127  0.7436 -0.9561
 7580SOL     OW34201   3.113   0.273   7.512  0.1874  0.4161  0.1039
 7580SOL    HW134202   3.078   0.314   7.592  0.3275 -1.9696  1.3926
 7580SOL    HW234203   3.042   0.288   7.451  0.8215  0.4685 -0.6214
 7581SOL     OW34204   1.475   1.546   3.658 -0.5117 -0.4826  0.3570
 7581SOL    HW134205   1.419   1.620   3.635  1.5704  1.4201  1.3346
 7581SOL    HW234206   1.418   1.473   3.636  1.0481 -1.3214 -0.9335
 7582SOL     OW34207   0.819   4.558  13.036  0.2369  0.6323 -0.2141
 7582SOL    HW134208   0.900   4.607  13.022 -0.0323  1.4263  0.9789
 7582SOL    HW234209   0.771   4.592  13.112  0.2059  0.5208 -0.1836
 7583SOL     OW34210   3.186   3.338  10.495  0.1318 -0.2741 -0.0160
 7583SOL    HW134211   3.204   3.245  10.482  1.3594 -0.0006 -0.2724
 7583SOL    HW234212   3.245   3.357  10.568 -0.9237  1.9694  0.2419
 7584SOL     OW34213   2.192   1.288   2.329  0.1557 -0.1260 -0.6483
 7584SOL    HW134214   2.161   1.329   2.249  1.1584  1.7399 -0.0773
 7584SOL    HW234215   2.240   1.211   2.299  1.3768 -0.6957  2.7860
 7585SOL     OW34216   3.392   2.284   3.260  0.0264  0.0702 -0.2194
 7585SOL    HW134217   3.453   2.334   3.206  1.0667 -0.5831  0.3203
 7585SOL    HW234218   3.313   2.337   3.259 -1.6421 -2.4201 -1.3081
 7586SOL     OW34219   4.564   3.831  10.840  0.0941 -0.2319 -0.3291
 7586SOL    HW134220   4.481   3.848  10.886  0.2231 -0.7500  0.1016
 7586SOL    HW234221   4.624   3.794  10.905 -1.8859  0.2932  1.7963
 7587SOL     OW34222   0.521   2.125   2.925 -0.0986 -0.5397 -0.3155
 7587SOL    HW134223   0.427   2.134   2.911  0.3328 -0.2531 -2.9109
 7587SOL    HW234224   0.526   2.088   3.013 -1.6075 -1.8088 -0.7691
 7588SOL     OW34225   0.673   2.650   1.583  0.1642 -0.0818  0.0085
 7588SOL    HW134226   0.665   2.727   1.639  1.0929 -0.6784  0.9677
 7588SOL    HW234227   0.764   2.653   1.553 -0.3696 -0.7526 -1.6848
 7589SOL     OW34228   1.366   2.487   1.891 -0.0929 -0.4517  0.0826
 7589SOL    HW134229   1.291   2.528   1.933  0.4965 -0.1680  0.8543
 7589SOL    HW234230   1.344   2.497   1.798  1.2246 -2.5121 -0.4399
 7590SOL     OW34231   4.116   1.675   8.510  1.1329 -0.6673  0.3755
 7590SOL    HW134232   4.105   1.627   8.428  1.1044  2.0159 -1.1587
 7590SOL    HW234233   4.038   1.730   8.508  1.9711  0.3854 -3.3641
 7591SOL     OW34234   2.992   0.923   0.645  0.1290 -0.4450 -0.0496
 7591SOL    HW134235   2.949   0.872   0.576  0.1158  1.9848 -1.8605
 7591SOL    HW234236   2.952   0.886   0.723 -1.7968  1.6772 -0.0370
 7592SOL     OW34237   1.154   3.858   7.809  0.1022 -0.2509 -0.7119
 7592SOL    HW134238   1.129   3.923   7.876  0.9584  2.5151 -3.0891
 7592SOL    HW234239   1.074   3.805   7.813 -0.9062  1.2608 -0.8541
 7593SOL     OW34240   1.753   1.146   0.637 -0.3289  0.4154 -0.0965
 7593SOL    HW134241   1.690   1.167   0.568 -1.7082 -1.5312  0.5932
 7593SOL    HW234242   1.833   1.155   0.585  1.3512  3.4347  2.9273
 7594SOL     OW34243   0.289   2.420  16.000  0.4412  0.2718  0.0765
 7594SOL    HW134244   0.356   2.483  15.975  0.6084 -0.2115 -0.6683
 7594SOL    HW234245   0.337   2.339  16.015  0.2288 -0.0101 -0.7930
 7595SOL     OW34246   2.153   4.652  17.437  0.2303 -0.2166  0.5497
 7595SOL    HW134247   2.101   4.646  17.357 -1.6549 -0.0622  1.7652
 7595SOL    HW234248   2.240   4.663  17.397 -1.0522  1.2423 -1.8279
 7596SOL     OW34249   2.227   4.586   8.988  0.5609  0.4755  0.2787
 7596SOL    HW134250   2.255   4.607   8.898  3.2946  0.9396  1.2420
 7596SOL    HW234251   2.298   4.525   9.010 -0.1758 -0.3437  0.3855
 7597SOL     OW34252   4.556   3.983   0.716  0.2840 -0.1365  0.1740
 7597SOL    HW134253   4.545   3.899   0.670  0.6503  0.3284 -0.7490
 7597SOL    HW234254   4.470   4.022   0.731  1.6351  2.4241  1.0782
 7598SOL     OW34255   4.012   0.276   1.468 -0.3027 -0.5367 -0.3897
 7598SOL    HW134256   3.958   0.289   1.546 -0.4009  1.8873 -0.8621
 7598SOL    HW234257   3.946   0.274   1.399 -0.1035 -1.9361 -0.5446
 7599SOL     OW34258   3.124   1.535   7.856  0.0608  0.5541 -0.7567
 7599SOL    HW134259   3.063   1.464   7.879  0.9860 -0.2211 -0.6800
 7599SOL    HW234260   3.063   1.598   7.817 -0.4986  0.3161 -0.2726
 7600SOL     OW34261   2.950   3.252   3.482 -0.3032  0.1470  0.1279
 7600SOL    HW134262   2.886   3.258   3.412  1.5845 -0.7034 -1.6883
 7600SOL    HW234263   3.017   3.192   3.447 -0.9795 -1.7602  2.1151
 7601SOL     OW34264   0.570   3.800   8.590 -0.1783 -0.5117 -0.2522
 7601SOL    HW134265   0.571   3.722   8.535 -0.4151 -0.9804  0.4137
 7601SOL    HW234266   0.478   3.803   8.617 -0.6213  1.3500 -1.9224
 7602SOL     OW34267   2.711   1.215   3.316  0.1045  0.3225  0.0099
 7602SOL    HW134268   2.738   1.307   3.306  0.4296 -0.0314 -2.4310
 7602SOL    HW234269   2.756   1.187   3.235  0.4934  0.2112  0.2635
 7603SOL     OW34270   2.209   0.142   3.042  0.0220 -0.5308  0.1556
 7603SOL    HW134271   2.210   0.138   2.946 -0.9488 -0.1545  0.1314
 7603SOL    HW234272   2.205   0.233   3.071  1.4309  0.9337 -4.2478
 7604SOL     OW34273   2.764   0.368   8.055  0.0844  0.1803 -0.2252
 7604SOL    HW134274   2.745   0.363   7.961  1.7444  2.2925 -0.6482
 7604SOL    HW234275   2.690   0.314   8.084  0.7116  0.7865  2.5323
 7605SOL     OW34276   3.804   3.221  12.505 -0.5209 -0.3350  0.1339
 7605SOL    HW134277   3.883   3.273  12.495 -1.2216  0.8703  0.9143
 7605SOL    HW234278   3.846   3.135  12.511 -1.8960 -1.0204  0.1955
 7606SOL     OW34279   1.906   3.052  13.597  0.1569 -0.1725 -0.3915
 7606SOL    HW134280   1.971   2.983  13.607  1.1908  1.3243  3.3593
 7606SOL    HW234281   1.862   3.045  13.682  0.3790 -1.6802 -0.4085
 7607SOL     OW34282   0.843   4.528  10.367  0.5176 -0.2272 -0.1381
 7607SOL    HW134283   0.758   4.515  10.409 -0.3152  2.0201 -1.1223
 7607SOL    HW234284   0.893   4.553  10.444  2.2576 -0.0372 -1.3391
 7608SOL     OW34285   3.662   2.008  15.584 -0.1658 -0.6890 -0.2937
 7608SOL    HW134286   3.740   1.993  15.639 -0.5349  1.6858  0.8680
 7608SOL    HW234287   3.640   1.915  15.581  0.5785 -0.9792  2.9068
 7609SOL     OW34288   1.884   0.584  10.595 -0.4213  0.0493 -0.6535
 7609SOL    HW134289   1.955   0.609  10.535 -0.4407 -2.3296 -1.6703
 7609SOL    HW234290   1.906   0.491  10.604 -1.6192  0.0432  2.0803
 7610SOL     OW34291   1.995   3.411  13.975 -0.5668 -0.5644 -0.3301
 7610SOL    HW134292   2.070   3.470  13.970 -0.5093 -0.7901 -1.9406
 7610SOL    HW234293   1.961   3.425  14.064 -2.0792  1.0292 -1.1596
 7611SOL     OW34294   1.775   2.851   8.557 -0.7054 -0.3831  0.4376
 7611SOL    HW134295   1.696   2.884   8.600 -0.6327  1.0207 -0.4976
 7611SOL    HW234296   1.832   2.927   8.545 -1.5868  0.5924  2.4117
 7612SOL     OW34297   0.676   2.759   4.144  0.4106  0.2172 -0.1153
 7612SOL    HW134298   0.611   2.689   4.142  1.8233 -1.0252 -1.6098
 7612SOL    HW234299   0.748   2.714   4.187 -1.1680  0.1367  2.4578
 7613SOL     OW34300   3.770   3.387   8.798 -0.1643 -0.1736 -0.0179
 7613SOL    HW134301   3.817   3.373   8.881 -1.8137 -0.3467  0.8760
 7613SOL    HW234302   3.793   3.476   8.773  2.0768 -0.3416  1.4027
 7614SOL     OW34303   1.208   3.137  14.757 -0.4853  0.0273 -0.3841
 7614SOL    HW134304   1.174   3.055  14.794 -0.1636 -1.7905 -4.0813
 7614SOL    HW234305   1.296   3.135  14.796 -0.6195  0.8510 -0.0555
 7615SOL     OW34306   3.945   2.258   9.408 -0.2514  0.1135  0.2554
 7615SOL    HW134307   3.937   2.162   9.411 -0.0965  0.2218  3.5720
 7615SOL    HW234308   3.948   2.275   9.314  0.7374 -2.6345 -0.2211
 7616SOL     OW34309   1.500   3.649  11.338 -0.0581 -0.4280 -0.3276
 7616SOL    HW134310   1.488   3.608  11.252 -2.2902  1.0517 -0.7274
 7616SOL    HW234311   1.414   3.628  11.375 -0.2238 -2.1258 -1.6885
 7617SOL     OW34312   4.424   4.334   6.793 -0.3500  0.3020  0.2424
 7617SOL    HW134313   4.513   4.332   6.829 -0.6227 -0.2359  0.8815
 7617SOL    HW234314   4.376   4.318   6.875  0.6824  1.7736  1.1478
 7618SOL     OW34315   3.737   1.363   6.617 -0.1283 -0.7559  0.4711
 7618SOL    HW134316   3.685   1.368   6.697  0.2634 -1.8811  0.7875
 7618SOL    HW234317   3.731   1.448   6.572  0.5722 -2.9872 -3.8092
 7619SOL     OW34318   0.739   1.105   3.093 -0.0282 -0.0275 -0.1522
 7619SOL    HW134319   0.702   1.143   3.013 -2.6065 -0.8134  0.6669
 7619SOL    HW234320   0.758   1.021   3.051 -0.6285  0.4053 -1.2872
 7620SOL     OW34321   1.232   0.081  12.522  0.3012 -0.3647 -0.3591
 7620SOL    HW134322   1.269   4.720  12.541 -1.5046 -0.7821  1.2818
 7620SOL    HW234323   1.280   0.110  12.445 -2.7921  0.0070 -2.1705
 7621SOL     OW34324   0.947   0.316   8.130 -0.2570  0.0690 -0.1364
 7621SOL    HW134325   0.995   0.252   8.183 -1.2805 -1.3907 -0.9909
 7621SOL    HW234326   0.889   0.345   8.201 -0.6877  0.7429 -0.7552
 7622SOL     OW34327   1.336   0.439   8.720  0.3079  0.2855  0.1384
 7622SOL    HW134328   1.357   0.528   8.748  1.8792  1.0318 -3.3685
 7622SOL    HW234329   1.260   0.410   8.770 -0.0282 -0.0554 -0.5603
 7623SOL     OW34330   3.892   4.254   3.172 -0.0446  0.1335  0.3048
 7623SOL    HW134331   3.827   4.322   3.154 -0.6934  0.3201  3.3772
 7623SOL    HW234332   3.862   4.223   3.258  0.8097  1.4129  1.0509
 7624SOL     OW34333   3.380   2.766   4.577 -0.2377 -0.2627  0.2076
 7624SOL    HW134334   3.377   2.717   4.659 -1.6011  2.1962  1.6420
 7624SOL    HW234335   3.417   2.843   4.621 -1.3744  2.9675 -4.4459
 7625SOL     OW34336   1.373   0.911   4.846  0.4648  0.0182  0.9072
 7625SOL    HW134337   1.282   0.921   4.872 -0.3975  0.1374 -2.1661
 7625SOL    HW234338   1.405   0.856   4.918 -0.1128 -2.0312 -0.4065
 7626SOL     OW34339   0.878   3.668   7.097 -0.3172  0.0100 -0.0284
 7626SOL    HW134340   0.909   3.740   7.152 -0.3280 -0.2747  0.3498
 7626SOL    HW234341   0.829   3.723   7.036  0.4362 -1.3296 -1.8087
 7627SOL     OW34342   0.320   3.914   9.390  0.3107 -0.0082  0.1788
 7627SOL    HW134343   0.269   3.834   9.379 -0.3880  0.4955 -0.2823
 7627SOL    HW234344   0.384   3.904   9.319 -0.1596 -1.8908  0.0345
 7628SOL     OW34345   3.659   1.684  10.584  0.0487 -0.7287  0.5252
 7628SOL    HW134346   3.635   1.723  10.668  0.0607  0.8065 -0.1937
 7628SOL    HW234347   3.745   1.646  10.601  1.0796  0.9231 -0.9857
 7629SOL     OW34348   4.042   3.559   4.278  0.0238 -0.8390 -0.2383
 7629SOL    HW134349   4.058   3.504   4.201  1.6172  0.7652 -1.0398
 7629SOL    HW234350   4.051   3.644   4.235 -0.2285 -1.7655 -2.1280
 7630SOL     OW34351   0.309   2.006   3.869  0.3956  0.3099 -0.1418
 7630SOL    HW134352   0.381   2.069   3.866  1.2087 -0.5987  0.1378
 7630SOL    HW234353   0.355   1.923   3.881  0.5882 -0.0315 -3.1755
 7631SOL     OW34354   3.543   2.634   4.977  0.2572 -0.2023 -0.1715
 7631SOL    HW134355   3.541   2.724   5.010 -0.6538  0.8306 -3.0094
 7631SOL    HW234356   3.482   2.637   4.904  0.8792 -1.6497 -0.7350
 7632SOL     OW34357   1.321   2.068   3.468  0.3647 -0.1434 -0.1830
 7632SOL    HW134358   1.291   2.046   3.557  2.3529 -1.9482  0.0429
 7632SOL    HW234359   1.248   2.114   3.428 -0.3909  1.7618  3.3492
 7633SOL     OW34360   1.304   1.617   1.909 -0.0689  0.1800 -0.2413
 7633SOL    HW134361   1.286   1.686   1.845  0.8596  0.9719  0.3709
 7633SOL    HW234362   1.326   1.680   1.977 -1.5163  0.9878 -0.5142
 7634SOL     OW34363   1.512   0.699   1.172  0.1185 -0.1439 -0.1892
 7634SOL    HW134364   1.469   0.624   1.131 -1.5545 -1.1750  3.4285
 7634SOL    HW234365   1.564   0.663   1.244  1.8899  0.1905 -1.3274
 7635SOL     OW34366   1.726   1.693   3.104  0.2171 -0.1369 -0.4585
 7635SOL    HW134367   1.697   1.731   3.021  1.8172 -1.2420 -1.5105
 7635SOL    HW234368   1.780   1.763   3.142 -0.6698  0.1172  0.3490
 7636SOL     OW34369   3.888   4.530   5.413 -0.1778 -0.0852  0.0090
 7636SOL    HW134370   3.921   4.456   5.361  0.5715  0.8631 -0.8534
 7636SOL    HW234371   3.793   4.514   5.410 -0.2388  0.6543 -1.9746
 7637SOL     OW34372   3.450   1.182   1.281  0.5581  0.1396 -0.6838
 7637SOL    HW134373   3.523   1.161   1.222  0.3039 -0.2160 -0.8650
 7637SOL    HW234374   3.496   1.202   1.363 -0.1072 -1.5384  0.0819
 7638SOL     OW34375   4.484   0.854   8.146  0.1173  0.0800  0.0766
 7638SOL    HW134376   4.546   0.785   8.122 -1.1944 -1.2887  0.6091
 7638SOL    HW234377   4.448   0.822   8.228 -2.0036 -3.1274 -2.0898
 7639SOL     OW34378   0.917   3.368   7.992 -0.4118 -0.1540  0.1853
 7639SOL    HW134379   0.909   3.406   8.079 -0.0164  1.9431 -0.6830
 7639SOL    HW234380   1.009   3.384   7.969 -1.5007  1.6202 -2.9416
 7640SOL     OW34381   2.830   3.330  13.695 -0.5452 -0.6617 -0.6945
 7640SOL    HW134382   2.752   3.362  13.741  1.7794  3.3603  0.4230
 7640SOL    HW234383   2.791   3.263  13.638 -1.4063  0.0024 -0.8818
 7641SOL     OW34384   4.203   3.965   4.575  0.2433  0.4290  0.0915
 7641SOL    HW134385   4.177   3.965   4.483  1.2145  1.0142 -0.1817
 7641SOL    HW234386   4.286   3.922   4.555 -0.1632 -0.2615 -0.1211
 7642SOL     OW34387   3.880   2.994   3.382 -0.1998 -0.1678 -0.0149
 7642SOL    HW134388   3.885   3.053   3.457 -0.2015  0.0209 -0.1625
 7642SOL    HW234389   3.798   3.017   3.338  0.2340 -0.1802 -0.8406
 7643SOL     OW34390   1.186   3.059  10.520  0.4277 -0.2130  0.0187
 7643SOL    HW134391   1.136   3.130  10.481 -0.0152 -0.0184  0.9456
 7643SOL    HW234392   1.195   2.990  10.454 -1.3950 -0.8680  0.4542
 7644SOL     OW34393   2.461   3.569   5.145  0.6434  0.1536 -0.3523
 7644SOL    HW134394   2.515   3.518   5.085  1.5811  1.6276 -0.7494
 7644SOL    HW234395   2.513   3.581   5.225 -0.2153  0.1070  0.2104
 7645SOL     OW34396   0.634   3.417   8.699 -0.5259  0.0072 -1.0399
 7645SOL    HW134397   0.604   3.485   8.759 -2.1054 -1.7432  0.1681
 7645SOL    HW234398   0.718   3.456   8.674 -0.8020  0.5702 -1.0901
 7646SOL     OW34399   0.091   3.724   6.566  0.2093  0.1527  0.0252
 7646SOL    HW134400   0.152   3.651   6.557 -1.4265 -0.7345 -3.7400
 7646SOL    HW234401   0.095   3.736   6.661  0.5327  3.6342 -0.4319
 7647SOL     OW34402   3.723   1.545   1.756  0.2602  0.7836  0.1643
 7647SOL    HW134403   3.766   1.466   1.725  0.3543  0.3896  1.2921
 7647SOL    HW234404   3.677   1.576   1.678  1.9537  1.3690 -0.5784
 7648SOL     OW34405   0.089   0.977   2.235 -0.1611  0.1389  0.7088
 7648SOL    HW134406   0.149   0.903   2.247 -0.4083 -0.5317 -2.1059
 7648SOL    HW234407   0.080   0.981   2.140 -0.7118 -0.3817  0.7422
 7649SOL     OW34408   1.150   2.644   4.380  0.0382 -0.2341 -0.0204
 7649SOL    HW134409   1.206   2.583   4.332  0.9947 -0.8952  1.9098
 7649SOL    HW234410   1.166   2.723   4.329  1.6243 -0.3508  0.2972
 7650SOL     OW34411   3.494   4.108   5.842  0.0596  0.0024 -0.3156
 7650SOL    HW134412   3.418   4.150   5.803  0.1055  0.9201  0.6000
 7650SOL    HW234413   3.457   4.040   5.899 -1.0089  0.1460 -0.8342
 7651SOL     OW34414   2.393   3.862   3.672 -0.4366 -0.4607 -0.0580
 7651SOL    HW134415   2.390   3.948   3.630  2.1062  0.0818  0.8606
 7651SOL    HW234416   2.485   3.837   3.673 -0.3963 -0.2830  1.1111
 7652SOL     OW34417   0.715   0.953   3.551  0.6932 -0.2095  0.2595
 7652SOL    HW134418   0.647   0.971   3.616 -0.3998 -0.7914 -0.7256
 7652SOL    HW234419   0.686   1.013   3.482 -1.4980 -0.0435  1.3400
 7653SOL     OW34420   1.614   1.707   4.880 -0.2407 -0.5689 -0.6575
 7653SOL    HW134421   1.542   1.697   4.942  2.0886  0.6703  2.2043
 7653SOL    HW234422   1.624   1.618   4.846  1.3073 -0.9241  0.7806
 7654SOL     OW34423   4.126   4.337   6.012  0.3379 -0.1508 -0.0348
 7654SOL    HW134424   4.161   4.350   5.923  0.9271  0.0583  0.2283
 7654SOL    HW234425   4.196   4.305   6.068  1.2596  1.1853 -0.4199
 7655SOL     OW34426   4.653   3.465   1.553 -0.2300 -0.0539  0.1305
 7655SOL    HW134427   0.023   3.470   1.566 -0.1244  1.9252 -1.4433
 7655SOL    HW234428   4.632   3.512   1.473  0.5075  0.1014  0.0297
 7656SOL     OW34429   4.275   2.444   3.925 -0.2311  0.0489  0.6999
 7656SOL    HW134430   4.296   2.353   3.903  0.3565 -0.4819  3.4128
 7656SOL    HW234431   4.355   2.493   3.907  0.2638 -0.8074  0.5394
 7657SOL     OW34432   1.027   2.909   4.645  0.2255 -0.2664  0.0182
 7657SOL    HW134433   1.079   2.835   4.613  0.4601 -0.4967  0.9164
 7657SOL    HW234434   1.061   2.977   4.588 -0.2590 -2.1688 -2.5116
 7658SOL     OW34435   0.659   2.612   6.161 -0.5656 -0.4020 -0.4011
 7658SOL    HW134436   0.732   2.583   6.105  0.3076 -0.5198  0.7950
 7658SOL    HW234437   0.693   2.690   6.206 -0.6220 -1.3687  1.2798
 7659SOL     OW34438   0.516   0.550   2.352 -0.0666  0.8652  0.5181
 7659SOL    HW134439   0.595   0.517   2.394 -0.8125  0.7702  1.8434
 7659SOL    HW234440   0.513   0.636   2.394 -1.2959  1.2966 -0.4554
 7660SOL     OW34441   3.285   4.530   7.288 -0.2227  0.4542  0.3348
 7660SOL    HW134442   3.283   4.608   7.343  1.0591 -0.9541  2.3830
 7660SOL    HW234443   3.248   4.572   7.210  0.5823  1.9515  0.7618
 7661SOL     OW34444   1.682   0.914   4.292 -0.0526  0.1176  0.2063
 7661SOL    HW134445   1.664   0.834   4.342  0.0711  0.1556  0.3100
 7661SOL    HW234446   1.635   0.973   4.351 -1.0689 -1.2333  0.7594
 7662SOL     OW34447   3.301   4.424   3.480 -0.2338 -0.0692  0.3192
 7662SOL    HW134448   3.252   4.366   3.539  0.7400 -0.9568  0.2414
 7662SOL    HW234449   3.312   4.493   3.546  1.7156  0.6946 -0.8125
 7663SOL     OW34450   3.352   3.631   5.131 -0.3469 -0.2180  0.9463
 7663SOL    HW134451   3.306   3.697   5.079 -2.8354 -0.6950  2.5228
 7663SOL    HW234452   3.395   3.580   5.062 -0.2523 -0.1471  0.9528
 7664SOL     OW34453   2.130   2.013   1.528  0.1457  0.0657  0.2168
 7664SOL    HW134454   2.219   2.047   1.523  0.1124  0.0751 -0.2369
 7664SOL    HW234455   2.100   2.033   1.440 -2.1705 -0.2292  0.9159
 7665SOL     OW34456   2.714   0.322  10.838  0.1995  0.7405  0.0776
 7665SOL    HW134457   2.728   0.228  10.839  1.9611  1.0134  1.0985
 7665SOL    HW234458   2.772   0.344  10.764 -1.8299 -0.1324 -1.7585
 7666SOL     OW34459   2.237   2.890  15.335  0.1892 -0.2394  0.1532
 7666SOL    HW134460   2.303   2.850  15.278 -1.0233 -1.8223 -0.1421
 7666SOL    HW234461   2.252   2.839  15.415 -0.7133 -0.7364  0.0053
 7667SOL     OW34462   3.909   0.768  12.610 -0.5859  0.3057  0.9092
 7667SOL    HW134463   3.901   0.789  12.703  0.8775 -2.9229  1.7726
 7667SOL    HW234464   3.957   0.843  12.576 -1.2925 -0.4003 -1.6378
 7668SOL     OW34465   2.589   3.405  12.731 -0.2084 -0.0923  0.2704
 7668SOL    HW134466   2.584   3.396  12.636 -0.7793 -1.0666  0.3938
 7668SOL    HW234467   2.564   3.494  12.757  2.1212  0.2013  1.4581
 7669SOL     OW34468   0.605   1.277   5.257 -0.4584  0.3203 -0.4413
 7669SOL    HW134469   0.597   1.253   5.350 -1.3498  0.9098 -0.3585
 7669SOL    HW234470   0.567   1.203   5.211  0.8855 -0.5998 -0.0476
 7670SOL     OW34471   1.694   3.974   2.274  0.7053  0.2366  0.1084
 7670SOL    HW134472   1.718   3.958   2.183 -3.4685 -0.7287 -0.8324
 7670SOL    HW234473   1.752   3.916   2.323  0.6271 -0.4486 -0.5939
 7671SOL     OW34474   0.028   0.414   4.325 -0.5850 -0.0727 -0.1160
 7671SOL    HW134475   0.081   0.406   4.404  0.0508  3.8441 -0.1518
 7671SOL    HW234476   4.688   0.343   4.332 -0.5411 -0.2556 -1.5680
 7672SOL     OW34477   1.944   2.231   6.017  0.6187 -0.5828 -0.5242
 7672SOL    HW134478   1.966   2.305   5.961 -1.6972  0.8917  0.4938
 7672SOL    HW234479   1.996   2.158   5.984  1.0541 -0.6233  0.2394
 7673SOL     OW34480   2.376   0.825   2.738 -0.1348 -0.0900  0.4012
 7673SOL    HW134481   2.426   0.848   2.659 -0.3192  1.5203  0.7595
 7673SOL    HW234482   2.392   0.893   2.803  0.0373 -0.2741  0.5524
 7674SOL     OW34483   2.863   0.866   2.521 -0.2612  0.9154  0.0624
 7674SOL    HW134484   2.842   0.828   2.436  0.5890  0.5836  0.0054
 7674SOL    HW234485   2.853   0.781   2.563 -4.1886  1.3575  0.0172
 7675SOL     OW34486   2.725   0.027   6.829 -0.4692  0.2091 -0.2048
 7675SOL    HW134487   2.698   4.675   6.778 -1.3189 -0.3087  1.0162
 7675SOL    HW234488   2.677   0.009   6.910 -1.3562 -1.0703 -1.0080
 7676SOL     OW34489   0.107   4.635   8.151 -0.0745 -0.1109  0.4000
 7676SOL    HW134490   0.051   4.701   8.111 -0.4763 -0.2515  0.7271
 7676SOL    HW234491   0.196   4.643   8.117 -1.1329  3.2101 -1.5192
 7677SOL     OW34492   4.124   3.165   2.327  0.1946 -0.4635 -0.0848
 7677SOL    HW134493   4.092   3.079   2.302 -2.8227  0.2170  1.4695
 7677SOL    HW234494   4.061   3.190   2.394  0.8804  0.6544  0.1553
 7678SOL     OW34495   1.610   2.026  12.724  1.0235 -0.1616 -0.4262
 7678SOL    HW134496   1.705   2.032  12.711  1.4003  0.9584  2.9176
 7678SOL    HW234497   1.603   2.066  12.811 -1.8883 -1.0626 -0.2547
 7679SOL     OW34498   0.574   4.498   7.476  0.2003  0.5550 -0.2860
 7679SOL    HW134499   0.518   4.545   7.538  0.8026 -1.8336  2.0319
 7679SOL    HW234500   0.580   4.572   7.416  0.8758  0.3735 -0.4334
 7680SOL     OW34501   2.069   1.416   0.524  0.4614 -0.5844 -0.2542
 7680SOL    HW134502   2.016   1.401   0.602  1.3062 -0.4358  0.3459
 7680SOL    HW234503   2.133   1.473   0.566  0.5234  0.4546 -1.7734
 7681SOL     OW34504   3.070   0.352   4.474 -0.3358  0.2467  0.2525
 7681SOL    HW134505   3.063   0.445   4.452  1.1466  0.0968 -0.8427
 7681SOL    HW234506   3.156   0.331   4.439 -0.1041  0.7216  0.5381
 7682SOL     OW34507   4.292   1.470   6.804 -0.3656  0.2062 -0.0569
 7682SOL    HW134508   4.328   1.415   6.873  2.1310  2.1989  0.2358
 7682SOL    HW234509   4.197   1.464   6.815 -0.1116 -0.0727  1.8536
 7683SOL     OW34510   4.598   1.056   7.297  0.0318  0.2020  0.1667
 7683SOL    HW134511   4.615   0.981   7.354  3.5342  2.3517  1.9147
 7683SOL    HW234512   4.508   1.041   7.268  0.4946 -2.0558 -0.1189
 7684SOL     OW34513   4.029   1.754   7.155 -0.0268  0.0383  0.1452
 7684SOL    HW134514   3.952   1.772   7.210  0.8186  1.4916  0.8621
 7684SOL    HW234515   3.994   1.681   7.104  2.3073 -1.5556  0.8473
 7685SOL     OW34516   0.730   0.816   6.070  0.5492  0.4028 -0.3614
 7685SOL    HW134517   0.786   0.770   6.133  1.2974 -1.4642 -2.3990
 7685SOL    HW234518   0.734   0.906   6.103  1.3466 -0.6768  2.5390
 7686SOL     OW34519   4.549   4.521  10.399  0.0628 -0.3402  0.3026
 7686SOL    HW134520   4.563   4.587  10.467  0.0908 -2.4258  2.3080
 7686SOL    HW234521   4.469   4.476  10.427  1.2052 -1.6357  1.4744
 7687SOL     OW34522   1.120   1.305   2.218  0.1903 -0.6650 -0.5106
 7687SOL    HW134523   1.041   1.276   2.265  0.5955 -0.4137  0.3347
 7687SOL    HW234524   1.190   1.292   2.282  1.5534  0.5968 -1.7345
 7688SOL     OW34525   3.840   2.987   6.706  0.0967  0.2668  0.2866
 7688SOL    HW134526   3.789   3.065   6.687  0.5384  0.6163  0.5376
 7688SOL    HW234527   3.807   2.927   6.639  0.1109 -0.4634  0.9267
 7689SOL     OW34528   0.614   1.093   7.701 -0.0977 -0.1526 -0.3364
 7689SOL    HW134529   0.527   1.078   7.738 -1.1411  1.1941 -2.2602
 7689SOL    HW234530   0.594   1.140   7.620 -0.8728  1.2948  0.6975
 7690SOL     OW34531   2.807   2.315   7.666 -0.2807  0.0177  0.6693
 7690SOL    HW134532   2.815   2.219   7.670  0.4066  0.0485 -0.0280
 7690SOL    HW234533   2.805   2.342   7.758 -0.6046 -0.1329  0.7055
 7691SOL     OW34534   0.082   0.037   7.860  0.2099 -0.2008  0.0501
 7691SOL    HW134535   0.028   0.069   7.932  1.6399  1.8209  0.2066
 7691SOL    HW234536   0.163   0.073   7.896 -0.5983 -0.0040  1.6946
 7692SOL     OW34537   4.570   1.692   2.015 -0.0152 -0.1603 -0.6501
 7692SOL    HW134538   4.596   1.650   1.932  0.0139 -0.3670 -0.5354
 7692SOL    HW234539   4.475   1.683   2.013 -0.0737  0.1994  0.5494
 7693SOL     OW34540   3.085   2.485   8.212  0.3174 -0.0522 -0.0707
 7693SOL    HW134541   3.093   2.566   8.160 -1.0260 -1.4874 -2.5061
 7693SOL    HW234542   3.093   2.534   8.294  0.1596 -4.0646  2.3493
 7694SOL     OW34543   4.478   3.312   7.854 -0.2680 -0.1573  0.0548
 7694SOL    HW134544   4.509   3.278   7.769 -1.3525  0.4977 -0.6021
 7694SOL    HW234545   4.552   3.351   7.900 -0.1777 -0.2727  0.0077
 7695SOL     OW34546   1.412   1.204   2.278 -0.4584  0.4940 -0.1618
 7695SOL    HW134547   1.406   1.114   2.246  0.6327 -0.6094  2.7347
 7695SOL    HW234548   1.429   1.184   2.370  2.9544  0.9760 -0.6691
 7696SOL     OW34549   0.343   0.004   2.734 -0.2518 -0.0823 -0.2753
 7696SOL    HW134550   0.423   0.030   2.689 -0.3051  1.4194  0.4954
 7696SOL    HW234551   0.370   4.664   2.800 -1.1723 -2.1570 -1.9094
 7697SOL     OW34552   2.912   1.584   4.673 -0.3471 -0.9862 -0.1011
 7697SOL    HW134553   2.953   1.612   4.591 -2.1537 -0.5189 -0.8443
 7697SOL    HW234554   2.984   1.594   4.736  0.3273  0.2299 -1.0726
 7698SOL     OW34555   0.644   1.118   4.988 -0.7044 -0.1275 -0.1013
 7698SOL    HW134556   0.632   1.057   5.061  0.1042  0.2833  0.3845
 7698SOL    HW234557   0.622   1.077   4.905  0.3527 -2.9603  1.0090
 7699SOL     OW34558   0.557   1.727  14.482 -0.5453  0.1629 -0.1451
 7699SOL    HW134559   0.596   1.720  14.395 -2.0163  0.9429 -0.8623
 7699SOL    HW234560   0.472   1.691  14.459  0.3760 -3.3921  2.0059
 7700SOL     OW34561   3.709   4.252   5.877  0.9215 -0.1923 -0.0256
 7700SOL    HW134562   3.650   4.183   5.846  0.8318  0.7923 -2.0357
 7700SOL    HW234563   3.703   4.307   5.799  1.6070 -2.6006 -1.7572
 7701SOL     OW34564   4.384   1.830   2.332  0.0985  0.9467  0.1012
 7701SOL    HW134565   4.459   1.777   2.305 -1.2699 -1.2380  0.6015
 7701SOL    HW234566   4.402   1.906   2.276 -0.7448  0.9430 -0.1683
 7702SOL     OW34567   0.257   2.170  14.964  0.8444  0.1194 -0.9359
 7702SOL    HW134568   0.342   2.210  14.943  0.1788  0.9721 -1.9610
 7702SOL    HW234569   0.195   2.198  14.898  0.3593 -2.5468 -1.6008
 7703SOL     OW34570   1.745   4.693   6.655  0.4147  0.2254  0.0338
 7703SOL    HW134571   1.805   4.713   6.583  0.3392 -0.7207 -0.2967
 7703SOL    HW234572   1.800   4.716   6.730 -0.2774 -1.6682  1.1060
 7704SOL     OW34573   4.338   2.950  14.763 -0.1119 -0.1672 -0.9180
 7704SOL    HW134574   4.334   2.855  14.765 -0.5556 -0.1054  1.2037
 7704SOL    HW234575   4.255   2.956  14.716  0.0307  0.3602 -1.1078
 7705SOL     OW34576   4.255   1.496  10.053 -0.0153  0.3188  0.2729
 7705SOL    HW134577   4.189   1.463   9.992 -1.0219  2.0702  0.4228
 7705SOL    HW234578   4.332   1.453  10.016 -0.7500  0.2722 -1.2152
 7706SOL     OW34579   0.465   0.663  13.345 -0.3305  0.3771 -0.4284
 7706SOL    HW134580   0.440   0.748  13.382 -0.5604  0.0921  0.0775
 7706SOL    HW234581   0.382   0.632  13.310 -0.2570  0.3723 -0.5968
 7707SOL     OW34582   0.257   2.543   7.041 -0.5500 -0.4889 -0.1123
 7707SOL    HW134583   0.200   2.618   7.057 -0.0041  0.0433 -0.6959
 7707SOL    HW234584   0.305   2.547   7.124  0.6093  2.3112 -0.9256
 7708SOL     OW34585   1.622   1.841   2.893 -0.4693 -0.8471  0.2017
 7708SOL    HW134586   1.611   1.812   2.803  0.9303  1.5442 -0.7589
 7708SOL    HW234587   1.559   1.913   2.889 -0.2585 -0.7367 -0.9933
 7709SOL     OW34588   1.856   0.285  15.858  0.6933 -0.1802 -0.0633
 7709SOL    HW134589   1.833   0.338  15.782 -0.9375 -0.7478  0.0396
 7709SOL    HW234590   1.771   0.285  15.901 -0.2880  2.0671 -2.0563
 7710SOL     OW34591   2.731   2.543  15.599  0.4449 -0.3680 -0.8318
 7710SOL    HW134592   2.651   2.492  15.589 -0.2060  0.7606 -1.4504
 7710SOL    HW234593   2.785   2.496  15.662 -1.8587 -1.8048  0.0208
 7711SOL     OW34594   4.497   0.281   2.938 -0.5477  0.1779  0.0221
 7711SOL    HW134595   4.447   0.347   2.891 -1.8552  0.8636  2.4194
 7711SOL    HW234596   4.497   0.324   3.023  0.2932  0.1645  0.0282
 7712SOL     OW34597   3.302   2.609   4.799 -0.2694 -0.2544  0.3802
 7712SOL    HW134598   3.224   2.587   4.748  0.2461  2.3060 -1.5599
 7712SOL    HW234599   3.342   2.523   4.810 -2.3183 -1.0588  1.5044
 7713SOL     OW34600   3.146   1.102  12.074  0.3875 -0.0744  0.2414
 7713SOL    HW134601   3.196   1.163  12.019 -0.4049 -1.6347 -2.2261
 7713SOL    HW234602   3.071   1.087  12.016 -0.2051  2.0765  0.4281
 7714SOL     OW34603   3.780   1.983   1.938 -0.4678 -0.2160 -0.5684
 7714SOL    HW134604   3.713   1.942   1.883 -0.4713 -1.3154  0.2528
 7714SOL    HW234605   3.720   2.028   1.997 -0.2848 -0.2863 -0.3254
 7715SOL     OW34606   1.495   2.633   3.830  0.1026  0.1788 -0.3983
 7715SOL    HW134607   1.412   2.621   3.783 -0.3214  1.5108  0.0016
 7715SOL    HW234608   1.498   2.729   3.822 -0.7583  0.2028 -0.4950
 7716SOL     OW34609   2.057   4.669   3.155 -0.6115 -0.1890 -0.2621
 7716SOL    HW134610   2.117   4.721   3.101 -1.9034  1.4413 -0.1238
 7716SOL    HW234611   1.974   4.689   3.111  0.1297  1.7118 -0.8022
 7717SOL     OW34612   3.192   1.211  12.346  0.0524 -0.1936 -0.3810
 7717SOL    HW134613   3.141   1.215  12.266  1.4487 -1.3955 -1.3446
 7717SOL    HW234614   3.280   1.232  12.314 -0.9679  0.6713 -2.5865
 7718SOL     OW34615   2.356   2.470  15.305  0.2743  0.4041 -0.2370
 7718SOL    HW134616   2.319   2.526  15.236 -0.0293  1.1836  0.5544
 7718SOL    HW234617   2.399   2.539  15.355  1.5222 -0.8468  0.4016
 7719SOL     OW34618   1.114   2.877   3.784 -0.1707  0.2028 -0.6384
 7719SOL    HW134619   1.162   2.834   3.713 -0.3315  0.9188 -1.1831
 7719SOL    HW234620   1.135   2.830   3.865 -0.2545  2.3023  0.6083
 7720SOL     OW34621   4.314   2.768   6.849  0.0111  0.4197 -0.1007
 7720SOL    HW134622   4.267   2.687   6.831 -0.5693  0.5867  0.6601
 7720SOL    HW234623   4.348   2.739   6.933  2.3356 -0.1100 -1.2446
 7721SOL     OW34624   3.017   3.417   5.827  0.2628  0.4521  0.6146
 7721SOL    HW134625   3.092   3.425   5.886  0.3250  2.2775  0.2784
 7721SOL    HW234626   3.017   3.509   5.801  0.0309 -0.3098 -2.1298
 7722SOL     OW34627   3.853   3.076  11.702 -0.0266 -0.1247 -0.2650
 7722SOL    HW134628   3.841   3.013  11.773 -0.7846  2.7913  2.1750
 7722SOL    HW234629   3.892   3.150  11.749 -1.7397 -0.6744  2.0180
 7723SOL     OW34630   1.172   0.895   2.141 -0.0827 -0.0039 -0.1785
 7723SOL    HW134631   1.178   0.837   2.065  3.3872  0.0712  0.0586
 7723SOL    HW234632   1.077   0.906   2.148 -0.1607 -1.5993  1.4521
 7724SOL     OW34633   2.377   0.415   0.225  0.8496 -0.4593  0.0402
 7724SOL    HW134634   2.465   0.452   0.227  1.5122 -1.9270 -1.2206
 7724SOL    HW234635   2.400   0.326   0.197 -1.6941 -0.9023 -0.6360
 7725SOL     OW34636   2.822   4.177  16.468 -0.3473 -0.0417 -0.5256
 7725SOL    HW134637   2.842   4.103  16.526 -2.2710  0.7829  1.1909
 7725SOL    HW234638   2.743   4.207  16.514  0.2220  1.5002 -0.5770
 7726SOL     OW34639   4.563   3.159   8.908  0.2986 -0.2413  0.6902
 7726SOL    HW134640   4.536   3.180   8.819 -1.6396 -0.0746  1.3105
 7726SOL    HW234641   4.528   3.228   8.964  0.2288 -0.5304  1.0039
 7727SOL     OW34642   0.358   4.413  16.856 -0.2780 -0.1490 -0.2811
 7727SOL    HW134643   0.358   4.392  16.763 -0.9226 -0.8606 -0.1160
 7727SOL    HW234644   0.271   4.451  16.868 -0.0029 -0.1036  1.5247
 7728SOL     OW34645   4.079   3.024   3.878 -0.3462 -0.4181 -0.5280
 7728SOL    HW134646   4.089   2.932   3.854  0.0110 -1.0289  1.9033
 7728SOL    HW234647   4.168   3.055   3.892 -0.8701  0.7018  0.4010
 7729SOL     OW34648   1.047   3.716   3.447 -0.0388 -0.2080 -0.1310
 7729SOL    HW134649   0.988   3.642   3.434  1.9132 -1.7018 -0.3519
 7729SOL    HW234650   0.991   3.774   3.500  0.7083 -0.4005  0.8686
 7730SOL     OW34651   3.696   2.670   6.643  0.0099  0.2016 -0.0481
 7730SOL    HW134652   3.709   2.593   6.587  0.4466  1.1035 -1.1969
 7730SOL    HW234653   3.741   2.744   6.602  0.0043  1.2988  1.9251
 7731SOL     OW34654   1.642   1.444  12.887 -0.2605 -0.1595 -0.2830
 7731SOL    HW134655   1.554   1.410  12.874 -1.1569  1.4612  1.6113
 7731SOL    HW234656   1.674   1.473  12.802  0.6660  1.2581  0.5558
 7732SOL     OW34657   1.635   0.022  15.931  0.3384  0.1037 -0.4634
 7732SOL    HW134658   1.568   4.679  15.940 -0.6622  1.2523  0.7268
 7732SOL    HW234659   1.591   0.092  15.883  0.8015  0.2659 -0.6501
 7733SOL     OW34660   4.424   2.353   3.286 -0.4396  0.6006  0.3161
 7733SOL    HW134661   4.346   2.401   3.260 -0.0399 -0.0512 -2.0965
 7733SOL    HW234662   4.473   2.370   3.206  1.0582 -1.3113  0.8193
 7734SOL     OW34663   1.558   0.254  13.809 -0.0255  0.4831  0.0569
 7734SOL    HW134664   1.644   0.270  13.848  0.7356  2.5511 -2.4536
 7734SOL    HW234665   1.558   0.160  13.794  0.5731  0.4317  0.3863
 7735SOL     OW34666   4.022   0.072   4.527  0.0497  0.7011  0.3945
 7735SOL    HW134667   4.022   0.042   4.618 -1.7346 -0.0966  0.1378
 7735SOL    HW234668   3.960   0.013   4.483  1.1935 -0.0975 -0.1505
 7736SOL     OW34669   4.380   2.138  12.845 -0.1153  0.6180  0.2564
 7736SOL    HW134670   4.461   2.089  12.860  0.7479  1.8572 -0.3149
 7736SOL    HW234671   4.392   2.172  12.756  0.6657  2.1328  0.9354
 7737SOL     OW34672   1.406   4.459  16.800  0.3102  0.1549  0.0372
 7737SOL    HW134673   1.414   4.370  16.764 -1.7341  0.2492 -0.6612
 7737SOL    HW234674   1.499   4.477  16.813  0.2676  1.2492 -1.2883
 7738SOL     OW34675   4.718   0.779  11.682  0.1232  0.5027  0.0930
 7738SOL    HW134676   0.035   0.827  11.754  2.9689  0.4114 -1.4735
 7738SOL    HW234677   4.630   0.815  11.684  0.4688  1.3393 -0.0952
 7739SOL     OW34678   3.657   2.424  16.729  0.1629 -0.4835  0.0895
 7739SOL    HW134679   3.622   2.510  16.705  1.4031 -0.2388 -0.8084
 7739SOL    HW234680   3.611   2.371  16.664 -1.0780  0.9840 -0.2386
 7740SOL     OW34681   0.340   0.042   1.503  0.3462  0.2156 -0.7985
 7740SOL    HW134682   0.304   0.084   1.581  1.8567 -1.1723  0.6191
 7740SOL    HW234683   0.379   4.685   1.534 -1.0391  0.5421  1.8339
 7741SOL     OW34684   1.692   0.807   2.414  0.2593  0.5137 -0.3393
 7741SOL    HW134685   1.638   0.884   2.436 -1.2327 -0.1183 -1.7945
 7741SOL    HW234686   1.702   0.758   2.496  0.5757  2.0080  0.5258
 7742SOL     OW34687   2.292   2.412   5.490 -0.1533 -0.2834 -0.2705
 7742SOL    HW134688   2.363   2.404   5.555 -1.2798 -2.8340  0.6722
 7742SOL    HW234689   2.263   2.501   5.507  4.0784  1.0389  0.0823
 7743SOL     OW34690   0.185   3.595   7.095  0.3975  0.1122  0.3541
 7743SOL    HW134691   0.195   3.677   7.144 -0.2735  1.0386 -1.0583
 7743SOL    HW234692   0.127   3.537   7.144  1.1800 -0.8365  0.1628
 7744SOL     OW34693   2.249   2.947   7.854  0.3514 -0.0879 -0.7286
 7744SOL    HW134694   2.309   3.021   7.853  1.1953 -0.7707 -1.1639
 7744SOL    HW234695   2.180   2.982   7.910 -0.1656 -0.7014 -0.9836
 7745SOL     OW34696   0.958   3.494   4.160  0.6786  0.1413  0.5682
 7745SOL    HW134697   0.937   3.401   4.157  2.4860 -0.2570 -0.0845
 7745SOL    HW234698   1.042   3.484   4.204  0.7144  0.5716  0.5946
 7746SOL     OW34699   2.270   0.287  12.046  0.1740  0.4811 -0.2104
 7746SOL    HW134700   2.305   0.222  12.108 -0.9075  0.5706  0.4964
 7746SOL    HW234701   2.343   0.349  12.041  2.4804 -2.2351 -0.5237
 7747SOL     OW34702   1.910   4.701  15.907  0.1633 -0.1911  0.4221
 7747SOL    HW134703   1.820   4.708  15.939  0.3957 -0.9290  1.2345
 7747SOL    HW234704   1.904   0.057  15.855  1.1458 -1.5943 -1.8438
 7748SOL     OW34705   2.956   0.398  10.442  0.3005 -0.3882 -0.0786
 7748SOL    HW134706   2.920   0.393  10.353  1.9708 -0.8748 -0.7440
 7748SOL    HW234707   3.026   0.462  10.430  1.9341 -2.1489 -0.0516
 7749SOL     OW34708   3.628   2.761   5.955  0.5111 -0.1113 -0.3280
 7749SOL    HW134709   3.581   2.787   5.876 -0.5938  0.6075  0.5668
 7749SOL    HW234710   3.557   2.729   6.011  1.3161 -0.7437  0.3324
 7750SOL     OW34711   0.246   4.002  11.723  0.5049 -0.1460  0.3872
 7750SOL    HW134712   0.240   3.908  11.741 -2.1315  0.1873  1.3088
 7750SOL    HW234713   0.270   4.033  11.810 -2.6182  2.5254  0.3204
 7751SOL     OW34714   2.530   3.019   5.003  0.2367  0.1211 -0.0943
 7751SOL    HW134715   2.620   2.994   5.024  0.1867  1.0920  1.2753
 7751SOL    HW234716   2.491   2.931   5.003 -0.5847  0.4909  0.2218
 7752SOL     OW34717   4.176   2.916   0.358 -0.0977 -0.5815  0.2193
 7752SOL    HW134718   4.192   2.822   0.365  0.3576 -0.5069  0.1796
 7752SOL    HW234719   4.090   2.914   0.316 -1.1923  1.2809  2.3266
 7753SOL     OW34720   1.102   4.086   7.328  0.3497  0.2699 -0.4897
 7753SOL    HW134721   1.146   4.151   7.274  1.5141  0.9789  1.3096
 7753SOL    HW234722   1.175   4.033   7.361 -1.4301 -0.3207  2.5741
 7754SOL     OW34723   1.560   2.240  10.967 -0.7128  0.0624 -0.3189
 7754SOL    HW134724   1.632   2.192  10.926  0.5058  1.4461  0.1997
 7754SOL    HW234725   1.592   2.327  10.943  2.1626 -0.6064  1.0861
 7755SOL     OW34726   1.358   1.812  14.482 -0.2459  0.2784 -0.3205
 7755SOL    HW134727   1.326   1.761  14.408 -0.0240  0.3231 -0.4483
 7755SOL    HW234728   1.449   1.788  14.464  0.0935  0.7536  0.7972
 7756SOL     OW34729   2.183   0.571   7.378 -0.6795 -0.6322  0.2862
 7756SOL    HW134730   2.165   0.517   7.302 -2.2664 -0.1958  0.3693
 7756SOL    HW234731   2.226   0.514   7.442 -1.2360  1.8274  2.8547
 7757SOL     OW34732   4.468   2.000   7.956  0.0105 -0.0539  0.3763
 7757SOL    HW134733   4.546   1.977   8.006  0.7844 -1.2263 -1.3746
 7757SOL    HW234734   4.493   2.018   7.865  1.6624 -1.9370  0.4569
 7758SOL     OW34735   0.658   1.727   4.577  0.1849  0.2571 -0.5231
 7758SOL    HW134736   0.639   1.738   4.670 -2.1183 -1.1156 -0.8293
 7758SOL    HW234737   0.745   1.686   4.577 -0.5284 -1.2642  0.1242
 7759SOL     OW34738   2.901   0.432  17.465 -0.6184 -0.3990  0.2975
 7759SOL    HW134739   2.920   0.359  17.406 -0.1311 -0.5679  0.6626
 7759SOL    HW234740   2.820   0.463  17.425  0.3883  1.2086 -0.5132
 7760SOL     OW34741   2.297   4.588  12.000  0.2398 -0.1830  0.1372
 7760SOL    HW134742   2.262   4.661  11.948  0.4022 -0.0085  0.2709
 7760SOL    HW234743   2.272   4.515  11.943  1.6482 -0.0361 -0.6658
 7761SOL     OW34744   0.282   1.297   7.793 -0.1288  0.3028 -0.1008
 7761SOL    HW134745   0.256   1.328   7.706  0.7624 -2.1006 -1.2174
 7761SOL    HW234746   0.196   1.264   7.818 -1.0834  0.4492 -3.1292
 7762SOL     OW34747   3.443   2.211  16.958 -0.6656  0.4062 -0.0413
 7762SOL    HW134748   3.403   2.226  16.872  2.1687  1.4200 -1.1689
 7762SOL    HW234749   3.491   2.292  16.975  0.4225  0.1209 -1.7127
 7763SOL     OW34750   3.716   0.168   1.028 -0.0945 -1.0304  0.2799
 7763SOL    HW134751   3.641   0.148   1.084  0.3413 -1.8978  0.5683
 7763SOL    HW234752   3.703   0.262   1.026 -1.0595 -1.1244  1.6485
 7764SOL     OW34753   4.569   3.621   4.104 -0.5332 -0.0508 -0.7876
 7764SOL    HW134754   4.561   3.539   4.153  1.3688 -0.2081 -0.7542
 7764SOL    HW234755   4.645   3.596   4.051 -0.6349 -2.8368  0.4004
 7765SOL     OW34756   4.719   3.291   9.522  0.4846  0.5850 -0.5109
 7765SOL    HW134757   4.673   3.331   9.596  0.7949  0.7227 -0.3959
 7765SOL    HW234758   0.027   3.210   9.561 -1.8034  0.3182  0.8147
 7766SOL     OW34759   3.040   1.436   6.188 -0.2549 -0.0698 -0.5491
 7766SOL    HW134760   3.078   1.469   6.106 -1.2812 -0.3516 -1.1335
 7766SOL    HW234761   3.095   1.357   6.197 -0.5633 -0.2530 -0.3054
 7767SOL     OW34762   1.086   0.063  13.990 -0.0190  0.6215  0.3572
 7767SOL    HW134763   1.180   0.065  14.010  0.1078 -0.2348 -0.1814
 7767SOL    HW234764   1.063   0.154  14.010 -1.7102  0.4304 -0.7642
 7768SOL     OW34765   1.548   0.829   0.904 -0.1024  0.1112  0.2293
 7768SOL    HW134766   1.496   0.909   0.907 -2.4028 -1.4380  1.3332
 7768SOL    HW234767   1.532   0.792   0.990 -0.0175  2.4050  1.2458
 7769SOL     OW34768   4.178   0.017   1.135 -0.1470  0.1755 -0.2324
 7769SOL    HW134769   4.099   0.072   1.141 -1.8285 -2.2777  0.1110
 7769SOL    HW234770   4.148   4.662   1.180 -0.6803 -0.1881 -1.2098
 7770SOL     OW34771   1.045   4.404  17.372 -0.2641  0.0179 -0.2965
 7770SOL    HW134772   1.040   4.351  17.452  0.1620  0.8571  0.2956
 7770SOL    HW234773   1.064   4.333  17.311 -1.4774 -0.8832  0.3781
 7771SOL     OW34774   3.791   0.342  11.892  0.3537  0.1442 -0.0390
 7771SOL    HW134775   3.704   0.379  11.905 -0.2400 -1.3719  0.2271
 7771SOL    HW234776   3.819   0.352  11.984  0.6221 -1.6790  0.0716
 7772SOL     OW34777   4.485   3.341   4.169 -0.1864 -0.1945  0.2311
 7772SOL    HW134778   4.398   3.380   4.170 -0.8190 -1.6348  2.1546
 7772SOL    HW234779   4.496   3.301   4.255 -1.8946  0.5346  0.7957
 7773SOL     OW34780   1.084   3.831   0.941 -0.4084  0.7835 -0.1585
 7773SOL    HW134781   1.030   3.784   1.005  0.1681 -1.0287 -0.9879
 7773SOL    HW234782   1.038   3.914   0.932 -1.2907  0.2099 -0.8999
 7774SOL     OW34783   1.438   2.511  16.296  0.3767  0.0517 -0.0484
 7774SOL    HW134784   1.382   2.585  16.271  1.3590  0.6384 -0.5477
 7774SOL    HW234785   1.376   2.452  16.254  0.0529 -1.2904  2.3538
 7775SOL     OW34786   2.248   3.471  12.662  0.8088 -0.4326  0.2576
 7775SOL    HW134787   2.290   3.432  12.585  2.3845  0.5356  0.6349
 7775SOL    HW234788   2.188   3.518  12.605 -1.3342 -3.6103 -0.0965
 7776SOL     OW34789   4.131   4.348   3.759  0.4053 -0.3665 -0.3032
 7776SOL    HW134790   4.041   4.320   3.742 -0.2531  1.5491  0.0613
 7776SOL    HW234791   4.136   4.369   3.852 -1.3945 -0.7728 -0.1142
 7777SOL     OW34792   1.090   1.393   5.636  0.1376 -0.1921  0.0477
 7777SOL    HW134793   1.068   1.485   5.622  1.0271  0.5085  3.2866
 7777SOL    HW234794   1.025   1.353   5.579  1.1799 -0.3399 -1.0485
 7778SOL     OW34795   2.047   3.399  13.694  0.2118 -0.0714 -0.0191
 7778SOL    HW134796   2.131   3.444  13.703  0.4025 -0.1513 -1.3141
 7778SOL    HW234797   2.071   3.306  13.694 -2.4028 -0.7326  1.1807
 7779SOL     OW34798   0.902   3.022   3.706 -0.0804  0.0880 -0.4505
 7779SOL    HW134799   0.982   2.999   3.752 -1.7366 -4.2838  0.3314
 7779SOL    HW234800   0.836   2.982   3.763  0.9073  0.3790  0.8824
 7780SOL     OW34801   4.356   0.932   6.123  0.3162 -0.2417 -0.1680
 7780SOL    HW134802   4.437   0.981   6.110  2.1466 -3.5246 -1.1556
 7780SOL    HW234803   4.299   0.969   6.056  1.0492  0.2959 -0.5045
 7781SOL     OW34804   3.787   3.272   6.638 -0.3437 -0.4032  0.0030
 7781SOL    HW134805   3.746   3.319   6.565  0.1545 -0.7787 -0.5233
 7781SOL    HW234806   3.879   3.278   6.613 -0.3002  0.4355  0.3500
 7782SOL     OW34807   0.246   2.858   7.894 -0.1900 -0.1402  0.4251
 7782SOL    HW134808   0.234   2.925   7.961  1.6428  0.1943  0.4238
 7782SOL    HW234809   0.158   2.846   7.860  0.4280  1.2085 -1.6491
 7783SOL     OW34810   0.157   0.980   5.659 -0.6205  0.0021 -0.0052
 7783SOL    HW134811   0.141   0.987   5.565  0.7892 -0.7938 -0.3000
 7783SOL    HW234812   0.141   0.885   5.663  1.8616 -0.4145  0.1483
 7784SOL     OW34813   3.205   2.484   6.441  0.4147 -0.3982 -0.2345
 7784SOL    HW134814   3.116   2.504   6.413 -0.5099 -1.6749  1.7916
 7784SOL    HW234815   3.248   2.569   6.439  0.8922 -0.6288  0.1017
 7785SOL     OW34816   2.592   2.130   6.225  0.0223  0.4592 -0.6363
 7785SOL    HW134817   2.540   2.051   6.240  0.9753 -0.1131 -0.3056
 7785SOL    HW234818   2.676   2.094   6.195  0.3676  0.1076  0.7253
 7786SOL     OW34819   2.290   0.658   4.797 -0.3957  0.0385  0.0846
 7786SOL    HW134820   2.296   0.748   4.765  0.7065 -0.0347  0.0993
 7786SOL    HW234821   2.214   0.624   4.750 -0.9426  0.7103  0.4753
 7787SOL     OW34822   1.081   0.799   7.479 -0.0209  0.1637  0.4782
 7787SOL    HW134823   1.066   0.725   7.537  1.0090 -0.1863  0.2937
 7787SOL    HW234824   1.139   0.767   7.410 -3.8062 -1.3929 -1.9659
 7788SOL     OW34825   1.478   4.612  10.333  0.6630  0.7181 -0.5458
 7788SOL    HW134826   1.422   4.682  10.300  0.0564  0.0391 -0.9438
 7788SOL    HW234827   1.460   4.614  10.427 -0.1537  1.0645 -0.7115
 7789SOL     OW34828   0.430   3.198   4.481 -0.0792 -0.6350  0.1233
 7789SOL    HW134829   0.463   3.161   4.563 -1.6252  0.6133  1.3043
 7789SOL    HW234830   0.453   3.124   4.425 -1.0057 -0.3407 -0.6374
 7790SOL     OW34831   2.977   2.182   2.361 -0.1255 -0.5889  0.3334
 7790SOL    HW134832   2.921   2.218   2.429 -1.4684 -0.7798 -0.6524
 7790SOL    HW234833   2.934   2.212   2.280  0.8746 -1.5373 -0.5466
 7791SOL     OW34834   1.163   3.277   5.410  0.3049 -0.1709 -0.2743
 7791SOL    HW134835   1.073   3.270   5.441  0.0784  1.9341 -0.4747
 7791SOL    HW234836   1.199   3.189   5.423 -0.0751 -0.2579  0.1797
 7792SOL     OW34837   1.781   0.023   9.876 -0.8371 -0.1675 -0.0650
 7792SOL    HW134838   1.722   0.078   9.824 -2.4184 -2.2876 -0.5120
 7792SOL    HW234839   1.867   0.051   9.843 -0.2807 -1.7446  0.0261
 7793SOL     OW34840   3.021   0.530  16.649  0.1888  0.0475  0.1555
 7793SOL    HW134841   2.997   0.601  16.590  0.3627 -0.1511 -0.1592
 7793SOL    HW234842   3.096   0.571  16.693  1.4283 -2.0042 -0.0214
 7794SOL     OW34843   1.391   3.348   2.947  0.1626  0.5310  0.3536
 7794SOL    HW134844   1.370   3.364   3.039 -1.3446  0.7302 -0.0320
 7794SOL    HW234845   1.329   3.276   2.932  1.1301 -0.3049  0.3755
 7795SOL     OW34846   1.829   0.958  14.851 -0.0385  0.4704 -0.0818
 7795SOL    HW134847   1.802   1.025  14.914  1.9651  1.4857 -0.2884
 7795SOL    HW234848   1.799   1.007  14.774 -1.9344 -0.4688  0.0534
 7796SOL     OW34849   2.143   3.648  12.134  0.0826 -0.5144  0.9247
 7796SOL    HW134850   2.157   3.554  12.137  1.1992 -0.2995  2.3311
 7796SOL    HW234851   2.053   3.643  12.101 -0.4355  4.2119  1.6073
 7797SOL     OW34852   3.550   3.709   6.627  0.3655  0.1528  0.3773
 7797SOL    HW134853   3.611   3.774   6.662 -0.3717  0.5196  0.9762
 7797SOL    HW234854   3.480   3.728   6.689  0.7676  1.0633  0.5615
 7798SOL     OW34855   3.966   0.979   2.669 -0.6530 -0.3113 -0.0193
 7798SOL    HW134856   3.956   0.989   2.764  3.0269 -1.8775  0.5210
 7798SOL    HW234857   3.968   1.074   2.656 -0.3664 -0.6355 -2.1947
 7799SOL     OW34858   1.424   3.811   2.307  0.5227 -0.2722  0.0471
 7799SOL    HW134859   1.416   3.717   2.321 -1.8750 -0.1254 -0.3149
 7799SOL    HW234860   1.496   3.839   2.363  0.5290 -2.0797  0.9283
 7800SOL     OW34861   0.416   1.522   1.170 -0.2660  0.3092 -0.5010
 7800SOL    HW134862   0.447   1.432   1.170 -0.3470  0.2850  0.2089
 7800SOL    HW234863   0.367   1.525   1.252 -0.4967  0.3589 -0.6417
 7801SOL     OW34864   2.119   0.022  10.248 -0.0956  0.6556  0.4319
 7801SOL    HW134865   2.208   4.711  10.254 -0.0082  0.8208  0.0752
 7801SOL    HW234866   2.127   0.081  10.173 -1.2955 -0.5221 -0.5915
 7802SOL     OW34867   1.749   2.105   0.823 -0.4026  0.6029  0.2740
 7802SOL    HW134868   1.811   2.170   0.855 -0.6390 -0.5613  3.0356
 7802SOL    HW234869   1.798   2.053   0.759 -0.0721 -0.4983  1.4246
 7803SOL     OW34870   2.690   1.394   0.276  0.4569  0.1711  0.2398
 7803SOL    HW134871   2.650   1.374   0.360  0.9709  0.4575  0.5495
 7803SOL    HW234872   2.666   1.313   0.231 -2.0807  1.2661 -0.3858
 7804SOL     OW34873   1.982   2.114  12.073 -0.3811  0.4003  0.1217
 7804SOL    HW134874   2.032   2.044  12.116  1.0157  2.0919  1.2353
 7804SOL    HW234875   2.023   2.120  11.987  1.0461 -0.8236  0.7093
 7805SOL     OW34876   0.016   4.332   6.118 -0.6293  0.2740 -0.2640
 7805SOL    HW134877   4.686   4.263   6.156  0.2234 -0.1889  0.1071
 7805SOL    HW234878   0.089   4.324   6.179 -1.4358 -2.3323  0.3809
 7806SOL     OW34879   1.396   3.239   3.724 -0.5075  0.1735 -0.1502
 7806SOL    HW134880   1.446   3.221   3.804  0.7665  1.3676 -0.6856
 7806SOL    HW234881   1.444   3.308   3.678  0.5490  0.5507  1.5281
 7807SOL     OW34882   2.511   4.190   4.742  0.3622  0.4845  0.5009
 7807SOL    HW134883   2.533   4.126   4.809 -0.9418 -1.7744 -1.1884
 7807SOL    HW234884   2.431   4.145   4.714 -0.8498  2.9421  0.0426
 7808SOL     OW34885   0.350   0.952  15.129 -0.4348 -0.1217 -0.6096
 7808SOL    HW134886   0.349   1.007  15.207  1.2177 -1.3410  0.2626
 7808SOL    HW234887   0.444   0.945  15.114 -0.5344 -2.9038  0.0006
 7809SOL     OW34888   4.110   0.194   6.929 -0.4760  0.2794 -0.5514
 7809SOL    HW134889   4.202   0.217   6.942  0.2546 -0.9454 -3.4912
 7809SOL    HW234890   4.071   0.191   7.016  0.6892  3.3057  0.0427
 7810SOL     OW34891   1.297   4.540   0.881 -0.1390  0.1715  0.4529
 7810SOL    HW134892   1.264   4.497   0.802  0.7416  1.9780 -0.8885
 7810SOL    HW234893   1.389   4.514   0.871 -0.5128 -0.7167 -0.6609
 7811SOL     OW34894   1.649   1.761  16.637  0.0970  0.8045  0.0354
 7811SOL    HW134895   1.585   1.690  16.640 -0.3416  1.1795 -0.6480
 7811SOL    HW234896   1.607   1.833  16.591 -1.3671 -2.3062 -3.4469
 7812SOL     OW34897   0.732   3.264   3.424  0.2525 -0.4355 -0.5988
 7812SOL    HW134898   0.721   3.350   3.466  1.4089 -0.1955 -0.7985
 7812SOL    HW234899   0.795   3.232   3.489 -1.6677  1.2079  2.0769
 7813SOL     OW34900   0.040   3.970   6.327 -0.5072 -0.1406  0.2881
 7813SOL    HW134901   4.712   3.903   6.371 -0.2869 -0.3071  0.2939
 7813SOL    HW234902   0.123   3.922   6.328 -0.1835  0.3474 -1.9879
 7814SOL     OW34903   0.736   3.615   4.221  0.0525 -0.5185 -0.2230
 7814SOL    HW134904   0.821   3.574   4.203  1.1167  1.3988  0.4682
 7814SOL    HW234905   0.746   3.638   4.313 -1.7698 -1.2924  0.1532
 7815SOL     OW34906   3.105   3.277   3.103  0.0230 -0.2772  0.0936
 7815SOL    HW134907   3.104   3.217   3.029  0.5401  0.1337 -0.2546
 7815SOL    HW234908   3.051   3.349   3.071  2.8390  1.6431 -0.3395
 7816SOL     OW34909   1.393   3.289   0.568 -0.3311  0.5267  0.1646
 7816SOL    HW134910   1.404   3.294   0.473  0.6204  1.4821  0.3293
 7816SOL    HW234911   1.384   3.195   0.586 -1.0838  0.1387 -2.2585
 7817SOL     OW34912   2.476   3.582   9.107 -0.4971 -0.2648 -0.6144
 7817SOL    HW134913   2.418   3.534   9.047  0.4364 -0.6527 -1.2097
 7817SOL    HW234914   2.558   3.580   9.057  0.8458  0.2245  1.5529
 7818SOL     OW34915   1.436   4.131   6.622 -0.2958  0.1297 -0.0134
 7818SOL    HW134916   1.366   4.067   6.630 -0.8669  0.4763 -2.3007
 7818SOL    HW234917   1.387   4.201   6.665 -1.0532  0.1078 -0.8369
 7819SOL     OW34918   0.351   4.443   2.880 -0.3136 -0.1288 -0.3885
 7819SOL    HW134919   0.436   4.484   2.902  0.2091 -1.2546 -0.3249
 7819SOL    HW234920   0.295   4.458   2.957  0.5749 -0.1490  0.2696
 7820SOL     OW34921   4.269   0.131  13.696 -0.4210  0.2522  0.0458
 7820SOL    HW134922   4.239   0.121  13.606 -1.9937 -0.2241  0.6316
 7820SOL    HW234923   4.261   0.223  13.719  1.4572  0.3476  0.3564
 7821SOL     OW34924   0.834   1.670   5.197 -0.3003  0.1552 -0.0308
 7821SOL    HW134925   0.868   1.736   5.137  0.5651  1.2573  1.6544
 7821SOL    HW234926   0.849   1.711   5.282 -0.4992 -2.2507  1.1624
 7822SOL     OW34927   4.157   0.865   8.656  0.1225  0.2404  0.1185
 7822SOL    HW134928   4.222   0.925   8.693 -0.4998  1.2674 -0.4722
 7822SOL    HW234929   4.147   0.798   8.724  0.5899  0.1708  0.1134
 7823SOL     OW34930   3.963   3.080   6.367  0.7940 -0.4013  0.1245
 7823SOL    HW134931   4.042   3.052   6.321  0.9618 -1.3199  0.9558
 7823SOL    HW234932   3.995   3.077   6.457  0.5904  0.1855  0.2108
 7824SOL     OW34933   3.391   0.748  17.697 -0.0409 -0.3304 -0.0507
 7824SOL    HW134934   3.450   0.699   0.056 -2.2977 -0.4300  2.2089
 7824SOL    HW234935   3.448   0.821  17.675 -0.7369  0.1418 -0.2860
 7825SOL     OW34936   3.088   2.030   8.217  0.1331 -0.1041 -0.0501
 7825SOL    HW134937   3.136   2.111   8.230 -0.4222  0.0336  1.1528
 7825SOL    HW234938   2.996   2.038   8.245  0.9836 -1.6250  3.1545
 7826SOL     OW34939   2.877   3.973   6.825  0.2885 -0.6407  0.0318
 7826SOL    HW134940   2.899   3.928   6.907  0.3856 -0.4210  0.1258
 7826SOL    HW234941   2.896   3.912   6.754 -0.5101  0.8471 -1.4578
 7827SOL     OW34942   4.209   2.618   2.769  0.3211  0.5329 -0.4031
 7827SOL    HW134943   4.222   2.668   2.849 -2.4608  1.2132 -0.3793
 7827SOL    HW234944   4.252   2.533   2.783  2.3264  1.9064  1.7969
 7828SOL     OW34945   1.119   3.632   0.703 -0.1595 -0.7255  0.1540
 7828SOL    HW134946   1.127   3.688   0.780 -0.2193 -0.8771  0.2711
 7828SOL    HW234947   1.212   3.613   0.692 -0.7604 -1.6083 -3.5154
 7829SOL     OW34948   0.768   2.058   4.587  0.0517 -0.0617 -0.2706
 7829SOL    HW134949   0.799   2.148   4.575 -1.4876  0.6007  0.6857
 7829SOL    HW234950   0.826   2.014   4.525  0.1031 -2.6769  1.6493
 7830SOL     OW34951   3.174   1.310   2.493  0.1947 -0.0869  0.3827
 7830SOL    HW134952   3.106   1.288   2.430 -0.6669 -1.2470  1.7053
 7830SOL    HW234953   3.171   1.230   2.545  1.4687 -2.2518 -2.9042
 7831SOL     OW34954   2.344   1.808  11.354 -0.7354 -0.2774  0.1591
 7831SOL    HW134955   2.348   1.808  11.450  2.8661 -1.3294 -0.0215
 7831SOL    HW234956   2.371   1.719  11.334  0.0917 -0.3671  1.6582
 7832SOL     OW34957   1.272   1.755   0.946  0.1517 -0.1192 -0.0829
 7832SOL    HW134958   1.356   1.798   0.931  0.4854 -0.2022  1.5733
 7832SOL    HW234959   1.293   1.674   0.993  1.6645  1.3382  1.7339
 7833SOL     OW34960   0.158   4.296   4.254 -0.8628  0.2378 -0.1608
 7833SOL    HW134961   0.224   4.249   4.305 -0.9610 -1.6364 -1.7573
 7833SOL    HW234962   0.206   4.321   4.175  0.2042 -0.9086  0.1241
 7834SOL     OW34963   2.628   3.339   7.401  0.6245  0.6255  0.2554
 7834SOL    HW134964   2.647   3.246   7.405  3.0783  1.0951 -0.0612
 7834SOL    HW234965   2.707   3.373   7.445  0.1239 -0.6687  2.1503
 7835SOL     OW34966   0.273   1.883   3.544  0.0438  0.0552  0.3163
 7835SOL    HW134967   0.268   1.979   3.544  3.1099  0.1956  0.6220
 7835SOL    HW234968   0.180   1.864   3.530 -0.0151  1.4172 -1.1055
 7836SOL     OW34969   3.911   1.275   3.049 -0.1931 -0.4403  0.2957
 7836SOL    HW134970   3.848   1.315   2.989 -1.9521  0.0863  2.5155
 7836SOL    HW234971   3.914   1.183   3.022  1.4561 -0.3767  0.2536
 7837SOL     OW34972   2.397   1.392   2.015  0.6639 -0.4242  0.4702
 7837SOL    HW134973   2.374   1.408   1.923  1.0869 -1.3904  0.2022
 7837SOL    HW234974   2.312   1.409   2.056  0.7382 -0.6844  0.7265
 7838SOL     OW34975   1.464   0.388   2.304  0.2892  0.0034 -0.4613
 7838SOL    HW134976   1.518   0.420   2.377  0.8722 -1.5964 -0.1998
 7838SOL    HW234977   1.536   0.354   2.252  1.7821  0.6547  1.1757
 7839SOL     OW34978   2.517   2.176   1.193  0.7279  0.7730 -0.6492
 7839SOL    HW134979   2.581   2.242   1.218  1.3642 -0.0896  0.0240
 7839SOL    HW234980   2.468   2.199   1.115  0.7089  1.4604 -0.4308
 7840SOL     OW34981   4.422   4.707   8.229  0.2024 -0.4995  0.0100
 7840SOL    HW134982   4.479   4.664   8.293 -1.2641 -1.7244  0.4839
 7840SOL    HW234983   4.345   4.674   8.274 -0.7157  0.4508 -0.8671
 7841SOL     OW34984   2.488   3.103   6.951 -0.0220  0.0804  0.0899
 7841SOL    HW134985   2.576   3.139   6.944  0.0063 -0.0165 -0.0559
 7841SOL    HW234986   2.471   3.105   7.045  0.7995  2.2428  0.1979
 7842SOL     OW34987   4.546   3.026   0.818  0.1976  0.6726 -0.6002
 7842SOL    HW134988   4.585   2.967   0.883  1.2740  0.2780 -1.6008
 7842SOL    HW234989   4.579   2.983   0.739  0.4001  0.5280 -0.4377
 7843SOL     OW34990   2.361   2.176   8.668  0.0873  0.7768 -0.3185
 7843SOL    HW134991   2.291   2.230   8.632  0.0198  1.3507  0.6998
 7843SOL    HW234992   2.309   2.097   8.681  2.2487 -0.5431  0.3572
 7844SOL     OW34993   2.914   4.397   6.104  0.4364 -0.2521 -0.0739
 7844SOL    HW134994   2.957   4.378   6.187  0.6819 -0.3731 -0.2292
 7844SOL    HW234995   2.829   4.423   6.139  1.2841  2.1642  0.1279
 7845SOL     OW34996   1.516   0.099   7.638  0.2271  0.5398  0.0084
 7845SOL    HW134997   1.605   0.083   7.670  0.4569  0.4799 -0.6387
 7845SOL    HW234998   1.459   0.029   7.671  3.4771 -2.0721  0.1131
 7846SOL     OW34999   2.764   2.860   2.280 -0.2937 -0.0035  0.2352
 7846SOL    HW135000   2.754   2.906   2.364 -1.3684  2.0802 -1.0197
 7846SOL    HW235001   2.824   2.790   2.307  0.5452  0.4583 -0.4449
 7847SOL     OW35002   1.906   1.562   7.121  0.8338  0.5959 -0.7482
 7847SOL    HW135003   1.863   1.632   7.170 -0.2984 -1.3039  1.0142
 7847SOL    HW235004   1.880   1.593   7.034 -1.1700  0.3596 -0.2311
 7848SOL     OW35005   1.232   0.007   9.837 -0.1273  0.1200  0.4458
 7848SOL    HW135006   1.181   4.678   9.776  0.2542 -1.2377  1.3080
 7848SOL    HW235007   1.194   0.091   9.810 -0.3435 -0.5851 -1.4192
 7849SOL     OW35008   1.752   3.045   9.879  0.5964 -0.0213 -0.5761
 7849SOL    HW135009   1.836   3.055   9.834  0.7448 -2.4469 -0.8680
 7849SOL    HW235010   1.745   3.129   9.923 -0.0040  1.0648 -2.7897
 7850SOL     OW35011   2.373   3.351   8.968  0.2684 -0.2826 -0.0239
 7850SOL    HW135012   2.443   3.294   8.934 -0.7260 -1.4601 -0.1020
 7850SOL    HW235013   2.305   3.335   8.903  1.8518  0.2641 -1.8521
 7851SOL     OW35014   3.749   0.781  10.625 -0.5061  0.0950  0.1804
 7851SOL    HW135015   3.758   0.871  10.657  0.5972  1.1878 -3.1794
 7851SOL    HW235016   3.693   0.733  10.686 -1.0244 -0.5167 -0.7824
 7852SOL     OW35017   1.134   4.349  13.243  0.3834 -0.1383 -0.2964
 7852SOL    HW135018   1.161   4.430  13.288 -1.6100  0.2670  0.1465
 7852SOL    HW235019   1.200   4.347  13.174  1.5042 -0.9929  0.7856
 7853SOL     OW35020   3.229   4.199  16.025 -0.1441 -0.2726 -0.6644
 7853SOL    HW135021   3.158   4.144  16.058  0.5782 -1.3481 -0.8793
 7853SOL    HW235022   3.295   4.141  16.063  1.1697  1.4097 -0.4346
 7854SOL     OW35023   3.219   4.327  15.438 -0.4975  0.2070 -0.4769
 7854SOL    HW135024   3.212   4.329  15.533  1.1167  0.4660 -0.3637
 7854SOL    HW235025   3.290   4.389  15.423 -1.2310  1.3462  0.8407
 7855SOL     OW35026   2.692   4.492  17.479 -0.4008  0.1565 -0.0171
 7855SOL    HW135027   2.730   4.404  17.477  0.5539  0.5368  0.8108
 7855SOL    HW235028   2.759   4.549  17.518 -0.3326 -0.6672  1.0664
 7856SOL     OW35029   2.624   3.291   4.599 -0.6616  0.2817 -0.4728
 7856SOL    HW135030   2.657   3.377   4.621  1.6206 -1.1929  1.8518
 7856SOL    HW235031   2.704   3.244   4.576 -0.9783 -0.6035  0.2092
 7857SOL     OW35032   1.968   4.041  12.179  0.1312 -0.1905  0.0289
 7857SOL    HW135033   1.930   4.101  12.243 -0.5857 -2.4031  1.6893
 7857SOL    HW235034   1.908   4.057  12.106 -0.9915 -0.3584  0.9190
 7858SOL     OW35035   1.208   1.505   7.328 -0.1246 -0.6867  0.0468
 7858SOL    HW135036   1.158   1.579   7.363 -0.7592 -1.2255  0.2687
 7858SOL    HW235037   1.205   1.443   7.400 -0.4846  0.8969  1.3794
 7859SOL     OW35038   2.569   0.636  16.985  0.2599 -0.0563  0.0829
 7859SOL    HW135039   2.530   0.555  17.018 -0.1672  0.7666  1.6167
 7859SOL    HW235040   2.661   0.623  17.007  0.3713  0.7808  0.0862
 7860SOL     OW35041   4.140   4.183  14.735  0.2868  0.4252 -0.2461
 7860SOL    HW135042   4.067   4.231  14.695  1.3301  1.4910 -0.8825
 7860SOL    HW235043   4.138   4.109  14.674  1.3907  0.8724 -0.8247
 7861SOL     OW35044   0.714   0.503  16.324  0.1417  0.1634 -0.4415
 7861SOL    HW135045   0.635   0.557  16.325 -0.7301 -1.1328  0.0242
 7861SOL    HW235046   0.669   0.420  16.315  0.6976  0.0551 -2.2506
 7862SOL     OW35047   2.045   3.038   9.566 -0.0121  0.4711 -0.6740
 7862SOL    HW135048   2.029   3.057   9.659  2.4594  1.5266 -0.4451
 7862SOL    HW235049   2.012   3.116   9.522  0.2880  1.0826  0.1768
 7863SOL     OW35050   0.787   0.710  17.401  0.6673  0.3091 -0.2350
 7863SOL    HW135051   0.830   0.795  17.388  1.5880 -0.2171 -0.6649
 7863SOL    HW235052   0.861   0.652  17.421  1.8223  1.5981 -0.6911
 7864SOL     OW35053   2.890   4.477   8.338 -0.1509  0.2014  0.1424
 7864SOL    HW135054   2.934   4.561   8.325 -2.3932  1.6568  1.7696
 7864SOL    HW235055   2.811   4.494   8.287 -0.1948 -1.3476 -0.2960
 7865SOL     OW35056   4.074   0.973   9.016 -0.1671  0.4046 -0.2679
 7865SOL    HW135057   4.089   0.961   9.110 -0.3228  0.0081 -0.2941
 7865SOL    HW235058   4.091   0.884   8.987  1.8644  0.3738  1.0055
 7866SOL     OW35059   2.746   1.854   3.506 -0.0007 -1.1697 -0.2564
 7866SOL    HW135060   2.836   1.846   3.536 -0.1045 -0.0482  0.3287
 7866SOL    HW235061   2.747   1.780   3.445 -0.2800 -1.3831  0.0007
 7867SOL     OW35062   1.164   2.118   7.079 -0.2016 -0.2746  0.2435
 7867SOL    HW135063   1.082   2.133   7.032 -1.2381 -0.0225  2.1440
 7867SOL    HW235064   1.206   2.196   7.044 -1.7051 -1.1441 -3.5002
 7868SOL     OW35065   2.541   1.807   8.077  0.2136  0.2515 -0.0261
 7868SOL    HW135066   2.583   1.728   8.044  1.4720  0.2491  1.5798
 7868SOL    HW235067   2.551   1.799   8.172  1.0366 -3.3562 -0.4244
 7869SOL     OW35068   0.164   0.532  11.698 -0.0719 -0.6010  0.1195
 7869SOL    HW135069   0.116   0.593  11.642 -0.1974 -0.8507 -0.0433
 7869SOL    HW235070   0.129   0.554  11.784 -0.5233  0.2106 -0.2738
 7870SOL     OW35071   3.383   0.052   8.991 -0.1102 -0.8110  0.0209
 7870SOL    HW135072   3.320   0.057   9.063 -0.6911 -2.5961 -0.3474
 7870SOL    HW235073   3.390   0.145   8.968  1.3657 -0.6601  1.0528
 7871SOL     OW35074   3.838   0.857   1.082  0.1833  0.6059 -0.1953
 7871SOL    HW135075   3.788   0.813   1.014 -1.4808 -1.0463  2.1053
 7871SOL    HW235076   3.928   0.834   1.062 -0.2423 -0.8414 -0.4110
 7872SOL     OW35077   1.301   1.224   4.318 -0.3136  0.5640 -0.2383
 7872SOL    HW135078   1.383   1.206   4.364 -2.1930  1.1192  3.3053
 7872SOL    HW235079   1.284   1.140   4.275 -1.5975 -0.4484  2.2192
 7873SOL     OW35080   4.159   0.207   7.942  0.1987 -0.4656  0.7060
 7873SOL    HW135081   4.199   0.218   7.856 -0.9806 -3.3114 -0.2156
 7873SOL    HW235082   4.132   0.294   7.969  0.3780 -1.1946  3.1837
 7874SOL     OW35083   4.235   3.373   6.588 -0.0122  0.0378  0.3205
 7874SOL    HW135084   4.259   3.354   6.498 -2.1090  1.5307 -0.5402
 7874SOL    HW235085   4.316   3.366   6.639  1.2620 -0.5016 -1.7617
 7875SOL     OW35086   3.304   1.838   8.116 -0.8080  0.6018 -0.5071
 7875SOL    HW135087   3.217   1.867   8.144 -1.3790 -0.0217 -1.6145
 7875SOL    HW235088   3.318   1.892   8.037  0.9392  0.8777 -0.0057
 7876SOL     OW35089   1.351   0.604   2.183  0.1957  0.1955  0.2543
 7876SOL    HW135090   1.400   0.549   2.244 -1.5107  0.1426  1.5880
 7876SOL    HW235091   1.404   0.683   2.175  1.4385 -0.4617  2.2143
 7877SOL     OW35092   2.784   4.262   2.792  0.0368 -0.2781 -0.1347
 7877SOL    HW135093   2.788   4.323   2.866  1.6879 -1.4057  0.7264
 7877SOL    HW235094   2.876   4.237   2.785 -0.4994 -1.8310 -1.5053
 7878SOL     OW35095   0.893   2.637  11.280 -0.7419 -0.3044  0.0590
 7878SOL    HW135096   0.946   2.622  11.358 -1.4255  1.0224  0.7608
 7878SOL    HW235097   0.836   2.710  11.303 -1.2699 -0.0165 -2.1263
 7879SOL     OW35098   1.081   4.477   2.377 -0.4913 -0.1961  0.2020
 7879SOL    HW135099   1.085   4.442   2.288  0.4525  0.2777  0.0548
 7879SOL    HW235100   1.037   4.557   2.350  0.9791  0.8814  0.9407
 7880SOL     OW35101   1.542   1.148   2.570 -0.4385  0.4198  0.0627
 7880SOL    HW135102   1.459   1.196   2.571  0.4386  1.9523  0.8422
 7880SOL    HW235103   1.598   1.197   2.631  2.1615  0.0236 -2.0059
 7881SOL     OW35104   4.263   3.250   3.563  0.5637  0.7336 -0.0401
 7881SOL    HW135105   4.318   3.222   3.490  0.6275  1.0903 -0.1295
 7881SOL    HW235106   4.182   3.264   3.513  0.8633  0.3982 -0.6228
 7882SOL     OW35107   2.574   4.027   8.431 -0.1142 -0.6963  0.0994
 7882SOL    HW135108   2.584   4.102   8.489  0.8520 -0.5591 -0.2422
 7882SOL    HW235109   2.663   3.991   8.438 -1.2103 -3.1620  1.4539
 7883SOL     OW35110   0.790   0.443  10.298  0.5012  0.6379 -0.3661
 7883SOL    HW135111   0.713   0.440  10.242 -0.7489 -2.9859  1.5696
 7883SOL    HW235112   0.834   0.360  10.281  1.3899  0.0858  4.4342
 7884SOL     OW35113   4.021   0.698   2.030 -0.1157 -0.1759  1.3612
 7884SOL    HW135114   3.950   0.761   2.038 -0.7060 -0.3964 -1.8623
 7884SOL    HW235115   4.029   0.658   2.116  2.3381  1.5312  1.9435
 7885SOL     OW35116   1.908   0.556  16.963 -0.2219  0.1451  0.5638
 7885SOL    HW135117   1.929   0.465  16.984  1.4497  0.4725  0.2576
 7885SOL    HW235118   1.819   0.533  16.935  0.6939 -2.9948  0.2546
 7886SOL     OW35119   3.976   4.321   8.468 -0.1890  0.8566 -0.2177
 7886SOL    HW135120   4.047   4.291   8.523 -0.2723  2.9507  1.0276
 7886SOL    HW235121   3.960   4.402   8.515  2.0215  1.4030 -0.4377
 7887SOL     OW35122   2.076   1.292   1.555  0.2675 -0.3340 -0.4008
 7887SOL    HW135123   2.014   1.224   1.583  1.5236 -0.6479  1.5916
 7887SOL    HW235124   2.013   1.360   1.579 -1.5192 -1.4823 -1.7818
 7888SOL     OW35125   2.489   1.596   3.624 -0.0879  0.5364 -0.0096
 7888SOL    HW135126   2.492   1.691   3.634  1.7049  0.5835 -0.9131
 7888SOL    HW235127   2.552   1.573   3.692  1.0260  1.6193 -0.6683
 7889SOL     OW35128   2.145   4.090   7.682 -0.6129  0.3747 -1.1544
 7889SOL    HW135129   2.229   4.052   7.658 -0.0315  0.4212  0.8658
 7889SOL    HW235130   2.136   4.159   7.617 -0.2393  2.2733  0.8374
 7890SOL     OW35131   1.204   2.954   9.079 -0.3126  0.0588 -0.6538
 7890SOL    HW135132   1.209   2.879   9.138 -0.5504 -0.2659 -1.0476
 7890SOL    HW235133   1.145   3.009   9.131 -3.2245 -1.5193 -2.3072
 7891SOL     OW35134   2.975   1.740   8.307  0.2032 -0.0552  0.4460
 7891SOL    HW135135   3.049   1.799   8.313 -1.0601  1.3687  1.8836
 7891SOL    HW235136   2.968   1.730   8.212  1.2309 -0.1184  0.3831
 7892SOL     OW35137   3.297   2.724   3.154  0.3109 -0.0728 -0.1149
 7892SOL    HW135138   3.297   2.726   3.249 -5.1871  0.0415 -0.1408
 7892SOL    HW235139   3.214   2.675   3.151  1.2614 -1.8594  2.8141
 7893SOL     OW35140   2.427   4.086   3.495  0.6694  0.5715  0.4743
 7893SOL    HW135141   2.386   4.061   3.413  0.3706 -0.4640  0.9504
 7893SOL    HW235142   2.520   4.097   3.473  0.3923 -1.2498 -1.5265
 7894SOL     OW35143   3.338   4.553   2.862 -0.0766  0.1360  0.0106
 7894SOL    HW135144   3.377   4.610   2.795  1.1956  0.9784  1.4772
 7894SOL    HW235145   3.252   4.594   2.850  0.0320 -0.3631 -2.5812
 7895SOL     OW35146   3.998   1.654   2.899  0.0460  0.4451 -0.2039
 7895SOL    HW135147   3.916   1.674   2.943  0.6879 -0.0544  1.2380
 7895SOL    HW235148   3.977   1.569   2.859  0.0185  1.4358 -2.3052
 7896SOL     OW35149   0.595   2.401   5.889  0.1673  0.1383  0.2813
 7896SOL    HW135150   0.659   2.455   5.935 -0.3034  0.8293  0.1314
 7896SOL    HW235151   0.635   2.412   5.802 -3.8517 -2.1372 -1.8465
 7897SOL     OW35152   3.789   4.233   2.014 -0.4033  0.0802  0.1255
 7897SOL    HW135153   3.748   4.168   1.958 -1.3196  0.2735  0.5730
 7897SOL    HW235154   3.795   4.182   2.095 -0.3412  2.0946  1.3861
 7898SOL     OW35155   3.817   4.527   5.954 -0.0169 -0.0407  0.7180
 7898SOL    HW135156   3.749   4.539   5.888  2.0629 -0.2453 -1.4940
 7898SOL    HW235157   3.798   4.605   6.006 -0.6709  0.3348 -0.0903
 7899SOL     OW35158   4.065   4.160   6.764 -0.0311 -0.3696 -0.2368
 7899SOL    HW135159   4.069   4.095   6.834  1.5108 -1.1625 -1.0724
 7899SOL    HW235160   4.058   4.241   6.815  0.4661  1.1436 -2.5416
 7900SOL     OW35161   1.724   3.438  11.356  0.2892  0.4144  0.3389
 7900SOL    HW135162   1.643   3.388  11.365  0.3052  0.1805 -0.8910
 7900SOL    HW235163   1.764   3.418  11.441 -0.4206  0.5233  0.6951
 7901SOL     OW35164   1.523   4.007   1.916 -0.1289  0.3544  0.4314
 7901SOL    HW135165   1.537   4.102   1.912 -1.5450  0.5915  1.0476
 7901SOL    HW235166   1.460   3.991   1.986  0.9803  0.5499  1.4847
 7902SOL     OW35167   0.111   3.692   2.027  0.2075 -0.1083  0.1455
 7902SOL    HW135168   0.063   3.740   2.095 -2.1103 -0.6701 -1.0973
 7902SOL    HW235169   0.132   3.609   2.069 -0.6254 -1.2728 -1.7356
 7903SOL     OW35170   4.406   4.200   0.609  0.5124  0.2828  0.3292
 7903SOL    HW135171   4.354   4.261   0.662 -0.1962 -0.0473  0.0190
 7903SOL    HW235172   4.340   4.144   0.568 -1.0280  1.4464  1.2406
 7904SOL     OW35173   0.561   1.330   6.176  0.0823 -0.5861  0.2984
 7904SOL    HW135174   0.544   1.251   6.227 -1.2302  0.0890  0.9013
 7904SOL    HW235175   0.622   1.373   6.236 -0.4360  1.7964 -0.8989
 7905SOL     OW35176   1.630   2.672  11.973  0.2760 -0.5271  0.0125
 7905SOL    HW135177   1.543   2.634  11.987 -0.3588  0.0491 -2.4032
 7905SOL    HW235178   1.660   2.635  11.891  0.4434 -0.8289  0.2085
 7906SOL     OW35179   0.842   2.646   7.661 -0.1036 -0.1122  0.0722
 7906SOL    HW135180   0.789   2.576   7.699 -2.3211  1.3768 -0.2761
 7906SOL    HW235181   0.778   2.715   7.643  3.5429  2.4849 -2.9929
 7907SOL     OW35182   2.455   3.001   2.974  0.0764 -0.0475 -0.3710
 7907SOL    HW135183   2.429   3.033   2.887 -0.4566  1.2728  0.2620
 7907SOL    HW235184   2.461   2.908   2.953  2.3276 -0.2065  1.0796
 7908SOL     OW35185   1.076   3.523  10.096 -0.3304  0.0870  0.0869
 7908SOL    HW135186   1.095   3.449  10.039  1.5046 -0.1437  0.9745
 7908SOL    HW235187   1.127   3.584  10.043 -1.7676 -0.8517 -2.3457
 7909SOL     OW35188   2.384   0.864  17.383 -0.0512  0.3746  0.7742
 7909SOL    HW135189   2.458   0.924  17.371  1.5313 -1.3051  2.2731
 7909SOL    HW235190   2.328   0.903  17.316 -0.0170  0.7574  0.9668
 7910SOL     OW35191   0.756   2.077   9.583 -0.2225 -0.3225  0.3437
 7910SOL    HW135192   0.782   2.164   9.611 -1.9565  0.2671  0.1399
 7910SOL    HW235193   0.799   2.077   9.497  0.2995  0.7304  0.6041
 7911SOL     OW35194   3.556   4.371   3.462 -0.1665 -0.0643 -0.0704
 7911SOL    HW135195   3.462   4.389   3.449 -0.1152  0.8234  0.7842
 7911SOL    HW235196   3.568   4.319   3.383 -0.6623  1.6397 -1.2677
 7912SOL     OW35197   2.784   1.824   0.132  0.2726 -0.5939 -0.6579
 7912SOL    HW135198   2.752   1.888   0.068  0.9339 -0.3118 -0.7170
 7912SOL    HW235199   2.771   1.875   0.211 -1.1890 -0.5551 -0.9299
 7913SOL     OW35200   4.083   0.719   4.064  0.0517  0.5475  0.0534
 7913SOL    HW135201   4.174   0.746   4.059  0.2528 -0.6925 -2.8111
 7913SOL    HW235202   4.087   0.629   4.032 -1.5989  0.9079 -1.1540
 7914SOL     OW35203   2.527   1.753  15.399  0.2631  0.1095  0.3935
 7914SOL    HW135204   2.497   1.788  15.483  1.4585  0.8970  0.4905
 7914SOL    HW235205   2.570   1.832  15.367  0.9349 -0.5502 -0.3328
 7915SOL     OW35206   3.231   3.900   2.055 -0.2855  0.0532 -0.7814
 7915SOL    HW135207   3.152   3.899   2.110 -0.3483  0.2002 -0.8711
 7915SOL    HW235208   3.266   3.811   2.044  0.7885  0.2389  1.1997
 7916SOL     OW35209   3.687   1.809   5.984  0.2794 -0.3848  0.1137
 7916SOL    HW135210   3.730   1.795   6.069 -0.6672 -0.0952  0.6393
 7916SOL    HW235211   3.746   1.774   5.918  0.6342 -0.7768  0.6339
 7917SOL     OW35212   3.149   2.048   3.781 -0.4402 -0.0637  0.4289
 7917SOL    HW135213   3.112   2.062   3.694  1.9966 -1.0121 -0.7388
 7917SOL    HW235214   3.205   2.126   3.788 -1.0318  0.4143 -0.2145
 7918SOL     OW35215   1.911   3.543  12.708  0.4722  0.5111 -0.1164
 7918SOL    HW135216   1.970   3.513  12.638 -1.1887 -0.8053 -0.9538
 7918SOL    HW235217   1.874   3.459  12.734  1.6881 -0.1002 -0.3695
 7919SOL     OW35218   3.801   2.577  10.719 -0.1533  0.4545  0.8824
 7919SOL    HW135219   3.764   2.554  10.804  3.4228  0.4304  2.4784
 7919SOL    HW235220   3.721   2.594  10.671 -0.3425 -1.1193  0.6552
 7920SOL     OW35221   3.050   0.795   9.254  0.1704 -0.0932 -0.3534
 7920SOL    HW135222   2.972   0.763   9.208 -0.0248  0.4082 -0.3719
 7920SOL    HW235223   3.114   0.787   9.183 -0.4014 -0.3551 -0.8436
 7921SOL     OW35224   0.945   4.650  12.604 -0.4081  0.0528 -0.1816
 7921SOL    HW135225   0.995   4.621  12.680  1.1788 -1.1327 -1.6898
 7921SOL    HW235226   0.946   0.021  12.609  2.3359  0.0127 -0.2836
 7922SOL     OW35227   2.569   1.047   6.819  0.1141  0.2875  0.3510
 7922SOL    HW135228   2.602   1.120   6.767  0.4843 -0.2548 -0.1705
 7922SOL    HW235229   2.641   0.997   6.859  0.1215 -0.1069 -0.1577
 7923SOL     OW35230   0.366   2.712   7.648  0.5713  0.0270  0.6553
 7923SOL    HW135231   0.333   2.639   7.700  1.4377 -1.1666 -0.4910
 7923SOL    HW235232   0.321   2.781   7.697 -1.0294 -0.4081 -0.1892
 7924SOL     OW35233   1.348   3.154   4.408  0.5675  0.4176  0.0384
 7924SOL    HW135234   1.375   3.233   4.454  3.2304  0.3952 -1.4639
 7924SOL    HW235235   1.369   3.089   4.475 -1.4883 -0.1332  0.1466
 7925SOL     OW35236   2.145   3.939  11.995 -0.6514 -0.2865  0.4078
 7925SOL    HW135237   2.094   3.977  12.066  1.8241  2.1371  0.8804
 7925SOL    HW235238   2.189   3.864  12.035 -1.2857 -0.5184  0.6619
 7926SOL     OW35239   0.251   4.669   5.338  0.3834  0.4974  0.5595
 7926SOL    HW135240   0.241   4.589   5.287 -1.1159  1.0741 -0.0685
 7926SOL    HW235241   0.288   4.629   5.417  2.4712  0.4990 -0.4185
 7927SOL     OW35242   3.620   4.669  15.258 -0.0720  0.2917  0.4493
 7927SOL    HW135243   3.579   0.021  15.217 -0.0305  0.7846  1.3165
 7927SOL    HW235244   3.655   4.627  15.179 -1.3769 -0.7357  0.4166
 7928SOL     OW35245   0.966   1.894   4.450  0.0497 -0.1657 -0.2943
 7928SOL    HW135246   0.909   1.827   4.412 -0.5370  0.7500 -1.0168
 7928SOL    HW235247   1.050   1.876   4.408  1.8697  1.2793  2.6771
 7929SOL     OW35248   1.887   4.669   6.895  0.5297  0.3249 -0.6840
 7929SOL    HW135249   1.814   4.704   6.945 -0.4495  0.1711 -2.0101
 7929SOL    HW235250   1.884   4.576   6.914  0.0618  0.2051 -1.3293
 7930SOL     OW35251   2.356   0.103  16.839  0.4410  0.0481  0.7390
 7930SOL    HW135252   2.317   0.047  16.772  2.0203 -1.5015  1.1161
 7930SOL    HW235253   2.380   0.176  16.783  1.6474  0.4024  1.7257
 7931SOL     OW35254   3.177   1.382   7.313  0.7494 -0.1122  0.1761
 7931SOL    HW135255   3.273   1.374   7.314  0.8778  0.9925 -2.5647
 7931SOL    HW235256   3.162   1.291   7.287  0.8766  0.3626 -1.5984
 7932SOL     OW35257   0.936   3.154   7.807  0.3116 -0.5584  0.0347
 7932SOL    HW135258   0.902   3.218   7.870  1.2386 -0.4441  0.4220
 7932SOL    HW235259   0.953   3.083   7.869 -3.9806  0.7626  2.7169
 7933SOL     OW35260   2.290   3.720   6.864  0.1407 -0.4578 -0.2835
 7933SOL    HW135261   2.275   3.678   6.949 -3.1277  0.8479 -0.2072
 7933SOL    HW235262   2.197   3.729   6.841  0.1955  1.7676  0.4082
 7934SOL     OW35263   3.914   1.049   8.677 -0.0396 -0.4191  0.3904
 7934SOL    HW135264   3.967   0.970   8.688  0.5795  0.1975  1.8856
 7934SOL    HW235265   3.960   1.088   8.603  1.2262  0.5436  1.6811
 7935SOL     OW35266   3.458   1.669   2.063 -0.4443 -0.2558 -0.2147
 7935SOL    HW135267   3.462   1.581   2.101  0.0542  0.5288  1.5154
 7935SOL    HW235268   3.368   1.674   2.031 -0.6896  1.2021  0.6985
 7936SOL     OW35269   0.235   3.707   8.980  0.3502  0.5202 -0.6859
 7936SOL    HW135270   0.200   3.780   9.029  1.0268 -0.5030  1.3045
 7936SOL    HW235271   0.206   3.621   9.011 -0.5781  1.7797  1.8287
 7937SOL     OW35272   1.148   3.547  11.633  0.0141 -0.5150 -0.6637
 7937SOL    HW135273   1.188   3.518  11.551  1.4949  3.7302 -1.4476
 7937SOL    HW235274   1.123   3.468  11.681 -0.2058  0.0351  0.1261
 7938SOL     OW35275   0.707   0.274   2.506  0.3565  0.4565  0.0776
 7938SOL    HW135276   0.691   0.334   2.580  0.0482 -1.2307  1.3707
 7938SOL    HW235277   0.802   0.272   2.502  0.3624 -1.0048  1.3143
 7939SOL     OW35278   0.147   2.741   5.359  0.1626  0.1593  0.1091
 7939SOL    HW135279   0.079   2.796   5.398 -0.7994  0.5182 -2.1163
 7939SOL    HW235280   0.223   2.791   5.389 -1.3325  2.1199  0.5478
 7940SOL     OW35281   1.154   3.164   3.845 -0.0450 -0.4245 -0.1973
 7940SOL    HW135282   1.155   3.068   3.848 -1.2377 -0.4756 -1.3245
 7940SOL    HW235283   1.235   3.185   3.799  0.7341  0.3086  1.5205
 7941SOL     OW35284   1.303   1.554   4.050  0.6775  0.6184  0.3122
 7941SOL    HW135285   1.363   1.502   4.103 -0.8105  0.5084  1.8687
 7941SOL    HW235286   1.369   1.607   4.006 -0.0312 -0.4585 -2.0701
 7942SOL     OW35287   3.186   4.082   6.377 -0.2730 -0.4355  0.0875
 7942SOL    HW135288   3.263   4.128   6.409  0.6277 -1.0910 -1.1314
 7942SOL    HW235289   3.122   4.140   6.418  0.4163  0.0174  0.5167
 7943SOL     OW35290   3.667   0.754   5.538  0.9903 -0.3281  0.3837
 7943SOL    HW135291   3.715   0.835   5.522  1.8849 -1.0599 -0.6927
 7943SOL    HW235292   3.734   0.696   5.574  1.0904  2.0979  4.0113
 7944SOL     OW35293   2.172   4.639   4.939  0.0596  0.3832  0.6670
 7944SOL    HW135294   2.168   4.565   5.000  1.8135 -0.4810 -0.2579
 7944SOL    HW235295   2.139   4.712   4.992 -0.7307 -0.0393  0.7623
 7945SOL     OW35296   3.634   1.290   3.275 -0.0917  0.1175  0.1204
 7945SOL    HW135297   3.616   1.350   3.203  1.2317  0.3520 -0.0144
 7945SOL    HW235298   3.726   1.311   3.291  0.0668  0.0016 -0.6335
 7946SOL     OW35299   2.832   0.822   2.878  0.4655  0.3126  0.0159
 7946SOL    HW135300   2.841   0.907   2.835 -0.7272 -0.6789 -2.1946
 7946SOL    HW235301   2.923   0.794   2.875 -0.2326 -2.0956  1.5383
 7947SOL     OW35302   0.543   3.684   0.578 -0.3457  0.3688 -0.0832
 7947SOL    HW135303   0.479   3.651   0.515  2.3420 -1.2199 -1.9645
 7947SOL    HW235304   0.623   3.672   0.528  0.9897  0.0390  2.0969
 7948SOL     OW35305   2.773   1.840   2.147 -0.5657 -0.4397  0.2536
 7948SOL    HW135306   2.787   1.845   2.053  3.0525  1.1041  0.8527
 7948SOL    HW235307   2.740   1.750   2.149 -1.2771 -0.1738  0.5009
 7949SOL     OW35308   2.927   4.175   9.919 -0.0410 -0.3104 -1.0372
 7949SOL    HW135309   2.838   4.201   9.895  1.0406  2.1608 -2.4119
 7949SOL    HW235310   2.921   4.120   9.997  0.3852  0.3245 -0.5608
 7950SOL     OW35311   0.169   3.951   9.098 -0.2719  0.8431  0.0878
 7950SOL    HW135312   0.201   4.025   9.149  0.5967  1.0731 -0.7869
 7950SOL    HW235313   0.099   3.911   9.149  1.0108  1.2634  2.1829
 7951SOL     OW35314   2.397   2.406   2.914 -0.4548  0.0192 -0.3289
 7951SOL    HW135315   2.356   2.439   2.994  1.0846  1.4751 -0.1374
 7951SOL    HW235316   2.427   2.491   2.883  2.4717 -1.2115 -0.8664
 7952SOL     OW35317   1.640   3.122   3.211 -0.3683 -0.6061 -0.1587
 7952SOL    HW135318   1.583   3.152   3.282  1.3513  1.5966  0.3002
 7952SOL    HW235319   1.643   3.026   3.208 -1.8949 -0.6164 -0.9014
 7953SOL     OW35320   0.916   4.007   0.755 -0.4635  0.3024 -0.6119
 7953SOL    HW135321   0.871   3.931   0.719  0.0766 -0.3560  0.1243
 7953SOL    HW235322   0.854   4.034   0.822 -0.1457  0.0824 -0.2309
 7954SOL     OW35323   3.557   3.730  15.770 -0.2820 -0.2064 -0.2019
 7954SOL    HW135324   3.500   3.654  15.759  0.0296 -0.2255 -1.7041
 7954SOL    HW235325   3.499   3.800  15.802 -0.9131 -1.5613  1.6209
 7955SOL     OW35326   0.317   3.667   4.679 -0.1080 -0.0356  0.5181
 7955SOL    HW135327   0.226   3.697   4.675  0.0365  0.4204  0.6598
 7955SOL    HW235328   0.363   3.742   4.718  0.4652  0.2918 -0.7775
 7956SOL     OW35329   0.390   4.024   9.618 -0.5203 -0.1290 -0.6347
 7956SOL    HW135330   0.361   3.960   9.553 -0.7113  0.5514 -1.2240
 7956SOL    HW235331   0.367   4.105   9.572 -0.3146  1.0407  1.3282
 7957SOL     OW35332   2.013   3.300  15.437  0.5506 -0.3375 -0.4701
 7957SOL    HW135333   2.076   3.244  15.392  0.6537 -0.2947 -0.3818
 7957SOL    HW235334   1.949   3.317  15.368 -0.5738  1.1232  0.9346
 7958SOL     OW35335   2.012   1.063  12.605 -0.0776  0.1361  0.3933
 7958SOL    HW135336   1.937   1.062  12.664 -1.8292 -1.2783 -1.8454
 7958SOL    HW235337   1.986   1.005  12.533 -0.7889 -0.5472  1.1812
 7959SOL     OW35338   0.414   0.101   7.182 -0.1585  0.5873  0.7275
 7959SOL    HW135339   0.442   0.191   7.166  1.4647  0.0158  0.4158
 7959SOL    HW235340   0.331   0.089   7.136 -0.2734  0.6564  0.9132
 7960SOL     OW35341   4.240   0.972  11.902 -0.7236  0.5525  0.3870
 7960SOL    HW135342   4.169   0.940  11.958 -2.2021 -0.0699 -1.8180
 7960SOL    HW235343   4.222   0.918  11.825 -0.3078  0.9690 -0.0050
 7961SOL     OW35344   1.476   3.536  11.104  0.2791 -0.1838 -0.1802
 7961SOL    HW135345   1.400   3.532  11.046  1.1289 -2.2118 -1.1766
 7961SOL    HW235346   1.542   3.495  11.048  0.7395 -2.2731  1.8930
 7962SOL     OW35347   2.537   2.081   8.022 -0.2127  0.7215  0.6060
 7962SOL    HW135348   2.545   1.986   8.034  3.1037  1.0488  0.9238
 7962SOL    HW235349   2.627   2.100   7.997  0.1284  0.5355  1.6986
 7963SOL     OW35350   2.708   4.631   7.305 -0.4779 -0.1169  0.1741
 7963SOL    HW135351   2.725   0.001   7.311 -0.3530 -0.1289  0.0163
 7963SOL    HW235352   2.766   4.599   7.236 -1.7705 -0.5109 -0.7402
 7964SOL     OW35353   2.199   4.564  15.682  0.3197 -0.0993  0.0611
 7964SOL    HW135354   2.247   4.590  15.603 -1.0084 -2.1758 -1.4306
 7964SOL    HW235355   2.251   4.488  15.710  0.4828 -0.2912 -0.7631
 7965SOL     OW35356   4.569   4.069   0.379  0.5328 -0.4009 -0.0469
 7965SOL    HW135357   4.504   4.000   0.369  0.3244 -0.4292  1.4820
 7965SOL    HW235358   4.522   4.149   0.355 -0.7998 -0.4088  2.5604
 7966SOL     OW35359   1.383   1.113  10.624  0.2534  0.2117  0.6342
 7966SOL    HW135360   1.381   1.019  10.642  1.9330 -0.1278 -0.9619
 7966SOL    HW235361   1.379   1.144  10.714  2.3946 -0.3030  0.8969
 7967SOL     OW35362   4.186   2.046   9.600  0.1223  0.1900 -0.0651
 7967SOL    HW135363   4.210   1.980   9.666 -0.9220 -0.2335 -0.1155
 7967SOL    HW235364   4.102   2.013   9.569  0.4203  0.9257 -1.6446
 7968SOL     OW35365   2.210   4.155   8.262 -0.1621  0.3466 -0.2303
 7968SOL    HW135366   2.138   4.108   8.304  0.1107  0.5763  0.5096
 7968SOL    HW235367   2.232   4.217   8.332  3.1194  1.2589 -2.0626
 7969SOL     OW35368   4.094   0.791  10.694 -0.2655  0.0551 -0.5272
 7969SOL    HW135369   4.141   0.843  10.629 -0.0489  0.6544  0.1117
 7969SOL    HW235370   4.005   0.824  10.686 -0.3608 -0.2595 -0.8170
 7970SOL     OW35371   1.654   3.823   3.600  0.7556  0.4035  0.2009
 7970SOL    HW135372   1.581   3.853   3.655  1.9188  0.5158  1.6871
 7970SOL    HW235373   1.614   3.787   3.521  1.9295  0.4537 -0.4241
 7971SOL     OW35374   3.622   0.230   5.391  0.0707 -0.0881  0.5384
 7971SOL    HW135375   3.712   0.196   5.389  0.6316  1.2602  3.2739
 7971SOL    HW235376   3.632   0.323   5.370 -0.0954  0.4797  3.0172
 7972SOL     OW35377   2.316   1.379  17.529  0.5714 -0.2173 -0.1964
 7972SOL    HW135378   2.256   1.440  17.486  1.5373  1.4740  0.8971
 7972SOL    HW235379   2.286   1.373  17.620  3.4919  2.2703  0.8892
 7973SOL     OW35380   0.152   0.603   5.848 -0.2413  0.4621 -0.4320
 7973SOL    HW135381   0.244   0.629   5.851  0.0151 -0.5870  0.8991
 7973SOL    HW235382   0.132   0.633   5.937 -0.0654  0.1585 -0.2869
 7974SOL     OW35383   1.157   3.700   8.726  0.0257 -0.2250 -0.1137
 7974SOL    HW135384   1.111   3.784   8.733 -1.6183 -1.1517  0.0842
 7974SOL    HW235385   1.107   3.635   8.775  0.4909  0.3609  1.1090
 7975SOL     OW35386   0.247   4.627  10.785 -0.2138 -0.4907 -0.3594
 7975SOL    HW135387   0.334   4.606  10.751  1.3902 -0.4040  3.6992
 7975SOL    HW235388   0.193   4.613  10.707 -0.4358 -2.1863  0.0971
 7976SOL     OW35389   1.286   3.620   9.118  0.1369  0.3987 -0.1008
 7976SOL    HW135390   1.246   3.704   9.094 -0.7592  0.6573  2.2898
 7976SOL    HW235391   1.231   3.593   9.192  1.9876 -2.5444  0.2120
 7977SOL     OW35392   1.955   1.967   6.480 -0.6096 -0.1272 -0.0306
 7977SOL    HW135393   1.904   2.000   6.406  0.2017 -0.4180 -0.7133
 7977SOL    HW235394   1.957   2.054   6.520  2.4847 -0.6467  0.9812
 7978SOL     OW35395   1.473   4.211   5.212  0.7212 -0.1402 -0.2109
 7978SOL    HW135396   1.532   4.189   5.140  0.0964 -1.2945 -0.3689
 7978SOL    HW235397   1.501   4.159   5.288 -0.1778  0.6298  0.6424
 7979SOL     OW35398   1.222   3.380   5.700 -0.0134 -0.3301 -0.1076
 7979SOL    HW135399   1.247   3.410   5.613  3.2376 -3.4624 -0.2633
 7979SOL    HW235400   1.307   3.351   5.734  0.1739 -0.2043 -0.4728
 7980SOL     OW35401   2.626   0.771   4.807  0.0303  0.8059  0.2706
 7980SOL    HW135402   2.604   0.864   4.818  0.0937  1.1454 -2.6397
 7980SOL    HW235403   2.722   0.766   4.813  0.1163 -0.1850 -2.4017
 7981SOL     OW35404   0.518   4.433  17.409  0.0906 -0.4615  0.4436
 7981SOL    HW135405   0.576   4.473  17.344 -1.2766 -1.9713 -1.7068
 7981SOL    HW235406   0.437   4.428  17.359  0.8190  1.5154 -0.9384
 7982SOL     OW35407   1.905   2.921   8.225 -0.0738 -0.4426  0.0432
 7982SOL    HW135408   1.827   2.867   8.218  0.6416 -1.2310 -1.7643
 7982SOL    HW235409   1.902   2.940   8.319  0.0125  0.2732 -0.0951
 7983SOL     OW35410   2.309   0.882   4.636 -0.8335 -0.1349  0.3132
 7983SOL    HW135411   2.384   0.935   4.661 -2.2205  1.7848  0.4501
 7983SOL    HW235412   2.239   0.947   4.634  0.1028  0.8416 -0.0034
 7984SOL     OW35413   0.168   2.872   2.805  0.1939  0.2115  0.0875
 7984SOL    HW135414   0.242   2.827   2.846  0.2753  0.0777 -0.2020
 7984SOL    HW235415   0.154   2.933   2.877  1.9936 -1.1525  1.5979
 7985SOL     OW35416   0.551   3.482   1.074 -0.6922 -0.5612 -0.5503
 7985SOL    HW135417   0.494   3.436   1.134  1.7214 -0.4005  1.8607
 7985SOL    HW235418   0.613   3.416   1.043  2.2770  1.4823  1.0402
 7986SOL     OW35419   3.135   1.619  17.605  0.3646 -0.2972  0.3352
 7986SOL    HW135420   3.222   1.583  17.623 -0.5290 -2.1318  0.9780
 7986SOL    HW235421   3.160   1.671  17.529  0.1085  0.1877  0.5834
 7987SOL     OW35422   3.442   2.880   8.636 -0.1313  0.2024 -0.4932
 7987SOL    HW135423   3.504   2.812   8.661 -0.2141  1.5474  3.3494
 7987SOL    HW235424   3.422   2.927   8.717 -2.0847 -0.8612 -0.3446
 7988SOL     OW35425   1.277   0.092   0.123  0.3421  0.7934  0.1924
 7988SOL    HW135426   1.208   0.027   0.108  0.4075  0.5566  0.9286
 7988SOL    HW235427   1.298   0.121   0.034  0.8316  0.2941  0.1464
 7989SOL     OW35428   3.364   3.530   6.260 -0.0026  0.3943 -0.1360
 7989SOL    HW135429   3.371   3.435   6.265  0.9592  0.5463  1.6137
 7989SOL    HW235430   3.436   3.553   6.319 -0.9078  0.2587  1.0137
 7990SOL     OW35431   0.002   3.450   7.236  0.1014  0.3212  0.6820
 7990SOL    HW135432   0.058   3.462   7.312  1.9142  0.1440 -0.6375
 7990SOL    HW235433   4.641   3.443   7.279  0.8872  1.3852  2.4000
 7991SOL     OW35434   2.116   4.066  13.317  0.3767  0.5553  0.2790
 7991SOL    HW135435   2.030   4.097  13.289  0.1498  1.0650  1.5309
 7991SOL    HW235436   2.159   4.065  13.231  3.4918  1.2298  1.8114
 7992SOL     OW35437   2.248   3.332   8.462 -0.0290 -0.0170 -0.4048
 7992SOL    HW135438   2.179   3.397   8.446  0.2675  0.4798  0.3294
 7992SOL    HW235439   2.285   3.316   8.375 -2.2143 -0.5444 -1.2382
 7993SOL     OW35440   3.660   4.073  17.070 -0.0214 -0.2765  0.4369
 7993SOL    HW135441   3.592   4.129  17.108 -0.6175  0.3990 -1.6005
 7993SOL    HW235442   3.602   4.002  17.044 -0.8878  0.5112  0.2487
 7994SOL     OW35443   2.282   0.741  16.726  0.2614 -0.1592 -0.2402
 7994SOL    HW135444   2.261   0.745  16.819  0.0761  2.6962 -0.4027
 7994SOL    HW235445   2.240   0.656  16.713  0.2193 -0.0844 -0.5984
 7995SOL     OW35446   4.709   1.490   7.724 -0.0203  0.2091 -0.2293
 7995SOL    HW135447   4.657   1.423   7.679 -1.1767  1.7545 -1.1828
 7995SOL    HW235448   0.039   1.542   7.666  0.9670  0.0303  0.5254
 7996SOL     OW35449   0.043   4.402   9.766 -0.5554 -0.1490 -0.8140
 7996SOL    HW135450   0.133   4.369   9.768 -1.6920 -3.1839 -0.6794
 7996SOL    HW235451   0.019   4.388   9.858 -1.0657 -0.5115 -1.0033
 7997SOL     OW35452   4.233   3.667   5.059  0.3944 -0.6407  0.0252
 7997SOL    HW135453   4.258   3.750   5.099  1.0066 -1.1620  0.7195
 7997SOL    HW235454   4.222   3.694   4.967 -0.5765 -0.2819  0.2462
 7998SOL     OW35455   4.077   3.437   7.800  0.4451 -0.1764  0.1505
 7998SOL    HW135456   4.043   3.416   7.887 -0.1286  2.1891  0.4830
 7998SOL    HW235457   4.002   3.455   7.743  2.1286 -0.0297 -1.9921
 7999SOL     OW35458   3.198   0.115   6.486 -0.3638  0.1671 -0.4530
 7999SOL    HW135459   3.230   0.135   6.573 -2.1196  0.2442  0.1826
 7999SOL    HW235460   3.131   0.055   6.518  1.4604 -1.5859  0.0606
 8000SOL     OW35461   2.652   1.872   2.855  0.6978 -0.8099 -0.5310
 8000SOL    HW135462   2.740   1.871   2.893  0.6875 -1.8717 -0.5406
 8000SOL    HW235463   2.641   1.778   2.838 -0.2309 -0.4643 -1.8238
 8001SOL     OW35464   0.334   3.637  14.112 -0.1457 -0.9260  0.1492
 8001SOL    HW135465   0.299   3.722  14.088 -1.8878 -1.5528  0.4222
 8001SOL    HW235466   0.416   3.669  14.148 -0.1125 -1.6411  0.7164
 8002SOL     OW35467   2.288   2.953   1.589  0.7499  0.0047 -0.6584
 8002SOL    HW135468   2.307   2.860   1.598 -0.7334 -0.1295  1.1645
 8002SOL    HW235469   2.198   2.947   1.556  0.6979 -1.0368 -0.3331
 8003SOL     OW35470   4.597   4.569   3.441  0.4072  0.2820  0.0406
 8003SOL    HW135471   4.671   4.519   3.474 -0.7603 -1.4699  0.0362
 8003SOL    HW235472   4.526   4.504   3.446  1.1942 -0.6693 -1.1872
 8004SOL     OW35473   2.811   3.357   7.975 -0.1317  0.3813 -0.1917
 8004SOL    HW135474   2.778   3.446   7.966 -2.2306 -0.2669  0.8931
 8004SOL    HW235475   2.768   3.307   8.045  0.5032 -1.3727 -1.0652
 8005SOL     OW35476   3.545   1.848   1.855  0.0583  0.6077  0.6596
 8005SOL    HW135477   3.528   1.766   1.902  2.6455  1.0071  2.3122
 8005SOL    HW235478   3.501   1.914   1.907  3.2271  1.9910  1.6167
 8006SOL     OW35479   2.156   1.164   3.791 -0.0819  0.3218 -0.0048
 8006SOL    HW135480   2.091   1.226   3.758 -1.4125 -0.2876  1.4350
 8006SOL    HW235481   2.128   1.076   3.766  1.5248 -0.7481  1.9420
 8007SOL     OW35482   0.099   4.308   2.634  0.2183 -0.0613  0.6331
 8007SOL    HW135483   0.183   4.261   2.641  0.1302 -0.3050  0.0921
 8007SOL    HW235484   0.134   4.397   2.637  1.4647 -0.4516 -2.4571
 8008SOL     OW35485   2.084   3.154   0.009  0.0928 -0.1230  0.0578
 8008SOL    HW135486   2.071   3.122   0.099  0.5390  1.0237  0.5263
 8008SOL    HW235487   2.140   3.086  17.669  0.9265  0.4733  0.2078
 8009SOL     OW35488   0.645   4.223   8.996  0.3658  0.4095 -0.0664
 8009SOL    HW135489   0.631   4.179   9.080  0.1710 -0.5301 -0.5927
 8009SOL    HW235490   0.563   4.201   8.952  0.0336 -0.0105  0.7593
 8010SOL     OW35491   0.295   4.451  12.120 -0.7839  0.4130  0.4671
 8010SOL    HW135492   0.359   4.498  12.174  0.1066 -2.6373  2.0652
 8010SOL    HW235493   0.245   4.428  12.198 -0.3241  1.2472  1.0101
 8011SOL     OW35494   0.698   1.878   7.890 -0.2007 -0.2569 -0.2789
 8011SOL    HW135495   0.683   1.898   7.798 -0.4390  2.9425  0.4760
 8011SOL    HW235496   0.736   1.790   7.883  0.2647  0.0145 -1.1303
 8012SOL     OW35497   0.863   1.398   4.075  0.1581  0.1352 -0.1067
 8012SOL    HW135498   0.874   1.490   4.050  0.6019  0.2638  0.5500
 8012SOL    HW235499   0.810   1.365   4.003 -0.8843  0.1485  0.6537
 8013SOL     OW35500   1.621   2.864   5.446 -0.1523 -0.3209  0.2692
 8013SOL    HW135501   1.601   2.901   5.360  0.8049 -1.1758 -0.3131
 8013SOL    HW235502   1.588   2.775   5.429  1.7505 -0.8825 -0.4237
 8014SOL     OW35503   1.992   0.071   1.142 -0.6549 -0.0672  0.4756
 8014SOL    HW135504   1.962   0.118   1.219 -0.5500 -1.4782  1.3826
 8014SOL    HW235505   1.977   4.704   1.169  1.0419 -0.2061  0.9061
 8015SOL     OW35506   3.520   3.803   4.562  0.1890  0.4301  0.1453
 8015SOL    HW135507   3.555   3.891   4.570  1.9518 -0.3164  0.6207
 8015SOL    HW235508   3.442   3.816   4.508  0.9006 -0.5229 -1.1204
 8016SOL     OW35509   0.909   4.111   7.513 -0.2019  0.0623 -0.3344
 8016SOL    HW135510   0.986   4.096   7.458 -0.1278  0.2608 -0.2824
 8016SOL    HW235511   0.861   4.187   7.481  2.5617  1.6450 -0.7267
 8017SOL     OW35512   1.886   4.283   6.043 -0.6439 -0.5851  0.3812
 8017SOL    HW135513   1.797   4.250   6.034 -0.3349 -0.7792 -1.7607
 8017SOL    HW235514   1.909   4.296   5.951 -0.0655 -0.0344  0.6019
 8018SOL     OW35515   1.246   0.330  17.600  0.3218  0.8582 -0.0274
 8018SOL    HW135516   1.313   0.264  17.584 -0.5563  0.6932 -2.9688
 8018SOL    HW235517   1.299   0.406  17.576 -0.6833  1.1256 -1.4400
 8019SOL     OW35518   1.780   4.318  14.303  0.0558  0.7682 -0.2655
 8019SOL    HW135519   1.701   4.351  14.347 -0.9859 -2.3546  0.2166
 8019SOL    HW235520   1.851   4.381  14.312  1.1945 -0.6910  0.8376
 8020SOL     OW35521   0.754   3.375   9.142 -0.3029 -0.0915 -0.2643
 8020SOL    HW135522   0.794   3.462   9.136 -1.2130  0.3545  0.1396
 8020SOL    HW235523   0.808   3.341   9.214  0.5029  0.5959 -0.5350
 8021SOL     OW35524   4.164   0.561   5.204  0.0173  0.0558 -0.1262
 8021SOL    HW135525   4.163   0.531   5.113  1.6003  2.9624 -1.1212
 8021SOL    HW235526   4.200   0.480   5.240  3.1864  1.9712  1.0531
 8022SOL     OW35527   0.123   0.199   1.371 -0.1630 -0.2804 -0.2839
 8022SOL    HW135528   0.135   0.288   1.404 -0.5790  0.0663 -1.0642
 8022SOL    HW235529   0.178   0.156   1.436 -0.1233 -1.2008 -0.9269
 8023SOL     OW35530   4.703   2.233  15.403 -0.1208  0.0732 -0.1928
 8023SOL    HW135531   4.626   2.187  15.369  0.3688 -2.5105  2.1707
 8023SOL    HW235532   0.025   2.261  15.324 -1.5730 -1.8590 -1.7421
 8024SOL     OW35533   0.011   2.216   3.152  0.5579  0.7425  0.3867
 8024SOL    HW135534   4.677   2.140   3.153  1.0191  0.3954  0.8674
 8024SOL    HW235535   0.094   2.173   3.172 -0.1496 -0.4910  0.6768
 8025SOL     OW35536   1.280   2.164   3.101  0.4104  0.7264  0.6125
 8025SOL    HW135537   1.303   2.213   3.021 -1.5707  1.4640  0.5040
 8025SOL    HW235538   1.368   2.133   3.123 -0.4939 -1.8418  0.5332
 8026SOL     OW35539   2.943   1.487   7.357 -0.0361 -0.6095  0.0180
 8026SOL    HW135540   2.884   1.424   7.316 -0.9142  0.9150 -1.0759
 8026SOL    HW235541   3.029   1.465   7.322  1.1817  3.2572  0.5430
 8027SOL     OW35542   2.576   1.079   5.678 -0.2400  0.5774  0.0117
 8027SOL    HW135543   2.489   1.044   5.660  0.1189 -0.3537  0.0966
 8027SOL    HW235544   2.554   1.170   5.657 -2.1190  0.6020  2.0409
 8028SOL     OW35545   2.400   0.403  11.638 -0.1005  0.4669 -0.4652
 8028SOL    HW135546   2.307   0.386  11.650 -0.2907  0.0424 -2.6632
 8028SOL    HW235547   2.426   0.336  11.575  0.5276  0.9646 -0.7454
 8029SOL     OW35548   3.260   0.775   7.946 -0.2503  0.1349  0.3644
 8029SOL    HW135549   3.198   0.804   8.013 -0.3424  0.7568  0.0068
 8029SOL    HW235550   3.323   0.846   7.958  0.9226 -0.3529 -2.8457
 8030SOL     OW35551   3.883   1.999   2.750  0.1162  0.2848 -0.0986
 8030SOL    HW135552   3.862   2.021   2.841  1.4367 -0.9231  0.4923
 8030SOL    HW235553   3.800   2.029   2.714 -0.6282 -2.1360 -0.4095
 8031SOL     OW35554   1.494   1.392  11.615 -0.0219  0.1890 -0.4609
 8031SOL    HW135555   1.526   1.315  11.662 -2.4922 -0.0510  0.8088
 8031SOL    HW235556   1.570   1.449  11.630 -0.6083  0.4528  1.5250
 8032SOL     OW35557   1.953   0.785  14.133  0.1155  0.0515 -0.5094
 8032SOL    HW135558   1.990   0.741  14.209  0.6959  0.5560 -0.4962
 8032SOL    HW235559   2.031   0.823  14.092  0.4458  0.1652  0.2314
 8033SOL     OW35560   2.978   3.006   6.715 -0.0839  0.0997 -0.5391
 8033SOL    HW135561   3.041   3.077   6.710  1.3388 -1.0132  1.6225
 8033SOL    HW235562   2.952   2.983   6.626  2.0533 -2.0160 -0.6041
 8034SOL     OW35563   0.506   3.107   1.462 -0.3945  0.9106  0.0598
 8034SOL    HW135564   0.564   3.178   1.489 -0.2613  0.8792 -0.1370
 8034SOL    HW235565   0.568   3.052   1.413 -0.1542  1.6500 -0.4601
 8035SOL     OW35566   1.342   3.076   6.053 -0.0068 -0.3223  0.6612
 8035SOL    HW135567   1.382   3.161   6.072  1.5973 -0.4194 -2.2909
 8035SOL    HW235568   1.416   3.019   6.070 -0.2104 -0.3395  1.4770
 8036SOL     OW35569   0.231   4.394  14.891 -0.6816  0.7171  0.1559
 8036SOL    HW135570   0.288   4.383  14.967 -0.5284 -2.5517 -0.4436
 8036SOL    HW235571   0.281   4.357  14.818  0.0061  1.4961  0.2280
 8037SOL     OW35572   4.372   4.361   1.644 -0.8032 -0.6973 -0.3939
 8037SOL    HW135573   4.462   4.377   1.675 -1.0482  0.6367 -0.3527
 8037SOL    HW235574   4.370   4.266   1.649 -0.4457 -0.7307 -0.8851
 8038SOL     OW35575   0.664   2.193   7.536 -0.0934 -0.2136 -0.1544
 8038SOL    HW135576   0.754   2.218   7.553 -0.5121  1.0169  0.2185
 8038SOL    HW235577   0.627   2.251   7.603  0.6727 -1.6970  1.5647
 8039SOL     OW35578   1.520   3.208  17.514 -0.5894  0.0925 -0.0309
 8039SOL    HW135579   1.535   3.140  17.448 -0.9526  0.2934 -0.3198
 8039SOL    HW235580   1.482   3.272  17.454 -1.9736 -1.9133 -1.3168
 8040SOL     OW35581   2.987   1.717   8.025 -0.0404  0.5568 -0.1748
 8040SOL    HW135582   3.065   1.662   8.027 -0.2686  0.1780 -1.5026
 8040SOL    HW235583   2.960   1.726   7.934 -1.8031  0.8661  0.3849
 8041SOL     OW35584   0.313   2.491   5.624  0.4609 -0.1397  0.5172
 8041SOL    HW135585   0.305   2.424   5.691  1.2228 -0.0378  0.7080
 8041SOL    HW235586   0.319   2.572   5.675 -2.5314 -0.0455  0.6944
 8042SOL     OW35587   4.604   4.401   3.932  0.0851 -0.2077  0.0539
 8042SOL    HW135588   4.595   4.435   4.021 -1.5438  0.8858 -0.5532
 8042SOL    HW235589   4.634   4.311   3.950 -1.4008 -0.8568 -0.8037
 8043SOL     OW35590   3.644   4.062   1.873 -0.0181  0.7193 -0.7040
 8043SOL    HW135591   3.582   4.101   1.812  0.5289 -0.0376 -1.7479
 8043SOL    HW235592   3.689   3.995   1.821  0.5813 -1.2526  2.3697
 8044SOL     OW35593   1.160   3.774   6.136  0.5029 -0.1422 -0.0363
 8044SOL    HW135594   1.079   3.724   6.122  0.2125  0.4452 -0.4519
 8044SOL    HW235595   1.220   3.744   6.068 -0.6560 -0.2086 -1.0438
 8045SOL     OW35596   2.343   3.509  11.144  0.2699 -0.6828 -0.7064
 8045SOL    HW135597   2.321   3.418  11.162  1.1516 -0.7579  0.0014
 8045SOL    HW235598   2.264   3.540  11.100  0.5895  2.8284  1.2144
 8046SOL     OW35599   3.340   0.893   2.896 -0.4238  0.2696  0.8702
 8046SOL    HW135600   3.347   0.949   2.973  0.5636  0.0353  0.9537
 8046SOL    HW235601   3.432   0.866   2.887 -0.3389  0.6489  0.5588
 8047SOL     OW35602   4.020   1.386  17.584 -0.1143 -0.3111 -0.4274
 8047SOL    HW135603   3.999   1.331  17.509  1.6311 -0.5792 -0.7089
 8047SOL    HW235604   4.109   1.414  17.562 -1.8347  2.6024 -3.6100
 8048SOL     OW35605   4.724   1.635   5.637  0.1148  0.7566 -0.3499
 8048SOL    HW135606   4.716   1.555   5.586  0.3941  1.0919 -0.9261
 8048SOL    HW235607   0.088   1.632   5.674  0.6585 -0.1209 -1.7329
 8049SOL     OW35608   0.522   4.314   1.420  0.2699  1.0317  0.3146
 8049SOL    HW135609   0.428   4.331   1.413 -0.2952 -1.4237  1.8660
 8049SOL    HW235610   0.532   4.304   1.515  1.2546  0.1699  0.1100
 8050SOL     OW35611   2.248   2.292   3.197 -0.1140  0.0879 -0.4290
 8050SOL    HW135612   2.195   2.300   3.117  1.6885 -1.2090 -1.7522
 8050SOL    HW235613   2.183   2.295   3.267  0.0816 -0.8164 -0.2067
 8051SOL     OW35614   3.225   0.138   6.801  0.0729 -0.1158 -0.0725
 8051SOL    HW135615   3.148   0.114   6.854 -1.3407  0.9717 -1.6324
 8051SOL    HW235616   3.297   0.121   6.862  0.5713  2.7780  0.1707
 8052SOL     OW35617   3.296   0.808   1.350 -0.4037 -0.4133  0.4375
 8052SOL    HW135618   3.203   0.821   1.331 -0.7443  0.4394  2.6276
 8052SOL    HW235619   3.313   0.877   1.415 -1.2341 -0.4412  0.6820
 8053SOL     OW35620   1.322   1.422   7.105 -0.1418  0.0207  0.1489
 8053SOL    HW135621   1.409   1.461   7.113 -0.6389  1.1568 -0.0674
 8053SOL    HW235622   1.276   1.462   7.178  0.8202 -1.0339  1.3292
 8054SOL     OW35623   4.019   2.610   6.009 -0.2868 -0.1629  0.2419
 8054SOL    HW135624   4.045   2.664   5.935 -1.3880  1.0197  0.7269
 8054SOL    HW235625   4.107   2.579   6.031 -0.3952 -0.2280  0.5991
 8055SOL     OW35626   2.557   1.599   7.080 -0.4899 -0.1512  0.4528
 8055SOL    HW135627   2.502   1.600   7.158  0.4432 -0.9801  1.1246
 8055SOL    HW235628   2.573   1.507   7.059  1.4770  0.2037  0.3556
 8056SOL     OW35629   4.021   1.904   3.430  0.2374 -0.0552 -0.2980
 8056SOL    HW135630   3.993   1.841   3.496 -0.0762  1.2917  0.8368
 8056SOL    HW235631   4.096   1.950   3.468 -0.8929 -0.1069  1.9917
 8057SOL     OW35632   3.914   0.010   2.708  0.4426  0.1007 -0.2175
 8057SOL    HW135633   3.978   4.686   2.761 -0.0648 -0.0277  0.2810
 8057SOL    HW235634   3.942   4.708   2.620  0.3893 -0.3187 -0.1116
 8058SOL     OW35635   4.717   3.447  14.408 -0.2347 -0.1280 -0.1844
 8058SOL    HW135636   4.690   3.355  14.410  0.8159 -0.4308  0.2910
 8058SOL    HW235637   4.647   3.487  14.460  1.0550 -2.0036  3.0368
 8059SOL     OW35638   3.576   2.792   3.025  0.3817 -0.2378  0.4625
 8059SOL    HW135639   3.553   2.842   2.947  1.3670  0.7259  0.7941
 8059SOL    HW235640   3.501   2.830   3.071  0.0817 -0.8194  0.4597
 8060SOL     OW35641   0.376   4.178   4.394 -0.1535 -0.3857  0.4113
 8060SOL    HW135642   0.463   4.151   4.363  0.5176  0.0727  1.9071
 8060SOL    HW235643   0.354   4.103   4.448 -1.3954  0.0658  0.5324
 8061SOL     OW35644   3.736   4.021   6.135  0.5120  0.0069  0.1048
 8061SOL    HW135645   3.730   3.927   6.151 -0.1045 -0.2776 -1.7603
 8061SOL    HW235646   3.761   4.019   6.043 -1.6673  0.1132 -0.4995
 8062SOL     OW35647   4.222   2.129   8.551 -0.5016  0.0210 -0.3696
 8062SOL    HW135648   4.301   2.176   8.576 -1.7531  1.2059  1.3378
 8062SOL    HW235649   4.260   2.090   8.473 -3.0355 -0.2056 -1.4891
 8063SOL     OW35650   0.123   0.959   6.112 -0.1358 -0.3694  0.2609
 8063SOL    HW135651   0.166   1.044   6.122  0.8359 -0.7431 -0.7359
 8063SOL    HW235652   0.095   0.979   6.023  0.1624 -0.9223  0.0466
 8064SOL     OW35653   3.362   0.385   7.483  0.5362 -0.5065  0.1307
 8064SOL    HW135654   3.293   0.324   7.457 -0.1938  0.1911  0.4123
 8064SOL    HW235655   3.317   0.469   7.470  0.1231 -1.0736 -2.0558
 8065SOL     OW35656   1.652   4.609   6.085  0.3919 -0.2572 -0.6771
 8065SOL    HW135657   1.662   4.700   6.112  1.5761 -0.3602 -0.7670
 8065SOL    HW235658   1.659   4.559   6.166  1.6495  0.3020 -0.4448
 8066SOL     OW35659   4.317   4.514   5.330 -0.2345  0.1145 -0.2019
 8066SOL    HW135660   4.258   4.442   5.352 -0.8374  0.3460 -1.0592
 8066SOL    HW235661   4.397   4.474   5.364  0.8512  0.9297 -1.7383
 8067SOL     OW35662   2.052   0.568   5.459 -0.7699 -0.2484 -0.0465
 8067SOL    HW135663   2.034   0.535   5.371  1.9913 -0.6605 -0.4666
 8067SOL    HW235664   2.091   0.488   5.496  0.9179  1.5272  2.0042
 8068SOL     OW35665   2.156   3.467   7.466 -0.4147  0.3754 -0.3325
 8068SOL    HW135666   2.187   3.406   7.534 -2.2474  2.0714  2.0334
 8068SOL    HW235667   2.165   3.547   7.518 -2.2985 -0.3256  1.0725
 8069SOL     OW35668   1.050   4.416   4.700  0.2951 -0.2943 -0.0742
 8069SOL    HW135669   1.000   4.442   4.778  1.0427  0.2012  0.2363
 8069SOL    HW235670   1.015   4.331   4.673  0.9133  0.1734 -2.2885
 8070SOL     OW35671   1.545   3.420   8.814  0.0815 -0.5093 -0.5744
 8070SOL    HW135672   1.491   3.481   8.763 -0.7081  0.8090  1.8265
 8070SOL    HW235673   1.492   3.398   8.890 -1.1524 -1.9937 -1.8802
 8071SOL     OW35674   3.738   1.986   7.793 -0.0736  0.1578  0.2472
 8071SOL    HW135675   3.710   2.017   7.879 -1.2924 -1.3343  0.3888
 8071SOL    HW235676   3.812   2.045   7.779 -0.9794  0.6834 -2.4427
 8072SOL     OW35677   4.040   1.672   2.145  0.2699 -0.0231  0.3051
 8072SOL    HW135678   4.026   1.761   2.112 -0.5729  0.1950  1.2757
 8072SOL    HW235679   3.971   1.677   2.211 -1.8926 -0.5692 -1.9263
 8073SOL     OW35680   0.483   3.834   9.189  0.0000  0.0421  0.0011
 8073SOL    HW135681   0.552   3.857   9.126 -0.6265 -0.6969 -0.9646
 8073SOL    HW235682   0.483   3.738   9.191  2.0827  0.0532  0.5277
 8074SOL     OW35683   2.176   2.709   8.445 -0.3611  0.2358 -0.4717
 8074SOL    HW135684   2.189   2.799   8.414 -1.8021 -0.0213 -1.8414
 8074SOL    HW235685   2.150   2.723   8.536 -1.7856  1.3676 -1.0478
 8075SOL     OW35686   2.095   2.741   2.703  0.4755 -0.7174  0.9104
 8075SOL    HW135687   2.060   2.830   2.696  0.4750 -0.6509  1.7920
 8075SOL    HW235688   2.009   2.704   2.682 -0.9369  1.9152  1.9181
 8076SOL     OW35689   3.012   0.526   8.518  0.3739  0.3941 -0.5873
 8076SOL    HW135690   2.951   0.487   8.455 -0.1572 -0.1258  0.2463
 8076SOL    HW235691   2.946   0.539   8.587  0.1844  1.5252 -0.9767
 8077SOL     OW35692   1.893   4.109  15.057  0.0932 -0.0421 -0.6685
 8077SOL    HW135693   1.965   4.137  15.000  0.5857 -1.0736 -0.5640
 8077SOL    HW235694   1.887   4.168  15.131  0.9396 -0.8207  0.0174
 8078SOL     OW35695   0.868   1.790  14.087 -0.2943 -0.4322  0.2716
 8078SOL    HW135696   0.875   1.883  14.108 -0.5829 -0.2139 -0.5729
 8078SOL    HW235697   0.780   1.772  14.118  0.0379 -2.6459 -0.0495
 8079SOL     OW35698   2.865   1.868   6.363  0.3583 -0.1871  0.0857
 8079SOL    HW135699   2.810   1.925   6.417 -0.7145  0.7677 -2.0199
 8079SOL    HW235700   2.949   1.883   6.408  1.2880  0.4025 -1.8459
 8080SOL     OW35701   2.622   2.275   9.047 -0.7262 -0.6932  0.5716
 8080SOL    HW135702   2.563   2.272   8.972  0.1778  2.2856 -0.2206
 8080SOL    HW235703   2.682   2.202   9.033  0.0470 -0.3526  2.0278
 8081SOL     OW35704   1.073   0.795   4.017  0.0897  0.4766  0.0289
 8081SOL    HW135705   1.087   0.871   4.073 -0.1846  0.3067  0.3317
 8081SOL    HW235706   1.009   0.828   3.954 -1.5347  0.2864  1.5561
 8082SOL     OW35707   2.174   0.055   7.651 -0.4543 -0.0154 -0.2839
 8082SOL    HW135708   2.174   0.030   7.559 -1.1201 -4.0503  0.8009
 8082SOL    HW235709   2.084   0.032   7.674  0.5749 -0.9177  2.9408
 8083SOL     OW35710   4.601   4.306   3.494  0.2956 -0.3142  0.1959
 8083SOL    HW135711   4.656   4.325   3.570  1.5494 -0.5564 -0.6586
 8083SOL    HW235712   4.522   4.270   3.534  0.5215 -0.2559  0.6935
 8084SOL     OW35713   3.509   3.542  14.775  0.4013 -0.1078  0.0681
 8084SOL    HW135714   3.577   3.483  14.807  0.6218 -0.3081 -0.7646
 8084SOL    HW235715   3.473   3.584  14.853  0.3660 -0.1183  0.0575
 8085SOL     OW35716   4.105   3.104   7.343 -0.5341 -0.1451  0.8824
 8085SOL    HW135717   4.103   3.022   7.394 -0.0232 -0.2204  0.7760
 8085SOL    HW235718   4.103   3.066   7.255  2.9394  1.1772  0.2543
 8086SOL     OW35719   1.481   4.368   3.653 -0.5541  0.1081 -1.0153
 8086SOL    HW135720   1.397   4.410   3.633 -0.9807  0.3749  1.3222
 8086SOL    HW235721   1.535   4.414   3.589 -1.6562  0.6070 -1.5826
 8087SOL     OW35722   2.854   1.096   6.638  0.1359  0.1905  1.0188
 8087SOL    HW135723   2.818   1.172   6.683 -0.4973  2.1697 -2.9127
 8087SOL    HW235724   2.866   1.137   6.553 -2.6080  0.8365  0.9415
 8088SOL     OW35725   2.431   2.016  10.353 -0.2248  0.2942 -0.0914
 8088SOL    HW135726   2.388   2.013  10.268  0.0220 -1.0388 -0.1707
 8088SOL    HW235727   2.354   2.002  10.408 -1.2431  1.5697 -1.1728
 8089SOL     OW35728   3.489   2.503  17.008  0.2072  0.4817 -0.5421
 8089SOL    HW135729   3.567   2.558  17.011  0.8195 -0.4386  0.5699
 8089SOL    HW235730   3.431   2.556  16.954 -0.8358  0.5067  0.6206
 8090SOL     OW35731   3.903   0.388   0.696 -0.6876  0.5066 -0.5187
 8090SOL    HW135732   3.810   0.366   0.705 -0.3517  0.0022  1.7360
 8090SOL    HW235733   3.894   0.483   0.697 -1.1163  0.4284  2.1927
 8091SOL     OW35734   3.397   1.508   6.827  0.7499 -0.1106  0.2434
 8091SOL    HW135735   3.412   1.595   6.864  1.0914  0.5786 -1.5320
 8091SOL    HW235736   3.345   1.536   6.752  1.6154  0.2376 -0.2240
 8092SOL     OW35737   4.477   1.381   3.978 -0.6126  0.2608  0.3145
 8092SOL    HW135738   4.404   1.369   3.917 -0.8609 -0.3833  0.7421
 8092SOL    HW235739   4.497   1.292   4.005  1.9230  1.3711  2.1648
 8093SOL     OW35740   0.550   2.064   2.644  0.0200  0.9901  0.0066
 8093SOL    HW135741   0.499   2.074   2.564 -1.4330 -0.7775  0.7314
 8093SOL    HW235742   0.532   2.144   2.693  0.3545  0.9931  0.1244
 8094SOL     OW35743   3.875   0.773   7.445 -0.4733  0.3814 -0.0378
 8094SOL    HW135744   3.814   0.772   7.372 -0.4047  2.1513 -0.1075
 8094SOL    HW235745   3.928   0.695   7.429  1.6227  1.7452  0.2622
 8095SOL     OW35746   4.173   4.086   2.764 -0.2320 -0.7201  0.2791
 8095SOL    HW135747   4.143   4.161   2.713  0.1110  1.1681  2.8790
 8095SOL    HW235748   4.217   4.130   2.837 -0.0425  2.2492 -1.5948
 8096SOL     OW35749   3.867   1.118  16.256  0.4241  0.3034 -0.0775
 8096SOL    HW135750   3.833   1.052  16.317  2.3612 -1.8489 -1.3248
 8096SOL    HW235751   3.808   1.097  16.183  0.0236  0.6479  0.1427
 8097SOL     OW35752   1.565   2.398   1.000  0.0728 -0.4526  0.5287
 8097SOL    HW135753   1.652   2.411   0.963 -1.0091  0.6685 -1.6651
 8097SOL    HW235754   1.568   2.468   1.066 -1.0278 -0.1934  0.3136
 8098SOL     OW35755   0.210   3.796  15.854  0.7353  0.2644 -0.1662
 8098SOL    HW135756   0.132   3.744  15.872  0.2204  0.3594 -2.1128
 8098SOL    HW235757   0.176   3.876  15.812 -0.5028 -0.1677  0.0258
 8099SOL     OW35758   3.144   4.271  15.720 -0.4959  0.2704 -0.0862
 8099SOL    HW135759   3.193   4.243  15.797 -0.2701 -1.2845 -0.7878
 8099SOL    HW235760   3.069   4.212  15.727 -1.6953  1.7640 -0.3215
 8100SOL     OW35761   4.275   2.877   1.088  0.3560  0.1235 -0.2691
 8100SOL    HW135762   4.207   2.913   1.031  0.5265  0.7531 -0.0799
 8100SOL    HW235763   4.260   2.783   1.090 -1.1051  0.3040 -3.0790
 8101SOL     OW35764   4.358   0.752   8.374  0.6446 -0.2404 -0.4657
 8101SOL    HW135765   4.410   0.701   8.437 -0.1036  1.5279  1.5770
 8101SOL    HW235766   4.270   0.732   8.406  0.3444  0.9871 -0.5279
 8102SOL     OW35767   4.678   3.041   4.354  0.3262 -0.6886  0.3859
 8102SOL    HW135768   4.631   3.080   4.428  1.6678  1.5236  0.0557
 8102SOL    HW235769   4.679   3.114   4.293 -1.4989 -0.2085  0.9195
 8103SOL     OW35770   1.827   4.407  10.199 -0.0772 -0.2933  0.2868
 8103SOL    HW135771   1.821   4.312  10.186 -1.3266 -0.1780  0.1100
 8103SOL    HW235772   1.811   4.443  10.112  1.1278 -0.9002 -0.1879
 8104SOL     OW35773   0.312   1.287  15.142 -0.4008  0.0184  0.1987
 8104SOL    HW135774   0.276   1.352  15.202  0.0752  2.5150 -2.1737
 8104SOL    HW235775   0.379   1.247  15.198 -1.0758 -1.2513  0.1044
 8105SOL     OW35776   3.926   1.951   4.057 -0.6188 -0.5705  0.2856
 8105SOL    HW135777   4.000   2.003   4.027 -1.4631 -0.1422 -1.0555
 8105SOL    HW235778   3.861   1.971   3.990  1.3537  3.0019 -0.5395
 8106SOL     OW35779   3.920   0.071   7.906  0.0151 -0.3427 -0.2678
 8106SOL    HW135780   4.009   0.100   7.887  0.4012 -0.7752  0.8973
 8106SOL    HW235781   3.929   0.008   7.977 -3.1469 -0.6674 -0.1517
 8107SOL     OW35782   0.898   2.768   7.193 -0.2801 -0.0770 -0.0767
 8107SOL    HW135783   0.978   2.780   7.244  0.7496  0.5498 -1.8572
 8107SOL    HW235784   0.840   2.837   7.223 -1.8733 -2.1478  1.6021
 8108SOL     OW35785   3.082   1.650   2.213  0.6660  0.0942 -0.0441
 8108SOL    HW135786   2.996   1.617   2.239 -0.0791  0.4813 -1.9702
 8108SOL    HW235787   3.061   1.741   2.234  0.0206  0.7203 -3.4655
 8109SOL     OW35788   0.780   2.212   1.360 -0.6408  0.4126  0.1720
 8109SOL    HW135789   0.821   2.141   1.309 -2.2960 -0.8476  0.6059
 8109SOL    HW235790   0.696   2.222   1.316 -1.0466  0.6795  1.0078
 8110SOL     OW35791   3.496   0.158   6.889 -0.1632 -0.1174 -0.1334
 8110SOL    HW135792   3.501   0.069   6.924 -0.3084 -0.2226 -0.3862
 8110SOL    HW235793   3.556   0.150   6.815  0.4320  1.6659  0.1564
 8111SOL     OW35794   2.889   0.747   0.817 -0.0456  0.1056  0.2101
 8111SOL    HW135795   2.940   0.682   0.866 -0.8384 -0.4926  0.2461
 8111SOL    HW235796   2.839   0.687   0.763 -0.4450 -1.1585  1.9658
 8112SOL     OW35797   0.634   1.606   8.452 -0.2578 -0.2834 -0.1588
 8112SOL    HW135798   0.577   1.532   8.431 -1.0935  0.9977 -2.3385
 8112SOL    HW235799   0.626   1.650   8.368 -2.8307  0.7799  0.6297
 8113SOL     OW35800   3.745   1.052   0.099 -0.3226 -0.8586 -0.1988
 8113SOL    HW135801   3.714   1.126   0.151  1.2667 -0.5616  0.3252
 8113SOL    HW235802   3.665   1.014   0.062 -0.6954  0.7195 -0.9936
 8114SOL     OW35803   2.032   2.883  16.003 -0.1882 -0.0569  0.6062
 8114SOL    HW135804   1.995   2.801  15.970  1.3042 -0.1954 -0.7543
 8114SOL    HW235805   1.994   2.886  16.090 -1.5332 -1.5097  0.0716
 8115SOL     OW35806   0.585   1.984   9.240 -0.5920  0.2485  0.5214
 8115SOL    HW135807   0.518   2.050   9.220 -0.8289  0.3290  1.5413
 8115SOL    HW235808   0.553   1.899   9.210  1.6959 -0.1405 -0.8300
 8116SOL     OW35809   0.819   1.934   7.405 -0.6804  0.0361 -0.4228
 8116SOL    HW135810   0.863   1.860   7.364  1.3577  1.3674 -0.6391
 8116SOL    HW235811   0.813   2.004   7.340 -1.9452 -0.2283 -0.6029
 8117SOL     OW35812   2.135   0.969   7.742  0.4523 -0.5078  0.3933
 8117SOL    HW135813   2.087   0.886   7.754  1.4870 -1.1415  0.1035
 8117SOL    HW235814   2.066   1.035   7.732  2.2341  1.2038 -0.4571
 8118SOL     OW35815   2.796   2.060   6.794  0.1973 -0.0410  0.0522
 8118SOL    HW135816   2.835   2.074   6.881 -0.2462 -0.9432  0.3985
 8118SOL    HW235817   2.718   2.113   6.806 -1.3806 -2.3213 -0.1352
 8119SOL     OW35818   3.301   4.487   8.042  0.3230  0.6020  0.3664
 8119SOL    HW135819   3.251   4.528   7.972 -0.4640 -0.3616  0.3611
 8119SOL    HW235820   3.270   4.525   8.124 -2.4400  1.2278 -0.9831
 8120SOL     OW35821   0.036   4.561   2.973 -0.0468 -0.2820  0.1360
 8120SOL    HW135822   4.688   4.611   3.011 -0.1533 -0.4813  0.1945
 8120SOL    HW235823   0.043   4.602   2.886  0.1949  0.8251  0.6736
 8121SOL     OW35824   3.823   0.901  16.453  0.0360  0.0811  0.1004
 8121SOL    HW135825   3.822   0.811  16.486  0.3206 -0.7014 -2.0683
 8121SOL    HW235826   3.771   0.941  16.523  2.7337  1.1104  1.5217
 8122SOL     OW35827   4.102   3.972   8.307 -0.2313 -0.1885 -0.0391
 8122SOL    HW135828   4.055   3.929   8.236  1.4799  0.7415 -1.7178
 8122SOL    HW235829   4.071   3.920   8.382 -0.6588  0.6806  0.3818
 8123SOL     OW35830   2.879   1.052  16.482  0.2043  0.6613 -0.1723
 8123SOL    HW135831   2.796   1.086  16.449 -0.6312  0.1654  1.4615
 8123SOL    HW235832   2.937   1.099  16.421 -0.3618  0.6493 -0.7167
 8124SOL     OW35833   2.565   4.448  15.036 -0.8900  0.2204 -0.4243
 8124SOL    HW135834   2.495   4.466  14.974 -0.9474 -0.0749 -0.4459
 8124SOL    HW235835   2.644   4.451  14.981 -2.1523 -0.6684 -2.2703
 8125SOL     OW35836   2.560   1.796  16.596 -0.1568 -0.1721 -0.3202
 8125SOL    HW135837   2.557   1.729  16.527 -0.8299 -1.6448  1.1413
 8125SOL    HW235838   2.557   1.881  16.551  0.7619 -1.6101 -3.1373
 8126SOL     OW35839   2.646   3.369   6.056  0.5172 -0.3420 -0.3137
 8126SOL    HW135840   2.573   3.313   6.081  0.6930 -1.1117 -1.5336
 8126SOL    HW235841   2.709   3.313   6.010 -0.1856 -0.5179 -1.0642
 8127SOL     OW35842   4.500   1.420   9.913 -0.3035  0.0300 -0.0588
 8127SOL    HW135843   4.520   1.360   9.986 -0.4894  1.8491  1.5055
 8127SOL    HW235844   4.485   1.360   9.841 -1.5971  0.6896 -0.3321
 8128SOL     OW35845   2.562   3.357   1.840  0.9087 -0.0557  0.0200
 8128SOL    HW135846   2.627   3.409   1.793  0.2066  0.9270  0.1518
 8128SOL    HW235847   2.622   3.335   1.911 -0.8218 -1.3616  1.0742
 8129SOL     OW35848   2.401   2.917   4.581  0.5666  0.0093  0.0508
 8129SOL    HW135849   2.364   2.895   4.495 -0.0223 -2.8287  1.0356
 8129SOL    HW235850   2.348   2.984   4.624 -1.9690 -3.0500  1.6643
 8130SOL     OW35851   0.453   0.399   8.155  0.0718 -0.4759 -0.2581
 8130SOL    HW135852   0.532   0.440   8.118  1.1158 -1.4232  0.9115
 8130SOL    HW235853   0.485   0.309   8.149 -1.2337 -0.8236 -1.9336
 8131SOL     OW35854   1.161   1.029  10.297  0.1034  0.8096  0.1975
 8131SOL    HW135855   1.123   1.086  10.365 -0.8247 -0.3777  0.6747
 8131SOL    HW235856   1.242   1.071  10.270  0.5285 -0.0112  0.2204
 8132SOL     OW35857   4.531   0.266  17.397 -0.0456 -0.1115  0.0820
 8132SOL    HW135858   4.571   0.353  17.403 -2.1631  1.1227 -3.8105
 8132SOL    HW235859   4.535   0.226  17.484 -0.6109 -2.0959 -0.7864
 8133SOL     OW35860   2.426   0.300   6.895  0.0248  0.3219  0.4537
 8133SOL    HW135861   2.365   0.265   6.830 -0.1036  0.4095  0.5251
 8133SOL    HW235862   2.391   0.390   6.899 -0.5316  0.0671  1.1307
 8134SOL     OW35863   3.539   0.099   7.363  0.2217  0.2385 -0.4673
 8134SOL    HW135864   3.455   0.109   7.319  0.5812  0.4287 -1.1097
 8134SOL    HW235865   3.529   0.166   7.431  0.7542  0.1396 -0.2951
 8135SOL     OW35866   2.965   1.566  15.039 -0.3454  0.1098  0.5481
 8135SOL    HW135867   2.890   1.616  15.070 -0.8500  0.6004 -1.4351
 8135SOL    HW235868   3.033   1.582  15.104 -1.5503  1.8709  1.3955
 8136SOL     OW35869   2.909   2.644  15.822 -0.1819  0.1688  0.1967
 8136SOL    HW135870   2.818   2.672  15.822  0.0160  0.8198 -2.3548
 8136SOL    HW235871   2.910   2.548  15.818  0.2374  0.1816  0.0349
 8137SOL     OW35872   0.469   3.288   5.207  0.7512 -0.1545  0.2985
 8137SOL    HW135873   0.446   3.360   5.147 -1.4183 -0.9869  0.1390
 8137SOL    HW235874   0.434   3.325   5.288 -0.3701 -3.1470  1.1697
 8138SOL     OW35875   1.403   1.932   3.200  0.1212 -0.0749  0.0228
 8138SOL    HW135876   1.496   1.927   3.176 -0.2993 -0.4394 -1.4928
 8138SOL    HW235877   1.405   1.973   3.287  0.1779 -2.5044  1.1939
 8139SOL     OW35878   1.612   2.392   7.750 -0.0391  0.0263 -0.1917
 8139SOL    HW135879   1.550   2.356   7.814 -1.1913  1.8818 -0.2546
 8139SOL    HW235880   1.690   2.398   7.805  0.4837 -1.2271 -0.7970
 8140SOL     OW35881   1.383   3.521  12.548 -0.3931 -0.0810  0.1147
 8140SOL    HW135882   1.316   3.482  12.604  0.3381  0.8622  1.6443
 8140SOL    HW235883   1.442   3.572  12.603 -0.6260 -1.3106  1.5239
 8141SOL     OW35884   2.259   2.733   6.268  0.4458 -0.3190  0.3581
 8141SOL    HW135885   2.349   2.728   6.302  1.3447 -1.3456 -2.1684
 8141SOL    HW235886   2.234   2.816   6.309 -0.5823 -0.9469  0.9978
 8142SOL     OW35887   0.744   3.483   6.256  0.1510  0.6523 -0.2307
 8142SOL    HW135888   0.653   3.479   6.226 -0.1416 -0.6714  0.8052
 8142SOL    HW235889   0.738   3.496   6.351  1.9873 -2.4709  0.2897
 8143SOL     OW35890   2.643   3.616   8.420  0.5774 -0.0613  0.3694
 8143SOL    HW135891   2.652   3.658   8.334  0.0232 -2.3037 -0.7700
 8143SOL    HW235892   2.702   3.663   8.480  0.1745  0.1154  0.6303
 8144SOL     OW35893   3.723   1.056   5.169  0.0510 -0.5264  0.5839
 8144SOL    HW135894   3.792   1.113   5.136 -0.1372  0.2517  1.5301
 8144SOL    HW235895   3.694   1.108   5.244 -1.8855  1.3225 -1.4424
 8145SOL     OW35896   4.256   0.592   0.664 -0.4924  0.2113  0.5082
 8145SOL    HW135897   4.264   0.658   0.733  0.8616  1.5200 -0.8894
 8145SOL    HW235898   4.240   0.642   0.584 -1.0031  0.0499  0.5127
 8146SOL     OW35899   2.145   2.016   5.328  0.2193 -0.4008 -0.4785
 8146SOL    HW135900   2.067   2.066   5.307  0.9590  0.8321 -0.2613
 8146SOL    HW235901   2.105   1.929   5.339 -1.3692  0.0745 -2.7820
 8147SOL     OW35902   0.548   2.701   5.362  0.4662  0.1650 -0.0135
 8147SOL    HW135903   0.640   2.727   5.363  0.7932 -0.9461 -1.2817
 8147SOL    HW235904   0.508   2.748   5.289 -1.1263  1.8000  1.9121
 8148SOL     OW35905   4.195   2.546  17.078  0.2007 -1.0040  0.1407
 8148SOL    HW135906   4.237   2.463  17.057  1.8673  0.3929 -1.9744
 8148SOL    HW235907   4.166   2.577  16.992 -0.3020  0.3983  0.8137
 8149SOL     OW35908   1.862   2.928  14.405 -0.8004  0.1521 -0.0612
 8149SOL    HW135909   1.818   2.845  14.386 -2.5809  1.2182 -0.5495
 8149SOL    HW235910   1.894   2.912  14.494  0.8244  0.3328 -0.6091
 8150SOL     OW35911   4.596   0.320  14.939  0.2505 -0.1772 -0.1664
 8150SOL    HW135912   4.673   0.363  14.904  1.9411 -1.6992  1.6532
 8150SOL    HW235913   4.590   0.240  14.887 -0.4841 -1.1083  1.3510
 8151SOL     OW35914   2.386   3.894  10.305 -0.2775  0.1369 -0.3102
 8151SOL    HW135915   2.431   3.839  10.370 -1.4117  0.8406  1.0743
 8151SOL    HW235916   2.377   3.976  10.354  2.4353  0.5916 -0.5638
 8152SOL     OW35917   0.413   0.592   6.603  0.0374  0.3165  0.6741
 8152SOL    HW135918   0.352   0.525   6.632 -0.4462  1.4386  2.2339
 8152SOL    HW235919   0.495   0.542   6.600 -0.0362  0.1278  2.0548
 8153SOL     OW35920   2.494   3.233  16.803  0.5788  0.0015  0.5284
 8153SOL    HW135921   2.424   3.270  16.749  0.4023 -1.1538 -0.0391
 8153SOL    HW235922   2.460   3.239  16.892 -0.8677 -1.3133  0.0625
 8154SOL     OW35923   1.955   1.319  14.426 -0.0993 -1.0475  0.3092
 8154SOL    HW135924   1.981   1.405  14.459  0.4690 -0.7188 -1.0241
 8154SOL    HW235925   1.864   1.335  14.402 -0.2601 -0.9198  0.9967
 8155SOL     OW35926   0.325   0.345   0.075 -0.5744 -0.7175 -0.0967
 8155SOL    HW135927   0.300   0.404   0.146  1.9860  0.6608 -0.3162
 8155SOL    HW235928   0.250   0.375   0.024  0.1738  1.5453  0.1104
 8156SOL     OW35929   4.212   3.842   4.830  0.2093  0.2860  0.2198
 8156SOL    HW135930   4.185   3.897   4.756  0.6099  0.5270  0.2504
 8156SOL    HW235931   4.303   3.869   4.842  0.9478 -1.6645 -0.8840
 8157SOL     OW35932   0.519   0.763  17.476  0.1440 -0.0688  0.1320
 8157SOL    HW135933   0.610   0.766  17.447 -0.3643 -1.7423 -1.6193
 8157SOL    HW235934   0.509   0.669  17.487 -0.0624 -0.0917 -0.2826
 8158SOL     OW35935   3.395   0.615   8.423  0.0648 -0.0041 -0.0245
 8158SOL    HW135936   3.452   0.610   8.500  0.9983  0.0652 -0.7095
 8158SOL    HW235937   3.310   0.628   8.465 -0.3274  2.0007 -1.4245
 8159SOL     OW35938   3.502   2.115   7.707  0.0202 -0.0558  0.8186
 8159SOL    HW135939   3.588   2.084   7.736  0.7042 -0.1246 -1.2992
 8159SOL    HW235940   3.458   2.037   7.673  0.0936  0.0016  0.5936
 8160SOL     OW35941   1.784   1.907  16.216  0.1027 -0.7027  0.7679
 8160SOL    HW135942   1.820   1.861  16.292  0.4427 -4.8272 -1.8604
 8160SOL    HW235943   1.800   1.846  16.144  1.3567 -0.6233  0.9737
 8161SOL     OW35944   2.138   1.433   7.939 -0.4310  0.1345  0.1419
 8161SOL    HW135945   2.134   1.425   8.034 -0.0433 -4.0446 -0.2188
 8161SOL    HW235946   2.202   1.363   7.925 -0.7603  0.0658 -1.0116
 8162SOL     OW35947   1.548   3.849   6.312 -0.4903 -0.3013  0.0422
 8162SOL    HW135948   1.544   3.884   6.223 -3.0348  0.6400  0.5152
 8162SOL    HW235949   1.484   3.908   6.353 -1.5416 -1.6842  0.3996
 8163SOL     OW35950   4.227   0.561   3.447  0.1595 -0.6556 -0.7688
 8163SOL    HW135951   4.302   0.608   3.410  0.4387  0.1283  0.7518
 8163SOL    HW235952   4.255   0.543   3.537 -0.6883  1.3198 -0.0878
 8164SOL     OW35953   1.371   2.106  13.296 -0.5046  0.2288 -1.4384
 8164SOL    HW135954   1.318   2.153  13.360  0.4320  0.2688 -0.6876
 8164SOL    HW235955   1.418   2.174  13.248  0.1471  0.1417 -0.9377
 8165SOL     OW35956   0.877   3.701   6.102 -0.0057 -0.3453 -0.0708
 8165SOL    HW135957   0.831   3.621   6.126 -0.0571 -0.4292 -0.4555
 8165SOL    HW235958   0.865   3.708   6.007  1.1223 -0.4348 -0.2223
 8166SOL     OW35959   1.524   0.574   6.207  0.0405  0.7133  0.2393
 8166SOL    HW135960   1.540   0.554   6.300 -2.1494  3.2174  1.1601
 8166SOL    HW235961   1.451   0.635   6.214 -0.5978  0.1214 -1.4025
 8167SOL     OW35962   0.513   0.188   4.509 -0.1564  0.0569 -0.0166
 8167SOL    HW135963   0.565   0.130   4.564 -1.3775 -0.5961  0.4393
 8167SOL    HW235964   0.444   0.218   4.568  0.7341  2.2028 -0.0295
 8168SOL     OW35965   0.230   2.274   4.226  0.1299  0.5690 -0.8512
 8168SOL    HW135966   0.306   2.215   4.232 -0.3101 -0.0280 -1.1461
 8168SOL    HW235967   0.228   2.316   4.312 -0.4326 -1.1340 -0.0291
 8169SOL     OW35968   0.288   0.822   2.284 -0.3894  0.0424  0.7248
 8169SOL    HW135969   0.383   0.832   2.298 -0.2639  0.0711 -0.1533
 8169SOL    HW235970   0.267   0.732   2.308 -0.5858 -0.7910 -2.6052
 8170SOL     OW35971   2.499   4.456   3.400 -0.4557 -0.1264  0.1383
 8170SOL    HW135972   2.481   4.508   3.478 -0.2884 -1.8594  1.3354
 8170SOL    HW235973   2.561   4.396   3.440 -0.8505 -1.0016 -0.5719
 8171SOL     OW35974   1.029   2.960   8.155  0.1001 -0.1294  0.6700
 8171SOL    HW135975   0.949   3.013   8.144  1.0299  1.3633  1.0204
 8171SOL    HW235976   1.093   3.019   8.195  0.6227  0.2894 -0.7857
 8172SOL     OW35977   2.131   0.903  14.383  0.4773 -0.0703 -0.1873
 8172SOL    HW135978   2.073   0.828  14.389 -1.0155  0.7156 -4.3436
 8172SOL    HW235979   2.194   0.873  14.449 -0.7096 -2.0372  0.0313
 8173SOL     OW35980   3.225   0.561  17.130  0.4201  0.3500 -0.4232
 8173SOL    HW135981   3.166   0.579  17.204  1.2128  2.5151 -0.3158
 8173SOL    HW235982   3.309   0.580  17.173  0.1958 -1.6991  0.9147
 8174SOL     OW35983   0.150   4.569   5.713 -0.2258 -0.6166  0.4326
 8174SOL    HW135984   0.085   4.546   5.779  0.2932  0.7306  1.4121
 8174SOL    HW235985   0.183   4.651   5.750  0.8833 -1.2831  0.8920
 8175SOL     OW35986   2.462   0.595   3.945  0.2318  0.4111 -0.2430
 8175SOL    HW135987   2.530   0.544   3.900  0.4037 -1.0399  1.6762
 8175SOL    HW235988   2.503   0.586   4.031 -1.8665  1.1831  0.8262
 8176SOL     OW35989   0.610   4.489  16.770 -0.4897 -0.0840 -0.9266
 8176SOL    HW135990   0.618   4.570  16.721 -1.4736 -0.0948 -1.1167
 8176SOL    HW235991   0.515   4.493  16.783 -0.3950 -0.5418 -0.0684
 8177SOL     OW35992   2.813   4.434   4.294  0.1356  0.2767 -0.9576
 8177SOL    HW135993   2.811   4.338   4.299  4.7046  0.2014 -0.4656
 8177SOL    HW235994   2.887   4.451   4.353  0.6964  0.1756 -1.6268
 8178SOL     OW35995   4.710   0.957   4.314 -0.1280  0.0799 -0.2114
 8178SOL    HW135996   4.617   0.932   4.313 -0.3027  0.6103  2.3273
 8178SOL    HW235997   0.031   0.875   4.296  0.5084  0.7768 -1.7139
 8179SOL     OW35998   1.501   2.292  16.474 -0.5228 -0.2226  0.0284
 8179SOL    HW135999   1.452   2.372  16.454  1.0033  0.8692  0.6752
 8179SOL    HW236000   1.450   2.241  16.537  1.0500 -0.8402  0.7825
 8180SOL     OW36001   3.642   1.997   3.968  0.7468  0.2993  0.2163
 8180SOL    HW136002   3.606   2.083   3.991 -1.7842 -0.0594 -2.3451
 8180SOL    HW236003   3.665   2.011   3.876  0.6643  1.9648  0.4591
 8181SOL     OW36004   1.450   2.756   7.428 -0.1810 -0.0661 -0.0417
 8181SOL    HW136005   1.469   2.699   7.503 -1.4687 -0.5627 -0.0862
 8181SOL    HW236006   1.417   2.830   7.479 -1.5809 -0.3914 -0.4801
 8182SOL     OW36007   0.886   3.204   5.418 -0.0337  0.7949  0.1199
 8182SOL    HW136008   0.812   3.251   5.457 -0.8116 -1.2478  1.0803
 8182SOL    HW236009   0.908   3.253   5.339 -0.2287 -1.1384 -1.1144
 8183SOL     OW36010   1.072   4.458  15.389  0.2750  0.2188  0.4037
 8183SOL    HW136011   1.029   4.404  15.323  0.5993 -0.4297  0.7198
 8183SOL    HW236012   1.099   4.531  15.334 -2.7247  1.5428  0.7029
 8184SOL     OW36013   0.063   1.974  15.418 -1.0338 -0.2496 -0.1596
 8184SOL    HW136014   0.125   2.004  15.351 -1.2980  1.4106  0.3546
 8184SOL    HW236015   0.032   2.061  15.441 -0.6412  0.0507 -0.7681
 8185SOL     OW36016   1.792   1.292   0.251  0.1501 -0.1039 -0.4788
 8185SOL    HW136017   1.860   1.253   0.305  1.4762  2.1880 -0.4950
 8185SOL    HW236018   1.817   1.384   0.259  0.4853  0.0858 -3.8146
 8186SOL     OW36019   0.718   3.185  11.557 -0.6783 -0.1486  0.3553
 8186SOL    HW136020   0.711   3.154  11.467  2.0729  2.5568 -0.7967
 8186SOL    HW236021   0.736   3.277  11.537  2.4601 -1.5815 -3.4138
 8187SOL     OW36022   4.589   1.977   1.085  0.9717 -0.5064  0.2092
 8187SOL    HW136023   4.675   2.009   1.111  0.9543 -0.4830  0.2374
 8187SOL    HW236024   4.531   2.022   1.146  2.9550 -0.5235  2.1034
 8188SOL     OW36025   3.795   2.832   6.456 -0.4396 -0.2384  0.7532
 8188SOL    HW136026   3.804   2.771   6.383  2.7035  0.4422  0.5326
 8188SOL    HW236027   3.801   2.912   6.404  0.9542 -0.5766  0.3790
 8189SOL     OW36028   0.808   2.343  11.380 -0.2358 -0.8682  0.2463
 8189SOL    HW136029   0.731   2.380  11.337  0.3977  1.1586  0.8714
 8189SOL    HW236030   0.773   2.277  11.440 -0.7573 -1.6774 -0.9344
 8190SOL     OW36031   1.858   1.775   4.076 -0.3562  0.0377 -0.7717
 8190SOL    HW136032   1.927   1.732   4.127 -2.8130 -2.3781  0.4903
 8190SOL    HW236033   1.817   1.702   4.030 -0.4066  0.0941 -0.8158
 8191SOL     OW36034   3.727   4.624  14.499  0.1503 -0.1496  0.6356
 8191SOL    HW136035   3.671   4.553  14.469 -0.1284  1.1393 -1.9392
 8191SOL    HW236036   3.739   4.603  14.592 -1.0197 -0.3851  0.7337
 8192SOL     OW36037   0.766   2.152   5.492  0.2132 -0.2546 -0.3598
 8192SOL    HW136038   0.759   2.231   5.545  0.6530 -0.5628  0.1712
 8192SOL    HW236039   0.859   2.132   5.509  0.2844  0.8652  0.5433
 8193SOL     OW36040   2.169   3.299  12.857 -0.1025 -0.4655 -0.2337
 8193SOL    HW136041   2.235   3.241  12.895 -1.0034 -1.3744 -0.0311
 8193SOL    HW236042   2.225   3.341  12.792  0.7245  1.4146  1.7095
 8194SOL     OW36043   3.022   0.648  13.772 -0.5533  1.0234  0.3665
 8194SOL    HW136044   3.006   0.697  13.853  0.1025  0.5825  0.7584
 8194SOL    HW236045   2.970   0.572  13.798  2.7866 -1.1043  0.8757
 8195SOL     OW36046   4.053   4.591   5.649  0.1644 -0.5555 -0.0107
 8195SOL    HW136047   3.998   4.555   5.579  0.7437 -0.0427 -0.7264
 8195SOL    HW236048   4.023   4.682   5.641 -2.8982 -1.7172 -1.6907
 8196SOL     OW36049   4.270   3.065   2.660  0.6817  0.6947 -0.6881
 8196SOL    HW136050   4.341   3.001   2.672  0.2210  0.1450 -0.8752
 8196SOL    HW236051   4.275   3.076   2.565 -1.0995  0.6297 -0.7818
 8197SOL     OW36052   4.656   2.858  12.616 -0.0795 -0.0302 -0.3924
 8197SOL    HW136053   4.662   2.864  12.712  1.1146  0.8409 -0.5235
 8197SOL    HW236054   4.693   2.942  12.591  1.0115 -0.4767 -0.2679
 8198SOL     OW36055   1.582   0.783   6.491 -0.4071 -0.0344  0.0733
 8198SOL    HW136056   1.530   0.811   6.415 -2.4398  2.3508  2.3335
 8198SOL    HW236057   1.558   0.691   6.485  2.6149 -0.8124  0.2930
 8199SOL     OW36058   0.951   3.249   8.670  0.0242  0.2485  0.1147
 8199SOL    HW136059   0.904   3.255   8.587  2.1525  0.8269 -1.0407
 8199SOL    HW236060   0.884   3.203   8.721 -0.0939  0.5415  0.2253
 8200SOL     OW36061   1.254   1.864   5.296  0.3210 -0.1447  0.4340
 8200SOL    HW136062   1.340   1.866   5.340  0.4285  0.8425  0.1833
 8200SOL    HW236063   1.252   1.769   5.292  1.2873 -0.0479 -2.5262
 8201SOL     OW36064   1.696   2.685   2.365  0.1757  0.3046  0.5216
 8201SOL    HW136065   1.721   2.682   2.273 -2.4043  1.2125 -0.2246
 8201SOL    HW236066   1.671   2.778   2.369 -2.3281 -0.2000 -4.3048
 8202SOL     OW36067   4.527   2.026   3.171  0.5269  0.2082  0.0936
 8202SOL    HW136068   4.593   1.974   3.125 -0.5467 -2.1476  1.2397
 8202SOL    HW236069   4.484   2.073   3.100 -4.6095 -1.3529  2.1673
 8203SOL     OW36070   0.875   3.630   1.078 -0.6118 -0.3009 -0.3366
 8203SOL    HW136071   0.899   3.563   1.142  0.7441  1.2399  0.7746
 8203SOL    HW236072   0.810   3.678   1.130  0.2116  0.5681 -0.1170
 8204SOL     OW36073   1.984   3.152   7.685  0.0421 -0.4482 -0.1799
 8204SOL    HW136074   1.930   3.085   7.644  0.7280 -1.3734  0.4488
 8204SOL    HW236075   1.946   3.146   7.773  0.8549  0.8047  0.2668
 8205SOL     OW36076   2.768   3.732   4.348  0.0264 -0.5857 -0.8357
 8205SOL    HW136077   2.731   3.684   4.274 -1.4586 -0.1326 -0.3883
 8205SOL    HW236078   2.687   3.759   4.391  1.8341  2.9051  0.3056
 8206SOL     OW36079   2.262   4.513   0.823 -0.4594 -0.1852  0.3628
 8206SOL    HW136080   2.199   4.454   0.866 -0.5188 -1.1986 -1.0828
 8206SOL    HW236081   2.342   4.462   0.814 -0.1252  0.6261 -1.3066
 8207SOL     OW36082   3.497   0.830  12.496  0.4100 -0.1103  0.6202
 8207SOL    HW136083   3.446   0.839  12.415  1.9407 -0.4399 -0.3838
 8207SOL    HW236084   3.481   0.917  12.533 -2.4943  0.6806 -2.4677
 8208SOL     OW36085   1.909   1.494   1.218 -0.2625  0.2705  0.3804
 8208SOL    HW136086   1.858   1.454   1.148  0.0735  1.9058 -0.8049
 8208SOL    HW236087   1.910   1.425   1.285 -0.7024 -1.4755 -1.4269
 8209SOL     OW36088   2.863   1.210  12.948 -0.0118  0.0424 -0.0630
 8209SOL    HW136089   2.860   1.305  12.954  0.1685 -0.0050  0.7282
 8209SOL    HW236090   2.930   1.205  12.880  0.1258 -1.8288  0.1942
 8210SOL     OW36091   1.291   4.634   3.831 -0.5558  0.2271 -0.8270
 8210SOL    HW136092   1.247   4.695   3.890 -0.2862  0.6782 -1.0903
 8210SOL    HW236093   1.378   4.623   3.870 -1.1552  0.8321  0.7046
 8211SOL     OW36094   2.196   1.050   0.380  0.2128 -0.6220  0.4673
 8211SOL    HW136095   2.234   0.963   0.367  0.5238 -0.2799 -1.0465
 8211SOL    HW236096   2.248   1.101   0.318 -0.8540 -0.8707 -0.6331
 8212SOL     OW36097   0.561   3.249   3.225  0.0933  0.0248 -0.1293
 8212SOL    HW136098   0.639   3.252   3.280 -0.3900 -0.7831  0.5807
 8212SOL    HW236099   0.515   3.326   3.259  1.4720  0.1850  1.3324
 8213SOL     OW36100   2.629   2.206   8.581 -0.2309 -0.3665  0.2880
 8213SOL    HW136101   2.671   2.161   8.654  5.4818  1.2432 -1.9927
 8213SOL    HW236102   2.539   2.175   8.586 -0.9479  1.4604 -1.3117
 8214SOL     OW36103   3.917   4.199   8.952  0.5581 -0.0299  0.7211
 8214SOL    HW136104   3.969   4.191   8.872  0.7633 -2.4417  1.1138
 8214SOL    HW236105   3.828   4.218   8.923  1.2078 -0.5963 -1.6148
 8215SOL     OW36106   2.539   1.782   8.355 -0.2605 -0.7499 -0.3309
 8215SOL    HW136107   2.571   1.706   8.403  0.3261  0.4466  1.1862
 8215SOL    HW236108   2.450   1.796   8.388  0.1982  2.9329 -0.5859
 8216SOL     OW36109   0.536   0.752   2.601  0.4617  0.4456  0.5493
 8216SOL    HW136110   0.624   0.727   2.630  0.0956  0.6647  1.8418
 8216SOL    HW236111   0.481   0.689   2.649 -0.1372  1.1909  0.8385
 8217SOL     OW36112   3.492   0.054   8.504  0.1682  0.0208  0.1899
 8217SOL    HW136113   3.583   0.055   8.533  0.0886  2.1376  0.3652
 8217SOL    HW236114   3.498   0.089   8.415 -0.6254  1.7459  0.8015
 8218SOL     OW36115   2.385   0.685   3.307 -0.3745  0.0337  0.0621
 8218SOL    HW136116   2.367   0.607   3.360 -0.5004 -0.2139 -0.3484
 8218SOL    HW236117   2.335   0.669   3.227  0.6036  3.0704 -1.1531
 8219SOL     OW36118   2.749   0.404   7.134 -0.1907  0.0369  0.1858
 8219SOL    HW136119   2.720   0.349   7.061  0.6531  0.9423 -0.8246
 8219SOL    HW236120   2.752   0.486   7.085  2.1729  0.7233  1.5138
 8220SOL     OW36121   0.332   1.517   6.105  0.3779 -0.0119  0.2053
 8220SOL    HW136122   0.343   1.428   6.073 -0.4562 -0.8409  2.2524
 8220SOL    HW236123   0.377   1.505   6.188  1.6117 -3.4978 -0.9816
 8221SOL     OW36124   3.012   2.555   3.646 -0.0239  0.2998 -0.0070
 8221SOL    HW136125   2.954   2.481   3.629 -1.7027  1.2729  1.4782
 8221SOL    HW236126   3.094   2.508   3.657  0.4456  1.4722  1.4784
 8222SOL     OW36127   4.490   4.158   5.858  0.1198  0.8369  0.1564
 8222SOL    HW136128   4.581   4.187   5.852  0.3848 -0.4716 -2.0847
 8222SOL    HW236129   4.486   4.182   5.951  0.3975  1.2687  0.0593
 8223SOL     OW36130   3.975   2.779  12.762 -0.0274 -0.4824  0.1950
 8223SOL    HW136131   3.901   2.739  12.809  0.1033  0.1234  0.9039
 8223SOL    HW236132   4.027   2.701  12.748  1.4191  0.3043  1.2593
 8224SOL     OW36133   2.895   1.144   8.287  0.0770 -0.3089 -0.4155
 8224SOL    HW136134   2.936   1.104   8.210 -0.3135  0.9897 -1.2947
 8224SOL    HW236135   2.937   1.104   8.363 -1.1070 -0.0331  0.3900
 8225SOL     OW36136   2.292   1.865   1.210 -0.0395  0.6289  0.1410
 8225SOL    HW136137   2.277   1.958   1.225 -1.2197  0.1419  1.9685
 8225SOL    HW236138   2.240   1.831   1.282 -2.0050  1.1224 -1.0589
 8226SOL     OW36139   3.806   4.374   6.173  0.3761 -0.0443  0.3331
 8226SOL    HW136140   3.830   4.419   6.092 -1.0592 -1.8150 -1.0482
 8226SOL    HW236141   3.713   4.359   6.156  0.2233 -0.5202  1.5802
 8227SOL     OW36142   4.258   1.064  11.515 -0.0636  0.1167  0.0730
 8227SOL    HW136143   4.230   0.973  11.503  1.0255 -0.0083 -1.6049
 8227SOL    HW236144   4.344   1.067  11.473 -0.1129 -0.2181 -0.0555
 8228SOL     OW36145   2.299   0.689   8.236  0.2049  0.7894 -0.2785
 8228SOL    HW136146   2.393   0.677   8.249  0.1483  2.1687  1.2975
 8228SOL    HW236147   2.258   0.639   8.306  2.0314 -0.5827 -0.1881
 8229SOL     OW36148   2.514   3.687   4.771 -0.3995 -0.2252  0.2243
 8229SOL    HW136149   2.442   3.627   4.749  1.6257 -2.6414  0.1413
 8229SOL    HW236150   2.495   3.757   4.708 -0.7094 -1.9217 -1.5753
 8230SOL     OW36151   3.620   4.574  15.011  0.4926 -0.1515 -0.4978
 8230SOL    HW136152   3.557   4.619  14.955  2.0866 -0.0533 -2.2264
 8230SOL    HW236153   3.600   4.482  14.989  0.7350  0.3725 -2.9719
 8231SOL     OW36154   2.046   0.395  16.028  0.5967 -0.0060 -0.5828
 8231SOL    HW136155   2.027   0.475  15.979 -0.6086 -0.6418 -1.1562
 8231SOL    HW236156   1.979   0.336  15.994 -0.0162  0.5135 -0.2612
 8232SOL     OW36157   2.745   4.251  14.521  0.0640 -0.2346 -0.4947
 8232SOL    HW136158   2.689   4.312  14.569  0.1258 -1.7337  1.4888
 8232SOL    HW236159   2.818   4.307  14.494 -0.9933  0.3479 -2.0936
 8233SOL     OW36160   1.260   2.171  11.514  0.1811  0.6704  0.2677
 8233SOL    HW136161   1.279   2.211  11.598  3.1674  2.9153 -1.4564
 8233SOL    HW236162   1.177   2.215  11.496  1.0496  1.8027 -0.9413
 8234SOL     OW36163   0.931   3.721   6.671 -0.0648 -0.3121  0.6677
 8234SOL    HW136164   0.973   3.637   6.686 -1.0290 -0.6769  1.3594
 8234SOL    HW236165   0.975   3.744   6.589 -0.7452  0.2222  0.4471
 8235SOL     OW36166   2.817   2.822   8.187  0.0545  0.1128  0.0954
 8235SOL    HW136167   2.742   2.852   8.238 -0.3695  1.2146 -1.1972
 8235SOL    HW236168   2.887   2.856   8.242 -0.1450 -1.4455  1.3323
 8236SOL     OW36169   0.195   3.322   8.893 -0.4369 -0.5775 -0.7944
 8236SOL    HW136170   0.243   3.344   8.973  0.2709 -0.7838 -1.1630
 8236SOL    HW236171   0.108   3.350   8.920  0.5166 -0.7610  2.5200
 8237SOL     OW36172   2.839   2.640   3.225 -0.4058 -0.1182  0.2765
 8237SOL    HW136173   2.749   2.670   3.231 -0.5825 -0.5082 -0.3590
 8237SOL    HW236174   2.823   2.547   3.235 -1.1528  0.2787  2.6409
 8238SOL     OW36175   2.067   0.548   9.793 -0.0685 -0.2379 -0.1208
 8238SOL    HW136176   2.032   0.566   9.880  0.2290 -3.0331  0.5862
 8238SOL    HW236177   1.989   0.575   9.744 -1.8858 -1.9830  1.8330
 8239SOL     OW36178   2.346   3.142   6.699 -0.4093 -0.5715  0.1779
 8239SOL    HW136179   2.372   3.226   6.660 -1.4377 -0.0924  0.5493
 8239SOL    HW236180   2.418   3.112   6.755  0.4435 -1.2365 -1.2448
 8240SOL     OW36181   4.177   0.207   6.659  0.2244 -0.5343  0.3377
 8240SOL    HW136182   4.161   0.114   6.647 -0.9346  0.1254 -3.1153
 8240SOL    HW236183   4.156   0.214   6.752  2.5097  2.9663  0.6014
 8241SOL     OW36184   2.623   4.185  10.141 -0.5033 -0.0084  0.4738
 8241SOL    HW136185   2.638   4.115  10.206 -1.6869  0.0437  0.7985
 8241SOL    HW236186   2.528   4.179  10.150 -0.4388 -0.3938  0.9562
 8242SOL     OW36187   4.272   0.985   6.395  0.1326  0.2450 -0.2980
 8242SOL    HW136188   4.332   1.012   6.326 -1.0455 -1.8179 -2.0992
 8242SOL    HW236189   4.201   0.941   6.350  1.8068 -0.3982 -2.3018
 8243SOL     OW36190   1.804   2.865   5.932 -0.3691  0.3680 -0.9033
 8243SOL    HW136191   1.828   2.826   5.848  1.7947 -1.6394  0.6531
 8243SOL    HW236192   1.869   2.829   5.992 -0.4676  1.1438 -0.3258
 8244SOL     OW36193   0.747   1.236  12.556  0.1191 -0.2911  0.0715
 8244SOL    HW136194   0.745   1.304  12.489 -1.4603  0.1300  0.5565
 8244SOL    HW236195   0.680   1.270  12.616 -0.7166  1.7149 -1.9823
 8245SOL     OW36196   3.344   3.936  13.998 -0.0244  0.6010 -0.0159
 8245SOL    HW136197   3.425   3.901  13.961  0.2573  2.1402 -0.8675
 8245SOL    HW236198   3.281   3.867  13.980  0.7182  0.1391 -0.8387
 8246SOL     OW36199   3.922   1.841   5.276 -1.0698 -0.2076  0.2494
 8246SOL    HW136200   3.984   1.900   5.318  0.3707 -0.3130 -1.7397
 8246SOL    HW236201   3.963   1.834   5.190 -0.7627  1.4909  0.2476
 8247SOL     OW36202   3.597   1.138   6.541  0.2819 -0.0029  0.1866
 8247SOL    HW136203   3.659   1.212   6.540 -2.1396  1.9660 -1.7320
 8247SOL    HW236204   3.557   1.143   6.455 -0.7925 -0.8009  0.6483
 8248SOL     OW36205   1.502   0.252   8.891  0.3535 -0.4240  0.9857
 8248SOL    HW136206   1.488   0.227   8.982  0.6168  0.4613  1.2648
 8248SOL    HW236207   1.427   0.307   8.867  0.8019  0.4691  1.6416
 8249SOL     OW36208   4.438   2.669   3.286 -0.2199 -0.1187  0.2972
 8249SOL    HW136209   4.367   2.619   3.326 -0.8555  0.8816  0.4253
 8249SOL    HW236210   4.393   2.752   3.266 -3.4909 -2.4707 -2.1461
 8250SOL     OW36211   2.654   3.929   3.376 -0.0686  0.1157 -0.3742
 8250SOL    HW136212   2.736   3.941   3.327 -0.2943 -0.1427 -0.8207
 8250SOL    HW236213   2.597   3.909   3.302 -0.6484  2.7476 -0.6481
 8251SOL     OW36214   3.347   3.594   2.972 -0.3778 -0.4203  0.0612
 8251SOL    HW136215   3.380   3.511   2.938 -2.7415 -0.6386 -1.7144
 8251SOL    HW236216   3.293   3.556   3.042 -0.8615  1.5415  0.7647
 8252SOL     OW36217   1.550   0.867   3.743 -0.0434  0.2748  0.5409
 8252SOL    HW136218   1.488   0.835   3.678  0.0566 -0.2947  0.7303
 8252SOL    HW236219   1.499   0.883   3.823 -1.2889  2.1529 -0.6388
 8253SOL     OW36220   0.304   1.286  11.202 -0.2868  0.3526 -0.3455
 8253SOL    HW136221   0.240   1.357  11.210 -0.2991  0.4319 -1.1103
 8253SOL    HW236222   0.383   1.340  11.197 -0.7556  1.0074 -0.7891
 8254SOL     OW36223   0.997   0.589  10.351 -0.1036  0.1231  0.4203
 8254SOL    HW136224   0.985   0.572  10.444  2.1555  2.3181  1.1319
 8254SOL    HW236225   0.941   0.522  10.313 -2.0301  2.2382 -0.5108
 8255SOL     OW36226   2.574   4.560   6.645  0.3976  0.0324 -0.4271
 8255SOL    HW136227   2.485   4.545   6.676  0.2362  1.4602 -0.2273
 8255SOL    HW236228   2.564   4.569   6.550 -1.7374 -0.2636 -0.2291
 8256SOL     OW36229   3.377   4.523   6.774  0.0452  0.6063 -0.3835
 8256SOL    HW136230   3.436   4.456   6.808  0.1157  1.2980  0.8298
 8256SOL    HW236231   3.413   4.605   6.808 -0.5784  1.7258 -2.4210
 8257SOL     OW36232   0.221   2.848  16.084 -0.2584 -0.1906 -0.1144
 8257SOL    HW136233   0.133   2.823  16.112 -0.3166  0.7992  0.5753
 8257SOL    HW236234   0.276   2.794  16.142 -1.0500 -0.5126  0.3273
 8258SOL     OW36235   3.388   1.137   4.804 -0.0034  0.1834  0.0216
 8258SOL    HW136236   3.351   1.070   4.862 -1.7224 -0.2528 -1.5801
 8258SOL    HW236237   3.470   1.153   4.852  0.1813 -1.4346  0.2581
 8259SOL     OW36238   0.871   2.284   7.869  0.3422  0.6245  0.8219
 8259SOL    HW136239   0.920   2.345   7.923 -0.9199  1.6951  0.7404
 8259SOL    HW236240   0.845   2.222   7.938 -0.6304 -0.1790 -0.2618
 8260SOL     OW36241   2.424   0.261   7.368  0.9438  0.4627  0.0691
 8260SOL    HW136242   2.372   0.284   7.445 -0.3829  2.2917 -1.3508
 8260SOL    HW236243   2.455   0.347   7.341 -0.0970  0.5397 -0.8835
 8261SOL     OW36244   0.361   3.328   0.289 -0.8353  0.2166 -0.6904
 8261SOL    HW136245   0.338   3.264   0.356 -2.6677  0.8608 -0.6999
 8261SOL    HW236246   0.455   3.342   0.302 -0.8156 -0.1461 -0.4267
 8262SOL     OW36247   0.146   2.026  14.191  0.1349 -0.2693 -0.1109
 8262SOL    HW136248   0.149   1.938  14.153 -1.8117 -0.0001 -0.9302
 8262SOL    HW236249   0.083   2.010  14.262  0.1068 -2.1536 -0.5530
 8263SOL     OW36250   0.032   0.634   6.401  0.6510  0.0643 -0.0286
 8263SOL    HW136251   0.031   0.541   6.377 -0.7047  1.1083 -3.9367
 8263SOL    HW236252   0.125   0.655   6.411  0.0440  1.7866  1.9558
 8264SOL     OW36253   0.710   3.113  14.927  0.0855  0.1715  0.0607
 8264SOL    HW136254   0.770   3.111  14.852 -0.4505  1.2113 -0.4069
 8264SOL    HW236255   0.763   3.170  14.983  1.2465  0.8822 -1.7348
 8265SOL     OW36256   2.562   2.583   7.320 -0.2390  0.5406  0.2006
 8265SOL    HW136257   2.499   2.548   7.383 -1.6856  2.5187 -0.1327
 8265SOL    HW236258   2.615   2.644   7.372  1.5458 -0.0616 -0.9216
 8266SOL     OW36259   4.447   4.409  11.342  0.8971 -0.5661  0.5819
 8266SOL    HW136260   4.531   4.452  11.350  2.2882 -2.7021 -2.4738
 8266SOL    HW236261   4.415   4.450  11.261 -0.1246  1.2135  1.8789
 8267SOL     OW36262   4.258   2.179  11.695 -0.1793 -0.0562  0.1578
 8267SOL    HW136263   4.335   2.208  11.743 -0.9479  1.6965  0.3580
 8267SOL    HW236264   4.285   2.164  11.604 -1.7596 -0.2896 -0.2901
 8268SOL     OW36265   1.974   2.342   2.415  0.7491 -0.2050 -0.2237
 8268SOL    HW136266   1.885   2.313   2.436 -0.0348  2.6318  0.4017
 8268SOL    HW236267   2.018   2.317   2.496 -0.3285  1.8804  1.0200
 8269SOL     OW36268   2.084   0.345  14.145 -0.3801  0.1511 -0.1892
 8269SOL    HW136269   2.023   0.365  14.217  1.8619  0.4126  1.6327
 8269SOL    HW236270   2.144   0.293  14.198  1.3239  1.5451 -0.7680
 8270SOL     OW36271   2.689   0.271   7.795  0.9854 -1.0580 -0.1421
 8270SOL    HW136272   2.738   0.190   7.781 -1.2488 -2.1499 -1.7630
 8270SOL    HW236273   2.599   0.239   7.791  1.4466 -1.9486 -3.2263
 8271SOL     OW36274   4.235   1.609   9.210  0.0651  0.2475 -0.4383
 8271SOL    HW136275   4.328   1.596   9.227  0.0360 -0.4466 -0.8017
 8271SOL    HW236276   4.226   1.564   9.126  3.0900 -2.3469  0.6211
 8272SOL     OW36277   1.013   0.234   8.528  0.6172  0.2538  0.1416
 8272SOL    HW136278   0.946   0.283   8.481 -1.0247 -2.2656 -0.1346
 8272SOL    HW236279   1.051   0.297   8.589  1.2942  1.2992 -1.3488
 8273SOL     OW36280   1.432   2.495   4.583  0.5963  1.0827  1.0772
 8273SOL    HW136281   1.509   2.453   4.546 -1.3133  1.4288 -3.2645
 8273SOL    HW236282   1.436   2.448   4.666  3.5034  0.5807  0.6325
 8274SOL     OW36283   1.835   3.453   9.546  0.4705  0.2282 -0.3728
 8274SOL    HW136284   1.871   3.529   9.593 -0.9896  0.2581  0.7397
 8274SOL    HW236285   1.769   3.428   9.611  1.3237  2.1802  1.2630
 8275SOL     OW36286   1.216   2.117  11.887  0.7486 -0.6167  0.4881
 8275SOL    HW136287   1.298   2.068  11.893  0.8169 -0.9468 -3.0554
 8275SOL    HW236288   1.246   2.191  11.834  2.2132  0.0716  2.2859
 8276SOL     OW36289   1.156   2.668  12.888 -0.0272 -0.1398 -0.3340
 8276SOL    HW136290   1.241   2.664  12.843 -0.1878  0.5638 -0.7028
 8276SOL    HW236291   1.105   2.611  12.830  0.0054 -0.2302 -0.2726
 8277SOL     OW36292   0.471   0.434   7.431 -0.0330 -0.5973 -0.1391
 8277SOL    HW136293   0.439   0.523   7.422  0.9851 -0.0711  1.5731
 8277SOL    HW236294   0.550   0.441   7.377 -0.2600 -1.5408 -0.5992
 8278SOL     OW36295   2.104   2.163   1.251  0.3168  0.0738  0.1484
 8278SOL    HW136296   2.018   2.190   1.217  1.5877  1.8914 -1.6102
 8278SOL    HW236297   2.105   2.221   1.327  2.3121 -0.3110  0.4089
 8279SOL     OW36298   0.844   2.074   8.048 -0.3959  0.3726  0.2450
 8279SOL    HW136299   0.779   2.011   8.018 -0.9251  0.4706  1.1597
 8279SOL    HW236300   0.808   2.093   8.135 -0.0391  0.0078  0.4702
 8280SOL     OW36301   0.929   0.063   6.804  0.3363  0.4678 -0.0203
 8280SOL    HW136302   1.018   0.088   6.830 -0.0397  0.8078  0.9206
 8280SOL    HW236303   0.919   0.130   6.736  0.4427  2.2025  1.6730
 8281SOL     OW36304   4.634   0.817  10.355 -0.4889  0.1090  0.4554
 8281SOL    HW136305   4.654   0.723  10.354  0.7036  0.3871 -1.1183
 8281SOL    HW236306   4.558   0.809  10.413  0.3236  2.4916  1.8758
 8282SOL     OW36307   3.471   1.438   5.991 -0.1304 -0.1550  0.3875
 8282SOL    HW136308   3.497   1.477   6.075 -0.7557 -1.6301  1.2666
 8282SOL    HW236309   3.540   1.477   5.938 -0.0980 -0.3789  0.2672
 8283SOL     OW36310   0.360   1.020   7.803 -0.4053  0.2458 -0.0301
 8283SOL    HW136311   0.393   1.033   7.891  0.5112 -1.7626 -0.0901
 8283SOL    HW236312   0.307   1.100   7.791  0.7709  1.1875  1.0565
 8284SOL     OW36313   4.696   3.848  10.509  0.2149  0.1973 -0.5050
 8284SOL    HW136314   0.020   3.805  10.580  1.1794  0.0910 -1.2353
 8284SOL    HW236315   0.002   3.936  10.530  0.5158 -0.2353  0.8886
 8285SOL     OW36316   1.183   4.058   4.300  0.2879  0.0891 -0.2325
 8285SOL    HW136317   1.279   4.054   4.303  0.1706 -0.4619  3.1225
 8285SOL    HW236318   1.168   4.132   4.359 -1.4204 -1.0186  0.7182
 8286SOL     OW36319   4.241   1.563   7.628 -0.0731 -0.0896  0.5292
 8286SOL    HW136320   4.284   1.638   7.669  0.3167 -1.6576  2.9888
 8286SOL    HW236321   4.150   1.571   7.658 -0.9410  0.5073 -2.2340
 8287SOL     OW36322   3.198   4.627   7.801 -0.3418  0.6262 -0.3767
 8287SOL    HW136323   3.168   4.718   7.805 -0.4713  0.4888  1.7052
 8287SOL    HW236324   3.280   4.628   7.752  0.5018 -2.2977  1.0419
 8288SOL     OW36325   2.727   0.845   6.523 -0.0646  0.1590  0.6416
 8288SOL    HW136326   2.633   0.858   6.531 -0.4456 -1.9982 -0.5116
 8288SOL    HW236327   2.762   0.933   6.538  2.3697 -1.0475  2.0113
 8289SOL     OW36328   3.337   4.515   6.467  0.8121 -0.5730  0.4964
 8289SOL    HW136329   3.297   4.602   6.464 -0.7237 -1.4229 -3.4126
 8289SOL    HW236330   3.356   4.513   6.561 -1.7203 -1.5692  0.9820
 8290SOL     OW36331   4.336   0.446   1.649 -0.7415 -0.1283  0.2388
 8290SOL    HW136332   4.307   0.537   1.648 -1.0207 -0.1955  2.0932
 8290SOL    HW236333   4.390   0.427   1.572 -0.9229 -0.6550  0.2433
 8291SOL     OW36334   1.042   1.141   6.768  0.6685 -0.1314  0.6295
 8291SOL    HW136335   1.107   1.131   6.838  0.3446  1.1363  1.1146
 8291SOL    HW236336   1.019   1.050   6.750  0.6890 -0.0941  0.4160
 8292SOL     OW36337   0.405   3.147   6.242 -0.0521  0.1340  0.2088
 8292SOL    HW136338   0.473   3.141   6.310 -0.9145 -2.1909  0.8524
 8292SOL    HW236339   0.418   3.238   6.215  0.4714  0.4934  1.6493
 8293SOL     OW36340   4.003   4.419   4.964 -0.1376  0.1039 -0.0235
 8293SOL    HW136341   4.056   4.353   5.010  0.9946  0.4340 -0.8390
 8293SOL    HW236342   4.064   4.442   4.894  0.2702  0.6931  0.5177
 8294SOL     OW36343   2.309   3.144   9.648  0.6013 -0.8588 -0.1443
 8294SOL    HW136344   2.228   3.191   9.628  1.0702 -0.8692 -2.0319
 8294SOL    HW236345   2.292   3.077   9.581 -0.3767  0.5486 -1.2981
 8295SOL     OW36346   4.214   2.453   3.119  0.2957  0.0161  0.1714
 8295SOL    HW136347   4.175   2.536   3.094  1.2542  0.7832  1.2398
 8295SOL    HW236348   4.142   2.418   3.173  1.5937 -0.2107  1.7479
 8296SOL     OW36349   1.088   2.273   6.139 -0.1269  0.0025 -0.3162
 8296SOL    HW136350   1.011   2.223   6.166  0.4772 -0.6838  0.1619
 8296SOL    HW236351   1.108   2.329   6.214 -0.7001  0.5708 -0.5970
 8297SOL     OW36352   0.390   0.759  14.343  0.0708  0.3223 -0.1214
 8297SOL    HW136353   0.328   0.831  14.330 -0.2611  0.5771  2.8518
 8297SOL    HW236354   0.469   0.812  14.354  0.8684 -1.2081  1.4155
 8298SOL     OW36355   0.926   0.797   0.633  0.1919  0.2974  0.3170
 8298SOL    HW136356   0.994   0.826   0.692 -0.3211 -2.6676  2.3271
 8298SOL    HW236357   0.954   0.846   0.555  2.2772 -0.9593  0.2900
 8299SOL     OW36358   1.333   3.000   4.834  0.3861 -0.2751  0.0413
 8299SOL    HW136359   1.298   3.041   4.913 -0.6557  0.5187 -0.8216
 8299SOL    HW236360   1.266   2.932   4.837  0.7310 -0.6527 -0.7159
 8300SOL     OW36361   1.631   1.218   5.084  0.1273 -0.9357  0.1347
 8300SOL    HW136362   1.644   1.211   4.989 -1.1870 -2.3489  0.0639
 8300SOL    HW236363   1.660   1.131   5.111 -0.1383 -1.4202 -1.1356
 8301SOL     OW36364   2.447   0.984   9.013 -0.2359  0.5048  0.0669
 8301SOL    HW136365   2.451   1.073   9.048  0.7470  1.6826 -3.0102
 8301SOL    HW236366   2.364   0.997   8.966 -1.0088 -0.5870  1.1601
 8302SOL     OW36367   2.903   2.387  15.750 -0.2507  0.1900 -0.3805
 8302SOL    HW136368   2.869   2.303  15.781 -0.0114 -0.2196 -1.2350
 8302SOL    HW236369   2.996   2.382  15.773 -1.1795 -1.4765  2.9960
 8303SOL     OW36370   1.601   3.516  13.855  0.1089  0.1537  0.1070
 8303SOL    HW136371   1.664   3.588  13.852  0.4081 -0.0578  1.1817
 8303SOL    HW236372   1.537   3.553  13.916 -0.9189 -1.4060 -0.0159
 8304SOL     OW36373   1.494   2.994   0.734 -0.4217  0.2026 -0.2258
 8304SOL    HW136374   1.502   3.003   0.829 -0.7657  1.8809 -0.3423
 8304SOL    HW236375   1.399   2.997   0.723  0.0701 -0.2269 -4.6643
 8305SOL     OW36376   0.246   1.967   5.440  0.4065  0.0789 -0.1767
 8305SOL    HW136377   0.283   2.043   5.486  1.7565 -1.5421  1.4334
 8305SOL    HW236378   0.259   1.990   5.348 -0.2283 -3.6207 -1.1859
 8306SOL     OW36379   3.581   2.007   5.269  0.1449  0.5619 -0.6064
 8306SOL    HW136380   3.640   2.081   5.285  0.2705  0.2996  0.1373
 8306SOL    HW236381   3.595   1.991   5.176  3.3598 -3.0918  0.4880
 8307SOL     OW36382   3.742   2.901   2.680  0.1029  0.2604  0.3541
 8307SOL    HW136383   3.663   2.856   2.710  0.9266 -1.2067  0.3189
 8307SOL    HW236384   3.795   2.822   2.676  0.4308  0.3245  3.2474
 8308SOL     OW36385   1.013   1.645   5.596 -0.4176 -0.0349 -0.3409
 8308SOL    HW136386   0.946   1.671   5.660  1.1274 -1.1738  1.7306
 8308SOL    HW236387   1.005   1.727   5.547  0.2873  0.1151 -0.1953
 8309SOL     OW36388   0.239   3.819   3.993  0.3356  0.7389 -0.4867
 8309SOL    HW136389   0.291   3.740   3.978 -0.4540 -0.0378  0.8896
 8309SOL    HW236390   0.221   3.829   4.087  1.8964 -4.6022  0.3677
 8310SOL     OW36391   0.601   2.426   8.640  0.1890 -0.0143 -0.2302
 8310SOL    HW136392   0.541   2.496   8.613 -0.8562 -0.5130  0.7741
 8310SOL    HW236393   0.628   2.456   8.727 -2.5973  1.0634  0.2799
 8311SOL     OW36394   0.892   0.037   4.882  0.0126 -0.2962 -0.6261
 8311SOL    HW136395   0.984   0.033   4.855  0.5263 -1.3173  1.2906
 8311SOL    HW236396   0.904   0.067   4.972  0.3536 -0.7666 -0.5135
 8312SOL     OW36397   4.369   1.086  17.199  0.2996  0.4600  0.6335
 8312SOL    HW136398   4.292   1.110  17.148  0.3274 -2.8597 -0.9935
 8312SOL    HW236399   4.350   1.135  17.279  0.3756  1.6141 -0.0460
 8313SOL     OW36400   1.722   4.671   4.377  0.4264  0.1566  0.2915
 8313SOL    HW136401   1.754   4.641   4.292 -1.2921 -0.4921 -0.1255
 8313SOL    HW236402   1.788   0.008   4.409  0.7361  1.0345 -2.0348
 8314SOL     OW36403   0.003   2.245   8.715  0.6518  0.6129  0.1904
 8314SOL    HW136404   4.710   2.251   8.809 -0.7136  0.5439 -0.0576
 8314SOL    HW236405   0.084   2.296   8.710  0.6618  0.5484 -0.2781
 8315SOL     OW36406   1.699   1.538   7.350  1.0640  0.0095 -0.3378
 8315SOL    HW136407   1.676   1.484   7.425 -0.4990 -0.7692 -1.3724
 8315SOL    HW236408   1.732   1.470   7.290  2.7717 -0.3978  1.0531
 8316SOL     OW36409   1.742   1.021   3.846  0.1050 -0.7253 -0.1829
 8316SOL    HW136410   1.819   0.969   3.869 -0.8128 -0.6858  2.9468
 8316SOL    HW236411   1.695   0.958   3.791 -1.2458 -0.3272  0.5264
 8317SOL     OW36412   0.524   3.869   4.249 -0.1936 -0.3881 -0.3821
 8317SOL    HW136413   0.588   3.916   4.196  0.2687  0.3597  0.8370
 8317SOL    HW236414   0.547   3.779   4.224 -3.2001 -1.5006  0.8445
 8318SOL     OW36415   0.449   0.090  10.565 -0.1340 -0.2122 -0.2718
 8318SOL    HW136416   0.365   0.075  10.521  1.0688 -0.3998 -2.5156
 8318SOL    HW236417   0.453   0.186  10.575  1.2984 -0.0432 -2.5148
 8319SOL     OW36418   0.802   2.091   0.576 -0.0733  0.7247  0.0637
 8319SOL    HW136419   0.745   2.016   0.556  1.1439 -0.0831 -0.3419
 8319SOL    HW236420   0.885   2.049   0.553 -0.3908 -0.0995  0.4161
 8320SOL     OW36421   1.510   4.127   9.336  0.0506 -0.2664  0.0105
 8320SOL    HW136422   1.446   4.197   9.326 -0.0089 -0.3649 -0.2755
 8320SOL    HW236423   1.485   4.074   9.261  0.1340 -0.2294 -0.0438
 8321SOL     OW36424   4.147   1.580   2.405  0.2211  0.1091 -0.0755
 8321SOL    HW136425   4.120   1.502   2.454  1.6162 -0.2541  0.1306
 8321SOL    HW236426   4.142   1.548   2.315  1.5577 -0.7542  0.1524
 8322SOL     OW36427   2.500   4.425   0.773  0.2984  0.5579 -0.6328
 8322SOL    HW136428   2.536   4.448   0.687 -0.0823  0.3013 -0.8632
 8322SOL    HW236429   2.532   4.336   0.783 -0.2235  0.2685 -1.4736
 8323SOL     OW36430   4.671   1.799   7.522 -0.3964  1.1323  0.1735
 8323SOL    HW136431   0.035   1.830   7.502  0.0370 -0.1383  0.1120
 8323SOL    HW236432   4.689   1.789   7.616  1.7116  3.5727  0.0316
 8324SOL     OW36433   3.202   2.834   4.943 -0.0404 -0.0044  0.2169
 8324SOL    HW136434   3.296   2.845   4.960 -0.0391 -0.4363  0.4822
 8324SOL    HW236435   3.202   2.750   4.898 -0.7865 -0.7692  1.6390
 8325SOL     OW36436   4.247   2.196   6.207  0.9787 -0.3977  0.0484
 8325SOL    HW136437   4.295   2.156   6.134 -0.6776 -1.4934 -0.4431
 8325SOL    HW236438   4.171   2.141   6.186  0.7151 -0.5938  1.4813
 8326SOL     OW36439   0.187   2.981   0.624 -0.5714  0.1304 -0.4316
 8326SOL    HW136440   0.200   2.929   0.704 -0.7148  2.9908  1.4268
 8326SOL    HW236441   0.155   2.924   0.554  0.6485  0.0473 -0.9379
 8327SOL     OW36442   0.553   1.278  14.526 -0.4815 -0.1527 -0.2838
 8327SOL    HW136443   0.623   1.314  14.580 -1.7401 -1.1151  1.9880
 8327SOL    HW236444   0.599   1.202  14.490 -2.6461 -1.0406 -1.1615
 8328SOL     OW36445   1.423   2.697   4.919  0.2636  0.0850 -0.3817
 8328SOL    HW136446   1.434   2.619   4.972  2.9641  1.1591  0.6212
 8328SOL    HW236447   1.342   2.742   4.945  1.4494  2.7481 -1.2690
 8329SOL     OW36448   0.758   3.269   2.290  0.1686  0.4683 -0.0427
 8329SOL    HW136449   0.730   3.305   2.206  2.0563  0.6554 -0.5878
 8329SOL    HW236450   0.803   3.346   2.324 -2.1979  1.5741  0.5416
 8330SOL     OW36451   1.107   1.833   1.769 -0.2121  0.4275 -0.0763
 8330SOL    HW136452   1.126   1.888   1.845  2.2779 -2.3367  1.2828
 8330SOL    HW236453   1.046   1.887   1.719  0.6673 -0.2746 -1.9255
 8331SOL     OW36454   1.208   1.995   1.947 -0.0315  0.0708 -0.4942
 8331SOL    HW136455   1.266   1.956   2.013 -0.6093  1.2692  0.7227
 8331SOL    HW236456   1.203   2.086   1.977  0.2107 -0.3191  0.7322
 8332SOL     OW36457   4.059   4.428  15.822 -0.1184  0.1443  0.7716
 8332SOL    HW136458   4.104   4.344  15.833 -1.4655 -0.9338 -2.0027
 8332SOL    HW236459   4.128   4.484  15.857  1.6153 -2.6309  1.8256
 8333SOL     OW36460   4.092   2.335   6.395 -0.4164  0.0392  0.1682
 8333SOL    HW136461   4.156   2.354   6.463 -0.1131 -0.9601  0.1517
 8333SOL    HW236462   4.143   2.310   6.319  0.3734 -0.1917  0.7764
 8334SOL     OW36463   0.257   0.912  12.411  0.1609  0.0436 -0.0697
 8334SOL    HW136464   0.349   0.937  12.405 -0.0885  0.6994 -1.2768
 8334SOL    HW236465   0.258   0.870  12.324 -1.0644 -1.7035  0.7611
 8335SOL     OW36466   3.093   1.659   4.885  0.3316 -0.0065 -0.2983
 8335SOL    HW136467   3.118   1.566   4.887 -1.3665 -0.4195  2.0302
 8335SOL    HW236468   3.059   1.669   4.973 -1.7872  2.4068 -1.3811
 8336SOL     OW36469   3.502   0.486   2.860  0.1867  0.6328  0.0848
 8336SOL    HW136470   3.534   0.396   2.860 -1.3511  0.0902 -0.0015
 8336SOL    HW236471   3.474   0.494   2.952 -3.0943 -1.3581 -0.7614
 8337SOL     OW36472   4.269   0.046   0.699 -0.4429 -0.6991 -0.5596
 8337SOL    HW136473   4.192   0.083   0.657 -0.9795  1.8533  2.6388
 8337SOL    HW236474   4.290   4.700   0.638 -1.3090  0.4363 -2.1446
 8338SOL     OW36475   3.110   1.816  15.374 -0.5056  0.0055  0.2478
 8338SOL    HW136476   3.088   1.865  15.453  0.5654  0.2023  0.4273
 8338SOL    HW236477   3.170   1.877  15.330  0.1363  0.1687  1.3463
 8339SOL     OW36478   0.406   3.456  13.929  0.0609 -0.7675  0.1642
 8339SOL    HW136479   0.405   3.508  14.009 -2.0633  3.6817 -2.7239
 8339SOL    HW236480   0.313   3.460  13.910 -0.2374 -2.5179  1.3150
 8340SOL     OW36481   3.280   2.400   4.159  0.4661 -0.1485  0.0986
 8340SOL    HW136482   3.299   2.456   4.235 -0.5524  1.1531 -0.5986
 8340SOL    HW236483   3.190   2.377   4.182 -0.4760  2.4925 -0.9155
 8341SOL     OW36484   2.317   2.157   5.737 -0.1000 -0.5740 -0.4999
 8341SOL    HW136485   2.338   2.244   5.771 -0.5413 -0.7089  0.1326
 8341SOL    HW236486   2.331   2.106   5.817 -0.1590  0.5113  0.2057
 8342SOL     OW36487   2.919   3.414   0.186  0.6255 -0.0097  0.2895
 8342SOL    HW136488   2.909   3.383   0.276 -0.2557  0.0097  0.1984
 8342SOL    HW236489   2.986   3.354   0.156  0.8482  1.0416 -1.3005
 8343SOL     OW36490   3.031   4.030   8.569 -0.4769 -0.0525 -0.1928
 8343SOL    HW136491   3.083   4.065   8.642 -1.3144  1.7852 -0.4703
 8343SOL    HW236492   2.959   4.093   8.567 -1.1762 -0.8797 -1.0047
 8344SOL     OW36493   0.624   3.924   6.056  0.8319  0.3247  0.3931
 8344SOL    HW136494   0.544   3.966   6.022  1.4472  0.9292 -0.2918
 8344SOL    HW236495   0.685   3.920   5.983  0.6255 -0.4396  0.2599
 8345SOL     OW36496   0.399   3.311  15.718  0.7503 -0.2450  0.2654
 8345SOL    HW136497   0.402   3.285  15.626 -1.2490 -1.3006  0.4833
 8345SOL    HW236498   0.307   3.286  15.726  0.3825  1.6391  2.0953
 8346SOL     OW36499   0.723   2.900   3.901  0.2373 -0.3341 -0.0362
 8346SOL    HW136500   0.636   2.921   3.867 -0.2819 -0.9756  0.8964
 8346SOL    HW236501   0.703   2.839   3.972 -1.1396  0.2248  0.0540
 8347SOL     OW36502   1.812   0.288   9.236 -0.5970 -0.5581 -0.0283
 8347SOL    HW136503   1.862   0.361   9.200  0.2110 -0.4061  1.4010
 8347SOL    HW236504   1.836   0.298   9.329 -2.4762 -2.9722  0.7216
 8348SOL     OW36505   2.772   3.313   9.334  0.2775  0.5805 -0.4165
 8348SOL    HW136506   2.819   3.345   9.257  1.9313 -1.5919 -0.2907
 8348SOL    HW236507   2.723   3.394   9.346  0.1414  0.2200  1.3922
 8349SOL     OW36508   2.848   2.717   4.074  0.3885  0.0619  0.5807
 8349SOL    HW136509   2.928   2.679   4.038  1.1469  1.0595  1.2074
 8349SOL    HW236510   2.844   2.668   4.156  0.7747 -2.9953 -1.2136
 8350SOL     OW36511   1.264   1.452   3.020  0.1238 -0.0951  0.3350
 8350SOL    HW136512   1.181   1.419   2.986 -0.1299  1.8723 -0.9408
 8350SOL    HW236513   1.292   1.511   2.950 -2.9055  0.4029 -0.4588
 8351SOL     OW36514   1.797   1.923  10.997  0.1633 -0.4047 -0.7075
 8351SOL    HW136515   1.751   1.982  10.937  0.9404  0.4119 -0.5111
 8351SOL    HW236516   1.739   1.847  11.004  1.6105 -1.6586 -2.1118
 8352SOL     OW36517   0.496   3.948  11.016 -0.4832  0.0194  0.1920
 8352SOL    HW136518   0.547   4.010  11.068 -0.9030 -0.2198  0.8748
 8352SOL    HW236519   0.436   3.908  11.079 -0.3065 -1.5453 -0.6138
 8353SOL     OW36520   0.986   1.740   9.418 -0.1289  0.8880  0.0809
 8353SOL    HW136521   0.948   1.655   9.397  1.9437  0.4536 -1.8756
 8353SOL    HW236522   1.081   1.728   9.422  0.1760  3.0136 -0.3659
 8354SOL     OW36523   2.984   0.247  10.925  0.7064 -0.0554  0.1981
 8354SOL    HW136524   3.079   0.239  10.924  0.4805 -2.8748 -0.1989
 8354SOL    HW236525   2.958   0.258  10.833  1.2096 -0.5453 -0.0014
 8355SOL     OW36526   2.932   2.158   4.502  0.5399  0.1724  0.0730
 8355SOL    HW136527   2.970   2.132   4.586  0.0570 -1.4295 -0.2145
 8355SOL    HW236528   2.896   2.079   4.464  1.5312 -0.2001 -0.0901
 8356SOL     OW36529   1.289   3.608   3.569  0.1905  0.5009 -0.2013
 8356SOL    HW136530   1.271   3.683   3.626 -0.3480 -0.3039  0.6803
 8356SOL    HW236531   1.204   3.600   3.526 -1.2726  2.5361  2.2978
 8357SOL     OW36532   1.059   3.276   6.491  0.3781 -0.1455 -0.1151
 8357SOL    HW136533   0.990   3.242   6.548  0.4508 -2.0460 -1.1355
 8357SOL    HW236534   1.125   3.206   6.494 -3.9388 -4.1271  1.5319
 8358SOL     OW36535   4.717   1.346   2.277  1.0016 -0.8622  0.1871
 8358SOL    HW136536   4.714   1.442   2.270 -1.8858 -0.9426  0.3745
 8358SOL    HW236537   0.012   1.315   2.189 -2.4358 -1.1914 -0.4278
 8359SOL     OW36538   2.070   4.179   4.633  0.0462  0.0677 -0.0395
 8359SOL    HW136539   2.161   4.156   4.612 -0.4235 -2.9557  1.1766
 8359SOL    HW236540   2.056   4.252   4.573  0.4468 -0.6494 -1.0067
 8360SOL     OW36541   3.558   1.356  16.212 -0.3686  0.2735  0.0331
 8360SOL    HW136542   3.496   1.380  16.281 -0.0105 -0.3254  0.5622
 8360SOL    HW236543   3.642   1.391  16.242 -1.2550  3.0803 -0.7399
 8361SOL     OW36544   3.037   1.896   5.996 -0.8368 -1.1099 -0.0585
 8361SOL    HW136545   3.108   1.859   6.049 -1.7183  2.1101  3.4159
 8361SOL    HW236546   3.029   1.822   5.937 -0.6472 -0.1769 -1.2648
 8362SOL     OW36547   3.693   0.900   6.335  0.1947  0.5675  0.2575
 8362SOL    HW136548   3.650   0.939   6.259  1.6704  0.7818 -0.4604
 8362SOL    HW236549   3.643   0.933   6.410 -0.9089  0.7028 -0.5512
 8363SOL     OW36550   2.120   3.501   3.999  0.4569  0.1419 -0.0931
 8363SOL    HW136551   2.041   3.554   3.997  0.7730  0.5294 -2.1555
 8363SOL    HW236552   2.183   3.572   4.009  0.1058  0.6123 -1.2561
 8364SOL     OW36553   2.789   1.029   3.116 -0.0436 -0.4766  0.1389
 8364SOL    HW136554   2.802   0.944   3.157  0.1189 -0.7664 -0.5017
 8364SOL    HW236555   2.751   0.997   3.034  0.0305  0.4393 -0.2620
 8365SOL     OW36556   2.473   4.175   7.209  0.1726  0.3548 -0.5740
 8365SOL    HW136557   2.501   4.215   7.127  3.0696  0.7934  0.6106
 8365SOL    HW236558   2.559   4.185   7.251  1.5219  2.0722 -3.7470
 8366SOL     OW36559   1.314   2.391   3.394 -0.1635  0.0788  0.5182
 8366SOL    HW136560   1.378   2.323   3.370  0.3786 -0.2091  2.7586
 8366SOL    HW236561   1.371   2.446   3.447 -0.0907  0.5679 -0.0719
 8367SOL     OW36562   2.660   2.480  14.458 -0.0284  0.1040 -0.3500
 8367SOL    HW136563   2.565   2.477  14.453 -0.0668  0.1885  0.3264
 8367SOL    HW236564   2.670   2.445  14.370  0.7071 -0.6840  0.0462
 8368SOL     OW36565   4.663   0.147   2.769  0.6449  0.0759  0.2895
 8368SOL    HW136566   4.594   0.141   2.703  0.6311 -2.7519  0.5339
 8368SOL    HW236567   4.620   0.165   2.853  0.7584  0.5075  0.2545
 8369SOL     OW36568   4.140   3.801   3.418  0.1014  0.0957  0.1348
 8369SOL    HW136569   4.093   3.752   3.350 -0.4510 -2.0081  2.0715
 8369SOL    HW236570   4.183   3.869   3.366  0.6410 -1.0486 -0.9212
 8370SOL     OW36571   1.312   4.320  10.584 -0.3912 -0.0244 -0.3947
 8370SOL    HW136572   1.293   4.353  10.496  0.5548 -3.4646 -1.8749
 8370SOL    HW236573   1.332   4.228  10.570 -0.2786  0.2700 -2.1491
 8371SOL     OW36574   0.688   0.986   8.187  0.0322  0.1744 -0.7095
 8371SOL    HW136575   0.647   0.900   8.193  3.5937 -1.3620  1.2478
 8371SOL    HW236576   0.732   0.981   8.272 -1.4452 -0.2975  0.0376
 8372SOL     OW36577   2.014   0.276  16.829 -0.1838  0.5002 -0.1991
 8372SOL    HW136578   2.054   0.193  16.855 -0.3100  0.1835 -1.0186
 8372SOL    HW236579   1.988   0.315  16.913 -1.1185 -0.7987  0.1161
 8373SOL     OW36580   0.308   0.038  11.037 -0.0817 -0.0712 -0.3194
 8373SOL    HW136581   0.277   4.718  10.958 -0.8816 -3.0591  1.6715
 8373SOL    HW236582   0.227   0.079  11.068 -0.4080 -0.0073 -1.2634
 8374SOL     OW36583   1.591   1.962   6.213  0.0069  0.1904  0.1197
 8374SOL    HW136584   1.635   1.917   6.285  0.7280  0.9454  0.1467
 8374SOL    HW236585   1.502   1.932   6.230  0.3193 -2.2594 -2.6401
 8375SOL     OW36586   3.714   2.964   5.483  0.2350  0.0474  0.3425
 8375SOL    HW136587   3.654   3.034   5.458 -1.0082 -0.7706  1.0108
 8375SOL    HW236588   3.787   3.016   5.516 -1.4365  3.6832 -1.7250
 8376SOL     OW36589   0.846   0.503  12.973  0.2726 -0.6513 -0.0272
 8376SOL    HW136590   0.840   0.408  12.969  0.6304 -0.7094  0.7977
 8376SOL    HW236591   0.773   0.526  13.030 -0.7764 -0.1430 -1.5780
 8377SOL     OW36592   0.471   3.618   2.765 -0.4152 -0.4082 -0.1445
 8377SOL    HW136593   0.433   3.630   2.853 -1.1461  0.6878 -0.6174
 8377SOL    HW236594   0.416   3.686   2.726  0.2471  0.2152  0.0096
 8378SOL     OW36595   1.456   0.118   9.210  0.1028 -0.2182  1.1297
 8378SOL    HW136596   1.446   0.065   9.289  0.4623 -4.7038 -1.8202
 8378SOL    HW236597   1.549   0.107   9.192  0.0739  1.6962 -0.1978
 8379SOL     OW36598   3.950   3.254   2.541 -0.0025  0.6162 -0.3309
 8379SOL    HW136599   3.860   3.247   2.509 -0.5720 -1.2635  1.7747
 8379SOL    HW236600   3.934   3.292   2.627 -1.4002  0.9294 -0.7208
 8380SOL     OW36601   2.314   1.652  15.245 -0.6054  0.2949  0.0444
 8380SOL    HW136602   2.357   1.580  15.199  0.6428  1.2421 -0.2678
 8380SOL    HW236603   2.383   1.703  15.287  0.2293  1.5808 -2.9019
 8381SOL     OW36604   1.796   3.267  16.544  0.1792  0.3326  0.4710
 8381SOL    HW136605   1.851   3.203  16.497  0.8706  2.3132 -1.3898
 8381SOL    HW236606   1.723   3.272  16.482 -0.2655 -2.7781  0.7156
 8382SOL     OW36607   0.160   1.638  11.070 -0.1696 -0.5501 -0.2700
 8382SOL    HW136608   0.120   1.574  11.130  0.4217  0.1861  0.9096
 8382SOL    HW236609   0.249   1.657  11.100 -0.0031 -0.2220 -0.9796
 8383SOL     OW36610   2.935   1.100  10.073  0.0303  0.7487 -0.2763
 8383SOL    HW136611   2.954   1.184  10.031 -1.3012  1.9144  1.4605
 8383SOL    HW236612   3.020   1.076  10.110  0.2299  2.0133  0.0816
 8384SOL     OW36613   2.443   3.677  10.938 -0.6300 -0.6349  0.0631
 8384SOL    HW136614   2.402   3.654  10.855  0.6460  3.9521 -1.8943
 8384SOL    HW236615   2.431   3.598  10.990  2.5857 -0.5033  1.0130
 8385SOL     OW36616   2.089   3.064   8.752  0.2118  0.3923 -0.4905
 8385SOL    HW136617   2.137   3.016   8.685  0.3268  0.7712 -0.6769
 8385SOL    HW236618   2.143   3.034   8.825  1.5376  2.8206 -0.5104
 8386SOL     OW36619   1.722   0.500   8.638 -0.0849  0.2669 -0.1024
 8386SOL    HW136620   1.665   0.547   8.577  0.4107  0.0795 -0.7071
 8386SOL    HW236621   1.806   0.514   8.594  0.1434  0.7265  0.4949
 8387SOL     OW36622   1.305   1.945   6.475  0.3787 -0.2751 -0.5924
 8387SOL    HW136623   1.284   1.976   6.387 -0.6912 -1.3485 -0.7079
 8387SOL    HW236624   1.237   1.977   6.535  0.1341 -2.0052  0.0615
 8388SOL     OW36625   1.070   1.748   9.048  0.1964 -0.2038 -1.2645
 8388SOL    HW136626   1.023   1.666   9.034 -1.5902  0.3067  1.6799
 8388SOL    HW236627   1.160   1.715   9.049 -0.2583 -1.4237  0.0889
 8389SOL     OW36628   1.567   3.338  12.471  0.1154 -0.3080  0.1452
 8389SOL    HW136629   1.513   3.405  12.513 -1.6745 -0.4377 -1.9493
 8389SOL    HW236630   1.506   3.309  12.402  0.1897 -2.5947  1.0617
 8390SOL     OW36631   3.551   0.584   3.180  0.3081 -0.9082  1.1694
 8390SOL    HW136632   3.500   0.591   3.261 -1.2122 -1.0981  0.2217
 8390SOL    HW236633   3.637   0.580   3.222 -0.3963  2.8115  3.0277
 8391SOL     OW36634   2.219   0.225   6.457  0.4627  0.4793 -0.4738
 8391SOL    HW136635   2.199   0.314   6.426  0.2666  1.2612  1.9068
 8391SOL    HW236636   2.256   0.195   6.374  0.4136  0.3659 -0.4544
 8392SOL     OW36637   0.291   2.444   6.589 -0.0959 -0.6115  0.4357
 8392SOL    HW136638   0.309   2.445   6.495  0.9315 -1.8913  0.6174
 8392SOL    HW236639   0.375   2.474   6.622 -0.5198 -0.6577  1.5921
 8393SOL     OW36640   0.963   3.362  10.611  0.2517  0.2989 -0.2475
 8393SOL    HW136641   0.895   3.300  10.583  1.8097 -3.0017  3.3343
 8393SOL    HW236642   0.953   3.415  10.532  0.6095  0.7697  0.0274
 8394SOL     OW36643   0.194   0.156   1.707 -0.5853  0.1049  0.2657
 8394SOL    HW136644   0.214   0.161   1.801  0.2192 -3.1319  0.2550
 8394SOL    HW236645   0.119   0.097   1.706 -0.9956  0.6513 -2.1777
 8395SOL     OW36646   1.501   0.248   8.589 -0.0503 -0.1765  0.2797
 8395SOL    HW136647   1.484   0.225   8.680  3.0262  0.5194  1.0160
 8395SOL    HW236648   1.503   0.342   8.603  1.4979 -0.5130  2.3238
 8396SOL     OW36649   1.521   0.190   4.436  0.0884  0.6282  0.2909
 8396SOL    HW136650   1.454   0.259   4.440 -0.2422  0.3293 -0.1137
 8396SOL    HW236651   1.528   0.185   4.532 -1.9092  1.9232  0.5198
 8397SOL     OW36652   0.468   3.762  15.817 -0.5315  0.9417  0.0207
 8397SOL    HW136653   0.373   3.773  15.815 -0.6495 -0.1122 -0.0177
 8397SOL    HW236654   0.473   3.670  15.842 -0.5877  1.5446  2.3343
 8398SOL     OW36655   1.600   0.159   2.582 -0.3931  0.8596  0.4034
 8398SOL    HW136656   1.594   0.097   2.509 -0.3117  0.1054  1.0432
 8398SOL    HW236657   1.626   0.092   2.645 -0.8914  1.7989  1.5921
 8399SOL     OW36658   4.236   0.747  12.847 -0.2342 -0.2593  0.0402
 8399SOL    HW136659   4.297   0.821  12.842  0.7377 -0.8478  2.7877
 8399SOL    HW236660   4.192   0.763  12.931 -0.2355 -2.3341  0.4426
 8400SOL     OW36661   1.538   3.443   8.428 -0.1422 -0.6605  0.6228
 8400SOL    HW136662   1.453   3.473   8.460 -0.0679 -3.0120  3.1131
 8400SOL    HW236663   1.523   3.412   8.339  1.8378  1.5760 -0.4905
 8401SOL     OW36664   2.824   2.927  15.064  0.2598  0.2212 -0.1146
 8401SOL    HW136665   2.779   2.851  15.100  1.1107 -0.6091 -0.7654
 8401SOL    HW236666   2.746   2.972  15.034  0.2545 -1.5087 -2.6847
 8402SOL     OW36667   2.924   3.960   3.304  0.0736 -0.9368  0.0852
 8402SOL    HW136668   3.007   4.006   3.299 -0.0246 -0.8211 -0.4446
 8402SOL    HW236669   2.930   3.909   3.223  0.1570 -0.4269 -0.2254
 8403SOL     OW36670   2.877   0.880  16.027 -0.0262 -0.4493 -0.7247
 8403SOL    HW136671   2.853   0.873  16.120 -0.2378 -1.7371 -0.8842
 8403SOL    HW236672   2.860   0.971  16.001  1.8701  0.5592  1.5325
 8404SOL     OW36673   2.749   4.314  17.267 -0.3013  0.0786 -0.7807
 8404SOL    HW136674   2.792   4.295  17.183 -2.0049 -3.0352 -0.9686
 8404SOL    HW236675   2.753   4.221  17.290  1.7150  0.5990  0.9104
 8405SOL     OW36676   0.344   2.089   7.915  0.1787  0.2476  0.2905
 8405SOL    HW136677   0.402   2.104   7.990 -0.0254 -1.1088  0.7081
 8405SOL    HW236678   0.373   2.003   7.886 -1.7000  0.1898 -1.4578
 8406SOL     OW36679   1.848   0.571   1.497  0.3781  0.0578  0.3096
 8406SOL    HW136680   1.762   0.608   1.476 -0.8602 -1.6857  2.2868
 8406SOL    HW236681   1.873   0.542   1.409 -1.5148 -0.0054 -0.2203
 8407SOL     OW36682   0.559   4.137   5.792  0.0564 -0.8546 -0.2582
 8407SOL    HW136683   0.498   4.106   5.858  0.3665 -0.1125  0.3733
 8407SOL    HW236684   0.629   4.075   5.811  1.4688  0.9192  0.3366
 8408SOL     OW36685   3.962   1.594   7.493 -0.2838  0.0050  0.0113
 8408SOL    HW136686   3.908   1.542   7.553 -1.0424 -1.5799 -2.0394
 8408SOL    HW236687   4.002   1.528   7.436 -1.8044 -0.9415  0.0427
 8409SOL     OW36688   0.823   4.450   0.665 -0.1173 -0.1416  0.3267
 8409SOL    HW136689   0.798   4.541   0.682 -0.0834 -0.0446 -0.1357
 8409SOL    HW236690   0.898   4.444   0.724 -1.4421  0.3638  2.0784
 8410SOL     OW36691   2.617   2.131   7.268  0.5685 -0.4178  0.1835
 8410SOL    HW136692   2.578   2.169   7.346  0.0383  1.0374 -0.8001
 8410SOL    HW236693   2.688   2.081   7.309  1.7537  1.3955  0.3349
 8411SOL     OW36694   2.360   3.207  16.423  0.1889  0.1387 -0.2845
 8411SOL    HW136695   2.306   3.132  16.401  1.5037 -0.5917 -1.0165
 8411SOL    HW236696   2.304   3.251  16.487 -0.3867  0.1675 -0.8197
 8412SOL     OW36697   1.378   3.809  10.625  0.5253 -0.1320 -0.2991
 8412SOL    HW136698   1.312   3.841  10.687  2.3804  1.3692  0.9065
 8412SOL    HW236699   1.453   3.785  10.680 -0.4345  0.4989  1.2800
 8413SOL     OW36700   2.165   0.350   1.274 -0.3175  1.1056  0.8159
 8413SOL    HW136701   2.087   0.305   1.306 -0.0625  0.1109  0.0713
 8413SOL    HW236702   2.211   0.368   1.355 -1.8675  0.0343  1.9412
 8414SOL     OW36703   2.101   0.890   2.915  0.0945 -0.1918  0.2359
 8414SOL    HW136704   2.041   0.945   2.866 -0.3652 -1.7202 -0.8828
 8414SOL    HW236705   2.119   0.939   2.996 -0.5654  1.5034 -0.6485
 8415SOL     OW36706   3.794   3.893   1.397  0.2891 -0.1068 -0.2327
 8415SOL    HW136707   3.804   3.821   1.335  1.4286 -1.2872  1.3236
 8415SOL    HW236708   3.698   3.897   1.396  0.2363 -2.0663 -1.2782
 8416SOL     OW36709   4.684   2.995   0.418 -0.1512 -0.0797 -0.7033
 8416SOL    HW136710   4.643   2.952   0.493  1.9180  0.2121  0.5838
 8416SOL    HW236711   4.611   2.994   0.355  0.4016 -2.4477 -1.2999
 8417SOL     OW36712   1.879   1.417   7.897  0.2652  0.0374 -0.0890
 8417SOL    HW136713   1.852   1.358   7.968  0.4421  0.4859  0.3567
 8417SOL    HW236714   1.970   1.442   7.918 -0.2882  1.1606  1.0073
 8418SOL     OW36715   1.286   1.644   7.780  0.0669 -0.2548 -0.3019
 8418SOL    HW136716   1.198   1.641   7.743 -0.2216 -2.1629  0.5456
 8418SOL    HW236717   1.338   1.628   7.702  0.8644  0.0652  0.1593
 8419SOL     OW36718   1.481   2.909   9.596  0.3747  0.3666 -0.2855
 8419SOL    HW136719   1.498   2.899   9.689 -0.2032  0.4796 -0.1665
 8419SOL    HW236720   1.388   2.932   9.597  0.0297 -0.9584 -1.3659
 8420SOL     OW36721   1.505   1.788   0.384  0.3548  1.0214  0.2156
 8420SOL    HW136722   1.430   1.734   0.411  1.6811 -0.4762  0.8560
 8420SOL    HW236723   1.485   1.868   0.433  0.5265  1.6002 -0.6647
 8421SOL     OW36724   3.527   1.047   3.394 -0.2668 -0.1045  0.0491
 8421SOL    HW136725   3.583   1.114   3.356 -0.4330  0.4779  0.8226
 8421SOL    HW236726   3.439   1.076   3.367  1.3010  3.1412 -1.6000
 8422SOL     OW36727   2.861   3.028   6.026 -0.2942  0.2460  0.2190
 8422SOL    HW136728   2.848   3.106   5.972  0.8781  1.3737  1.5377
 8422SOL    HW236729   2.789   2.980   5.987 -0.5363 -0.5654  1.6576
 8423SOL     OW36730   2.627   3.727  15.277  0.1812  0.0297 -0.0331
 8423SOL    HW136731   2.570   3.666  15.323 -1.0617  0.7849 -0.5860
 8423SOL    HW236732   2.554   3.758  15.223  0.7391 -0.2242 -0.9276
 8424SOL     OW36733   3.266   2.504   8.675 -0.2671  0.2206  0.3971
 8424SOL    HW136734   3.246   2.592   8.708  0.1123  0.9001 -1.1636
 8424SOL    HW236735   3.361   2.509   8.665 -0.3554  1.0663 -0.0638
 8425SOL     OW36736   1.532   4.550  10.036  0.5875 -0.1645 -0.3987
 8425SOL    HW136737   1.501   4.560  10.126  0.5654  0.0258 -0.4275
 8425SOL    HW236738   1.524   4.639  10.001  0.5629  0.2038  0.5666
 8426SOL     OW36739   2.883   2.379  14.250  1.1859  0.2677 -0.2087
 8426SOL    HW136740   2.964   2.328  14.259  1.4792  0.7025 -0.4148
 8426SOL    HW236741   2.912   2.452  14.305  1.6254  0.7444 -1.0749
 8427SOL     OW36742   3.999   2.274   2.061  0.4702 -0.4783  0.2271
 8427SOL    HW136743   3.931   2.272   1.994  0.8903 -0.7150 -0.1903
 8427SOL    HW236744   4.064   2.321   2.008 -0.4960  1.1883  0.5338
 8428SOL     OW36745   2.178   1.462   6.932 -0.0022  0.1008  0.2037
 8428SOL    HW136746   2.128   1.505   7.001  3.5359  2.4428  1.3571
 8428SOL    HW236747   2.112   1.476   6.864  2.0673  1.7671 -1.4782
 8429SOL     OW36748   2.105   2.899   9.327  0.0255 -0.3924  0.5261
 8429SOL    HW136749   2.178   2.961   9.323 -1.4553  1.5481  3.6682
 8429SOL    HW236750   2.066   2.920   9.412  0.8974 -2.0290  1.3220
 8430SOL     OW36751   2.818   1.971  11.619  0.5214 -0.1732 -0.3069
 8430SOL    HW136752   2.739   1.959  11.566  0.3040 -0.5106  0.0892
 8430SOL    HW236753   2.873   1.893  11.615 -0.0694 -0.5481 -1.1423
 8431SOL     OW36754   1.513   3.918  16.163  0.5837 -0.0969 -0.7057
 8431SOL    HW136755   1.468   3.978  16.223  0.1968 -1.1224  0.0352
 8431SOL    HW236756   1.588   3.961  16.122 -0.3895 -1.1095 -3.5467
 8432SOL     OW36757   1.796   3.763   4.402 -0.3657  0.1048 -0.4888
 8432SOL    HW136758   1.853   3.840   4.402  1.6801 -1.3988  1.7913
 8432SOL    HW236759   1.728   3.799   4.459 -0.8152 -1.1361 -0.2305
 8433SOL     OW36760   3.958   3.719   5.941 -0.1228 -0.0639  0.8213
 8433SOL    HW136761   3.923   3.720   6.030  0.9847 -0.4294  1.2656
 8433SOL    HW236762   3.971   3.627   5.919 -1.9730  0.3931 -2.1760
 8434SOL     OW36763   0.193   2.674   6.808  0.3656  0.2201 -0.6794
 8434SOL    HW136764   0.204   2.604   6.872 -0.1753 -1.1185 -2.0508
 8434SOL    HW236765   0.104   2.706   6.825  1.0225  1.2549  0.8512
 8435SOL     OW36766   3.086   2.337   1.801 -0.0680 -0.3201  0.2323
 8435SOL    HW136767   3.101   2.432   1.797 -0.4080 -0.1609  2.7181
 8435SOL    HW236768   3.011   2.331   1.742  1.6521  0.4544 -2.0003
 8436SOL     OW36769   3.503   1.963   1.607  0.1834 -0.5867  0.4203
 8436SOL    HW136770   3.547   1.891   1.654  1.4677 -1.6500 -2.4225
 8436SOL    HW236771   3.575   2.024   1.593  1.8410 -2.3589  1.0648
 8437SOL     OW36772   3.314   2.041   8.417 -0.2032 -0.6065  0.5744
 8437SOL    HW136773   3.288   2.102   8.348  2.0480 -1.4012 -0.9821
 8437SOL    HW236774   3.381   2.095   8.458 -0.0429 -0.8244  0.6016
 8438SOL     OW36775   3.995   4.694  17.011 -0.4411  0.8806 -0.2650
 8438SOL    HW136776   4.034   4.705  16.925 -0.0183 -0.8620 -0.2958
 8438SOL    HW236777   3.953   4.607  17.008  2.0249 -0.3273  0.6150
 8439SOL     OW36778   1.180   3.238  15.387  0.1487 -0.0689 -0.5530
 8439SOL    HW136779   1.168   3.312  15.447  0.7309  0.7378 -1.4468
 8439SOL    HW236780   1.222   3.289  15.319 -0.9183  1.0262 -0.3977
 8440SOL     OW36781   3.034   4.500   6.882 -0.2511 -0.5471  0.1297
 8440SOL    HW136782   3.118   4.470   6.848 -0.8915 -1.4655 -0.6364
 8440SOL    HW236783   2.976   4.499   6.806  0.9071 -2.0137 -0.7404
 8441SOL     OW36784   4.326   4.454   6.554 -0.3817  0.5248  0.0237
 8441SOL    HW136785   4.280   4.373   6.532  2.7010 -1.5713  1.3788
 8441SOL    HW236786   4.372   4.437   6.636 -0.6748  1.9017  0.4743
 8442SOL     OW36787   4.613   1.623   7.296 -0.0567  0.3614  0.1496
 8442SOL    HW136788   4.656   1.687   7.353  1.6782 -0.5723 -0.1169
 8442SOL    HW236789   4.568   1.573   7.364 -1.1486  0.6860 -0.3333
 8443SOL     OW36790   1.264   0.313   1.293 -0.0771  0.3778 -0.1237
 8443SOL    HW136791   1.205   0.248   1.256 -0.7756  0.8070  0.2335
 8443SOL    HW236792   1.195   0.361   1.339  0.0374  1.5401 -1.1461
 8444SOL     OW36793   3.314   1.593   1.366 -0.2904  0.3440 -0.5534
 8444SOL    HW136794   3.392   1.584   1.311 -0.9078 -0.4608 -1.2830
 8444SOL    HW236795   3.258   1.579   1.289  1.4517  0.6761 -1.8818
 8445SOL     OW36796   1.426   1.925   5.945  0.4130  0.8421  0.2713
 8445SOL    HW136797   1.495   1.915   6.011 -1.0010 -0.9618  1.4839
 8445SOL    HW236798   1.459   1.865   5.878 -0.5831 -1.0570  1.4902
 8446SOL     OW36799   2.810   2.399   3.951  0.2398  0.2356 -0.2462
 8446SOL    HW136800   2.832   2.367   3.863 -1.5692 -1.4025 -0.0738
 8446SOL    HW236801   2.884   2.458   3.968 -0.0190  0.6641 -0.5943
 8447SOL     OW36802   0.247   3.655  10.399 -0.3448 -0.2121  0.0276
 8447SOL    HW136803   0.302   3.587  10.358 -0.9910 -1.1849  0.7940
 8447SOL    HW236804   0.210   3.676  10.313 -2.6929  0.0004  1.0926
 8448SOL     OW36805   0.992   1.619  17.451  0.6596 -0.3492  0.3619
 8448SOL    HW136806   0.938   1.684  17.494  0.4888 -0.3839  0.2019
 8448SOL    HW236807   0.957   1.618  17.362  1.7100  0.1354 -0.0586
 8449SOL     OW36808   3.671   3.820   0.283  0.1812  0.9427 -0.1949
 8449SOL    HW136809   3.643   3.884   0.348 -0.8888  1.0079 -0.7271
 8449SOL    HW236810   3.728   3.871   0.225  1.3216  2.0748  1.9135
 8450SOL     OW36811   1.894   0.876   2.247 -0.6468  0.3801  0.1240
 8450SOL    HW136812   1.844   0.842   2.321  1.9177 -1.3202  1.0776
 8450SOL    HW236813   1.890   0.811   2.177 -0.9736  1.8852 -1.2744
 8451SOL     OW36814   4.149   3.403  12.106 -0.1654  0.3110 -0.3456
 8451SOL    HW136815   4.218   3.454  12.146 -1.8018  1.9120  0.4216
 8451SOL    HW236816   4.075   3.420  12.164  0.3409  0.1367  0.3500
 8452SOL     OW36817   3.459   0.753   5.727  0.2055 -0.3585 -0.6224
 8452SOL    HW136818   3.537   0.767   5.674  0.4652 -1.6211 -0.5672
 8452SOL    HW236819   3.503   0.715   5.803  0.7620  1.1282 -0.2035
 8453SOL     OW36820   2.329   1.748   7.555  0.0847  0.2750  0.4496
 8453SOL    HW136821   2.357   1.716   7.641  0.5252  0.9976  0.5757
 8453SOL    HW236822   2.269   1.683   7.518  0.0852  1.0589 -0.9329
 8454SOL     OW36823   1.658   0.634   8.985  0.5296  0.3681  0.1365
 8454SOL    HW136824   1.664   0.539   8.972 -3.5941  0.3350 -1.5736
 8454SOL    HW236825   1.752   0.656   8.983  0.8505 -0.9635  0.5051
 8455SOL     OW36826   1.238   0.506   5.620  0.0390 -0.2124  0.2593
 8455SOL    HW136827   1.234   0.584   5.675 -1.6994  1.0229 -1.6204
 8455SOL    HW236828   1.207   0.447   5.689  0.4614 -0.3549  0.3310
 8456SOL     OW36829   1.963   1.127   5.546 -0.3031 -0.1589 -0.9289
 8456SOL    HW136830   1.906   1.160   5.616  0.5754 -1.0283  0.1962
 8456SOL    HW236831   1.918   1.050   5.512  0.5109 -0.7437 -0.6934
 8457SOL     OW36832   3.283   1.611  10.205 -0.4013  0.6106 -0.2970
 8457SOL    HW136833   3.247   1.665  10.136  0.5538  1.3906 -0.1919
 8457SOL    HW236834   3.298   1.667  10.282  2.7636 -0.2202 -0.2963
 8458SOL     OW36835   3.691   4.709   6.122  0.0529 -0.4188  0.6259
 8458SOL    HW136836   3.641   0.007   6.201 -1.7549 -0.8928 -0.4016
 8458SOL    HW236837   3.744   0.063   6.106 -2.0469  1.2637  1.9735
 8459SOL     OW36838   3.983   3.467   5.803 -0.3321  0.2775  0.5187
 8459SOL    HW136839   3.980   3.399   5.870  0.7308 -0.1968  0.0907
 8459SOL    HW236840   4.078   3.462   5.787 -0.5448 -0.1595 -0.6236
 8460SOL     OW36841   3.436   4.207   8.931  0.7519  0.5196  0.3370
 8460SOL    HW136842   3.390   4.214   9.015 -0.7304  0.5833 -0.4814
 8460SOL    HW236843   3.417   4.298   8.907  1.0219  0.2470 -0.9007
 8461SOL     OW36844   0.508   3.292   8.492 -0.5381 -0.0344 -0.0937
 8461SOL    HW136845   0.545   3.336   8.568 -0.0014 -1.2147  0.3286
 8461SOL    HW236846   0.416   3.319   8.489 -0.7519 -0.9453 -1.9337
 8462SOL     OW36847   2.007   1.654   4.266 -0.5597  0.0635  0.0061
 8462SOL    HW136848   2.096   1.686   4.251 -1.3100  2.2483  0.1396
 8462SOL    HW236849   1.995   1.670   4.359  0.7857 -1.1522  0.3777
 8463SOL     OW36850   3.637   4.018   3.035  0.0801 -0.4664 -0.3689
 8463SOL    HW136851   3.631   3.940   3.090  1.9518 -1.2556 -1.2724
 8463SOL    HW236852   3.544   4.040   3.036  0.2734  0.2654  1.3736
 8464SOL     OW36853   2.497   3.469  17.261  0.0991 -0.3159 -0.3645
 8464SOL    HW136854   2.466   3.547  17.215  0.7168  0.8187  1.1424
 8464SOL    HW236855   2.529   3.515  17.338  4.2616 -2.8391 -0.5971
 8465SOL     OW36856   1.162   3.366   9.016 -0.4508  0.2586 -0.0974
 8465SOL    HW136857   1.216   3.437   9.050 -2.1125  1.1549  0.6574
 8465SOL    HW236858   1.204   3.299   9.070 -2.0360 -0.9364 -0.3361
 8466SOL     OW36859   4.473   0.567   8.540 -0.7884  0.1100  0.1656
 8466SOL    HW136860   4.485   0.543   8.448  3.6892  1.4544  0.3913
 8466SOL    HW236861   4.552   0.617   8.563 -0.0226 -1.4604  0.9559
 8467SOL     OW36862   3.781   3.294  10.546 -0.6923  0.1305 -0.4371
 8467SOL    HW136863   3.773   3.320  10.454  0.5908 -0.9873 -0.8669
 8467SOL    HW236864   3.759   3.202  10.530 -0.0621 -0.5363  2.5664
 8468SOL     OW36865   4.181   1.328   5.002  0.2147  0.6410  0.2962
 8468SOL    HW136866   4.169   1.418   4.972  1.8399  0.6506 -0.3303
 8468SOL    HW236867   4.226   1.276   4.935 -2.7905 -0.1715 -1.0591
 8469SOL     OW36868   0.530   4.405   4.491  0.6110 -0.3213  0.5817
 8469SOL    HW136869   0.542   4.420   4.397  0.9303 -1.2616  0.4803
 8469SOL    HW236870   0.458   4.343   4.484  0.2382 -0.0096  1.5323
 8470SOL     OW36871   2.228   4.698   8.440 -0.3473  0.0858  0.2679
 8470SOL    HW136872   2.252   0.063   8.466 -4.0118  0.9771  0.6302
 8470SOL    HW236873   2.134   4.685   8.453 -0.8208  3.0275 -0.0574
 8471SOL     OW36874   0.046   1.262   3.897  0.4490  1.0919 -0.2061
 8471SOL    HW136875   4.713   1.197   3.938  3.4129 -1.8659 -0.8047
 8471SOL    HW236876   0.109   1.267   3.968 -2.5798 -0.2098  2.5527
 8472SOL     OW36877   3.814   1.558   5.316 -0.3387 -0.2024 -0.0001
 8472SOL    HW136878   3.813   1.613   5.394 -0.0650 -0.7699  0.4103
 8472SOL    HW236879   3.754   1.603   5.258  0.1103  0.5266  0.0980
 8473SOL     OW36880   2.215   1.126  17.460 -0.0946 -0.2972  0.4177
 8473SOL    HW136881   2.126   1.154  17.438 -0.5915 -0.3353  2.4398
 8473SOL    HW236882   2.256   1.211  17.475  0.8351 -0.5093 -0.9225
 8474SOL     OW36883   3.489   2.386   2.767 -0.3684 -0.1755 -0.0190
 8474SOL    HW136884   3.411   2.349   2.725  0.0979  0.7711 -1.7398
 8474SOL    HW236885   3.447   2.459   2.812 -0.3387 -0.2774  0.1714
 8475SOL     OW36886   0.458   1.758   0.684  0.7046 -0.5306 -0.6950
 8475SOL    HW136887   0.375   1.768   0.639 -0.4060 -1.4893  1.1393
 8475SOL    HW236888   0.432   1.733   0.773 -0.9123 -1.0829 -1.3382
 8476SOL     OW36889   2.287   4.063  10.514  0.7074 -0.6536  0.4632
 8476SOL    HW136890   2.209   4.069  10.569  0.0386 -0.4804 -0.4999
 8476SOL    HW236891   2.284   4.152  10.479 -1.0056 -1.6887 -2.0299
 8477SOL     OW36892   2.655   2.227   0.917 -0.4326  0.0956  0.0979
 8477SOL    HW136893   2.723   2.289   0.889  0.4804 -1.4470 -1.0565
 8477SOL    HW236894   2.678   2.206   1.008 -1.1687 -1.4363 -0.0726
 8478SOL     OW36895   1.187   3.476   7.918 -0.3359 -0.2663  1.0403
 8478SOL    HW136896   1.235   3.500   7.997  1.6364  0.6327 -0.4271
 8478SOL    HW236897   1.137   3.554   7.896 -0.0308 -0.7276 -1.2878
 8479SOL     OW36898   1.844   2.789   4.586 -0.3440 -0.1422 -0.3442
 8479SOL    HW136899   1.836   2.884   4.576  1.1083 -0.2293 -2.5584
 8479SOL    HW236900   1.779   2.765   4.651  1.0990 -1.7241  0.5214
 8480SOL     OW36901   0.158   0.075   4.240 -0.2454  0.0127  0.8254
 8480SOL    HW136902   0.072   0.103   4.270 -0.1318  0.6325  0.5609
 8480SOL    HW236903   0.176   0.130   4.164  1.0495 -1.3249  0.1463
 8481SOL     OW36904   1.657   0.928   1.264  0.1737  0.0397 -0.1592
 8481SOL    HW136905   1.752   0.935   1.269  0.2515 -0.9095 -0.3669
 8481SOL    HW236906   1.652   0.853   1.205 -0.1358 -0.0875  0.0278
 8482SOL     OW36907   3.442   2.212   8.569  0.2709 -0.0080 -0.5803
 8482SOL    HW136908   3.409   2.301   8.571  1.8385  0.5475  0.6592
 8482SOL    HW236909   3.460   2.195   8.661 -0.6271 -2.8148 -0.9127
 8483SOL     OW36910   1.863   1.443   9.940  0.0098  0.7431  0.5822
 8483SOL    HW136911   1.871   1.444   9.845 -2.6829 -0.0312  0.3592
 8483SOL    HW236912   1.873   1.537   9.953 -1.2263  0.6676  1.9966
 8484SOL     OW36913   2.971   4.064  16.997 -0.0035  0.3229  0.5706
 8484SOL    HW136914   3.065   4.054  16.985 -0.2754 -1.3123 -0.2779
 8484SOL    HW236915   2.962   4.029  17.086  2.1050 -0.2002  0.5688
 8485SOL     OW36916   3.763   4.095  12.304 -0.3832 -0.7558  0.0206
 8485SOL    HW136917   3.804   4.178  12.328  1.4349 -1.4515 -0.7063
 8485SOL    HW236918   3.744   4.106  12.211 -0.5518  1.3777  0.3174
 8486SOL     OW36919   0.232   2.491  17.286 -0.0683 -0.3712  0.3633
 8486SOL    HW136920   0.315   2.450  17.309  0.2973  0.4379  0.4769
 8486SOL    HW236921   0.194   2.422  17.232 -0.6071 -1.9097  2.6824
 8487SOL     OW36922   2.351   4.341  16.798  0.7827  0.5883  0.3591
 8487SOL    HW136923   2.380   4.302  16.881 -1.2279  1.0306  1.2732
 8487SOL    HW236924   2.295   4.414  16.824 -0.2331 -1.1910  3.2060
 8488SOL     OW36925   3.024   2.313  16.296  0.0723 -0.0507  0.7499
 8488SOL    HW136926   3.100   2.366  16.271 -0.1082 -0.5821 -0.9006
 8488SOL    HW236927   2.979   2.306  16.212 -2.3470  2.3284  1.8190
 8489SOL     OW36928   3.708   2.464   8.826  0.8354  0.2489  0.2312
 8489SOL    HW136929   3.692   2.551   8.865  1.7737 -0.3209  1.8989
 8489SOL    HW236930   3.803   2.456   8.835  0.6500 -1.2057  0.8300
 8490SOL     OW36931   1.141   2.848   7.360 -0.3131  0.0863  0.4638
 8490SOL    HW136932   1.195   2.927   7.365  0.8858 -0.5482 -2.8138
 8490SOL    HW236933   1.214   2.793   7.389 -0.8697  0.5622  2.7858
 8491SOL     OW36934   1.130   0.184   7.753  0.2512  0.0647  0.1504
 8491SOL    HW136935   1.098   0.096   7.773 -2.6257  0.6623 -1.8816
 8491SOL    HW236936   1.120   0.194   7.658 -1.7659  2.2008  0.6170
 8492SOL     OW36937   0.072   1.325   8.834  0.6117 -0.8248  0.2177
 8492SOL    HW136938   0.070   1.379   8.912 -0.4080  1.2262 -1.2235
 8492SOL    HW236939   4.705   1.294   8.838  0.1513  0.3912 -0.7455
 8493SOL     OW36940   0.456   4.004   2.584 -0.1042 -0.0188 -0.0565
 8493SOL    HW136941   0.467   4.088   2.630 -1.2213  0.7043 -1.1293
 8493SOL    HW236942   0.434   4.040   2.499 -0.6562  0.3980  0.2587
 8494SOL     OW36943   1.102   4.627  14.251 -0.3097 -0.3888 -0.7529
 8494SOL    HW136944   1.072   4.697  14.310  1.2154  0.0120 -0.4549
 8494SOL    HW236945   1.121   4.685  14.178  0.8537  1.1525  0.7810
 8495SOL     OW36946   3.309   1.046  12.800 -0.5602  0.1296  0.5119
 8495SOL    HW136947   3.383   0.985  12.808 -1.2462 -1.0197 -2.0182
 8495SOL    HW236948   3.273   1.036  12.712  0.1309 -1.8291  0.4426
 8496SOL     OW36949   2.612   0.129   1.542 -0.0043  0.2793 -0.1366
 8496SOL    HW136950   2.564   0.048   1.529 -0.1716  0.6091 -1.5817
 8496SOL    HW236951   2.567   0.195   1.489  0.8443 -0.2139 -1.4742
 8497SOL     OW36952   3.985   0.407   4.283 -0.1470  0.6252  0.0269
 8497SOL    HW136953   4.060   0.451   4.323 -0.8960 -0.1913  2.3194
 8497SOL    HW236954   3.906   0.430   4.331 -0.4998  0.9901 -0.7199
 8498SOL     OW36955   0.815   0.007   8.131  0.3795  0.6084 -0.4918
 8498SOL    HW136956   0.808   0.084   8.074 -1.4467 -0.4994 -1.7695
 8498SOL    HW236957   0.898   0.024   8.176 -0.8137 -0.0844  1.9552
 8499SOL     OW36958   2.056   3.505   8.360  0.3072 -0.9488 -0.6642
 8499SOL    HW136959   2.039   3.479   8.269 -0.0866  0.5693 -1.0429
 8499SOL    HW236960   1.984   3.458   8.402 -0.1250 -1.5572 -2.0991
 8500SOL     OW36961   1.290   3.014  15.549 -0.4042 -0.3040  0.4293
 8500SOL    HW136962   1.251   3.077  15.488 -1.3784  0.1743  1.5619
 8500SOL    HW236963   1.324   3.076  15.614 -0.4576  0.9929 -0.7748
 8501SOL     OW36964   0.019   3.886   3.121 -0.5167 -0.3651 -0.0257
 8501SOL    HW136965   4.721   3.975   3.146 -1.1119 -0.5175 -0.0291
 8501SOL    HW236966   4.655   3.855   3.103 -1.5743  0.7183  3.3056
 8502SOL     OW36967   3.592   4.254   1.180  0.4647  0.0150  0.0031
 8502SOL    HW136968   3.577   4.222   1.269  0.2184  0.5634  0.1634
 8502SOL    HW236969   3.683   4.233   1.159 -0.0886 -1.5125 -0.8666
 8503SOL     OW36970   4.418   2.787   6.069 -0.3852  0.2695  0.1342
 8503SOL    HW136971   4.465   2.722   6.016  0.6576  0.0440  1.3295
 8503SOL    HW236972   4.408   2.739   6.151  0.5610  1.2014  0.7940
 8504SOL     OW36973   3.581   1.702  11.619 -0.0310 -0.0906 -0.2432
 8504SOL    HW136974   3.555   1.793  11.607 -1.2392 -0.3209  0.6904
 8504SOL    HW236975   3.660   1.708  11.673  0.0246 -1.5079 -0.1542
 8505SOL     OW36976   0.407   3.593   1.532 -0.3774 -0.0907  0.3930
 8505SOL    HW136977   0.335   3.532   1.517 -0.2538  0.1030 -0.9823
 8505SOL    HW236978   0.426   3.616   1.442  0.4163  0.0627  0.5998
 8506SOL     OW36979   1.414   1.571  14.192  0.0398  0.6944  0.1346
 8506SOL    HW136980   1.484   1.584  14.128  0.6521 -0.2843  0.6033
 8506SOL    HW236981   1.355   1.641  14.164 -1.5753 -0.3061  1.0528
 8507SOL     OW36982   4.712   2.703  16.142 -0.2986  0.5418  0.5233
 8507SOL    HW136983   4.636   2.745  16.183 -0.9387 -1.7178  1.6939
 8507SOL    HW236984   4.670   2.644  16.079  2.2573 -1.4255  0.6917
 8508SOL     OW36985   0.446   0.711   0.130 -0.0609 -0.5274 -0.3688
 8508SOL    HW136986   0.465   0.701   0.224 -1.4195  0.6225  0.0247
 8508SOL    HW236987   0.389   0.638   0.108  0.4370 -0.7744 -0.8360
 8509SOL     OW36988   0.337   1.845  12.079  0.3259  0.5114  0.7228
 8509SOL    HW136989   0.397   1.913  12.048 -0.3671  1.0498  0.5460
 8509SOL    HW236990   0.256   1.895  12.087 -0.4061 -0.5604 -0.0677
 8510SOL     OW36991   2.231   1.645   3.996  0.0818 -0.6415 -0.3380
 8510SOL    HW136992   2.275   1.729   3.980 -0.0944  0.0281  2.6526
 8510SOL    HW236993   2.295   1.600   4.052 -0.7897 -0.4665  0.7894
 8511SOL     OW36994   3.798   2.343   7.309 -0.4612 -0.3724 -0.0147
 8511SOL    HW136995   3.824   2.412   7.247  2.9713 -0.8690  0.8628
 8511SOL    HW236996   3.710   2.371   7.331 -0.5411  0.9583 -1.9288
 8512SOL     OW36997   0.472   0.904  11.935 -0.4466 -0.1417  0.0780
 8512SOL    HW136998   0.539   0.900  11.866  0.6565 -2.3313  1.2564
 8512SOL    HW236999   0.461   0.810  11.951 -0.5528 -0.4812 -1.9766
 8513SOL     OW37000   4.266   2.233   5.145 -0.2780 -0.5758 -0.0621
 8513SOL    HW137001   4.264   2.279   5.062  2.3858 -3.1870 -1.5984
 8513SOL    HW237002   4.331   2.288   5.189 -0.2717 -0.6207 -0.0136
 8514SOL     OW37003   1.474   4.626   9.748 -0.2632  0.1949  0.0498
 8514SOL    HW137004   1.456   4.611   9.655 -0.2198  1.0154 -0.0862
 8514SOL    HW237005   1.389   4.658   9.778 -0.3358  0.2581 -0.2287
 8515SOL     OW37006   3.045   1.241  12.727  0.5195  0.4088 -0.4936
 8515SOL    HW137007   3.092   1.173  12.678 -0.5157 -0.4464 -0.2941
 8515SOL    HW237008   3.119   1.287  12.767  2.5110 -1.9773 -1.4261
 8516SOL     OW37009   1.823   1.661   2.745  0.3492  0.1887 -0.0546
 8516SOL    HW137010   1.862   1.722   2.683  1.0416 -1.0154 -0.7962
 8516SOL    HW237011   1.735   1.672   2.708  0.5127  0.4819 -0.3561
 8517SOL     OW37012   4.709   3.639   5.302  0.1092  0.2894 -0.7359
 8517SOL    HW137013   4.652   3.610   5.230 -0.4905  2.7788 -1.2420
 8517SOL    HW237014   4.650   3.629   5.377  1.2601 -1.6346 -0.0645
 8518SOL     OW37015   3.626   3.151   5.731 -0.1432 -0.4033  0.6634
 8518SOL    HW137016   3.714   3.169   5.697 -0.2582 -0.7599  0.1843
 8518SOL    HW237017   3.568   3.213   5.689 -1.2158 -0.9691  1.3013
 8519SOL     OW37018   1.962   3.218   7.425 -0.2720 -0.6291 -0.3131
 8519SOL    HW137019   2.003   3.201   7.510 -1.7361  1.9247  0.9089
 8519SOL    HW237020   2.017   3.292   7.398  0.0418 -0.9450 -0.5420
 8520SOL     OW37021   0.354   4.419  12.536  0.0160 -0.7572  0.5772
 8520SOL    HW137022   0.401   4.372  12.604 -0.1123  0.2567  1.3599
 8520SOL    HW237023   0.425   4.464  12.489 -2.1037  1.3008 -0.6509
 8521SOL     OW37024   0.592   3.159   2.593 -0.6226 -0.8953  0.3342
 8521SOL    HW137025   0.675   3.154   2.641  0.8171  2.4204 -1.7653
 8521SOL    HW237026   0.523   3.164   2.658  0.2884 -0.5962  1.2717
 8522SOL     OW37027   4.458   1.775   3.409 -0.2026 -0.2803 -0.3789
 8522SOL    HW137028   4.434   1.866   3.393  1.4405  0.3701  0.9798
 8522SOL    HW237029   4.482   1.747   3.320  1.6511 -0.8825  0.3111
 8523SOL     OW37030   1.004   0.825   3.327 -0.3505  0.2701 -0.0331
 8523SOL    HW137031   0.990   0.811   3.421 -1.6139  1.2947 -0.0580
 8523SOL    HW237032   0.988   0.918   3.310 -0.0639  0.4587  0.6984
 8524SOL     OW37033   0.855   2.499   9.930 -0.2322  0.5725 -0.5278
 8524SOL    HW137034   0.928   2.561   9.932 -0.5058  0.8511  0.9357
 8524SOL    HW237035   0.781   2.560   9.928 -1.5024 -1.0246 -3.1546
 8525SOL     OW37036   2.700   4.013   5.894  0.1740 -0.2128 -0.3917
 8525SOL    HW137037   2.757   4.086   5.918 -0.3186 -0.0153  0.1648
 8525SOL    HW237038   2.748   3.941   5.934  0.3638 -0.6146 -1.3339
 8526SOL     OW37039   0.662   1.151   5.768 -0.6081 -0.0133  0.3301
 8526SOL    HW137040   0.629   1.215   5.705 -0.7936  0.4389  0.8909
 8526SOL    HW237041   0.614   1.079   5.728 -0.2281  0.1197 -0.3630
 8527SOL     OW37042   2.899   0.022   2.802  0.7435 -0.2052  0.1689
 8527SOL    HW137043   2.838   0.044   2.732 -1.3103 -3.1047  1.0603
 8527SOL    HW237044   2.896   0.112   2.836  0.2746 -0.3662  0.5495
 8528SOL     OW37045   3.584   0.236   4.042  0.4041 -0.2216 -0.1450
 8528SOL    HW137046   3.639   0.277   3.975  1.2924 -1.3040 -0.0721
 8528SOL    HW237047   3.537   0.315   4.067  2.3026  0.8288  0.1235
 8529SOL     OW37048   4.502   0.589  16.267 -0.2415  0.5136 -0.0669
 8529SOL    HW137049   4.525   0.590  16.360  0.7961  0.7967 -0.3247
 8529SOL    HW237050   4.525   0.675  16.230  1.3193 -0.1850 -0.7102
 8530SOL     OW37051   4.552   1.130   5.712 -0.0320 -0.2053 -0.1740
 8530SOL    HW137052   4.501   1.195   5.664 -1.7654 -0.1661  1.7484
 8530SOL    HW237053   4.543   1.048   5.662 -6.7301  0.3681  0.0621
 8531SOL     OW37054   2.687   2.087   3.244 -0.2743  0.0653 -0.3225
 8531SOL    HW137055   2.707   2.003   3.203 -0.7675  0.4817 -1.3955
 8531SOL    HW237056   2.592   2.095   3.237  0.0628  1.6329 -2.6715
 8532SOL     OW37057   0.564   3.941   7.770  0.2621  0.0189  0.5618
 8532SOL    HW137058   0.477   3.979   7.785  0.7063  1.0146  0.6707
 8532SOL    HW237059   0.599   3.948   7.858 -0.3122  0.8921  0.7299
 8533SOL     OW37060   1.014   3.473  11.259 -0.0562  0.2221  0.7720
 8533SOL    HW137061   0.962   3.473  11.178  0.5343 -1.6112  0.4059
 8533SOL    HW237062   1.006   3.383  11.291  0.7410 -0.4185 -0.8433
 8534SOL     OW37063   2.488   2.814  16.074 -0.2433  0.1538 -0.3643
 8534SOL    HW137064   2.426   2.880  16.042 -1.0548 -0.2453  0.3643
 8534SOL    HW237065   2.521   2.844  16.159  2.6334 -2.2054 -0.6700
 8535SOL     OW37066   3.534   0.837   8.200 -0.2040  0.1926 -0.0588
 8535SOL    HW137067   3.465   0.840   8.265 -1.4361  2.6275 -1.4614
 8535SOL    HW237068   3.501   0.897   8.133  1.7502  1.6553  0.2613
 8536SOL     OW37069   2.318   1.101  15.767  1.0967 -0.2795  0.0664
 8536SOL    HW137070   2.306   1.148  15.684  0.4683 -0.5209  0.0247
 8536SOL    HW237071   2.408   1.070  15.752  0.3268 -1.3398 -2.4005
 8537SOL     OW37072   0.124   0.654   3.468 -0.7325  1.1531  0.4713
 8537SOL    HW137073   0.078   0.702   3.535 -0.9284  1.0456  0.4134
 8537SOL    HW237074   0.197   0.621   3.521 -1.4153  0.9937  1.3058
 8538SOL     OW37075   3.213   3.262   7.244  0.6370 -0.0237  0.6918
 8538SOL    HW137076   3.187   3.327   7.179  3.9263 -0.8938 -1.5244
 8538SOL    HW237077   3.269   3.316   7.301 -0.1671  2.2639 -0.6743
 8539SOL     OW37078   2.698   3.759  17.387  0.5021 -0.1653 -0.2849
 8539SOL    HW137079   2.773   3.799  17.431 -0.7597  0.5588  1.1840
 8539SOL    HW237080   2.734   3.691  17.330 -1.5464 -0.0742 -1.6683
 8540SOL     OW37081   3.229   2.083  10.229  0.7878 -0.1857 -0.3655
 8540SOL    HW137082   3.137   2.107  10.241  1.2307  0.3462  1.9129
 8540SOL    HW237083   3.269   2.111  10.311  4.0679 -0.0132 -2.0054
 8541SOL     OW37084   3.365   4.248   6.449  0.2400 -0.1302  0.6868
 8541SOL    HW137085   3.368   4.340   6.476 -1.6634  0.9228 -2.6479
 8541SOL    HW237086   3.448   4.233   6.404  0.2127  1.4040  0.1196
 8542SOL     OW37087   0.161   2.963  12.281 -0.3501 -0.0687 -0.0883
 8542SOL    HW137088   0.196   2.949  12.193 -1.2990  1.2615 -0.6731
 8542SOL    HW237089   0.188   2.879  12.319  1.3027 -1.0758 -3.4578
 8543SOL     OW37090   3.499   4.706   6.318 -0.4126  0.5016 -0.3338
 8543SOL    HW137091   3.425   4.661   6.358  0.9258 -2.3501 -1.0930
 8543SOL    HW237092   3.573   4.669   6.366  0.1631  0.3216 -1.3548
 8544SOL     OW37093   0.603   2.465   8.013  0.4013 -0.4415  0.1972
 8544SOL    HW137094   0.540   2.529   8.046  2.9841  1.4970  1.3376
 8544SOL    HW237095   0.669   2.473   8.081  0.4926 -1.5254  0.2408
 8545SOL     OW37096   3.611   1.322   1.950 -0.4274  0.2018 -0.2142
 8545SOL    HW137097   3.676   1.387   1.927  0.4604 -1.5730 -2.6489
 8545SOL    HW237098   3.609   1.275   1.867  1.3688  1.8166 -1.1566
 8546SOL     OW37099   1.189   0.692   1.140 -0.1724 -0.3179 -0.6921
 8546SOL    HW137100   1.246   0.619   1.116 -0.4457 -0.8297  0.2364
 8546SOL    HW237101   1.255   0.759   1.160 -1.4090 -0.3192  3.2091
 8547SOL     OW37102   3.905   0.528   0.989  0.0791  0.2564  0.4712
 8547SOL    HW137103   3.969   0.593   0.961 -0.7426  1.7950  2.2023
 8547SOL    HW237104   3.929   0.467   0.919  0.2509 -0.6825  1.3347
 8548SOL     OW37105   1.387   4.057   3.960  0.5142 -0.1298  0.2855
 8548SOL    HW137106   1.304   4.060   3.912 -0.2872 -3.1894  1.5224
 8548SOL    HW237107   1.372   4.098   4.045  0.6887  0.8291 -0.1481
 8549SOL     OW37108   2.677   2.779  15.469 -0.5534 -0.2118 -0.2208
 8549SOL    HW137109   2.700   2.705  15.526  1.8945  0.5700 -0.1906
 8549SOL    HW237110   2.751   2.836  15.490  0.6714 -2.2965  1.2470
 8550SOL     OW37111   0.035   0.260   6.739  0.5286  0.0064  0.1304
 8550SOL    HW137112   4.683   0.307   6.704  0.9312  2.1543  2.1143
 8550SOL    HW237113   0.005   0.169   6.734 -2.5108  0.9808  0.2158
 8551SOL     OW37114   0.748   0.561  11.692 -0.2781  0.0652  0.5434
 8551SOL    HW137115   0.740   0.465  11.691  0.0830  0.0367  1.4265
 8551SOL    HW237116   0.753   0.577  11.597 -0.5833  2.6237  0.9804
 8552SOL     OW37117   1.890   1.755   6.036  0.2264 -1.0655 -0.0449
 8552SOL    HW137118   1.853   1.755   5.947 -0.7512 -0.1921  0.3699
 8552SOL    HW237119   1.857   1.671   6.068  1.2730 -1.6510 -0.4646
 8553SOL     OW37120   1.412   3.806   5.567  0.3717 -0.2568  0.3170
 8553SOL    HW137121   1.430   3.856   5.646 -0.3364  1.9105 -0.8917
 8553SOL    HW237122   1.499   3.766   5.561  0.5021 -0.3541  3.1232
 8554SOL     OW37123   3.147   4.719   7.071  0.5291 -0.2619 -0.2321
 8554SOL    HW137124   3.075   0.053   7.093 -0.2421 -0.7343 -1.4856
 8554SOL    HW237125   3.106   4.636   7.046 -1.0211  1.0559 -2.0280
 8555SOL     OW37126   1.857   3.809  12.664  0.4484 -0.3475  0.2467
 8555SOL    HW137127   1.885   3.830  12.575  0.3487  0.5052  0.4134
 8555SOL    HW237128   1.867   3.714  12.658 -0.0096 -0.2592 -2.0639
 8556SOL     OW37129   3.882   3.007   5.861  0.1662  0.5784  0.4084
 8556SOL    HW137130   3.976   2.988   5.853 -0.7820 -3.8398  0.1336
 8556SOL    HW237131   3.844   2.970   5.782 -3.0598  3.3698  0.6927
 8557SOL     OW37132   1.372   4.424   2.462 -0.0447 -0.0852 -0.2035
 8557SOL    HW137133   1.384   4.408   2.368 -0.9441 -0.7736 -0.1931
 8557SOL    HW237134   1.336   4.338   2.483  1.8490 -1.0617 -0.8921
 8558SOL     OW37135   4.268   3.646   3.635 -0.0948 -0.3099  0.0323
 8558SOL    HW137136   4.274   3.730   3.591 -2.0753 -1.8442 -3.1827
 8558SOL    HW237137   4.214   3.590   3.579 -0.9801  0.6699 -0.0820
 8559SOL     OW37138   2.316   3.515   8.036 -0.6333  0.0782  0.5650
 8559SOL    HW137139   2.359   3.596   8.008  0.9522 -1.3177 -1.0561
 8559SOL    HW237140   2.361   3.504   8.120 -1.1766 -0.8507  0.7271
 8560SOL     OW37141   4.108   2.201  14.480 -0.0992  0.1379  0.2336
 8560SOL    HW137142   4.054   2.238  14.550  0.4282  0.4859  0.4637
 8560SOL    HW237143   4.178   2.266  14.471  1.3213 -1.1788  1.9191
 8561SOL     OW37144   4.146   1.410   5.737  0.0482 -0.0233 -0.4488
 8561SOL    HW137145   4.174   1.491   5.780 -0.3461  0.1719 -0.5623
 8561SOL    HW237146   4.083   1.457   5.683 -1.4925 -1.9418 -0.3227
 8562SOL     OW37147   4.313   1.376  14.463  0.0351 -0.1852 -0.1782
 8562SOL    HW137148   4.234   1.421  14.494 -1.4307 -3.2929  0.5994
 8562SOL    HW237149   4.360   1.374  14.546  0.6645  5.3009 -0.4220
 8563SOL     OW37150   1.357   0.292   3.533 -0.0289  0.2362 -0.2978
 8563SOL    HW137151   1.429   0.236   3.501 -0.8551 -1.6458  1.1374
 8563SOL    HW237152   1.396   0.369   3.574 -0.2925  2.7531 -4.7586
 8564SOL     OW37153   2.033   1.710   8.291  0.1548  0.7863 -0.6632
 8564SOL    HW137154   1.996   1.772   8.229 -1.0463  0.4926 -0.2465
 8564SOL    HW237155   2.100   1.764   8.331  0.6479 -0.4566  0.2042
 8565SOL     OW37156   0.829   2.302   9.222 -0.2238 -0.3243 -0.1847
 8565SOL    HW137157   0.851   2.324   9.132 -3.6678  1.7197 -0.5454
 8565SOL    HW237158   0.842   2.208   9.214 -3.7541 -0.6936 -1.6143
 8566SOL     OW37159   0.119   3.623  10.635 -0.5768  0.0313  0.5643
 8566SOL    HW137160   0.165   3.539  10.632  1.3911  1.0886  1.2955
 8566SOL    HW237161   0.143   3.671  10.556  0.2392  0.9475  1.3654
 8567SOL     OW37162   3.017   4.239   7.043 -0.0655  0.3905  0.1028
 8567SOL    HW137163   3.101   4.195   7.027 -0.7253 -0.3651 -1.3291
 8567SOL    HW237164   2.985   4.271   6.958  1.1040 -0.4250 -0.6581
 8568SOL     OW37165   0.224   3.108   3.035 -0.0736  0.1773 -0.1348
 8568SOL    HW137166   0.149   3.147   3.080 -0.5411 -0.7699 -0.0843
 8568SOL    HW237167   0.198   3.126   2.945 -1.0961 -2.5303 -0.3727
 8569SOL     OW37168   0.256   1.663   3.787  0.3694  0.2868  0.3666
 8569SOL    HW137169   0.278   1.717   3.712  2.4350 -0.2886  0.5687
 8569SOL    HW237170   0.314   1.588   3.777  2.4811  1.9539  0.1478
 8570SOL     OW37171   3.831   0.259   5.993  0.4621 -0.1610  0.1008
 8570SOL    HW137172   3.908   0.297   5.951  0.2274  0.3250  0.1029
 8570SOL    HW237173   3.767   0.330   5.982 -0.8774 -1.2755  0.7512
 8571SOL     OW37174   1.770   4.066   3.623  0.2436  1.0711  0.0094
 8571SOL    HW137175   1.761   3.970   3.625 -0.3388  1.0802 -2.1277
 8571SOL    HW237176   1.710   4.091   3.693  0.2025 -1.7484  1.0249
 8572SOL     OW37177   1.799   3.193   3.714  0.3335  0.0822 -0.1204
 8572SOL    HW137178   1.838   3.109   3.739  2.7554  0.9127 -1.2118
 8572SOL    HW237179   1.850   3.217   3.637 -0.6337 -1.1640 -1.1629
 8573SOL     OW37180   2.672   2.752  15.201 -0.1801  0.3429 -0.0879
 8573SOL    HW137181   2.603   2.816  15.183  0.4574  1.1995  0.5187
 8573SOL    HW237182   2.690   2.775  15.292  2.8350  0.0924 -0.6315
 8574SOL     OW37183   3.395   3.246   6.590 -0.2435  0.0425 -0.3042
 8574SOL    HW137184   3.465   3.310   6.602 -1.7240  1.6791 -0.3418
 8574SOL    HW237185   3.378   3.264   6.497 -3.3180  0.1130  0.2501
 8575SOL     OW37186   1.242   0.818   6.962 -0.4931 -0.5229 -0.2084
 8575SOL    HW137187   1.305   0.793   7.030 -2.2035 -0.0265  1.5506
 8575SOL    HW237188   1.161   0.785   7.000 -1.2845  1.4459 -0.1826
 8576SOL     OW37189   1.746   3.869   0.130  0.2595  0.5199 -0.3237
 8576SOL    HW137190   1.685   3.942   0.141  0.7119  0.9051 -0.4135
 8576SOL    HW237191   1.826   3.918   0.111 -0.4703  1.3862 -1.1499
 8577SOL     OW37192   3.857   1.730  17.671 -0.4059 -0.2962 -0.5207
 8577SOL    HW137193   3.843   1.824  17.682 -3.0296 -0.4158 -2.7509
 8577SOL    HW237194   3.804   1.718  17.592 -0.7100 -1.5025 -0.1272
 8578SOL     OW37195   0.989   4.493  14.480 -0.0169 -0.4982  0.6327
 8578SOL    HW137196   0.901   4.473  14.446 -0.5460  1.6571  0.7222
 8578SOL    HW237197   1.028   4.534  14.403 -0.2677 -0.2946  0.6129
 8579SOL     OW37198   3.670   3.206  14.537 -0.2351  0.0789 -0.3078
 8579SOL    HW137199   3.615   3.130  14.551 -2.7939  1.6170 -1.9709
 8579SOL    HW237200   3.613   3.277  14.507 -0.8088 -0.4462 -0.4533
 8580SOL     OW37201   0.821   0.266   3.596  0.1496  0.0732 -0.5570
 8580SOL    HW137202   0.837   0.324   3.522  2.1109 -1.0853 -1.0497
 8580SOL    HW237203   0.840   0.311   3.679  2.4033 -1.7604 -0.0773
 8581SOL     OW37204   4.410   0.342   4.732 -0.7797  0.5701 -0.5624
 8581SOL    HW137205   4.330   0.332   4.681 -0.6590 -0.8004 -0.4989
 8581SOL    HW237206   4.395   0.261   4.781  0.5142  1.3921  1.2322
 8582SOL     OW37207   3.678   2.488   5.618  0.2225 -0.1122  0.2146
 8582SOL    HW137208   3.585   2.493   5.639 -0.2868 -4.3998 -1.1088
 8582SOL    HW237209   3.722   2.489   5.703  0.5531 -0.0404  0.0424
 8583SOL     OW37210   3.809   1.393  16.286  0.2772  0.4853  0.2475
 8583SOL    HW137211   3.832   1.304  16.259  0.3602  0.5323  0.1613
 8583SOL    HW237212   3.890   1.435  16.257  0.7977 -1.6391 -1.3864
 8584SOL     OW37213   1.724   3.136   5.277  0.7316 -0.0475  0.1432
 8584SOL    HW137214   1.673   3.182   5.344  0.0968 -0.6982  0.1123
 8584SOL    HW237215   1.647   3.107   5.227  3.0674 -0.2804 -3.3206
 8585SOL     OW37216   4.015   0.632  13.811 -0.3853 -0.1750 -0.5383
 8585SOL    HW137217   3.946   0.691  13.841  0.5825  1.0775 -0.7625
 8585SOL    HW237218   3.976   0.545  13.822  0.9076 -1.1469 -3.5041
 8586SOL     OW37219   1.656   4.172   2.467 -0.1592 -0.1013 -0.5161
 8586SOL    HW137220   1.624   4.106   2.405 -2.7521  1.1173 -0.5200
 8586SOL    HW237221   1.746   4.141   2.473  0.1573  1.1542  1.0297
 8587SOL     OW37222   1.034   2.748   9.745  0.4111  0.2532  0.2623
 8587SOL    HW137223   1.086   2.671   9.721 -1.5623 -0.9759 -0.0715
 8587SOL    HW237224   1.045   2.747   9.840  1.2630  0.4373  0.1727
 8588SOL     OW37225   1.338   0.432  12.513  0.5099  0.0795  0.3521
 8588SOL    HW137226   1.324   0.358  12.454 -1.7183  0.4880  0.3919
 8588SOL    HW237227   1.358   0.389  12.596 -0.0902 -0.2413  0.3275
 8589SOL     OW37228   2.694   0.989   8.836 -0.2235  0.0832  0.4306
 8589SOL    HW137229   2.617   0.974   8.890 -0.4479  1.3639  0.4658
 8589SOL    HW237230   2.654   1.031   8.760  0.1380 -0.2389  0.0607
 8590SOL     OW37231   3.114   4.600   0.096 -0.2014  0.3096 -0.2810
 8590SOL    HW137232   3.123   4.572   0.187  0.6765  0.1583 -0.4192
 8590SOL    HW237233   3.205   4.621   0.075  0.1819 -1.8953 -0.7832
 8591SOL     OW37234   2.344   3.652   3.989  0.6127 -0.7176  0.1353
 8591SOL    HW137235   2.336   3.729   4.046 -1.2429  1.8759 -3.6261
 8591SOL    HW237236   2.372   3.577   4.041  0.0940 -0.6238  0.5510
 8592SOL     OW37237   1.305   3.046   5.462 -0.2100  0.2970 -0.4557
 8592SOL    HW137238   1.320   2.980   5.393 -2.9222 -1.1171  0.3141
 8592SOL    HW237239   1.392   3.051   5.502  0.6301 -0.5195 -2.1572
 8593SOL     OW37240   4.359   3.411  11.194 -0.5203 -0.0805 -0.2847
 8593SOL    HW137241   4.327   3.501  11.188  1.7563  0.9219  2.4023
 8593SOL    HW237242   4.396   3.412  11.282  0.3159  3.0502 -0.6436
 8594SOL     OW37243   1.973   3.150   5.385 -0.1238  0.1517 -0.0527
 8594SOL    HW137244   1.895   3.179   5.338  0.1564 -0.6912 -1.0581
 8594SOL    HW237245   2.034   3.165   5.312  0.2811 -1.2764 -0.0038
 8595SOL     OW37246   0.436   3.217  10.997  0.5015  0.2141 -0.6419
 8595SOL    HW137247   0.425   3.144  11.058  2.0006 -0.3847 -1.0789
 8595SOL    HW237248   0.395   3.290  11.042 -1.7800 -1.3665 -0.1477
 8596SOL     OW37249   0.037   3.098  12.490 -0.0573  0.0487  0.3449
 8596SOL    HW137250   4.677   3.136  12.462 -0.8718 -1.0495  1.2897
 8596SOL    HW237251   0.059   3.049  12.410  0.4168 -0.3764  0.7393
 8597SOL     OW37252   1.885   4.660   2.626  0.2725  0.0175 -0.0093
 8597SOL    HW137253   1.834   4.579   2.637  1.0481 -0.3967  0.5094
 8597SOL    HW237254   1.954   4.624   2.570 -0.3866 -1.4229  0.0909
 8598SOL     OW37255   4.292   3.632   8.306  0.3016  0.2790 -0.7651
 8598SOL    HW137256   4.340   3.714   8.296  0.2689  0.4452  0.4973
 8598SOL    HW237257   4.291   3.631   8.401  0.0568  1.1704 -0.7600
 8599SOL     OW37258   2.658   0.595   2.937  0.5981  0.6616  0.4304
 8599SOL    HW137259   2.710   0.675   2.926 -0.3897  1.1760 -0.5418
 8599SOL    HW237260   2.601   0.601   2.860  0.7737 -1.6568  0.1117
 8600SOL     OW37261   2.067   4.663  15.247 -0.4219 -0.1500  0.5043
 8600SOL    HW137262   2.066   4.644  15.153  0.9908 -1.4385  0.7594
 8600SOL    HW237263   2.069   4.578  15.291  2.1467 -1.1357 -1.4866
 8601SOL     OW37264   2.914   3.801  17.523 -0.2172  1.0388 -0.3921
 8601SOL    HW137265   3.007   3.811  17.547 -0.0487  2.5938 -1.7446
 8601SOL    HW237266   2.898   3.724  17.578  0.9253  0.3804 -0.9625
 8602SOL     OW37267   3.279   4.221   6.798 -0.8128  0.3081 -0.0182
 8602SOL    HW137268   3.346   4.268   6.848  1.0315 -3.1487  0.7182
 8602SOL    HW237269   3.333   4.144   6.780  1.4288  2.1257 -1.1851
 8603SOL     OW37270   2.950   0.500   8.787  0.0201 -0.3166 -0.3477
 8603SOL    HW137271   2.909   0.584   8.810  0.9562 -0.7737  3.0574
 8603SOL    HW237272   2.894   0.437   8.832  0.2210 -1.4727 -1.7243
 8604SOL     OW37273   1.283   3.444   6.985  0.0491 -0.1603  0.1441
 8604SOL    HW137274   1.320   3.387   7.052 -0.3955 -0.3714  0.2037
 8604SOL    HW237275   1.292   3.530   7.026  0.1831 -0.8456  1.5519
 8605SOL     OW37276   4.443   1.925   7.418 -0.2180 -0.5597  0.4705
 8605SOL    HW137277   4.521   1.875   7.443  0.4579  0.1080 -0.3161
 8605SOL    HW237278   4.394   1.864   7.364 -1.1316 -1.1854  2.0113
 8606SOL     OW37279   2.503   3.044  17.191  0.7889 -0.3397 -0.5716
 8606SOL    HW137280   2.430   2.985  17.172  1.4660 -1.2352 -0.4220
 8606SOL    HW237281   2.473   3.122  17.145  1.0446 -0.7234 -1.3928
 8607SOL     OW37282   0.449   2.318   2.696 -0.4122  0.3142  0.0303
 8607SOL    HW137283   0.543   2.336   2.697 -0.2474 -0.6636  1.3462
 8607SOL    HW237284   0.431   2.346   2.606  0.6216  0.6821 -0.0578
 8608SOL     OW37285   1.383   3.411  14.695  0.0740 -0.1944  0.0210
 8608SOL    HW137286   1.313   3.377  14.640  0.2732  0.9563 -0.9452
 8608SOL    HW237287   1.432   3.331  14.715 -1.0706 -0.7039  0.7987
 8609SOL     OW37288   1.541   0.186   1.967 -0.6736 -0.0324 -0.5420
 8609SOL    HW137289   1.524   0.119   1.901 -1.1657  0.2133 -0.6620
 8609SOL    HW237290   1.476   0.255   1.955 -0.9489 -0.1787  0.0684
 8610SOL     OW37291   4.710   1.379  11.533 -0.0657 -0.1783 -0.2574
 8610SOL    HW137292   0.048   1.306  11.542  0.7955  0.6331  0.3640
 8610SOL    HW237293   0.041   1.443  11.577  3.4985 -3.3291 -0.1506
 8611SOL     OW37294   3.685   4.724   8.949 -0.4094  0.4885 -0.4533
 8611SOL    HW137295   3.714   0.067   9.011 -1.7793 -0.3803  1.1292
 8611SOL    HW237296   3.594   0.006   8.977 -0.9150 -0.7934 -1.8174
 8612SOL     OW37297   0.952   1.211   9.798 -0.1256 -0.0715  0.2591
 8612SOL    HW137298   1.019   1.228   9.864  0.4330 -1.2136 -0.0177
 8612SOL    HW237299   0.929   1.124   9.831 -0.4939 -0.6076 -1.4085
 8613SOL     OW37300   3.956   3.860   8.114 -0.4695 -0.1689 -0.1237
 8613SOL    HW137301   3.916   3.887   8.032 -3.2143 -1.3706  0.8143
 8613SOL    HW237302   3.887   3.806   8.153 -1.3717  1.8655  1.0720
 8614SOL     OW37303   2.817   2.517   0.466  0.5925  0.5325  0.4954
 8614SOL    HW137304   2.721   2.520   0.470  0.4531  0.5329 -3.1645
 8614SOL    HW237305   2.823   2.525   0.371  0.7093 -0.4478  0.4306
 8615SOL     OW37306   2.855   0.353   3.670  0.5867  0.4390 -0.6040
 8615SOL    HW137307   2.949   0.363   3.684  1.0401 -0.1816 -3.3881
 8615SOL    HW237308   2.849   0.396   3.585 -0.0197 -3.3134 -2.4658
 8616SOL     OW37309   0.480   3.962   2.095  0.3633  0.1709  0.3670
 8616SOL    HW137310   0.438   3.973   2.181 -0.7924 -0.8235 -0.0749
 8616SOL    HW237311   0.564   4.003   2.114  1.3730 -1.2027 -1.1595
 8617SOL     OW37312   4.661   3.197   5.532 -0.1914  0.2121  0.0179
 8617SOL    HW137313   0.030   3.193   5.555 -0.4154 -0.3837  0.8134
 8617SOL    HW237314   4.653   3.102   5.539 -0.8342  0.2322 -0.4579
 8618SOL     OW37315   1.066   3.239   7.093  0.1310 -0.2077  0.2417
 8618SOL    HW137316   1.055   3.150   7.059  1.3238 -0.8649  1.5587
 8618SOL    HW237317   1.162   3.236   7.089  0.0983 -1.4997  0.4537
 8619SOL     OW37318   0.812   0.367   6.920  0.2468 -0.1260  0.1356
 8619SOL    HW137319   0.805   0.455   6.958 -0.5862  0.9690 -2.5582
 8619SOL    HW237320   0.896   0.378   6.876  0.1091 -0.3149 -0.1717
 8620SOL     OW37321   2.709   2.092  12.299 -0.2182 -0.2594  0.2105
 8620SOL    HW137322   2.616   2.070  12.298 -0.1905 -0.2839 -1.2796
 8620SOL    HW237323   2.711   2.150  12.224  2.8824 -1.8380 -0.9030
 8621SOL     OW37324   3.900   0.671   3.879  0.5043 -0.1591 -0.2838
 8621SOL    HW137325   3.957   0.718   3.939  2.4708  0.5987 -2.7305
 8621SOL    HW237326   3.834   0.642   3.942 -1.4896  0.1330 -2.2532
 8622SOL     OW37327   4.598   4.246  16.076 -0.0635 -0.7190 -0.2212
 8622SOL    HW137328   4.598   4.201  15.992  2.7284 -3.0816  1.0115
 8622SOL    HW237329   4.693   4.259  16.084 -0.0522 -1.8233  1.3706
 8623SOL     OW37330   4.464   1.543  11.993 -0.6863 -0.1722  0.1243
 8623SOL    HW137331   4.527   1.591  11.938 -0.2443  0.0053  0.7824
 8623SOL    HW237332   4.502   1.549  12.081 -1.7045  4.0845  0.3025
 8624SOL     OW37333   1.897   4.475   9.622 -0.0003  0.4424 -0.8387
 8624SOL    HW137334   1.851   4.557   9.605  1.3732  0.7938 -2.9613
 8624SOL    HW237335   1.984   4.506   9.597  0.4832 -0.2946 -0.0679
 8625SOL     OW37336   0.513   4.305  12.695  0.0273  0.5334  0.2283
 8625SOL    HW137337   0.498   4.235  12.758  2.1707  1.3792  1.6656
 8625SOL    HW237338   0.586   4.353  12.734 -0.0536  0.9071 -0.0802
 8626SOL     OW37339   3.768   0.980   7.025 -0.3904  0.4626 -0.4787
 8626SOL    HW137340   3.815   1.050   7.071  1.1143 -1.8732  1.5127
 8626SOL    HW237341   3.735   1.024   6.946 -0.2508  1.4833  0.0317
 8627SOL     OW37342   3.465   0.371   0.942  0.0962 -0.7526 -0.6610
 8627SOL    HW137343   3.387   0.426   0.942 -1.4228 -2.9678  0.5021
 8627SOL    HW237344   3.486   0.385   1.034  0.2564 -1.7005 -0.5598
 8628SOL     OW37345   2.252   4.354  10.472  0.1196  0.6297  0.3919
 8628SOL    HW137346   2.192   4.406  10.419 -0.6129  0.8271  1.4181
 8628SOL    HW237347   2.231   4.382  10.561 -2.0021 -1.2253  0.4824
 8629SOL     OW37348   0.336   2.024  10.129  0.1830 -0.7935 -0.3604
 8629SOL    HW137349   0.327   2.116  10.155  1.2629 -0.8346  0.1332
 8629SOL    HW237350   0.428   2.015  10.106  0.1359 -1.7378 -0.1837
 8630SOL     OW37351   4.026   0.995  12.523  0.2055  0.1265 -0.2651
 8630SOL    HW137352   4.081   1.073  12.530  1.9432 -1.1796  0.7712
 8630SOL    HW237353   3.986   1.010  12.438  0.7990 -1.4274 -0.8251
 8631SOL     OW37354   1.935   1.596  17.119  0.0865  0.1088  0.8880
 8631SOL    HW137355   2.006   1.571  17.061 -0.9225 -2.2518  0.6791
 8631SOL    HW237356   1.861   1.572  17.063 -0.2000 -2.5019  2.3772
 8632SOL     OW37357   4.134   0.839   5.143  0.5247  0.1979 -0.1878
 8632SOL    HW137358   4.217   0.878   5.118 -0.1356  0.8676 -1.3799
 8632SOL    HW237359   4.166   0.751   5.160 -0.4196 -0.2777 -0.8161
 8633SOL     OW37360   0.903   3.918   7.184  0.6935 -0.4480  0.2802
 8633SOL    HW137361   0.809   3.936   7.182  1.0022  1.2679  1.7999
 8633SOL    HW237362   0.947   3.980   7.241 -0.9930  1.5631 -0.6441
 8634SOL     OW37363   1.558   2.207  11.245  0.0164  0.6634 -0.5501
 8634SOL    HW137364   1.473   2.164  11.252  0.3061  0.2556  0.4424
 8634SOL    HW237365   1.573   2.221  11.152 -1.4150  2.0715 -0.5725
 8635SOL     OW37366   3.590   3.168   7.241 -0.5048 -0.5092 -0.0204
 8635SOL    HW137367   3.594   3.191   7.333  1.5745 -0.3590 -0.1392
 8635SOL    HW237368   3.526   3.231   7.207  0.2056  0.5229  0.5476
 8636SOL     OW37369   1.329   3.115   9.923 -0.0441 -0.1960 -0.0543
 8636SOL    HW137370   1.397   3.052   9.904  0.0773  0.6563 -2.4071
 8636SOL    HW237371   1.277   3.056   9.979 -3.2954 -0.6289 -3.5319
 8637SOL     OW37372   2.422   1.159   3.347 -0.3955  0.9509  0.4489
 8637SOL    HW137373   2.374   1.242   3.340 -2.2881 -0.2165 -0.4385
 8637SOL    HW237374   2.505   1.188   3.385  1.2805 -0.0914 -2.4375
 8638SOL     OW37375   0.699   3.704   3.163 -0.0398  0.2952 -0.2224
 8638SOL    HW137376   0.679   3.755   3.085 -0.8209  2.2994  1.2918
 8638SOL    HW237377   0.750   3.636   3.119  0.0662  0.1033  0.1886
 8639SOL     OW37378   4.616   3.749   8.618  0.2656 -0.2394 -0.0545
 8639SOL    HW137379   4.583   3.824   8.569 -1.2468  0.0260  1.3536
 8639SOL    HW237380   4.553   3.764   8.689 -0.0629  2.5097 -0.9498
 8640SOL     OW37381   3.927   1.247   1.097 -0.3453 -0.2114 -0.5400
 8640SOL    HW137382   3.924   1.342   1.093  0.7629 -0.1638  0.1439
 8640SOL    HW237383   3.877   1.233   1.016  0.0624 -2.4500 -0.4160
 8641SOL     OW37384   3.680   1.699   8.090 -0.5615 -0.0734 -0.2718
 8641SOL    HW137385   3.630   1.775   8.060 -1.6422  0.1690  2.1544
 8641SOL    HW237386   3.756   1.743   8.126 -2.1960  2.4464  0.0468
 8642SOL     OW37387   2.753   4.084  17.409 -0.3917 -0.9206 -0.5058
 8642SOL    HW137388   2.769   4.143  17.483  0.8574  1.1119 -2.3734
 8642SOL    HW237389   2.694   4.018  17.445  0.0728 -0.7034  0.6733
 8643SOL     OW37390   3.552   4.353   6.895  0.3965 -0.4862 -0.6903
 8643SOL    HW137391   3.512   4.347   6.982  2.2231 -1.8917  0.0628
 8643SOL    HW237392   3.629   4.296   6.894 -0.2021 -1.2890 -1.4800
 8644SOL     OW37393   0.241   2.820   6.191 -0.0154 -0.1715  0.0921
 8644SOL    HW137394   0.310   2.762   6.162 -0.6609  0.7555 -3.2734
 8644SOL    HW237395   0.180   2.833   6.119 -0.1187  0.5109  0.2986
 8645SOL     OW37396   0.417   0.711   1.759  0.4411  0.2174  0.7213
 8645SOL    HW137397   0.490   0.773   1.762 -0.5332  1.4732 -1.1298
 8645SOL    HW237398   0.348   0.769   1.790  0.3905 -0.4842  1.9107
 8646SOL     OW37399   3.324   2.263   7.901 -0.5865 -0.0317  0.5993
 8646SOL    HW137400   3.341   2.356   7.916 -1.9543  0.4008 -0.5096
 8646SOL    HW237401   3.392   2.231   7.841  0.2566  0.7749  1.1199
 8647SOL     OW37402   1.457   1.063  15.561  0.0778  0.3172 -0.2584
 8647SOL    HW137403   1.504   1.080  15.643 -1.2559 -1.5191  0.8655
 8647SOL    HW237404   1.376   1.030  15.598  0.2649 -1.3585 -1.3757
 8648SOL     OW37405   4.137   4.598   3.638 -0.6099  0.1287 -0.1308
 8648SOL    HW137406   4.190   4.654   3.694  1.0659 -0.8808 -0.7014
 8648SOL    HW237407   4.140   4.518   3.691  0.8587 -0.4991 -1.1455
 8649SOL     OW37408   1.973   3.431   2.658  0.1292  0.3706  0.1926
 8649SOL    HW137409   2.007   3.353   2.614  1.5853  0.5360  1.0113
 8649SOL    HW237410   1.881   3.417   2.640  0.3948 -0.1578 -0.7322
 8650SOL     OW37411   1.866   0.028  16.951  0.1934  0.6212 -0.1017
 8650SOL    HW137412   1.924   0.062  17.019  1.8018 -0.5731 -0.8995
 8650SOL    HW237413   1.909   4.673  16.918 -1.6812 -0.8249  0.8795
 8651SOL     OW37414   2.232   1.196  14.352 -0.1124 -0.6754 -0.9300
 8651SOL    HW137415   2.324   1.174  14.366  0.0582  0.1983 -0.6997
 8651SOL    HW237416   2.229   1.278  14.303  2.0552 -0.0845 -0.0698
 8652SOL     OW37417   4.099   4.549  16.173  0.0378  0.2130 -0.0268
 8652SOL    HW137418   4.061   4.637  16.181 -1.6574 -0.4783 -0.4424
 8652SOL    HW237419   4.169   4.577  16.113  1.0220 -0.7657  0.6785
 8653SOL     OW37420   1.671   0.288   2.176  0.8392 -0.0566 -0.3889
 8653SOL    HW137421   1.694   0.205   2.218 -1.3041 -0.9185 -0.9278
 8653SOL    HW237422   1.631   0.255   2.096 -1.2600  1.9381 -0.1581
 8654SOL     OW37423   0.122   0.090   7.172 -0.0237 -0.2086 -0.7778
 8654SOL    HW137424   0.044   0.059   7.219  0.7800  0.9365  1.2914
 8654SOL    HW237425   0.087   0.177   7.152 -0.1628 -0.2616 -0.7699
 8655SOL     OW37426   4.291   3.894  13.575 -0.5550 -0.2383  0.1195
 8655SOL    HW137427   4.370   3.903  13.629 -1.8229  1.4076  1.6731
 8655SOL    HW237428   4.325   3.840  13.504  1.4133 -1.7851  2.2615
 8656SOL     OW37429   2.212   1.398   0.113  0.2246 -0.1679 -0.1582
 8656SOL    HW137430   2.197   1.480   0.160  0.4287 -0.3221  0.1757
 8656SOL    HW237431   2.120   1.369   0.113 -0.2624  1.3581 -2.2257
 8657SOL     OW37432   2.831   2.291   2.545  0.2391 -0.3464  0.1522
 8657SOL    HW137433   2.762   2.256   2.601 -0.0576  0.7976  0.4968
 8657SOL    HW237434   2.825   2.386   2.560  0.2436 -0.4043  0.5179
 8658SOL     OW37435   3.011   2.388   6.764 -0.2704  0.1221  0.1303
 8658SOL    HW137436   3.023   2.476   6.729  1.1808 -0.5428 -0.9836
 8658SOL    HW237437   2.977   2.406   6.852  2.3621 -0.2660  1.2091
 8659SOL     OW37438   0.745   0.326   9.006 -0.1746  0.1263  0.2737
 8659SOL    HW137439   0.770   0.302   8.916  1.5331  1.7242  0.3142
 8659SOL    HW237440   0.721   0.243   9.046  3.3624 -2.1011 -2.1782
 8660SOL     OW37441   4.010   2.010  14.343  0.2125  0.7174  0.3962
 8660SOL    HW137442   4.054   2.064  14.408  0.6775  1.6614 -0.7039
 8660SOL    HW237443   4.057   2.024  14.260 -1.0861 -0.0230 -0.4740
 8661SOL     OW37444   1.635   0.793   6.904  0.6515 -0.7761  0.1495
 8661SOL    HW137445   1.703   0.727   6.917  0.9702 -0.6365 -0.8168
 8661SOL    HW237446   1.565   0.743   6.864  1.1332 -0.4388 -1.1091
 8662SOL     OW37447   1.644   3.212   8.631 -0.2091  0.2727 -0.5381
 8662SOL    HW137448   1.606   3.279   8.689 -1.9356 -0.5611 -0.6888
 8662SOL    HW237449   1.596   3.229   8.550 -0.5180  0.7585 -0.2499
 8663SOL     OW37450   2.795   1.274   1.765  0.0903 -0.0456 -0.3507
 8663SOL    HW137451   2.738   1.197   1.774 -0.6314  0.4525 -0.7084
 8663SOL    HW237452   2.742   1.350   1.789  1.8701  0.8961  0.6422
 8664SOL     OW37453   1.898   3.959   7.677  0.1100 -0.1265  0.3852
 8664SOL    HW137454   1.949   4.023   7.628 -1.8533  0.3350 -1.0296
 8664SOL    HW237455   1.873   4.005   7.757  1.7571  0.5429  0.5157
 8665SOL     OW37456   4.599   0.616   5.071 -0.3888  0.1577 -0.3480
 8665SOL    HW137457   4.541   0.616   4.995  1.1180 -1.9052 -1.4907
 8665SOL    HW237458   4.544   0.576   5.139 -0.4896 -2.2910 -1.8469
 8666SOL     OW37459   2.781   3.658   1.208  0.1416 -0.4399  0.3148
 8666SOL    HW137460   2.761   3.740   1.254 -0.4038 -1.5291  2.0366
 8666SOL    HW237461   2.749   3.683   1.122  0.6688 -0.6018  0.0752
 8667SOL     OW37462   4.342   1.460   7.217 -0.2021  0.4991 -0.4244
 8667SOL    HW137463   4.269   1.429   7.271 -0.2820  1.3767 -0.0361
 8667SOL    HW237464   4.391   1.501   7.288 -2.6881  0.4748  1.3324
 8668SOL     OW37465   2.973   0.358   2.375 -0.0855  0.1910 -0.1283
 8668SOL    HW137466   2.881   0.375   2.355 -0.5776 -1.6340  0.5423
 8668SOL    HW237467   3.014   0.439   2.347  0.9052  0.1942  1.3672
 8669SOL     OW37468   2.914   2.035   7.699 -0.1222  0.2366 -0.3711
 8669SOL    HW137469   2.878   2.041   7.788  1.3344 -1.8027  0.3601
 8669SOL    HW237470   3.007   2.039   7.723 -0.9155  0.4808  2.7749
 8670SOL     OW37471   2.683   2.800  15.894 -0.6872  0.1009 -0.1328
 8670SOL    HW137472   2.609   2.801  15.955 -0.0172 -0.7934  0.7058
 8670SOL    HW237473   2.659   2.866  15.829 -0.9933 -1.1588 -1.2963
 8671SOL     OW37474   3.542   1.315   8.249  0.3886  0.1230  0.3295
 8671SOL    HW137475   3.573   1.290   8.336 -1.7055  0.4063  1.1531
 8671SOL    HW237476   3.475   1.379   8.274 -0.2746 -0.4659  0.0541
 8672SOL     OW37477   1.463   1.603   7.577  0.5190  0.0140  0.6970
 8672SOL    HW137478   1.451   1.678   7.518 -0.1468  0.7988  1.8284
 8672SOL    HW237479   1.459   1.533   7.512 -1.2645  1.0383 -0.2947
 8673SOL     OW37480   4.210   1.700  14.919 -0.0841 -0.0486 -0.4914
 8673SOL    HW137481   4.262   1.622  14.901 -0.1717  0.1951 -1.8124
 8673SOL    HW237482   4.268   1.750  14.976 -2.0421  1.7138 -0.0393
 8674SOL     OW37483   1.358   4.571   6.140  0.2440 -0.2631  0.6208
 8674SOL    HW137484   1.383   4.632   6.209  1.3300 -1.1141  0.9936
 8674SOL    HW237485   1.442   4.559   6.095 -0.2990 -3.1255  0.3557
 8675SOL     OW37486   2.127   0.524   0.220 -0.1742 -0.5492  0.2982
 8675SOL    HW137487   2.214   0.484   0.224 -0.5422 -1.2022  1.6703
 8675SOL    HW237488   2.074   0.448   0.192 -1.6613  0.5039  0.2572
 8676SOL     OW37489   3.004   3.849  13.476 -0.3769  0.0010 -0.0174
 8676SOL    HW137490   2.961   3.850  13.561 -0.1348  0.1335  0.1040
 8676SOL    HW237491   3.031   3.938  13.453  0.1143 -0.4999 -1.4267
 8677SOL     OW37492   3.494   3.291   3.238  0.0406 -0.0851 -0.4339
 8677SOL    HW137493   3.456   3.314   3.153  0.7778 -0.5567 -0.8823
 8677SOL    HW237494   3.505   3.196   3.239 -2.2114 -0.3524 -0.5820
 8678SOL     OW37495   0.650   4.501   1.935 -0.1861  0.4760  0.2776
 8678SOL    HW137496   0.695   4.576   1.975 -0.2073 -1.0861  3.2312
 8678SOL    HW237497   0.658   4.452   2.017 -0.6177 -0.2604 -0.1252
 8679SOL     OW37498   0.783   3.946   4.557 -0.6555 -0.1021  0.3786
 8679SOL    HW137499   0.816   3.928   4.469  0.4845 -0.8405  0.9525
 8679SOL    HW237500   0.714   4.007   4.531 -0.6029 -0.1534  0.1246
 8680SOL     OW37501   2.515   1.337   5.593 -0.4679 -0.1049 -0.0226
 8680SOL    HW137502   2.552   1.374   5.513  0.2807 -1.3055 -0.2243
 8680SOL    HW237503   2.462   1.410   5.627 -2.1069 -0.2055 -2.3339
 8681SOL     OW37504   2.722   4.038  12.935  0.8930 -0.6477  0.2537
 8681SOL    HW137505   2.746   4.067  12.847 -0.4414  0.3935  0.2346
 8681SOL    HW237506   2.809   4.017  12.969  1.4108  0.9817 -0.0755
 8682SOL     OW37507   1.782   3.078  13.354  0.1206  0.2450  0.0556
 8682SOL    HW137508   1.810   3.089  13.445 -1.6987  1.8084  0.4306
 8682SOL    HW237509   1.783   3.168  13.324 -0.0111 -0.3449 -1.6843
 8683SOL     OW37510   4.375   2.542   8.118  0.3204  0.5401 -0.2285
 8683SOL    HW137511   4.366   2.458   8.163  0.9049  0.4386 -0.3087
 8683SOL    HW237512   4.370   2.509   8.028 -1.3408  3.0573 -1.0500
 8684SOL     OW37513   1.616   1.724   7.860  0.7502 -0.2931  0.5963
 8684SOL    HW137514   1.566   1.747   7.938  0.1794  2.1305 -0.4891
 8684SOL    HW237515   1.542   1.740   7.802  1.5713 -0.5289 -0.5086
 8685SOL     OW37516   2.829   2.788   4.840  0.0688 -0.2338  0.3160
 8685SOL    HW137517   2.751   2.796   4.785  0.2774 -0.5896 -0.0310
 8685SOL    HW237518   2.899   2.819   4.782 -1.3095  0.0746 -1.1860
 8686SOL     OW37519   4.277   2.732   5.152 -0.5751  0.0317 -0.0903
 8686SOL    HW137520   4.353   2.679   5.176 -0.1291  0.5324 -0.3861
 8686SOL    HW237521   4.207   2.700   5.208 -0.4233  2.0836  1.2819
 8687SOL     OW37522   4.683   1.878   8.097 -0.0273  0.3465 -0.2169
 8687SOL    HW137523   0.055   1.875   8.099 -0.0283  0.4628  0.0364
 8687SOL    HW237524   4.659   1.860   8.188 -0.9983 -1.0788 -0.7646
 8688SOL     OW37525   3.774   0.042   4.335 -0.4803 -0.2023 -0.0254
 8688SOL    HW137526   3.747   0.057   4.244 -0.8989 -0.6735  0.0243
 8688SOL    HW237527   3.808   4.677   4.326  3.0140  1.0898  0.4753
 8689SOL     OW37528   4.281   2.917   5.882 -0.2927  0.5372  0.6070
 8689SOL    HW137529   4.207   2.857   5.872  1.5709 -2.2572  3.5851
 8689SOL    HW237530   4.332   2.862   5.942  0.4974  1.2169  0.5610
 8690SOL     OW37531   3.894   0.040   0.080 -0.0346 -1.1145 -0.6366
 8690SOL    HW137532   3.935   0.124   0.100 -1.4498 -0.6342  0.2666
 8690SOL    HW237533   3.801   0.062   0.089  0.2157 -0.7478  1.1176
 8691SOL     OW37534   0.204   2.054  15.194 -0.2168  0.0973  0.0972
 8691SOL    HW137535   0.285   2.016  15.227  1.0225  1.0485 -1.8264
 8691SOL    HW237536   0.240   2.091  15.113 -0.6678  1.2004  0.4112
 8692SOL     OW37537   1.398   1.709   6.583  0.0993 -0.1921 -0.2188
 8692SOL    HW137538   1.410   1.733   6.675 -0.0170  0.0509 -0.2692
 8692SOL    HW237539   1.320   1.760   6.567  0.0472 -1.0914 -2.8956
 8693SOL     OW37540   0.711   4.020   2.260  0.2397  0.6611 -0.1999
 8693SOL    HW137541   0.698   4.015   2.355 -0.9311  1.9185 -0.2916
 8693SOL    HW237542   0.746   4.108   2.245 -0.1217  0.5071 -1.9758
 8694SOL     OW37543   3.010   0.825  16.557  0.4363  0.4100 -0.2838
 8694SOL    HW137544   2.993   0.912  16.521  3.2511  0.8002 -0.6351
 8694SOL    HW237545   2.927   0.805  16.600  0.9425 -0.9029  0.0796
 8695SOL     OW37546   3.215   1.204   6.120 -0.2247 -0.3007  0.0974
 8695SOL    HW137547   3.153   1.191   6.048  0.1941  1.7034 -0.6351
 8695SOL    HW237548   3.290   1.219   6.062  0.5630 -1.9259  0.7147
 8696SOL     OW37549   2.914   1.098   8.989  0.1218  0.2467  0.6874
 8696SOL    HW137550   2.855   1.096   8.913 -1.9150 -2.7090  2.3379
 8696SOL    HW237551   2.857   1.147   9.048 -0.3831 -1.3525  1.5259
 8697SOL     OW37552   1.800   3.033   0.042 -0.2821  0.4254 -0.3134
 8697SOL    HW137553   1.746   3.043  17.662 -3.5031  0.9533  1.9403
 8697SOL    HW237554   1.880   3.066   0.003 -0.2513 -1.3756 -1.7272
 8698SOL     OW37555   1.081   0.953  12.250 -0.1885  0.2661  0.3182
 8698SOL    HW137556   1.018   1.012  12.292  0.0763 -0.2179  1.3955
 8698SOL    HW237557   1.159   1.008  12.262 -1.2498  1.5794  1.3093
 8699SOL     OW37558   1.190   3.404  12.719 -0.1542 -0.7188 -0.2015
 8699SOL    HW137559   1.190   3.332  12.783  1.2710 -1.2811 -0.8242
 8699SOL    HW237560   1.103   3.394  12.682  0.8957 -1.1522 -2.5079
 8700SOL     OW37561   3.751   2.943   7.233  0.3567 -0.6621 -0.1209
 8700SOL    HW137562   3.782   2.977   7.149 -0.1715  0.8142  0.2755
 8700SOL    HW237563   3.706   3.017   7.274  1.0202 -0.7318  0.7534
 8701SOL     OW37564   2.929   0.675   6.885 -0.4865 -0.4241 -0.0707
 8701SOL    HW137565   2.873   0.654   6.810  0.0098 -2.1695  0.0388
 8701SOL    HW237566   2.866   0.676   6.957  0.0097 -2.4839  0.4016
 8702SOL     OW37567   4.282   1.323  12.314 -0.0216  0.2398 -0.9135
 8702SOL    HW137568   4.373   1.354  12.307 -0.8080  2.9777  1.0434
 8702SOL    HW237569   4.256   1.299  12.226  0.1901 -1.2243 -0.5827
 8703SOL     OW37570   2.390   0.392   5.657 -0.3108 -0.2338 -0.5433
 8703SOL    HW137571   2.484   0.390   5.675 -0.7679 -1.5456  1.6563
 8703SOL    HW237572   2.397   0.458   5.588  2.7413  0.1707  0.1333
 8704SOL     OW37573   0.264   1.064   8.795 -0.5273 -0.0120  0.9595
 8704SOL    HW137574   0.185   1.118   8.792 -0.8861 -0.3908  3.9736
 8704SOL    HW237575   0.324   1.121   8.843 -2.1719  0.8543  1.9776
 8705SOL     OW37576   0.537   3.420   1.739  0.1369  0.0258  0.5718
 8705SOL    HW137577   0.488   3.441   1.818 -0.5442  0.4916  0.0289
 8705SOL    HW237578   0.512   3.499   1.690  0.9949 -0.3287 -0.4558
 8706SOL     OW37579   2.273   3.285   5.342 -0.0415 -0.5163 -0.2120
 8706SOL    HW137580   2.287   3.201   5.298  0.7570 -1.5266  1.9642
 8706SOL    HW237581   2.309   3.264   5.428  2.1019 -0.6651 -1.1276
 8707SOL     OW37582   1.917   2.955  11.784  0.4239  0.5565 -0.4101
 8707SOL    HW137583   1.925   2.978  11.877  1.9062 -0.3299 -0.3185
 8707SOL    HW237584   1.871   2.871  11.785  0.4877  0.5330  0.8872
 8708SOL     OW37585   0.358   2.885   5.524  0.1968  0.4438 -0.2141
 8708SOL    HW137586   0.332   2.927   5.442 -2.7368 -0.9261  0.0121
 8708SOL    HW237587   0.402   2.962   5.561 -0.0913 -0.6483  2.4024
 8709SOL     OW37588   1.440   2.243  12.622  0.2167  0.2448 -0.4913
 8709SOL    HW137589   1.426   2.253  12.528 -1.9501 -0.1237 -0.2035
 8709SOL    HW237590   1.481   2.157  12.620 -0.7896 -0.3129  2.3862
 8710SOL     OW37591   0.785   3.089   5.031 -0.4587  0.9306  0.7839
 8710SOL    HW137592   0.832   3.092   4.947 -1.2063  1.4313  0.3707
 8710SOL    HW237593   0.700   3.054   5.004 -0.0693  0.4208  0.2202
 8711SOL     OW37594   0.990   3.869   3.811  0.4182  0.2726  0.0589
 8711SOL    HW137595   0.954   3.785   3.838 -0.3933 -0.1779 -2.4223
 8711SOL    HW237596   1.016   3.910   3.894 -3.6533  0.0578  1.4290
 8712SOL     OW37597   4.146   2.027   3.936 -0.1547 -0.5920 -0.1235
 8712SOL    HW137598   4.192   1.949   3.969 -2.3239 -2.4113 -1.3616
 8712SOL    HW237599   4.216   2.089   3.956  0.3800 -1.0003 -0.6961
 8713SOL     OW37600   1.674   4.524  11.878 -0.0270 -0.7643 -0.3588
 8713SOL    HW137601   1.699   4.611  11.847  3.7883 -1.3919  0.9306
 8713SOL    HW237602   1.596   4.540  11.930  1.8660  2.0661  1.6290
 8714SOL     OW37603   3.751   0.936  15.111 -0.3646  0.0757 -0.0863
 8714SOL    HW137604   3.753   0.932  15.015 -0.3118  0.0703 -0.0851
 8714SOL    HW237605   3.727   1.028  15.123  0.6451  0.5447 -1.6822
 8715SOL     OW37606   0.444   1.160  13.939 -0.0632 -0.1601  0.0225
 8715SOL    HW137607   0.348   1.155  13.936 -0.0946 -0.7303  2.0093
 8715SOL    HW237608   0.448   1.254  13.955  1.0787 -0.0835 -0.7036
 8716SOL     OW37609   3.977   2.634  10.016 -0.3023 -1.0562 -0.2530
 8716SOL    HW137610   4.016   2.694   9.952 -0.3065 -0.9743 -0.1777
 8716SOL    HW237611   3.974   2.555   9.961 -3.2241 -0.4550 -0.9672
 8717SOL     OW37612   2.111   2.876  13.581  0.0815  0.1795 -0.1525
 8717SOL    HW137613   2.113   2.809  13.512 -0.9866  0.0484 -0.0457
 8717SOL    HW237614   2.189   2.854  13.631 -1.1787  1.5255  2.3811
 8718SOL     OW37615   1.542   1.638   8.225 -0.3445 -0.6945  0.1118
 8718SOL    HW137616   1.586   1.723   8.225  2.5631 -2.2199  2.5003
 8718SOL    HW237617   1.616   1.591   8.188  1.9645  0.9569  2.6299
 8719SOL     OW37618   1.519   2.943  12.189 -0.0359  1.3099 -0.1410
 8719SOL    HW137619   1.493   3.032  12.213 -0.5730  0.8721  0.9054
 8719SOL    HW237620   1.451   2.889  12.230  0.5733  1.0755  0.5658
 8720SOL     OW37621   3.851   2.235   3.451  0.2034  0.4944 -0.2789
 8720SOL    HW137622   3.899   2.166   3.498 -1.9714 -0.6575  0.2266
 8720SOL    HW237623   3.809   2.194   3.375  0.3836 -0.4140  0.1153
 8721SOL     OW37624   2.294   4.035   6.890  0.3123  0.4766 -0.3653
 8721SOL    HW137625   2.275   4.100   6.822  0.2606  0.7887 -0.0522
 8721SOL    HW237626   2.215   3.982   6.882  0.7672 -0.3080  0.4593
 8722SOL     OW37627   4.087   0.361   5.528  0.6399 -0.6421  0.8270
 8722SOL    HW137628   4.001   0.399   5.508  0.0917  0.1695  4.9015
 8722SOL    HW237629   4.065   0.319   5.611  0.2569  0.6501  1.3756
 8723SOL     OW37630   0.649   3.483   3.593  0.4912 -0.0399  0.3678
 8723SOL    HW137631   0.612   3.417   3.651 -0.3357  1.0021  1.0421
 8723SOL    HW237632   0.609   3.560   3.635  0.5626 -0.0456  0.4471
 8724SOL     OW37633   0.790   0.397   8.393 -0.2122  0.1021 -0.6942
 8724SOL    HW137634   0.704   0.375   8.429  0.5987 -0.5211  0.9093
 8724SOL    HW237635   0.799   0.492   8.399 -0.1745  0.0875 -0.5155
 8725SOL     OW37636   0.234   2.273  16.284  0.2603  0.0301  0.1310
 8725SOL    HW137637   0.193   2.359  16.294  0.3447  0.0543  0.2752
 8725SOL    HW237638   0.180   2.239  16.214  0.1102 -0.0485  0.2846
 8726SOL     OW37639   3.978   0.920   4.925  0.2308 -0.2859 -0.1845
 8726SOL    HW137640   3.916   0.873   4.981  0.8031 -0.2770  0.4600
 8726SOL    HW237641   4.058   0.877   4.957 -1.6693 -3.6127  0.1174
 8727SOL     OW37642   2.374   0.329   1.874 -0.5513  0.1071  0.0551
 8727SOL    HW137643   2.408   0.295   1.957 -0.4936 -0.5824 -0.2507
 8727SOL    HW237644   2.343   0.251   1.828 -1.5051  1.0012 -0.8019
 8728SOL     OW37645   1.591   3.626  12.697 -0.8623 -0.3085 -0.1183
 8728SOL    HW137646   1.683   3.632  12.722 -0.5886  1.9310 -1.6402
 8728SOL    HW237647   1.551   3.658  12.777  2.1050 -1.2434  1.7551
 8729SOL     OW37648   2.083   3.153   7.005 -0.1387  0.2674  0.4791
 8729SOL    HW137649   2.099   3.103   6.925 -0.0576  1.5519 -0.3091
 8729SOL    HW237650   2.144   3.110   7.064  0.1215  0.5118  0.3877
 8730SOL     OW37651   2.058   3.915   2.001 -0.3086  0.2667 -0.5262
 8730SOL    HW137652   2.085   3.831   2.037 -1.6287 -0.8946 -2.2692
 8730SOL    HW237653   1.967   3.912   2.032  0.9559 -1.7464  2.9412
 8731SOL     OW37654   2.594   1.338   0.530  0.2463  0.5373 -0.1269
 8731SOL    HW137655   2.582   1.415   0.586 -0.0762  0.5493 -0.2148
 8731SOL    HW237656   2.510   1.293   0.533  1.8740 -2.3237  2.1732
 8732SOL     OW37657   2.584   1.151  16.598  0.4956  0.1815  0.4792
 8732SOL    HW137658   2.517   1.082  16.603  0.6006  0.0757  0.4308
 8732SOL    HW237659   2.607   1.142  16.691  1.8110 -0.1538  0.1225
 8733SOL     OW37660   4.183   1.240   8.157  0.0220 -0.1961  0.8452
 8733SOL    HW137661   4.094   1.214   8.136  0.4613 -0.0682 -1.1623
 8733SOL    HW237662   4.231   1.211   8.080  0.2889 -1.6459  1.5385
 8734SOL     OW37663   1.141   0.380   3.949  0.6858  0.0544 -0.2081
 8734SOL    HW137664   1.206   0.321   3.912 -0.0761  0.1858 -1.7555
 8734SOL    HW237665   1.148   0.356   4.042 -0.4810 -0.6890 -0.3199
 8735SOL     OW37666   3.700   3.830  14.366  0.5965 -0.2910  0.0732
 8735SOL    HW137667   3.648   3.771  14.421 -0.5356 -0.3870 -1.0963
 8735SOL    HW237668   3.718   3.766  14.298  0.0247 -1.0991  0.6893
 8736SOL     OW37669   1.239   2.490   3.821 -0.1047 -0.1896 -0.4529
 8736SOL    HW137670   1.209   2.570   3.778  2.3518  1.8755  1.6376
 8736SOL    HW237671   1.175   2.484   3.892  1.8141 -0.0799  1.3011
 8737SOL     OW37672   4.087   1.457  17.274 -0.4831 -0.5904 -0.0749
 8737SOL    HW137673   4.039   1.517  17.217  2.9759  3.6609  1.4766
 8737SOL    HW237674   4.030   1.382  17.288 -0.6523 -0.3015  0.7601
 8738SOL     OW37675   0.562   3.719   4.530  0.5459  0.0787 -0.5303
 8738SOL    HW137676   0.505   3.657   4.575 -0.4578  1.6311  0.2908
 8738SOL    HW237677   0.523   3.797   4.567 -1.3257 -0.6114 -1.0657
 8739SOL     OW37678   3.144   1.141   2.717  0.0462 -0.1890 -0.0290
 8739SOL    HW137679   3.049   1.129   2.715 -0.0509  0.5903  0.1269
 8739SOL    HW237680   3.175   1.051   2.702  2.4318  0.8738 -1.4790
 8740SOL     OW37681   0.919   2.439   4.833 -0.1842 -0.3074  0.5586
 8740SOL    HW137682   0.921   2.356   4.785 -0.7627 -1.6225  2.8272
 8740SOL    HW237683   0.974   2.488   4.773 -1.1833  0.3108  0.1399
 8741SOL     OW37684   1.704   3.398   4.645 -0.5195  0.0344 -0.7004
 8741SOL    HW137685   1.750   3.454   4.707 -2.2947  2.4263 -1.5557
 8741SOL    HW237686   1.702   3.319   4.699 -2.1001 -0.2826 -1.2230
 8742SOL     OW37687   1.950   3.674   3.269 -0.7241 -0.3423 -0.2394
 8742SOL    HW137688   1.904   3.687   3.352 -0.6518 -0.1605 -0.2278
 8742SOL    HW237689   2.012   3.603   3.284 -1.0888 -0.2423  1.7454
 8743SOL     OW37690   3.215   0.268   8.504  0.0782 -0.1643  0.2293
 8743SOL    HW137691   3.124   0.287   8.481 -0.3931 -0.3953  1.8449
 8743SOL    HW237692   3.222   0.173   8.519  0.9213 -0.2559 -0.8132
 8744SOL     OW37693   3.895   2.915   0.507 -0.1614  0.3428  0.1403
 8744SOL    HW137694   3.829   2.917   0.576 -0.7786 -1.7892 -0.3760
 8744SOL    HW237695   3.965   2.966   0.548 -0.0199 -1.8801  2.6449
 8745SOL     OW37696   2.097   3.800   3.057 -0.1131  0.5674  0.7010
 8745SOL    HW137697   2.062   3.889   3.055  2.7792  1.6866 -1.2327
 8745SOL    HW237698   2.032   3.746   3.102 -2.7399  3.6871  0.6595
 8746SOL     OW37699   4.106   0.605   2.552  0.5183  0.0331  0.1212
 8746SOL    HW137700   4.084   0.692   2.520  0.8886  0.0072 -0.2029
 8746SOL    HW237701   4.170   0.574   2.488 -1.0914  0.8367 -1.8813
 8747SOL     OW37702   1.308   1.302   2.749  0.4660  0.5995 -0.4637
 8747SOL    HW137703   1.220   1.340   2.738  0.7186  0.6277 -2.4390
 8747SOL    HW237704   1.366   1.365   2.791 -0.1638  0.7985  0.1138
 8748SOL     OW37705   1.651   2.300  15.535  0.3601 -0.0945 -0.2009
 8748SOL    HW137706   1.609   2.260  15.459  0.1737 -3.5269  1.6910
 8748SOL    HW237707   1.618   2.389  15.526  0.4892  0.1017  1.2850
 8749SOL     OW37708   0.191   0.743  15.229  0.0074 -0.0355 -0.7732
 8749SOL    HW137709   0.249   0.795  15.173 -1.3705  3.0854  0.6898
 8749SOL    HW237710   0.236   0.660  15.248 -1.9154 -0.3773  2.2569
 8750SOL     OW37711   3.597   0.460   3.512 -0.8620 -0.7659  0.0044
 8750SOL    HW137712   3.623   0.520   3.582  1.0579 -1.9632  0.3562
 8750SOL    HW237713   3.672   0.400   3.506  1.0278  1.8547 -2.5145
 8751SOL     OW37714   1.882   0.220  11.423 -0.2513 -0.0866 -0.9184
 8751SOL    HW137715   1.828   0.214  11.344 -0.2712  1.8280 -1.0418
 8751SOL    HW237716   1.892   0.129  11.453  2.6778  0.8051  0.8029
 8752SOL     OW37717   4.186   0.859   6.627 -0.6598  0.0397 -0.2193
 8752SOL    HW137718   4.270   0.830   6.664 -0.3892 -0.7742 -1.4777
 8752SOL    HW237719   4.227   0.893   6.548  0.5061 -0.7153  0.0496
 8753SOL     OW37720   0.654   1.120  13.636 -0.2025  0.4685 -0.6389
 8753SOL    HW137721   0.648   1.029  13.664  1.0019  0.3171 -0.8529
 8753SOL    HW237722   0.741   1.154  13.656 -0.8451  2.3625 -1.0401
 8754SOL     OW37723   2.148   4.243  11.550  0.4773  0.0361 -0.6932
 8754SOL    HW137724   2.105   4.307  11.494 -0.0235  0.8211  0.6091
 8754SOL    HW237725   2.181   4.176  11.490 -0.6673 -2.4728  1.4494
 8755SOL     OW37726   1.056   0.109  11.012 -0.0063  0.3479  0.2853
 8755SOL    HW137727   1.026   0.023  11.040 -0.1409  0.7882  1.4981
 8755SOL    HW237728   1.140   0.099  10.968 -0.1882 -0.3529  0.0953
 8756SOL     OW37729   3.804   4.197   3.568 -0.7038 -0.5455 -0.4335
 8756SOL    HW137730   3.856   4.214   3.647 -0.0067  0.4089 -1.0928
 8756SOL    HW237731   3.800   4.283   3.525 -0.5621  0.3709  1.3650
 8757SOL     OW37732   3.440   3.258   7.845  0.6076 -0.3544 -0.1998
 8757SOL    HW137733   3.478   3.173   7.864  0.6247 -0.5105 -0.9227
 8757SOL    HW237734   3.362   3.267   7.901 -0.1306 -1.3615 -1.0697
 8758SOL     OW37735   1.271   2.755  10.455  0.2815 -0.4841  0.6777
 8758SOL    HW137736   1.210   2.810  10.407  0.0864 -0.5382  0.8631
 8758SOL    HW237737   1.354   2.776  10.412  0.1206 -0.9568  0.1408
 8759SOL     OW37738   1.660   2.004   7.881 -0.8218 -0.7750 -0.7569
 8759SOL    HW137739   1.742   1.971   7.844 -0.5549 -0.1095 -0.7496
 8759SOL    HW237740   1.590   1.993   7.817  0.0245  1.9653 -2.1170
 8760SOL     OW37741   3.469   0.345   8.346 -0.1741  0.2415 -0.4322
 8760SOL    HW137742   3.439   0.435   8.355  2.4957  0.9838  1.0172
 8760SOL    HW237743   3.409   0.300   8.406  1.2001 -2.0023 -0.7468
 8761SOL     OW37744   0.508   4.290   5.563  0.1915  0.2469 -0.9405
 8761SOL    HW137745   0.512   4.219   5.627  1.7049 -1.0516 -2.4691
 8761SOL    HW237746   0.574   4.268   5.496  1.2348 -0.7394  0.3943
 8762SOL     OW37747   2.361   0.609   3.046  0.1335  0.1256 -0.9372
 8762SOL    HW137748   2.406   0.533   3.008  0.9070 -0.2150  0.6940
 8762SOL    HW237749   2.310   0.620   2.965  1.1567  1.5176 -1.4071
 8763SOL     OW37750   0.698   3.442   2.103 -0.1708 -0.2953 -0.2673
 8763SOL    HW137751   0.745   3.525   2.111 -0.8083  0.1630 -1.2213
 8763SOL    HW237752   0.610   3.477   2.119 -1.0425 -2.7102  0.1901
 8764SOL     OW37753   0.111   1.363   5.787 -0.0323 -0.3949 -0.2309
 8764SOL    HW137754   0.154   1.447   5.771 -0.2308 -0.1224  0.6080
 8764SOL    HW237755   0.054   1.348   5.711 -0.1063  0.1629 -0.2900
 8765SOL     OW37756   0.305   4.217   8.262  0.1652  0.5925 -0.3360
 8765SOL    HW137757   0.214   4.227   8.234 -0.2830  0.3148  1.0350
 8765SOL    HW237758   0.329   4.139   8.211  0.7765  0.2682  0.4576
 8766SOL     OW37759   1.072   2.722  10.014  0.9521 -0.7548 -0.4862
 8766SOL    HW137760   1.021   2.779  10.072 -0.8852 -2.4003 -0.4799
 8766SOL    HW237761   1.154   2.721  10.063 -0.8464  1.1637  2.5530
 8767SOL     OW37762   2.354   2.309   7.943  0.5122  0.3144  0.2522
 8767SOL    HW137763   2.429   2.251   7.932  0.0820 -0.5654  1.9240
 8767SOL    HW237764   2.385   2.357   8.020 -1.5905  0.7377  0.8348
 8768SOL     OW37765   4.622   2.906   8.448  0.0110  0.8532  0.2839
 8768SOL    HW137766   4.609   2.839   8.382  2.4368  0.4991  0.1704
 8768SOL    HW237767   4.714   2.889   8.468 -0.5261 -2.4623 -0.1135
 8769SOL     OW37768   2.473   2.518  15.728 -0.2809  0.6951 -0.0372
 8769SOL    HW137769   2.477   2.550  15.818 -0.0964  0.0296  0.1916
 8769SOL    HW237770   2.483   2.423  15.738  0.3193  0.4639 -2.7071
 8770SOL     OW37771   1.939   4.551  15.707 -0.1130 -0.2655  0.0712
 8770SOL    HW137772   2.031   4.562  15.681 -0.1082 -0.8178 -0.1343
 8770SOL    HW237773   1.948   4.595  15.792 -0.7858  0.6527 -0.3283
 8771SOL     OW37774   3.992   2.956   4.591 -0.7258  0.0106  0.1160
 8771SOL    HW137775   3.913   2.969   4.537  1.4076  1.4263 -2.7158
 8771SOL    HW237776   3.956   2.994   4.671 -0.1130 -0.0512  0.4191
 8772SOL     OW37777   1.053   2.483  11.961 -0.6584  0.3297  0.1654
 8772SOL    HW137778   1.093   2.397  11.946 -0.7451  0.3814 -0.3442
 8772SOL    HW237779   1.019   2.499  11.873  1.0252 -0.9581 -0.7367
 8773SOL     OW37780   1.946   0.454   4.968 -0.0561  0.4486  0.3945
 8773SOL    HW137781   1.869   0.451   4.911 -0.3353  2.2441  0.6462
 8773SOL    HW237782   2.015   0.478   4.907  0.2884 -1.6669 -0.0455
 8774SOL     OW37783   2.871   4.452   3.696 -0.1659 -0.5200  0.3925
 8774SOL    HW137784   2.858   4.377   3.754  2.6432 -1.8058 -0.6454
 8774SOL    HW237785   2.779   4.475   3.682  0.1985  0.6572 -0.0682
 8775SOL     OW37786   2.361   0.087   2.806  0.2658  0.3221  0.1775
 8775SOL    HW137787   2.398   0.120   2.724  2.5849 -0.8833  0.7475
 8775SOL    HW237788   2.371   4.717   2.790 -1.9034 -0.2490  2.0787
 8776SOL     OW37789   4.001   4.067   1.256 -0.3355 -0.2039 -0.3083
 8776SOL    HW137790   3.944   4.035   1.326  3.0282 -0.3078  2.3682
 8776SOL    HW237791   4.038   4.150   1.285 -2.9948  0.0125  2.4217
 8777SOL     OW37792   0.256   3.082  12.667 -0.2569 -0.0768 -0.3028
 8777SOL    HW137793   0.318   3.119  12.603  0.3470 -1.6240 -0.6221
 8777SOL    HW237794   0.181   3.077  12.607  0.5004 -0.3588 -1.2228
 8778SOL     OW37795   2.071   2.528   1.022 -0.0750 -0.2021 -0.1449
 8778SOL    HW137796   2.136   2.510   1.091  1.1946 -0.4962 -1.4205
 8778SOL    HW237797   2.123   2.501   0.946  0.5841 -1.5308  0.7643
 8779SOL     OW37798   2.019   3.708   2.582  0.0890 -0.0227 -0.1831
 8779SOL    HW137799   2.095   3.731   2.635 -0.3831  1.3353 -0.0918
 8779SOL    HW237800   2.007   3.615   2.603 -2.4510  0.2407 -0.3974
 8780SOL     OW37801   2.545   0.993  15.955 -0.6812  0.2101  0.2757
 8780SOL    HW137802   2.633   1.012  15.985 -1.0017  0.4258  1.0753
 8780SOL    HW237803   2.531   1.074  15.905 -1.2307 -0.2865 -0.3720
 8781SOL     OW37804   0.433   3.789   5.720 -0.0372 -0.4601 -0.4947
 8781SOL    HW137805   0.512   3.839   5.701 -0.9831  0.4620 -1.9905
 8781SOL    HW237806   0.381   3.855   5.767 -0.9062 -1.4464 -0.0684
 8782SOL     OW37807   0.174   0.695   6.118 -0.3276  0.1555  0.5226
 8782SOL    HW137808   0.168   0.683   6.212 -1.7099 -0.4750  0.3565
 8782SOL    HW237809   0.184   0.789   6.105  0.2228  0.1451  0.8961
 8783SOL     OW37810   0.351   1.379  15.944  0.3524 -0.0092  0.1556
 8783SOL    HW137811   0.433   1.422  15.924  0.5997 -0.0983  0.9814
 8783SOL    HW237812   0.283   1.417  15.888  0.4408  0.5836  0.4622
 8784SOL     OW37813   0.308   1.341   7.500  0.3169  0.3863  0.3428
 8784SOL    HW137814   0.272   1.426   7.475 -3.5817 -1.1177  0.8047
 8784SOL    HW237815   0.297   1.300   7.414 -0.5491 -1.5565  1.3655
 8785SOL     OW37816   2.217   3.447  17.693 -0.2157 -0.7755 -0.1590
 8785SOL    HW137817   2.272   3.467   0.070  0.3391  2.5700 -1.4742
 8785SOL    HW237818   2.179   3.359   0.005  0.3219 -0.9068  0.6607
 8786SOL     OW37819   4.480   2.138   8.411 -0.0566  0.7006  0.2256
 8786SOL    HW137820   4.437   2.207   8.360  0.2650  0.2875 -0.5943
 8786SOL    HW237821   4.491   2.183   8.495  0.3341 -0.3795  0.7444
 8787SOL     OW37822   2.811   0.816   4.422  0.1208 -0.2493  0.1508
 8787SOL    HW137823   2.783   0.891   4.475  0.7079 -0.8393  1.2905
 8787SOL    HW237824   2.734   0.760   4.410 -1.7236  2.9104 -2.7850
 8788SOL     OW37825   1.745   1.524   8.742  0.9399  0.2727 -0.3661
 8788SOL    HW137826   1.774   1.590   8.679  1.0630  1.6254  1.1265
 8788SOL    HW237827   1.713   1.568   8.820 -2.2674 -0.3716 -1.3322
 8789SOL     OW37828   1.958   2.256  12.559 -0.3486 -0.4332 -0.0603
 8789SOL    HW137829   1.998   2.303  12.486 -0.4414  1.9473  1.3945
 8789SOL    HW237830   2.029   2.195  12.580  2.7627  3.0751 -0.3739
 8790SOL     OW37831   2.735   4.631   0.870 -0.5173  0.3400  0.1852
 8790SOL    HW137832   2.790   4.619   0.792 -0.7666  2.2256 -0.2868
 8790SOL    HW237833   2.757   4.556   0.926 -2.1607 -0.2975 -0.0263
 8791SOL     OW37834   0.226   0.043  15.607  0.7547 -0.3529 -0.0376
 8791SOL    HW137835   0.156   0.085  15.556 -0.3109  0.1157  1.7961
 8791SOL    HW237836   0.217   0.101  15.683 -0.0518  0.3207 -0.6439
 8792SOL     OW37837   1.959   0.317  10.597 -0.2969 -0.6808  0.1712
 8792SOL    HW137838   1.929   0.238  10.552 -0.2677 -0.1252 -0.7990
 8792SOL    HW237839   2.036   0.282  10.641  0.6284  0.3592 -0.6462
 8793SOL     OW37840   2.534   1.344   7.405 -0.6504 -0.0179  0.4031
 8793SOL    HW137841   2.535   1.439   7.403  0.4216 -0.0719 -1.4387
 8793SOL    HW237842   2.460   1.332   7.345  1.5826  1.7632 -2.6369
 8794SOL     OW37843   3.146   4.318   3.013 -0.3546  0.0950  0.7650
 8794SOL    HW137844   3.129   4.310   2.919  1.2998  0.3116  0.4463
 8794SOL    HW237845   3.182   4.407   3.007 -1.6465  0.7108  2.2011
 8795SOL     OW37846   2.576   1.879  11.524  0.5841 -0.2073  0.5920
 8795SOL    HW137847   2.588   1.864  11.430 -2.3075 -0.1214  0.2056
 8795SOL    HW237848   2.530   1.799  11.549 -1.2898  1.0723  1.2274
 8796SOL     OW37849   2.856   3.547   2.682  0.4928  0.3202 -0.1039
 8796SOL    HW137850   2.860   3.596   2.764  2.6590 -0.4559  0.2666
 8796SOL    HW237851   2.944   3.544   2.645  1.2762 -0.0382  1.7689
 8797SOL     OW37852   4.529   4.372   8.204  0.0170 -0.8725 -0.6368
 8797SOL    HW137853   4.494   4.372   8.115 -1.9126  2.0247  0.1097
 8797SOL    HW237854   4.458   4.412   8.256  2.3698 -0.5570  2.3289
 8798SOL     OW37855   4.533   3.377   9.338 -0.0457 -0.1852  0.1042
 8798SOL    HW137856   4.608   3.355   9.393  2.2788  2.6332 -2.0024
 8798SOL    HW237857   4.459   3.326   9.374  0.5177 -1.1187 -0.0585
 8799SOL     OW37858   0.997   2.965   1.327 -0.6258 -0.4768  1.0538
 8799SOL    HW137859   0.992   3.047   1.376  0.4711 -0.3967  1.0335
 8799SOL    HW237860   0.979   2.907   1.401 -2.4362  0.5995  1.4636
 8800SOL     OW37861   3.487   2.918   5.787  0.1358  0.9243  0.2639
 8800SOL    HW137862   3.434   2.976   5.840  0.6223  1.4367  0.1873
 8800SOL    HW237863   3.547   2.975   5.739 -0.3019  2.4517  1.5579
 8801SOL     OW37864   4.217   0.324   0.665  0.1977 -0.0101 -0.1908
 8801SOL    HW137865   4.302   0.283   0.676 -0.6295 -1.6779 -0.0489
 8801SOL    HW237866   4.238   0.417   0.676  1.7493 -0.3278 -0.4446
 8802SOL     OW37867   0.769   4.205   6.364 -0.5793  0.3305 -0.4079
 8802SOL    HW137868   0.738   4.243   6.281  1.0489  0.3486 -0.9900
 8802SOL    HW237869   0.831   4.137   6.339 -0.9911  0.4110 -1.6856
 8803SOL     OW37870   4.014   4.692   4.775  0.0139 -0.4528 -0.4913
 8803SOL    HW137871   4.082   4.625   4.772 -0.2406 -0.6725 -1.4225
 8803SOL    HW237872   3.986   4.690   4.866  0.1982 -0.3962 -0.4327
 8804SOL     OW37873   1.687   0.300   9.735 -0.2469 -0.3313 -0.1064
 8804SOL    HW137874   1.752   0.292   9.665 -0.6535  0.7974 -0.6089
 8804SOL    HW237875   1.609   0.269   9.691  0.5192  1.2404 -2.6171
 8805SOL     OW37876   0.104   0.227   3.028  0.3178  0.1194  0.2613
 8805SOL    HW137877   0.095   0.289   3.100  1.4198  0.0331  0.4843
 8805SOL    HW237878   0.019   0.184   3.025  0.6705 -0.6587  1.3745
 8806SOL     OW37879   2.111   2.045  11.374  0.5777  0.5373 -0.3859
 8806SOL    HW137880   2.090   2.138  11.367  2.3424  0.6835 -3.5885
 8806SOL    HW237881   2.025   2.005  11.359  1.8676 -2.0382 -0.7752
 8807SOL     OW37882   3.809   0.781   1.737  0.3853  0.0996 -0.2679
 8807SOL    HW137883   3.860   0.850   1.779  0.7088 -0.1555 -0.2452
 8807SOL    HW237884   3.849   0.750   1.656 -0.4781 -2.5919  0.3356
 8808SOL     OW37885   4.348   2.851  14.457  0.2186 -0.1931 -0.4486
 8808SOL    HW137886   4.260   2.871  14.489  0.4435 -0.3066  0.2500
 8808SOL    HW237887   4.359   2.756  14.452  1.6132 -0.2141  2.9487
 8809SOL     OW37888   1.347   3.603   4.618 -0.4998 -0.1927  0.5101
 8809SOL    HW137889   1.374   3.646   4.699  2.3366  0.1408 -0.5966
 8809SOL    HW237890   1.268   3.654   4.599  0.4149  1.2373  0.5347
 8810SOL     OW37891   1.306   4.581   8.632 -0.4432 -0.0017  0.0703
 8810SOL    HW137892   1.394   4.590   8.596 -0.4928  1.1784  0.2495
 8810SOL    HW237893   1.252   4.539   8.565 -0.3573  2.2732 -1.4186
 8811SOL     OW37894   2.801   2.001  15.573 -0.5064 -0.1711 -0.5708
 8811SOL    HW137895   2.893   1.984  15.594 -1.1447  0.6753  2.8804
 8811SOL    HW237896   2.759   1.945  15.638  0.3519 -0.4703 -0.2701
 8812SOL     OW37897   2.352   0.328  15.220 -0.3452  0.1568 -0.1475
 8812SOL    HW137898   2.400   0.365  15.294  2.4346  1.6806 -2.7087
 8812SOL    HW237899   2.269   0.298  15.256  1.5224 -0.5616  3.5729
 8813SOL     OW37900   2.487   2.295  14.713 -0.2558 -0.7408  0.0284
 8813SOL    HW137901   2.541   2.216  14.715  0.8577  0.0604  1.3136
 8813SOL    HW237902   2.456   2.289  14.622  1.9701 -0.2881 -0.7574
 8814SOL     OW37903   4.610   2.556  12.628  0.4102  0.3230 -0.0262
 8814SOL    HW137904   4.616   2.651  12.618  0.8089  0.3270  0.2760
 8814SOL    HW237905   4.586   2.546  12.720 -0.2494  0.5056 -0.1730
 8815SOL     OW37906   4.014   0.545   0.449 -0.5710  0.2429 -0.0967
 8815SOL    HW137907   4.093   0.599   0.459 -0.0446 -0.4806 -0.4363
 8815SOL    HW237908   3.989   0.575   0.361 -0.4940  1.9009  0.4443
 8816SOL     OW37909   2.031   3.185   5.112 -0.0846 -0.3325 -0.3814
 8816SOL    HW137910   1.969   3.122   5.076 -0.5302 -0.4016  0.5040
 8816SOL    HW237911   2.102   3.165   5.052  2.2871 -0.5554  2.5298
 8817SOL     OW37912   0.913   0.684   5.048  0.6001 -0.0622  0.1315
 8817SOL    HW137913   0.987   0.744   5.035 -0.1270  0.7465 -0.2710
 8817SOL    HW237914   0.861   0.730   5.114  1.5277 -0.6382  1.2596
 8818SOL     OW37915   1.790   1.688  14.691 -0.2276 -0.4117  0.0401
 8818SOL    HW137916   1.827   1.776  14.678 -0.4695 -0.3074  0.0555
 8818SOL    HW237917   1.804   1.696  14.785 -4.0756  0.3921  0.5271
 8819SOL     OW37918   3.331   2.502   4.415  0.2143  0.1487  0.5054
 8819SOL    HW137919   3.404   2.480   4.473 -0.1883  0.4163  1.1098
 8819SOL    HW237920   3.258   2.460   4.461 -1.6607  1.1626 -1.5293
 8820SOL     OW37921   4.433   0.866   1.473 -0.1140 -0.0187  0.4546
 8820SOL    HW137922   4.404   0.837   1.386  0.1202  2.9942 -0.6133
 8820SOL    HW237923   4.395   0.794   1.523 -0.3149 -1.3887 -1.6382
 8821SOL     OW37924   0.545   2.710   0.999 -0.4382 -0.2524 -0.2170
 8821SOL    HW137925   0.628   2.671   1.023 -0.0393  0.0548 -1.1107
 8821SOL    HW237926   0.567   2.751   0.915 -0.0119  0.3945  0.2125
 8822SOL     OW37927   1.769   3.973  16.876 -0.1916  0.2549 -0.2816
 8822SOL    HW137928   1.741   3.904  16.936 -0.4138  0.5316 -0.0683
 8822SOL    HW237929   1.714   4.042  16.913 -1.1336 -1.5248  1.6601
 8823SOL     OW37930   2.429   0.388  17.026 -0.0151 -0.0899 -0.1244
 8823SOL    HW137931   2.503   0.345  17.069 -0.5627 -2.0508 -1.1396
 8823SOL    HW237932   2.404   0.320  16.963 -0.3177  1.7697 -2.0164
 8824SOL     OW37933   3.426   3.894   0.089 -0.5207  0.0751  0.2585
 8824SOL    HW137934   3.400   3.803   0.102 -3.7182  0.7573 -1.1316
 8824SOL    HW237935   3.511   3.877   0.129 -0.1821  0.8454 -0.1303
 8825SOL     OW37936   4.449   1.829   9.415 -0.2012 -0.0781 -0.4618
 8825SOL    HW137937   4.406   1.848   9.332  0.6911  0.1896 -0.8584
 8825SOL    HW237938   4.394   1.757   9.446 -1.7057  1.2851  0.0255
 8826SOL     OW37939   4.070   2.789   2.627 -0.3724 -0.4307 -0.3755
 8826SOL    HW137940   4.141   2.735   2.662 -1.1681 -0.6853  0.8632
 8826SOL    HW237941   4.110   2.875   2.631  1.3763 -1.1867 -1.8088
 8827SOL     OW37942   2.668   0.974  17.603  0.1185 -0.0344 -0.0372
 8827SOL    HW137943   2.650   0.880  17.598 -0.4624  0.0244  0.8042
 8827SOL    HW237944   2.762   0.981  17.619  0.1111  1.7271 -0.8414
 8828SOL     OW37945   1.006   2.613  17.082 -0.1022 -0.3395 -0.0454
 8828SOL    HW137946   0.942   2.666  17.034 -0.9616  0.1027  1.5925
 8828SOL    HW237947   0.949   2.578  17.150  0.2320 -1.2976 -0.2655
 8829SOL     OW37948   1.210   4.215   5.345 -0.6394 -0.0588 -0.0216
 8829SOL    HW137949   1.291   4.226   5.294 -1.6811 -0.0333 -1.6762
 8829SOL    HW237950   1.162   4.176   5.272  0.5362  1.5518 -1.6672
 8830SOL     OW37951   1.467   0.497  13.716 -0.3673  0.1235  0.1608
 8830SOL    HW137952   1.521   0.421  13.741 -1.6488 -0.8472 -0.0353
 8830SOL    HW237953   1.501   0.563  13.777  0.1671 -1.9752  2.1410
 8831SOL     OW37954   4.264   4.328  14.937  0.5032 -0.1487 -0.2750
 8831SOL    HW137955   4.206   4.271  14.887  0.0623 -0.9369  1.1218
 8831SOL    HW237956   4.265   4.401  14.875  2.9661 -1.9387 -2.3316
 8832SOL     OW37957   3.225   3.296  15.718  0.6104 -0.0962 -0.0036
 8832SOL    HW137958   3.161   3.293  15.789  1.9080 -0.9045  1.1388
 8832SOL    HW237959   3.213   3.385  15.683  0.1959 -0.9578 -2.0815
 8833SOL     OW37960   2.504   3.832   3.173 -0.2875 -0.3898 -0.0493
 8833SOL    HW137961   2.490   3.795   3.085 -0.5322 -1.1018  0.2903
 8833SOL    HW237962   2.534   3.752   3.216  1.3295 -0.3485 -1.1049
 8834SOL     OW37963   3.510   0.712   4.357 -0.5696 -0.1282 -0.4122
 8834SOL    HW137964   3.493   0.751   4.443  0.7688  1.3047 -0.8115
 8834SOL    HW237965   3.431   0.748   4.315 -1.1004 -0.6354  0.1405
 8835SOL     OW37966   1.611   3.805   7.846 -0.0008 -0.1772 -0.1628
 8835SOL    HW137967   1.665   3.749   7.790  1.5736  0.6103  0.5704
 8835SOL    HW237968   1.526   3.785   7.806  0.9944  0.0712 -2.4353
 8836SOL     OW37969   0.330   3.109   8.776  0.0128  0.2517 -0.2103
 8836SOL    HW137970   0.408   3.151   8.811 -0.5605  1.3042 -0.1937
 8836SOL    HW237971   0.270   3.183   8.786  0.7706  0.8627 -0.1444
 8837SOL     OW37972   2.466   2.241  12.033  0.0849  0.4221 -0.2538
 8837SOL    HW137973   2.497   2.331  12.036 -1.5166  0.8789  2.6221
 8837SOL    HW237974   2.440   2.241  11.941  0.0630  2.4457 -0.2426
 8838SOL     OW37975   4.409   2.147  15.540 -0.0506  1.0057  0.2798
 8838SOL    HW137976   4.450   2.233  15.531  0.0233  0.9988  0.5797
 8838SOL    HW237977   4.467   2.113  15.607 -0.9371 -0.2666  0.3945
 8839SOL     OW37978   3.653   1.070  10.652  1.0262 -0.2255 -0.0613
 8839SOL    HW137979   3.722   1.095  10.713  1.9567 -1.6978 -0.5238
 8839SOL    HW237980   3.587   1.139  10.660 -1.2496 -2.7711  2.9194
 8840SOL     OW37981   2.001   0.106   2.821 -0.0859 -0.4505 -0.1944
 8840SOL    HW137982   1.949   0.047   2.766  0.4167  0.9424 -2.1530
 8840SOL    HW237983   1.942   0.180   2.832  1.3180  0.5530  0.5219
 8841SOL     OW37984   2.455   3.215  13.543 -0.5527  0.4215  0.0674
 8841SOL    HW137985   2.447   3.308  13.522 -2.7533  0.1026 -0.5336
 8841SOL    HW237986   2.372   3.202  13.588  0.2861  0.3393  1.5709
 8842SOL     OW37987   3.508   4.594   5.477  0.2474 -0.1574 -0.0542
 8842SOL    HW137988   3.546   4.518   5.432 -1.5565 -0.6429 -0.7710
 8842SOL    HW237989   3.445   4.630   5.415  1.3202 -0.0463 -1.0935
 8843SOL     OW37990   0.778   3.544   1.385 -0.5221  0.2636 -0.0627
 8843SOL    HW137991   0.818   3.622   1.423 -0.3009  0.5414 -0.8604
 8843SOL    HW237992   0.859   3.499   1.360  0.0349  0.1965  1.8340
 8844SOL     OW37993   2.169   2.796   0.277 -0.5963  0.1814 -0.4159
 8844SOL    HW137994   2.090   2.743   0.264 -0.4769  0.2613 -1.4228
 8844SOL    HW237995   2.139   2.876   0.234 -1.8948 -0.1995 -0.2227
 8845SOL     OW37996   0.994   4.379  15.675 -0.5552 -0.0258 -0.0536
 8845SOL    HW137997   0.991   4.339  15.761 -2.6480  1.2611  0.4596
 8845SOL    HW237998   1.062   4.447  15.680 -0.1537 -0.4276 -0.0621
 8846SOL     OW37999   2.228   1.838   2.815  0.3680 -0.1572  0.3154
 8846SOL    HW138000   2.228   1.933   2.827 -1.5375 -0.1731  0.4045
 8846SOL    HW238001   2.137   1.815   2.800  0.7439 -2.0781  1.0703
 8847SOL     OW38002   0.699   2.613   4.471  0.5740  0.3398 -0.3901
 8847SOL    HW138003   0.755   2.636   4.396  1.3499 -1.5903 -0.4109
 8847SOL    HW238004   0.671   2.522   4.459  0.7063  0.2725 -0.1902
 8848SOL     OW38005   1.771   3.719  11.310  0.2368  0.5734  0.1361
 8848SOL    HW138006   1.675   3.710  11.312  0.1760  1.2569  0.1779
 8848SOL    HW238007   1.794   3.629  11.334 -0.4310  0.8275  1.6806
 8849SOL     OW38008   2.385   1.860   8.595 -0.2216  0.4622  0.1553
 8849SOL    HW138009   2.467   1.876   8.642 -0.3890  1.9447 -0.0580
 8849SOL    HW238010   2.321   1.834   8.661  1.9800 -0.9166  1.7672
 8850SOL     OW38011   3.209   1.115   5.379 -0.1497  0.6367 -0.7510
 8850SOL    HW138012   3.249   1.028   5.382 -2.3291 -0.4046 -1.4309
 8850SOL    HW238013   3.229   1.151   5.465 -0.7819  0.7532 -0.6508
 8851SOL     OW38014   0.500   4.539   0.529  0.8518 -0.1721 -0.4299
 8851SOL    HW138015   0.429   4.477   0.516  0.3366  0.5081 -0.8651
 8851SOL    HW238016   0.498   4.546   0.625  0.2449 -0.8309 -0.3983
 8852SOL     OW38017   0.936   1.315   7.596 -0.6328  0.1025 -0.2652
 8852SOL    HW138018   0.958   1.373   7.524 -1.6917  1.7704  0.7505
 8852SOL    HW238019   0.956   1.227   7.565 -0.7144 -0.6270  1.7188
 8853SOL     OW38020   2.130   4.209   2.457 -0.0572  0.5170  0.1888
 8853SOL    HW138021   2.195   4.139   2.445 -0.9011 -0.2292 -0.0134
 8853SOL    HW238022   2.175   4.265   2.394  0.3316  0.2907  0.2634
 8854SOL     OW38023   1.031   0.122  17.270 -0.1195  0.3727  0.0631
 8854SOL    HW138024   1.098   0.076  17.220  0.0593 -0.0193  0.6603
 8854SOL    HW238025   0.968   0.054  17.292  0.4811  0.9162  3.5754
 8855SOL     OW38026   0.757   3.903  10.947  0.0572 -0.3967  0.0475
 8855SOL    HW138027   0.742   3.831  10.886 -1.9035  0.6911 -0.7791
 8855SOL    HW238028   0.664   3.914  10.966  0.7703  1.4792  2.5113
 8856SOL     OW38029   1.626   3.567   7.271 -0.2048  0.3156 -0.1861
 8856SOL    HW138030   1.633   3.532   7.359 -0.2818 -0.2124 -0.3889
 8856SOL    HW238031   1.622   3.486   7.219 -0.9752 -1.3161  2.4387
 8857SOL     OW38032   3.538   1.129  11.628  0.6006 -0.7398 -0.3637
 8857SOL    HW138033   3.569   1.149  11.540 -0.6306  0.3656 -0.5525
 8857SOL    HW238034   3.444   1.122  11.608  0.4040 -0.3099  0.4192
 8858SOL     OW38035   2.851   0.006   4.711 -0.0949  0.2487  0.4166
 8858SOL    HW138036   2.855   0.101   4.696  0.5975  0.0658 -0.5560
 8858SOL    HW238037   2.824   0.010   4.803  0.5075 -1.3140  0.6613
 8859SOL     OW38038   0.158   2.806   8.528  0.0396  0.0778  0.2488
 8859SOL    HW138039   0.226   2.869   8.549  0.3085 -1.4567  3.9459
 8859SOL    HW238040   0.197   2.733   8.576 -1.5130  0.5727  2.2449
 8860SOL     OW38041   2.791   2.541   0.150 -0.1499 -0.2206 -0.1862
 8860SOL    HW138042   2.857   2.558   0.083  0.3079 -1.4593 -0.0435
 8860SOL    HW238043   2.718   2.504   0.100  0.7241 -0.8951 -0.9650
 8861SOL     OW38044   1.909   1.999  16.493  0.2555 -0.4569  0.5112
 8861SOL    HW138045   1.940   2.038  16.411  0.9174  0.5397  1.2263
 8861SOL    HW238046   1.991   1.957  16.521  1.7722  0.8093 -2.0181
 8862SOL     OW38047   3.808   1.837   9.062  0.5207  0.1532  0.3769
 8862SOL    HW138048   3.728   1.880   9.093  0.9858  2.6945 -1.9638
 8862SOL    HW238049   3.849   1.801   9.141  1.0503  1.3878  0.6667
 8863SOL     OW38050   1.412   0.424   5.862 -0.4103  0.3970 -0.8591
 8863SOL    HW138051   1.471   0.499   5.865 -0.5583  0.4889 -0.3087
 8863SOL    HW238052   1.439   0.382   5.780 -0.9220 -0.0911 -0.7798
 8864SOL     OW38053   4.399   4.059   2.367  0.7100  0.2735 -1.0659
 8864SOL    HW138054   4.378   4.010   2.447 -0.8513  1.0279 -1.0074
 8864SOL    HW238055   4.469   4.113   2.403 -0.0602  0.4459  0.1796
 8865SOL     OW38056   2.742   0.792  16.638  0.1053  0.3575  0.4488
 8865SOL    HW138057   2.709   0.878  16.612 -1.0594  0.2503  1.6153
 8865SOL    HW238058   2.667   0.733  16.644 -0.5138  0.7959 -2.7950
 8866SOL     OW38059   1.382   4.425  14.589 -0.0153 -0.0492  0.6299
 8866SOL    HW138060   1.360   4.375  14.667 -3.1831  0.9499  0.3421
 8866SOL    HW238061   1.347   4.510  14.616 -1.0005 -0.3714  0.3314
 8867SOL     OW38062   3.689   0.934  14.845  0.3372 -0.3681  0.0356
 8867SOL    HW138063   3.739   0.956  14.766  0.0930  1.8280  0.4711
 8867SOL    HW238064   3.654   0.847  14.827  3.2391 -1.1400 -1.8911
 8868SOL     OW38065   4.432   0.368  13.671 -0.1501 -0.0573 -0.3388
 8868SOL    HW138066   4.448   0.274  13.683  0.5967  0.0162 -0.7461
 8868SOL    HW238067   4.452   0.395  13.760 -0.1983 -1.2645  0.0429
 8869SOL     OW38068   2.114   1.842  15.913  0.2425 -0.2734 -0.7182
 8869SOL    HW138069   2.107   1.924  15.864  1.5298  1.5700  2.1636
 8869SOL    HW238070   2.032   1.849  15.963  0.0091  2.0944 -1.4348
 8870SOL     OW38071   1.606   4.135  17.197  0.9666  0.0786 -0.1858
 8870SOL    HW138072   1.572   4.090  17.275  0.4335 -0.2348 -0.6024
 8870SOL    HW238073   1.530   4.125  17.140  1.4021 -0.0638 -0.7344
 8871SOL     OW38074   2.465   4.434   2.917 -0.1642 -0.0272 -0.1433
 8871SOL    HW138075   2.528   4.428   2.989  1.3494  0.1669 -1.4594
 8871SOL    HW238076   2.520   4.497   2.871 -0.6918  3.0113  3.3066
 8872SOL     OW38077   2.076   2.931   5.537 -0.4212  0.7310  0.4871
 8872SOL    HW138078   2.032   2.996   5.482 -1.3244  1.9963  2.7165
 8872SOL    HW238079   2.136   2.987   5.586 -0.6059  1.3125  0.0553
 8873SOL     OW38080   2.177   3.474   3.194 -0.5823  0.0701 -0.1201
 8873SOL    HW138081   2.126   3.394   3.206 -0.8194  0.3099  0.4659
 8873SOL    HW238082   2.168   3.483   3.099 -1.7037 -0.8171 -0.0976
 8874SOL     OW38083   3.648   1.972   2.959 -0.3105  0.1008 -0.2903
 8874SOL    HW138084   3.556   1.976   2.932 -0.9810 -0.2662  1.8767
 8874SOL    HW238085   3.669   2.065   2.961  1.0621 -0.1923 -1.5800
 8875SOL     OW38086   1.102   1.469   3.849  0.6058 -0.2452 -0.0421
 8875SOL    HW138087   1.162   1.496   3.918  3.7296 -1.4780 -2.2789
 8875SOL    HW238088   1.153   1.451   3.770 -0.0278  0.4073 -0.6044
 8876SOL     OW38089   1.371   4.690  10.573  0.4187 -0.1461 -0.8785
 8876SOL    HW138090   1.433   0.017  10.626  0.2140  0.6998 -1.4557
 8876SOL    HW238091   1.305   0.034  10.564 -0.1917 -0.8885 -2.0930
 8877SOL     OW38092   1.964   4.714  14.420 -0.2164  0.4932  0.2628
 8877SOL    HW138093   2.016   0.003  14.499 -1.3047  0.6703  0.9593
 8877SOL    HW238094   1.997   4.630  14.390 -2.0520 -0.1730  0.0952
 8878SOL     OW38095   4.569   1.578   1.720 -0.4659 -0.1911  0.4074
 8878SOL    HW138096   4.644   1.520   1.725 -0.7483 -0.6422 -0.7548
 8878SOL    HW238097   4.602   1.617   1.639 -1.2535  0.1816  0.2610
 8879SOL     OW38098   0.671   3.284  14.675 -0.2659  0.2819  0.2743
 8879SOL    HW138099   0.757   3.242  14.669 -0.8197 -0.7026 -0.6828
 8879SOL    HW238100   0.659   3.287  14.770  1.1874 -0.1506  0.4776
 8880SOL     OW38101   2.778   1.772  15.112 -0.5535  0.0439  0.4167
 8880SOL    HW138102   2.827   1.851  15.091  0.6020 -0.7216  0.2267
 8880SOL    HW238103   2.731   1.798  15.191  2.1844  3.7937  0.7645
 8881SOL     OW38104   1.690   3.175   7.397 -0.4329 -0.7606 -0.1911
 8881SOL    HW138105   1.665   3.153   7.487 -0.1955  4.2091  1.0892
 8881SOL    HW238106   1.780   3.141   7.393  0.3116  1.2672 -0.5116
 8882SOL     OW38107   1.503   2.182   1.515 -0.4873 -0.0038 -0.2974
 8882SOL    HW138108   1.418   2.203   1.554  0.2262  1.2731  0.5627
 8882SOL    HW238109   1.508   2.093   1.551 -0.0508 -1.0471 -2.9575
 8883SOL     OW38110   2.629   3.587   7.320  0.1050 -0.4359 -0.1257
 8883SOL    HW138111   2.634   3.492   7.331  0.1465 -0.6429 -1.9632
 8883SOL    HW238112   2.668   3.599   7.233 -2.1813  0.4596 -1.0246
 8884SOL     OW38113   3.827   0.876  15.360  0.0064  0.0403  0.2633
 8884SOL    HW138114   3.804   0.902  15.270  2.0145  0.8028 -0.0491
 8884SOL    HW238115   3.767   0.940  15.399 -1.4213 -1.7822  1.0111
 8885SOL     OW38116   2.762   2.117   4.824 -0.4830 -0.6992  0.5559
 8885SOL    HW138117   2.786   2.034   4.782  0.5180  1.4440 -3.1156
 8885SOL    HW238118   2.811   2.100   4.904 -0.5819 -1.0017  0.5505
 8886SOL     OW38119   2.203   0.533   8.018 -0.0783 -0.8151 -0.1771
 8886SOL    HW138120   2.240   0.450   8.048  0.4917 -0.3653  0.3530
 8886SOL    HW238121   2.232   0.599   8.081  3.1167 -1.4263 -1.0035
 8887SOL     OW38122   0.406   0.565   2.110 -0.2074  0.2928 -0.2130
 8887SOL    HW138123   0.465   0.561   2.185 -0.2317  1.0808 -0.1574
 8887SOL    HW238124   0.462   0.524   2.043  1.7002 -0.4684  1.8176
 8888SOL     OW38125   3.924   2.689   6.270  0.4618  0.5275 -0.0184
 8888SOL    HW138126   3.963   2.711   6.185  4.2484 -0.1900  1.5380
 8888SOL    HW238127   3.869   2.612   6.252 -2.2062  2.0725  1.5484
 8889SOL     OW38128   1.096   0.500  11.717  0.2458 -0.3920 -0.6409
 8889SOL    HW138129   1.105   0.581  11.667 -0.2054  0.0373 -0.0184
 8889SOL    HW238130   1.125   0.539  11.799  2.1848 -1.9812 -0.5796
 8890SOL     OW38131   2.145   3.108  11.755 -0.1523 -0.3870 -0.8736
 8890SOL    HW138132   2.069   3.051  11.743  0.2433 -0.9616 -0.7016
 8890SOL    HW238133   2.119   3.155  11.834 -0.6668  0.2744 -1.4423
 8891SOL     OW38134   2.581   2.011   2.240 -0.0176  0.8681  0.1999
 8891SOL    HW138135   2.646   1.974   2.180  1.6773 -1.7226  3.6628
 8891SOL    HW238136   2.587   1.964   2.323 -0.3098 -1.3399 -1.0264
 8892SOL     OW38137   1.089   3.737  11.825  0.0011  0.5888  0.4834
 8892SOL    HW138138   1.184   3.748  11.831  0.0755 -0.1745  0.7476
 8892SOL    HW238139   1.085   3.673  11.754 -1.3850  0.3302  0.8025
 8893SOL     OW38140   2.340   4.126   3.932  0.1175  0.1636 -0.2901
 8893SOL    HW138141   2.299   4.153   4.014  1.4332  0.2677  0.3209
 8893SOL    HW238142   2.328   4.207   3.882 -1.2090 -0.6340 -1.2795
 8894SOL     OW38143   2.258   0.942  13.596 -0.1145  0.1385  0.4108
 8894SOL    HW138144   2.181   0.887  13.603 -0.8064  0.9190 -1.1862
 8894SOL    HW238145   2.310   0.892  13.534  0.6345  1.4756 -0.0491
 8895SOL     OW38146   0.968   4.648   7.793 -0.0516  0.4707 -0.8353
 8895SOL    HW138147   0.924   4.572   7.755 -0.5864  0.5705 -0.4145
 8895SOL    HW238148   0.938   4.639   7.884  0.2053 -0.3882 -0.8295
 8896SOL     OW38149   0.183   0.843   1.891 -0.2477  0.3485  0.3812
 8896SOL    HW138150   0.151   0.886   1.811 -2.2237 -3.5252 -0.8991
 8896SOL    HW238151   0.100   0.804   1.918 -0.4019  1.9207  2.1866
 8897SOL     OW38152   3.161   2.037   7.818 -0.1945  0.1992 -0.3877
 8897SOL    HW138153   3.254   2.028   7.797 -0.6569 -0.9148 -1.9188
 8897SOL    HW238154   3.170   2.114   7.874  1.3691 -2.0068  2.4340
 8898SOL     OW38155   3.432   3.656   7.857 -0.1284  0.1201 -0.1273
 8898SOL    HW138156   3.343   3.639   7.828 -0.0438 -0.8626  0.1868
 8898SOL    HW238157   3.420   3.739   7.903 -0.6454 -1.1143  1.9511
 8899SOL     OW38158   2.892   1.700  17.534 -0.1175 -0.4552 -0.1914
 8899SOL    HW138159   2.979   1.671  17.563 -0.4706 -0.6967  0.6361
 8899SOL    HW238160   2.844   1.693  17.617  3.6676 -2.8601  1.7905
 8900SOL     OW38161   2.176   0.123   3.369  0.1983  0.1212  0.1733
 8900SOL    HW138162   2.129   0.052   3.413 -0.2597 -0.1579 -0.7694
 8900SOL    HW238163   2.259   0.082   3.348  0.3229 -0.7508  2.3469
 8901SOL     OW38164   1.516   1.612  11.282  0.4456  0.0852  0.3962
 8901SOL    HW138165   1.488   1.699  11.254  1.0959  0.6609  1.5367
 8901SOL    HW238166   1.610   1.631  11.285  0.5641 -0.2647 -1.5574
 8902SOL     OW38167   0.309   1.237  12.734  0.5134  0.3424  0.4546
 8902SOL    HW138168   0.395   1.273  12.714  1.1828 -1.1233  0.6265
 8902SOL    HW238169   0.280   1.295  12.805 -1.1951  0.3758 -0.2635
 8903SOL     OW38170   2.053   2.410   9.727 -0.3944  0.3231  0.3885
 8903SOL    HW138171   2.004   2.425   9.646 -0.1306 -1.2762 -0.0611
 8903SOL    HW238172   2.126   2.471   9.723 -0.2017  0.0845  0.2713
 8904SOL     OW38173   1.167   0.616   6.570 -0.2377  0.0582  0.1619
 8904SOL    HW138174   1.126   0.559   6.504  0.5834  0.0566 -0.3504
 8904SOL    HW238175   1.230   0.554   6.608 -0.3767  1.3483  2.4914
 8905SOL     OW38176   2.960   0.110   6.658 -0.3132 -0.0993 -0.3506
 8905SOL    HW138177   2.877   0.122   6.705 -0.1507 -0.8763  0.1375
 8905SOL    HW238178   2.979   0.201   6.635  1.4873 -0.3659  0.0945
 8906SOL     OW38179   2.246   3.478  15.494  0.2356 -0.1823  0.0443
 8906SOL    HW138180   2.187   3.535  15.543  0.9965 -0.6529  1.4866
 8906SOL    HW238181   2.194   3.398  15.485  0.2881 -0.2597  0.4240
 8907SOL     OW38182   1.646   2.517   9.865 -0.4845 -0.4059 -0.3152
 8907SOL    HW138183   1.706   2.452   9.901  0.9651  0.9934 -0.1672
 8907SOL    HW238184   1.699   2.564   9.800 -0.1259  0.4189  0.5589
 8908SOL     OW38185   0.502   0.637  16.239  0.3684 -0.1386  0.3086
 8908SOL    HW138186   0.472   0.727  16.236  1.4093  0.2238  0.9891
 8908SOL    HW238187   0.435   0.600  16.181  0.4796  0.8072 -0.4218
 8909SOL     OW38188   3.379   0.485  16.363  0.5185 -0.2400 -0.2862
 8909SOL    HW138189   3.360   0.579  16.364  0.1895 -0.3014 -0.7831
 8909SOL    HW238190   3.300   0.453  16.321  0.7142 -0.9851 -0.0826
 8910SOL     OW38191   4.166   1.365   7.433 -0.4358  0.2624  0.0343
 8910SOL    HW138192   4.144   1.276   7.408  0.9921 -0.4835  1.4514
 8910SOL    HW238193   4.183   1.355   7.527 -1.7429  1.0481  0.3705
 8911SOL     OW38194   2.441   3.178   4.775  0.0284 -0.3382 -0.0834
 8911SOL    HW138195   2.509   3.219   4.721 -1.2660  1.6783 -0.1966
 8911SOL    HW238196   2.491   3.135   4.844  1.4355  1.0914 -0.2092
 8912SOL     OW38197   2.033   1.893   3.448 -0.2480 -0.1155  0.1760
 8912SOL    HW138198   2.054   1.883   3.356 -0.2876 -1.7705  0.3453
 8912SOL    HW238199   2.120   1.889   3.487  0.6237 -0.0407 -1.7786
 8913SOL     OW38200   0.871   1.227   8.984 -0.7894 -0.7341 -0.8753
 8913SOL    HW138201   0.957   1.264   9.001 -1.6918  0.2705  1.5724
 8913SOL    HW238202   0.888   1.137   9.012  0.0371 -0.1945  0.3630
 8914SOL     OW38203   3.260   2.077   6.935 -0.1891  0.1428  0.0124
 8914SOL    HW138204   3.348   2.092   6.900  1.1059 -0.0876  3.1035
 8914SOL    HW238205   3.212   2.068   6.853 -0.7185 -3.2549  0.7052
 8915SOL     OW38206   2.050   1.958   6.914 -0.1067  0.2565 -0.1307
 8915SOL    HW138207   2.007   2.008   6.983 -2.4638 -0.5764 -1.0073
 8915SOL    HW238208   1.981   1.910   6.868  2.0347 -1.1269 -1.9060
 8916SOL     OW38209   2.526   4.716   6.059  0.7912 -0.7156  0.1770
 8916SOL    HW138210   2.576   0.011   6.139  0.8463 -1.6076  0.3514
 8916SOL    HW238211   2.569   0.046   5.994  2.6649 -2.9075 -0.4144
 8917SOL     OW38212   4.481   3.895   7.541  0.1998  0.3539 -0.7278
 8917SOL    HW138213   4.519   3.901   7.453 -0.5764  1.2159 -0.9948
 8917SOL    HW238214   4.487   3.801   7.560 -1.1433  0.3591 -0.2820
 8918SOL     OW38215   2.652   2.835  10.958  0.3768 -0.2263 -0.1078
 8918SOL    HW138216   2.580   2.800  11.010  1.7565 -1.2240  1.1353
 8918SOL    HW238217   2.725   2.813  11.016 -1.6270 -2.3829  1.6102
 8919SOL     OW38218   1.468   3.945   9.126  0.6369  0.1597 -0.0766
 8919SOL    HW138219   1.489   3.859   9.163  0.9681 -0.5126 -1.8363
 8919SOL    HW238220   1.382   3.928   9.087  0.4648 -0.7079  0.6729
 8920SOL     OW38221   2.803   1.989  16.432 -0.2774  0.3812  0.3227
 8920SOL    HW138222   2.768   2.019  16.348 -0.0660  1.5832  0.6599
 8920SOL    HW238223   2.892   2.024  16.435 -0.1686  0.1680 -0.4321
 8921SOL     OW38224   1.910   1.851   2.583  0.6812  0.6781  0.5479
 8921SOL    HW138225   1.862   1.887   2.508  1.5754  1.1127  0.1872
 8921SOL    HW238226   1.987   1.906   2.579  0.9963  0.1810 -0.4015
 8922SOL     OW38227   4.386   4.206   4.260  0.0396  0.0716  0.0554
 8922SOL    HW138228   4.328   4.273   4.224  0.4899 -0.4605 -1.6521
 8922SOL    HW238229   4.324   4.142   4.294  3.2725 -2.8430  0.4302
 8923SOL     OW38230   4.200   1.543  12.073 -0.3211 -0.0216  0.7412
 8923SOL    HW138231   4.286   1.576  12.049  0.2768 -0.8853  1.6845
 8923SOL    HW238232   4.144   1.611  12.036 -0.3535 -0.7231 -0.4697
 8924SOL     OW38233   2.263   1.812   7.009 -0.6257  0.1332 -0.1175
 8924SOL    HW138234   2.322   1.838   6.938 -0.0753 -0.7906  0.0046
 8924SOL    HW238235   2.178   1.828   6.968  0.6496  0.3741 -2.6183
 8925SOL     OW38236   4.338   4.023  11.717 -0.0907  0.1124  0.3296
 8925SOL    HW138237   4.271   4.078  11.757 -0.3189  0.8152 -1.0189
 8925SOL    HW238238   4.287   3.965  11.661  2.4039 -2.2119  0.4215
 8926SOL     OW38239   1.588   2.267   3.935 -0.5071 -0.6677 -0.4408
 8926SOL    HW138240   1.521   2.274   3.867  0.7344  2.4010 -1.3700
 8926SOL    HW238241   1.610   2.174   3.931  1.9795 -0.2099  2.1625
 8927SOL     OW38242   0.952   2.704   8.975 -0.2099 -0.3868 -0.1299
 8927SOL    HW138243   0.873   2.759   8.971 -0.8963 -1.2090  1.9934
 8927SOL    HW238244   0.934   2.642   8.904  1.2258 -1.1965  0.2280
 8928SOL     OW38245   2.822   0.908   3.962 -0.0478  0.3146 -0.3372
 8928SOL    HW138246   2.795   0.859   3.884 -1.3785 -0.0523  0.3700
 8928SOL    HW238247   2.841   0.836   4.023 -0.4369 -0.5475 -1.2303
 8929SOL     OW38248   3.219   0.904   3.625 -0.3636 -0.1776  0.3428
 8929SOL    HW138249   3.239   0.813   3.644 -1.7906 -0.6115 -0.2329
 8929SOL    HW238250   3.144   0.895   3.567  0.9034 -0.8029 -1.1888
 8930SOL     OW38251   2.178   0.783   4.393 -0.5835  0.3803 -0.4583
 8930SOL    HW138252   2.153   0.875   4.392 -0.6411  0.3755  0.4198
 8930SOL    HW238253   2.188   0.767   4.487  0.1107 -1.1700 -0.8015
 8931SOL     OW38254   4.474   3.700   5.435  0.1083  0.3427  0.1694
 8931SOL    HW138255   4.481   3.616   5.480  0.5113 -0.8287 -2.0856
 8931SOL    HW238256   4.402   3.736   5.486  0.1662 -0.3572  0.7342
 8932SOL     OW38257   2.095   0.527  16.705  0.5996  0.3833 -0.0412
 8932SOL    HW138258   2.134   0.473  16.636 -0.5521  0.7545 -0.9867
 8932SOL    HW238259   2.048   0.455  16.747  1.6208 -1.1728 -1.5801
 8933SOL     OW38260   0.698   4.439   9.387 -0.0071 -0.0862 -0.1968
 8933SOL    HW138261   0.603   4.435   9.380 -0.2099  2.3192  0.9740
 8933SOL    HW238262   0.718   4.432   9.294 -0.6202 -2.7193 -0.1226
 8934SOL     OW38263   2.817   4.256  12.650 -0.0940  0.3645 -0.6232
 8934SOL    HW138264   2.907   4.226  12.640 -0.3542 -0.6674  0.1473
 8934SOL    HW238265   2.828   4.338  12.699  0.8223  0.3646 -0.8420
 8935SOL     OW38266   4.207   0.110   2.322 -0.3724 -0.1156 -0.1480
 8935SOL    HW138267   4.185   0.162   2.245 -1.0573 -1.5042 -0.8970
 8935SOL    HW238268   4.233   0.026   2.283 -0.5820 -0.4289  0.3774
 8936SOL     OW38269   4.490   4.135  13.340  0.1688  0.2917 -0.1854
 8936SOL    HW138270   4.583   4.147  13.355 -0.2232  3.2593 -0.2019
 8936SOL    HW238271   4.458   4.114  13.428  0.4614  1.7713  0.2618
 8937SOL     OW38272   4.178   1.398   2.130  0.4800 -0.4094  0.0099
 8937SOL    HW138273   4.126   1.478   2.122  0.1663 -0.7831 -1.7376
 8937SOL    HW238274   4.115   1.333   2.097  0.6728 -0.4876 -0.1978
 8938SOL     OW38275   1.149   4.304   7.667 -0.0860  0.3131 -0.2128
 8938SOL    HW138276   1.202   4.233   7.632  0.6840  1.4297 -1.3203
 8938SOL    HW238277   1.191   4.322   7.751 -2.9457 -1.5588  1.5913
 8939SOL     OW38278   4.546   0.495  14.460  0.1389 -0.2078  0.2270
 8939SOL    HW138279   4.595   0.566  14.417 -1.0478  0.1148 -0.5977
 8939SOL    HW238280   4.472   0.542  14.499 -1.2442  0.2326 -2.9529
 8940SOL     OW38281   1.222   1.093   8.849 -0.2819 -0.3406  0.0164
 8940SOL    HW138282   1.316   1.107   8.842 -0.6250  1.3525 -1.0136
 8940SOL    HW238283   1.192   1.163   8.907 -1.6349  0.7095 -1.9427
 8941SOL     OW38284   2.213   1.009   8.912  0.3625 -0.3807  0.3045
 8941SOL    HW138285   2.133   0.977   8.954 -1.7767  1.3038 -2.4643
 8941SOL    HW238286   2.174   1.061   8.842  0.1600 -1.3966 -0.3348
 8942SOL     OW38287   2.927   0.927   6.288 -0.4680 -0.2655  0.1602
 8942SOL    HW138288   2.936   0.862   6.358  0.4763 -1.3969 -1.0204
 8942SOL    HW238289   2.939   0.882   6.205 -2.1747 -0.0223 -0.2219
 8943SOL     OW38290   0.080   0.454   4.614 -0.2494 -0.0342  0.0653
 8943SOL    HW138291   0.160   0.455   4.667 -0.3817 -1.8534  0.2760
 8943SOL    HW238292   0.028   0.389   4.660  1.0770  0.6163  2.4930
 8944SOL     OW38293   4.414   4.288   3.155  0.5659  0.4672  0.1187
 8944SOL    HW138294   4.343   4.231   3.124  0.0184  0.6578  1.0338
 8944SOL    HW238295   4.380   4.320   3.238 -0.4266 -0.7898  0.2025
 8945SOL     OW38296   4.367   1.460  14.877  0.7099 -0.0381 -0.1893
 8945SOL    HW138297   4.421   1.446  14.800 -1.4143  0.1128 -1.7287
 8945SOL    HW238298   4.364   1.371  14.913 -0.7818 -0.3575 -1.0919
 8946SOL     OW38299   0.631   1.425   8.909  0.1572  0.0759  0.1829
 8946SOL    HW138300   0.641   1.439   9.003 -0.0904 -2.5582  0.6015
 8946SOL    HW238301   0.612   1.512   8.875 -0.1735  0.6887  1.9329
 8947SOL     OW38302   0.065   1.281  13.530 -0.1106 -0.3887 -0.2280
 8947SOL    HW138303   0.022   1.338  13.595  2.0507  0.3725  0.5224
 8947SOL    HW238304   0.157   1.305  13.532  0.4359 -2.6167  1.1238
 8948SOL     OW38305   2.785   4.224  17.668  0.1643 -0.4362  0.1647
 8948SOL    HW138306   2.818   4.313  17.674 -1.6355  0.3603 -1.4292
 8948SOL    HW238307   2.772   4.197   0.061  1.5133 -1.8036 -0.0508
 8949SOL     OW38308   0.902   4.006   1.250 -0.3186 -0.5578  0.0597
 8949SOL    HW138309   0.995   4.011   1.226 -0.6485  1.0042 -0.9141
 8949SOL    HW238310   0.883   3.913   1.263  3.3676 -1.2847  0.4819
 8950SOL     OW38311   0.034   1.277   0.950 -0.5986 -0.5332  0.5638
 8950SOL    HW138312   0.057   1.369   0.962  2.4099 -1.1613 -0.1825
 8950SOL    HW238313   0.120   1.236   0.939 -0.0141  0.7280  0.4482
 8951SOL     OW38314   1.484   3.275   5.797  0.2572  0.1093  0.4243
 8951SOL    HW138315   1.494   3.241   5.886  3.5151  0.4269  0.1747
 8951SOL    HW238316   1.504   3.204   5.736  2.9782  0.6243  0.7227
 8952SOL     OW38317   0.585   4.450  10.912  0.0449  0.2971  0.3242
 8952SOL    HW138318   0.677   4.463  10.888  0.3311 -0.5653  0.9562
 8952SOL    HW238319   0.542   4.479  10.831 -0.0003 -1.8122 -0.4064
 8953SOL     OW38320   0.594   3.363   7.226 -0.0934  0.7586  0.4945
 8953SOL    HW138321   0.610   3.311   7.304 -1.7909  2.3558  1.9009
 8953SOL    HW238322   0.499   3.354   7.223 -0.3024  2.4957  2.1844
 8954SOL     OW38323   0.170   1.922   4.207 -0.0338 -0.2835 -0.1894
 8954SOL    HW138324   0.150   1.894   4.296 -3.4813  1.0408 -0.5224
 8954SOL    HW238325   0.094   1.977   4.186 -1.2756 -1.3506  1.4532
 8955SOL     OW38326   1.093   0.700   6.276 -0.0784 -0.0963 -0.0444
 8955SOL    HW138327   1.038   0.667   6.204 -0.3646  0.8050 -0.2398
 8955SOL    HW238328   1.085   0.620   6.328 -0.2172 -0.5828 -0.7996
 8956SOL     OW38329   0.634   3.497  10.046 -0.1201 -0.2984  0.0277
 8956SOL    HW138330   0.542   3.473  10.034 -0.0168  0.0484 -1.4598
 8956SOL    HW238331   0.630   3.524  10.137  2.5262  0.2168 -0.0092
 8957SOL     OW38332   1.331   0.730   8.702  0.0758  0.1208  0.4538
 8957SOL    HW138333   1.348   0.747   8.794 -0.7573  0.4325  0.5522
 8957SOL    HW238334   1.411   0.766   8.665  0.0821 -1.0122 -0.6535
 8958SOL     OW38335   3.237   4.616   3.907 -0.2261  0.6292  0.1965
 8958SOL    HW138336   3.238   4.540   3.965 -0.9610 -0.0162 -0.6411
 8958SOL    HW238337   3.221   4.690   3.965  0.4463  2.8199 -2.3735
 8959SOL     OW38338   2.014   1.574  14.571  0.1740  0.0971 -0.3645
 8959SOL    HW138339   1.939   1.603  14.624 -1.5946 -2.8411 -1.2256
 8959SOL    HW238340   2.080   1.578  14.639  0.7540  0.3087 -0.9481
 8960SOL     OW38341   0.190   1.913   6.690 -0.1089  0.3063  0.2361
 8960SOL    HW138342   0.280   1.934   6.714  0.1074  0.0913 -0.3899
 8960SOL    HW238343   0.202   1.827   6.651 -1.8435  0.9198 -1.6264
 8961SOL     OW38344   2.716   2.867   5.290 -0.5506  0.5252  0.4209
 8961SOL    HW138345   2.770   2.911   5.225 -0.6427  0.0491  0.0229
 8961SOL    HW238346   2.774   2.842   5.362 -0.6294  1.2456  0.7411
 8962SOL     OW38347   0.114   4.315  11.977  0.4597  0.2600 -0.7099
 8962SOL    HW138348   0.173   4.372  12.026 -0.8629  1.2488 -0.2522
 8962SOL    HW238349   0.114   4.231  12.023 -0.1984  0.1601 -0.8923
 8963SOL     OW38350   0.766   4.445   9.135 -0.0766 -0.4305 -0.2050
 8963SOL    HW138351   0.835   4.491   9.088  0.4512  0.4691  1.4673
 8963SOL    HW238352   0.741   4.377   9.072  0.0553 -0.5117 -0.1697
 8964SOL     OW38353   1.463   3.128   2.541 -0.9330  0.0423  0.0722
 8964SOL    HW138354   1.391   3.158   2.486 -0.7979 -0.0717 -0.1694
 8964SOL    HW238355   1.452   3.182   2.619  0.4274  0.5929 -0.1167
 8965SOL     OW38356   4.122   3.151   6.113 -0.1786  0.1294  0.1515
 8965SOL    HW138357   4.157   3.078   6.164  0.0588  0.4504  0.4487
 8965SOL    HW238358   4.185   3.141   6.041  1.5570  0.4301  1.5999
 8966SOL     OW38359   1.294   3.902   7.429  0.2753 -0.4317 -0.2419
 8966SOL    HW138360   1.250   3.818   7.418 -0.6643 -0.0983  1.1266
 8966SOL    HW238361   1.386   3.887   7.407 -0.0339 -0.6295 -1.4022
 8967SOL     OW38362   2.763   1.384  11.862 -0.2730 -0.4224  0.5904
 8967SOL    HW138363   2.712   1.331  11.800  1.0029 -0.1954 -0.6773
 8967SOL    HW238364   2.844   1.339  11.837  0.2822  0.4309  0.8620
 8968SOL     OW38365   1.654   2.615  11.672 -0.4825 -0.3179  0.5871
 8968SOL    HW138366   1.722   2.645  11.613  0.0456 -1.9494  0.3921
 8968SOL    HW238367   1.583   2.586  11.614 -2.5901  2.1292  1.9051
 8969SOL     OW38368   3.061   3.655   1.159 -0.2625  0.3521 -0.4124
 8969SOL    HW138369   3.060   3.750   1.170  0.6837 -0.0321  3.1032
 8969SOL    HW238370   2.968   3.641   1.140 -0.0652  0.5962 -1.5396
 8970SOL     OW38371   0.198   4.620  16.153  0.4332  0.2060  0.0296
 8970SOL    HW138372   0.117   4.653  16.193 -1.3273 -2.3446 -1.4191
 8970SOL    HW238373   0.248   4.622  16.235 -3.0707 -1.1868  2.2189
 8971SOL     OW38374   1.387   2.384  15.978 -0.5045  0.2789  0.9881
 8971SOL    HW138375   1.352   2.471  15.957 -0.6990 -0.3787 -1.4262
 8971SOL    HW238376   1.342   2.357  16.058 -1.0881  0.9526  0.8858
 8972SOL     OW38377   2.389   2.607   6.760 -0.2999 -0.2062 -0.2650
 8972SOL    HW138378   2.442   2.584   6.684 -2.5437 -1.1977 -1.5371
 8972SOL    HW238379   2.440   2.585   6.838  0.2586  3.3200  0.3587
 8973SOL     OW38380   4.241   4.514   1.417 -0.0504 -0.0452  0.0587
 8973SOL    HW138381   4.272   4.473   1.498  2.1354 -0.5299 -1.0162
 8973SOL    HW238382   4.259   4.605   1.438 -0.7112  0.0615  0.1632
 8974SOL     OW38383   1.144   0.005   5.514  0.2347 -0.1305 -0.1930
 8974SOL    HW138384   1.085   4.658   5.539  0.2613  0.2271  0.8786
 8974SOL    HW238385   1.167   0.051   5.594 -1.2536  0.3214 -0.0183
 8975SOL     OW38386   0.145   0.919   8.521 -0.0001 -0.4555 -0.2522
 8975SOL    HW138387   0.188   0.945   8.439 -0.1284 -0.2814 -0.2643
 8975SOL    HW238388   0.105   1.005   8.534 -0.5987 -0.5844 -1.2407
 8976SOL     OW38389   4.558   1.948  16.262 -0.1689 -0.0606 -0.4015
 8976SOL    HW138390   4.491   2.014  16.243  0.7767  0.6718 -1.2147
 8976SOL    HW238391   4.594   1.989  16.341 -2.7608  1.8744 -0.2178
 8977SOL     OW38392   1.939   4.194  12.973 -0.0182  0.2162  0.1367
 8977SOL    HW138393   1.994   4.261  13.012  0.6213 -0.6939  0.7997
 8977SOL    HW238394   1.926   4.136  13.048 -4.5271  2.1162  0.8478
 8978SOL     OW38395   4.563   2.887  13.536 -0.5670  0.6450 -0.2678
 8978SOL    HW138396   4.609   2.903  13.453 -1.3707 -0.4207 -0.9280
 8978SOL    HW238397   4.552   2.792  13.538  1.1412  0.3609 -3.2956
 8979SOL     OW38398   3.897   0.096   5.414  0.9913  0.4031 -0.4782
 8979SOL    HW138399   3.910   0.001   5.413 -0.0070  0.2878 -2.7219
 8979SOL    HW238400   3.914   0.115   5.321  3.7282 -0.2154 -0.0977
 8980SOL     OW38401   2.327   3.477  11.798 -0.5703 -0.0356  0.3679
 8980SOL    HW138402   2.381   3.515  11.867  1.5342 -0.9101 -0.7752
 8980SOL    HW238403   2.240   3.463  11.835 -0.5737  0.8138  0.6736
 8981SOL     OW38404   2.567   1.175  16.870 -0.8265  0.2298  0.2759
 8981SOL    HW138405   2.580   1.081  16.878  0.2051  0.3748  0.3277
 8981SOL    HW238406   2.630   1.215  16.931 -0.1883  1.9308 -1.4763
 8982SOL     OW38407   1.868   4.504   5.448 -0.2140  0.6436 -0.2504
 8982SOL    HW138408   1.820   4.547   5.519  2.2373 -0.6637  2.1927
 8982SOL    HW238409   1.958   4.533   5.466 -0.4638  0.9677  0.4815
 8983SOL     OW38410   1.644   1.150   8.788 -0.4270 -0.2983 -0.6147
 8983SOL    HW138411   1.628   1.077   8.848  1.0936  0.6500  0.9355
 8983SOL    HW238412   1.580   1.215   8.819  0.5583  0.6721 -0.6231
 8984SOL     OW38413   1.768   0.475   3.177  0.2899 -0.1627 -0.2852
 8984SOL    HW138414   1.847   0.529   3.180 -0.5376  1.1334 -1.8542
 8984SOL    HW238415   1.722   0.554   3.150 -2.1667 -1.7557 -0.8350
 8985SOL     OW38416   1.603   3.678  15.759  0.0330 -0.6860  0.3226
 8985SOL    HW138417   1.626   3.623  15.684  0.9031  0.0946  0.0193
 8985SOL    HW238418   1.516   3.645  15.779 -0.8910  0.1798 -2.2563
 8986SOL     OW38419   1.459   3.124   7.999 -0.3912 -0.0048  0.3677
 8986SOL    HW138420   1.486   3.209   7.964  1.4599 -0.8345 -0.1945
 8986SOL    HW238421   1.462   3.073   7.919 -0.0463  1.9220 -0.8433
 8987SOL     OW38422   1.773   4.480   9.948  0.3118 -0.1985 -0.0321
 8987SOL    HW138423   1.683   4.483   9.979  0.8666  0.0739  1.5565
 8987SOL    HW238424   1.782   4.571   9.919  2.0675 -0.9274 -1.7394
 8988SOL     OW38425   3.824   0.600   8.046 -0.2744 -0.5005 -0.6387
 8988SOL    HW138426   3.791   0.552   7.970 -0.4104  3.1654 -2.8777
 8988SOL    HW238427   3.904   0.548   8.056 -1.7107 -2.6067 -0.0194
 8989SOL     OW38428   4.403   0.266   6.892  0.4640  0.2826 -0.0433
 8989SOL    HW138429   4.426   0.303   6.807 -1.2195  0.3648 -0.4720
 8989SOL    HW238430   4.456   0.187   6.894  1.0305  0.7278  2.9766
 8990SOL     OW38431   3.423   1.803   6.925  0.0441  0.3473 -0.1582
 8990SOL    HW138432   3.433   1.888   6.883 -0.4123  1.7428  2.5811
 8990SOL    HW238433   3.514   1.782   6.948  0.0977  0.5314 -0.2066
 8991SOL     OW38434   2.606   0.525   0.317 -0.0393 -0.7786  0.3151
 8991SOL    HW138435   2.700   0.523   0.332  0.1267  0.7905 -0.5159
 8991SOL    HW238436   2.584   0.495   0.405 -1.4642  2.1468  0.9472
 8992SOL     OW38437   1.705   4.305  17.398 -0.2704  0.7452  0.0245
 8992SOL    HW138438   1.740   4.245  17.464 -0.2259  0.1068 -0.5823
 8992SOL    HW238439   1.686   4.251  17.321 -0.4651 -0.4446  0.9025
 8993SOL     OW38440   1.468   2.302  12.366 -0.0747 -0.3579 -0.0176
 8993SOL    HW138441   1.416   2.305  12.285 -0.0019 -0.1806 -0.0582
 8993SOL    HW238442   1.473   2.394  12.391 -1.2883 -0.4188  0.4355
 8994SOL     OW38443   2.012   3.875   8.367 -0.3525 -0.0451  0.3974
 8994SOL    HW138444   2.053   3.876   8.454 -0.0123 -2.9583  0.2793
 8994SOL    HW238445   1.948   3.944   8.382  0.2124  0.5852 -0.0618
 8995SOL     OW38446   1.045   1.196  10.506  0.3603 -0.4769 -0.4138
 8995SOL    HW138447   1.054   1.274  10.452 -2.0135  1.3850  1.8293
 8995SOL    HW238448   0.962   1.216  10.550 -1.5347 -0.8185 -3.8833
 8996SOL     OW38449   2.291   1.257  15.534  0.2310 -0.1080  0.4141
 8996SOL    HW138450   2.235   1.329  15.504  1.2728  0.7789  0.5984
 8996SOL    HW238451   2.371   1.309  15.532 -1.2435  2.2418  1.5572
 8997SOL     OW38452   0.073   1.739  11.874  0.5096  0.0293 -0.0311
 8997SOL    HW138453   0.034   1.822  11.903 -0.5358 -0.5020  0.0917
 8997SOL    HW238454   0.079   1.693  11.958 -0.0919 -0.5567 -0.3067
 8998SOL     OW38455   0.014   1.943   0.211 -0.3960  0.2569  0.4444
 8998SOL    HW138456   4.704   2.031   0.225  1.3389  0.7139  1.7305
 8998SOL    HW238457   0.099   1.944   0.256  0.5435  0.1167 -1.3403
 8999SOL     OW38458   1.804   4.411   4.804 -0.3055  0.0068 -0.3848
 8999SOL    HW138459   1.766   4.323   4.804  2.4627 -1.1805 -0.8757
 8999SOL    HW238460   1.860   4.409   4.726 -0.9602  0.6164 -0.8866
 9000SOL     OW38461   3.909   2.673  13.894 -0.5991 -0.0597  0.3230
 9000SOL    HW138462   3.981   2.705  13.839 -0.8537  0.7387  0.4559
 9000SOL    HW238463   3.952   2.659  13.978  0.2045  1.0525  0.1067
 9001SOL     OW38464   4.181   0.848  15.320 -0.6192  0.1478  0.3487
 9001SOL    HW138465   4.269   0.815  15.338 -1.3364 -0.7439  2.1654
 9001SOL    HW238466   4.125   0.785  15.365 -0.6025 -0.8856 -1.0745
 9002SOL     OW38467   1.117   0.376  17.305  0.0044  0.6402  0.4336
 9002SOL    HW138468   1.075   0.291  17.320  1.5857 -0.1227  0.4581
 9002SOL    HW238469   1.120   0.378  17.209 -2.1340 -1.4123  0.3072
 9003SOL     OW38470   4.133   1.226   0.472  0.1838 -0.0798 -0.0965
 9003SOL    HW138471   4.229   1.226   0.467  0.1398  1.1201 -0.8284
 9003SOL    HW238472   4.128   1.306   0.421 -0.5246 -1.8979 -2.9018
 9004SOL     OW38473   2.421   0.989   1.138  0.0374  0.2094  0.2324
 9004SOL    HW138474   2.388   1.051   1.204  3.5933  0.3003  1.9071
 9004SOL    HW238475   2.506   0.958   1.170 -0.1063 -1.4424 -0.9835
 9005SOL     OW38476   2.301   4.389   5.946 -0.2868 -0.1884  0.3388
 9005SOL    HW138477   2.367   4.355   5.886 -0.6980  1.2748 -0.9535
 9005SOL    HW238478   2.223   4.366   5.895 -1.8269  0.5086  2.3631
 9006SOL     OW38479   0.166   3.694   3.204  0.2762  0.0676 -0.1150
 9006SOL    HW138480   0.101   3.627   3.228 -1.5588  2.1709  0.8031
 9006SOL    HW238481   0.105   3.758   3.169  1.9840  1.8801  0.2615
 9007SOL     OW38482   0.147   2.832   3.488 -0.1893 -0.6941  0.5200
 9007SOL    HW138483   0.163   2.826   3.394  0.1354 -1.0020  0.5946
 9007SOL    HW238484   0.128   2.925   3.499  0.3929 -0.7029  1.5925
 9008SOL     OW38485   2.230   4.267   6.447  0.3126  0.4497 -0.6262
 9008SOL    HW138486   2.166   4.332   6.418  1.5279  1.6437 -0.6246
 9008SOL    HW238487   2.213   4.198   6.383  1.1821 -1.3163  1.0563
 9009SOL     OW38488   3.747   2.487   5.996 -0.4007 -0.0246  0.1142
 9009SOL    HW138489   3.834   2.524   5.984  0.2881 -1.0163  2.0716
 9009SOL    HW238490   3.686   2.561   6.005  0.5624  1.3294 -4.6216
 9010SOL     OW38491   1.163   3.218   1.470 -0.5154  0.0247  0.4373
 9010SOL    HW138492   1.074   3.197   1.441 -0.6412  0.7646  0.2890
 9010SOL    HW238493   1.199   3.130   1.463  1.5994  0.9300 -0.0701
 9011SOL     OW38494   1.936   1.865   5.250 -0.2574 -0.5554 -0.0691
 9011SOL    HW138495   1.877   1.817   5.307 -0.3665 -0.8683 -0.4452
 9011SOL    HW238496   1.874   1.910   5.193  1.6142  1.2699 -0.6731
 9012SOL     OW38497   2.483   2.440   5.103  0.5233  0.0077  0.4022
 9012SOL    HW138498   2.568   2.434   5.147  1.2618 -0.9660 -1.1151
 9012SOL    HW238499   2.498   2.380   5.030  0.7270 -0.2925  0.6920
 9013SOL     OW38500   3.473   2.274   4.534 -0.5293  0.1150  0.5659
 9013SOL    HW138501   3.464   2.192   4.582 -1.0249 -0.4217 -0.4459
 9013SOL    HW238502   3.515   2.325   4.603  1.3324 -0.8811  0.1805
 9014SOL     OW38503   1.486   1.703   1.450 -0.4106 -0.4467 -0.1687
 9014SOL    HW138504   1.489   1.697   1.355 -2.0577 -0.2548 -0.2184
 9014SOL    HW238505   1.413   1.761   1.468 -0.6622 -0.1940 -2.0732
 9015SOL     OW38506   3.910   2.509  17.132  0.2113 -0.4467  0.0273
 9015SOL    HW138507   3.912   2.430  17.078 -2.0485 -0.2156 -0.3763
 9015SOL    HW238508   4.000   2.541  17.117 -0.4124  1.6441  0.7804
 9016SOL     OW38509   0.042   4.094   3.885  0.4218  0.2388  0.0436
 9016SOL    HW138510   4.712   4.108   3.963  0.9396  3.2044 -0.1663
 9016SOL    HW238511   0.013   4.006   3.860  1.3779  0.0572 -0.3943
 9017SOL     OW38512   4.530   3.286   0.344 -0.1867 -0.0098 -0.4895
 9017SOL    HW138513   4.604   3.250   0.296 -0.5305 -1.8526  0.3753
 9017SOL    HW238514   4.471   3.211   0.348 -0.5678  0.3685  1.1718
 9018SOL     OW38515   0.656   1.909   7.628 -0.2813  0.2414  0.0041
 9018SOL    HW138516   0.701   1.904   7.543  2.2326 -1.2015  1.4236
 9018SOL    HW238517   0.644   2.004   7.622  0.2841  0.4711  2.8182
 9019SOL     OW38518   2.876   3.835  13.709 -0.0547  0.1281  0.2395
 9019SOL    HW138519   2.880   3.896  13.783 -0.5163 -0.2689  0.5902
 9019SOL    HW238520   2.874   3.751  13.754 -1.3089 -0.4088 -0.8170
 9020SOL     OW38521   2.622   2.245  16.574 -0.5236  0.1323 -0.2071
 9020SOL    HW138522   2.599   2.337  16.558 -0.2932  0.3006  0.4255
 9020SOL    HW238523   2.717   2.254  16.566 -0.4760 -0.2218  0.0106
 9021SOL     OW38524   1.777   0.258  13.966  0.1419 -0.2887 -0.0831
 9021SOL    HW138525   1.768   0.229  14.056  0.6065  0.0278  0.0614
 9021SOL    HW238526   1.851   0.205  13.936  1.0576  1.1746 -0.4044
 9022SOL     OW38527   1.947   0.673   8.646  0.3394  0.2868 -0.2844
 9022SOL    HW138528   1.946   0.642   8.737  1.1407 -1.7771 -1.0018
 9022SOL    HW238529   1.952   0.769   8.653  2.0960  0.1398  0.7156
 9023SOL     OW38530   1.466   4.315  12.161  0.7714 -0.1097 -0.2572
 9023SOL    HW138531   1.542   4.359  12.200 -0.0503  0.9263  0.1707
 9023SOL    HW238532   1.383   4.355  12.187  0.7123 -0.2933 -0.1597
 9024SOL     OW38533   0.154   0.537   2.216  0.3827  0.1923  0.1802
 9024SOL    HW138534   0.115   0.566   2.133  0.2288  1.4631  0.7033
 9024SOL    HW238535   0.244   0.515   2.190  0.7533  1.6378  0.2150
 9025SOL     OW38536   3.441   1.811   2.354  0.2052 -0.1625  0.9520
 9025SOL    HW138537   3.422   1.719   2.370  1.6173 -0.9196 -1.6341
 9025SOL    HW238538   3.454   1.815   2.259 -0.7994 -1.7007  0.7562
 9026SOL     OW38539   0.651   2.405   7.741 -0.1333  0.0063 -0.4271
 9026SOL    HW138540   0.727   2.383   7.795 -2.6070 -2.6390  2.0292
 9026SOL    HW238541   0.601   2.461   7.799  0.7194  0.6884 -0.3493
 9027SOL     OW38542   1.647   1.936   1.122 -0.3073 -0.0075 -0.4014
 9027SOL    HW138543   1.615   1.846   1.124 -0.4776  0.0796  1.1577
 9027SOL    HW238544   1.702   1.938   1.044 -0.8745  0.2339 -0.7930
 9028SOL     OW38545   0.627   2.698   4.929  0.4939  0.0779  0.2856
 9028SOL    HW138546   0.672   2.731   4.851 -0.9617  1.3481 -0.0275
 9028SOL    HW238547   0.622   2.607   4.900 -0.2241 -0.5726  2.4004
 9029SOL     OW38548   0.796   2.897   8.360  0.2805 -0.2430 -0.0380
 9029SOL    HW138549   0.728   2.857   8.304 -0.8329  2.9066 -0.9943
 9029SOL    HW238550   0.857   2.910   8.287 -1.3153  1.4000 -1.1066
 9030SOL     OW38551   4.716   0.353   6.348 -0.2318 -0.2790 -0.1866
 9030SOL    HW138552   0.012   0.263   6.374  0.2977 -0.5235 -1.4286
 9030SOL    HW238553   4.620   0.344   6.353 -0.2983 -0.1869 -1.3102
 9031SOL     OW38554   2.157   1.888   3.838 -0.0492 -0.1586  0.2467
 9031SOL    HW138555   2.097   1.815   3.824  2.2618 -2.2393  1.1123
 9031SOL    HW238556   2.228   1.863   3.778 -0.4681  0.4178 -0.5020
 9032SOL     OW38557   1.200   0.307  11.154  0.4271  0.3091  0.4131
 9032SOL    HW138558   1.160   0.222  11.137  0.8568  0.2100 -0.0715
 9032SOL    HW238559   1.172   0.351  11.074  0.3226 -0.6860 -0.0832
 9033SOL     OW38560   1.194   3.657   8.469 -0.1118  0.1814  0.2709
 9033SOL    HW138561   1.192   3.658   8.565  0.3820  0.1185  0.2810
 9033SOL    HW238562   1.274   3.708   8.454  0.1590 -0.5407 -0.7463
 9034SOL     OW38563   1.622   1.022   6.637  0.4698  0.3493 -0.0318
 9034SOL    HW138564   1.632   0.933   6.604 -0.8112  1.0336 -2.2965
 9034SOL    HW238565   1.532   1.014   6.668  0.2240 -0.4407 -0.9218
 9035SOL     OW38566   2.610   3.389  16.473 -0.4610 -0.0786  0.2625
 9035SOL    HW138567   2.536   3.329  16.465  1.2138 -2.0867  0.0031
 9035SOL    HW238568   2.684   3.328  16.473 -2.1557 -2.1299 -0.9747
 9036SOL     OW38569   2.415   3.617   5.915 -0.3093 -0.1645 -0.1409
 9036SOL    HW138570   2.434   3.541   5.859 -0.9074 -1.0509  0.8679
 9036SOL    HW238571   2.451   3.693   5.869 -0.8679  0.6553  0.7806
 9037SOL     OW38572   1.606   0.914   3.369 -0.1776  0.4573 -0.7003
 9037SOL    HW138573   1.563   0.999   3.380  2.8424  2.0152 -0.7882
 9037SOL    HW238574   1.540   0.866   3.419 -1.2586  0.8948 -1.7187
 9038SOL     OW38575   3.461   1.256   4.321 -0.3424 -0.7857  0.4769
 9038SOL    HW138576   3.374   1.286   4.292  0.1641 -1.0413 -1.3244
 9038SOL    HW238577   3.454   1.169   4.281 -2.0371 -0.7657  0.7108
 9039SOL     OW38578   2.938   1.285  16.742 -0.4229 -0.2272  0.7364
 9039SOL    HW138579   2.921   1.379  16.743 -2.2577 -0.5476 -2.6147
 9039SOL    HW238580   2.989   1.279  16.661 -1.7538  0.4538 -0.1374
 9040SOL     OW38581   4.068   0.248   3.519  0.2777 -0.4032  0.4229
 9040SOL    HW138582   4.130   0.230   3.590 -0.3937 -2.0642  0.5965
 9040SOL    HW238583   4.131   0.240   3.448  1.2917 -1.0980  1.3884
 9041SOL     OW38584   1.628   3.022   4.830 -0.2394  0.0763 -0.5533
 9041SOL    HW138585   1.657   3.015   4.739 -0.2286 -2.4110 -0.3638
 9041SOL    HW238586   1.537   2.994   4.820 -0.8132  2.8979 -3.2034
 9042SOL     OW38587   1.379   4.706   6.370  0.2561 -0.0146  0.2341
 9042SOL    HW138588   1.350   4.615   6.383  1.4139 -0.3797  0.2703
 9042SOL    HW238589   1.431   0.003   6.448  1.9724 -0.3492 -0.8069
 9043SOL     OW38590   0.866   1.783   6.649 -0.1866 -0.3542  0.0207
 9043SOL    HW138591   0.829   1.838   6.579 -1.1943 -1.5553 -0.3793
 9043SOL    HW238592   0.928   1.726   6.605 -0.1296 -0.2071 -0.0912
 9044SOL     OW38593   3.113   2.596  10.588 -0.8098  0.5822 -0.8679
 9044SOL    HW138594   3.019   2.612  10.581 -0.8077  0.2238 -1.7758
 9044SOL    HW238595   3.124   2.502  10.603  1.8323  0.9968 -0.1728
 9045SOL     OW38596   1.379   1.923   7.043 -0.7819 -0.0463  0.2307
 9045SOL    HW138597   1.436   1.970   7.104  1.6088 -1.2115 -1.1054
 9045SOL    HW238598   1.294   1.957   7.069 -0.1420  1.4500  0.3789
 9046SOL     OW38599   2.000   2.324   5.473  0.2216  0.3542  0.2003
 9046SOL    HW138600   2.094   2.315   5.491  0.2978  1.5928  0.4127
 9046SOL    HW238601   1.994   2.413   5.438  0.2624  0.6379  0.9339
 9047SOL     OW38602   2.600   1.861   7.505 -0.5915 -0.2153  0.4118
 9047SOL    HW138603   2.512   1.894   7.525 -0.7955  1.1403 -2.7121
 9047SOL    HW238604   2.635   1.853   7.594 -1.4251  0.4375  0.8086
 9048SOL     OW38605   2.300   4.551   4.405  0.2939 -0.1431 -0.1375
 9048SOL    HW138606   2.290   4.595   4.321 -1.8735 -1.1197 -0.4080
 9048SOL    HW238607   2.395   4.539   4.406  0.3231  0.3360  1.7538
 9049SOL     OW38608   2.939   3.442  14.020  0.0309  0.4688  0.2350
 9049SOL    HW138609   2.890   3.381  13.966  2.6745  0.2631 -1.9678
 9049SOL    HW238610   3.021   3.444  13.970  0.4922 -0.3518  0.9480
 9050SOL     OW38611   3.943   3.803   1.915 -0.2058 -0.4095 -0.1419
 9050SOL    HW138612   4.011   3.753   1.870  0.3045  0.6449 -0.5486
 9050SOL    HW238613   3.891   3.837   1.842  0.5782 -0.9620 -0.9591
 9051SOL     OW38614   3.210   0.531   8.233 -0.3800  0.0715  0.3670
 9051SOL    HW138615   3.270   0.588   8.281 -1.1411  0.2159  1.1620
 9051SOL    HW238616   3.249   0.446   8.255  1.1663  0.4626 -0.9603
 9052SOL     OW38617   1.108   0.065  17.535  0.0234  0.0284 -0.3483
 9052SOL    HW138618   1.095   0.053  17.441 -0.0646 -1.2684 -0.1646
 9052SOL    HW238619   1.050   0.140  17.548  1.0053  0.7598 -0.1149
 9053SOL     OW38620   0.970   0.936  14.864 -0.1113  0.2438 -0.0089
 9053SOL    HW138621   0.887   0.889  14.856  1.0302 -1.9069  0.9223
 9053SOL    HW238622   1.001   0.912  14.951 -0.0043 -0.9702 -0.3883
 9054SOL     OW38623   2.800   1.140   5.860  0.0797  0.4093 -0.3651
 9054SOL    HW138624   2.728   1.110   5.916  1.2417 -0.3388  0.7293
 9054SOL    HW238625   2.749   1.183   5.792 -0.7931 -0.4889 -0.2808
 9055SOL     OW38626   0.388   4.595   8.097  0.4070 -0.3893 -0.0893
 9055SOL    HW138627   0.441   4.555   8.027 -1.4038 -0.8045 -1.2072
 9055SOL    HW238628   0.455   4.586   8.165 -1.0434 -2.7579  1.0476
 9056SOL     OW38629   0.272   2.473   7.840  0.4032 -0.1109  0.3782
 9056SOL    HW138630   0.190   2.466   7.888  0.6405 -2.5058  0.4608
 9056SOL    HW238631   0.322   2.531   7.897  0.7722  1.9035 -2.0298
 9057SOL     OW38632   2.290   3.209   3.859  0.6730  0.1011 -0.1185
 9057SOL    HW138633   2.377   3.223   3.820  1.8865 -1.6081  1.9533
 9057SOL    HW238634   2.315   3.168   3.942 -0.3561 -0.1617  0.0516
 9058SOL     OW38635   4.031   2.056   3.702  0.1844 -0.1293  0.2396
 9058SOL    HW138636   4.040   2.145   3.667 -0.1400 -0.6272 -1.1251
 9058SOL    HW238637   4.070   2.064   3.789  1.4942  1.4206 -0.4841
 9059SOL     OW38638   1.177   2.294   8.652  0.1205 -0.4255 -0.0271
 9059SOL    HW138639   1.120   2.320   8.724 -0.9529 -0.1222 -0.9889
 9059SOL    HW238640   1.243   2.362   8.645 -0.1142  0.3140  4.7327
 9060SOL     OW38641   4.280   3.154   4.677  0.0225 -0.1077 -0.0607
 9060SOL    HW138642   4.285   3.064   4.646  1.1996  0.1082 -0.4945
 9060SOL    HW238643   4.205   3.187   4.627  0.1363 -0.1986 -0.2915
 9061SOL     OW38644   3.988   3.800   4.157 -0.0487 -0.0302  0.4250
 9061SOL    HW138645   4.023   3.821   4.070  0.9409 -1.8468  0.3923
 9061SOL    HW238646   3.895   3.799   4.134 -0.3229  0.0411  1.5459
 9062SOL     OW38647   2.915   0.457  15.221 -0.2822  0.1168 -0.1760
 9062SOL    HW138648   2.889   0.374  15.260 -0.6924  0.5158  0.3970
 9062SOL    HW238649   2.896   0.446  15.128 -0.3568  1.2774 -0.2987
 9063SOL     OW38650   4.668   4.324   0.753 -1.0736  0.4649 -0.3570
 9063SOL    HW138651   0.021   4.375   0.779 -1.5348  0.9475  0.0359
 9063SOL    HW238652   4.602   4.391   0.769  0.5197  2.5703 -2.4935
 9064SOL     OW38653   2.820   0.697   9.110  0.0449 -0.0089  0.4066
 9064SOL    HW138654   2.737   0.725   9.148  0.3782  1.2391  0.2127
 9064SOL    HW238655   2.823   0.603   9.131  3.8877  0.2398  1.0773
 9065SOL     OW38656   3.501   2.271   9.461 -0.0662 -0.0613  0.0171
 9065SOL    HW138657   3.474   2.340   9.522 -1.2847 -0.6905  0.1910
 9065SOL    HW238658   3.557   2.321   9.402 -0.3490  0.3747  0.1178
 9066SOL     OW38659   4.049   4.594  12.364  0.0216  0.3471  0.3443
 9066SOL    HW138660   4.102   4.574  12.441 -1.1438 -0.4117  0.9649
 9066SOL    HW238661   3.959   4.595  12.398 -0.4688  0.0400 -0.9499
 9067SOL     OW38662   4.241   0.369   0.968 -0.1759  0.0633 -0.5937
 9067SOL    HW138663   4.261   0.278   0.988  1.8891  0.6200 -0.0615
 9067SOL    HW238664   4.156   0.357   0.925 -1.4232  1.6657  1.3978
 9068SOL     OW38665   0.166   1.128  14.984  0.1148  0.5094 -0.1827
 9068SOL    HW138666   0.217   1.192  15.033  0.2972 -0.5020  0.9181
 9068SOL    HW238667   0.202   1.047  15.019 -1.1089 -0.2448 -0.6639
 9069SOL     OW38668   1.484   2.834  10.256 -0.1151 -0.4746  0.5012
 9069SOL    HW138669   1.535   2.805  10.180 -0.9867 -0.5440 -0.0572
 9069SOL    HW238670   1.546   2.883  10.310  0.1832  1.0438 -1.2367
 9070SOL     OW38671   0.354   0.472  12.011 -0.5751 -0.0071  0.4605
 9070SOL    HW138672   0.426   0.524  11.975 -1.0444 -1.0946 -2.0111
 9070SOL    HW238673   0.341   0.398  11.953  0.3002 -1.0588  1.6069
 9071SOL     OW38674   3.277   2.110   4.392 -0.0545 -0.4464 -0.1928
 9071SOL    HW138675   3.342   2.181   4.388  1.3224 -1.6852  0.5079
 9071SOL    HW238676   3.280   2.078   4.482 -1.8825  0.4511  0.2066
 9072SOL     OW38677   2.877   1.967  14.767 -0.2316 -0.3176  0.5505
 9072SOL    HW138678   2.866   1.872  14.761  2.4205 -0.6871  1.5007
 9072SOL    HW238679   2.911   1.965  14.857 -1.3373 -0.4647  0.9749
 9073SOL     OW38680   2.706   4.183   5.379  0.1843 -0.3469  0.0773
 9073SOL    HW138681   2.708   4.087   5.380 -1.0005 -0.3456  1.5026
 9073SOL    HW238682   2.720   4.204   5.471  1.6547  1.1536 -0.4738
 9074SOL     OW38683   1.596   0.579  12.440  0.0284  0.4599 -0.2622
 9074SOL    HW138684   1.672   0.624  12.476 -1.0703 -0.4458  3.3060
 9074SOL    HW238685   1.624   0.492  12.470  0.4768  0.5566 -0.4145
 9075SOL     OW38686   3.955   1.060  12.243  0.1203 -0.3756  0.2825
 9075SOL    HW138687   3.994   1.143  12.216 -1.5966 -0.6258 -2.8802
 9075SOL    HW238688   4.025   1.003  12.210  1.3559  0.6979  1.0535
 9076SOL     OW38689   3.136   3.133   2.880 -0.1076 -0.0832  0.7185
 9076SOL    HW138690   3.230   3.151   2.877 -0.4784  1.4858 -0.9634
 9076SOL    HW238691   3.134   3.056   2.937 -1.0427 -0.6511 -0.0813
 9077SOL     OW38692   4.511   2.533   3.790  0.1684  0.2995 -0.5456
 9077SOL    HW138693   4.490   2.611   3.738 -0.6047  1.1628  1.0327
 9077SOL    HW238694   4.527   2.467   3.723 -1.2561  2.3649 -2.9012
 9078SOL     OW38695   1.616   4.602   1.107  0.1037  0.2844 -0.4310
 9078SOL    HW138696   1.541   4.639   1.154 -0.1086 -0.8952  0.1923
 9078SOL    HW238697   1.573   4.575   1.026  1.1643  0.0412 -0.9125
 9079SOL     OW38698   1.470   2.952  13.657  0.2653  0.5790 -0.9056
 9079SOL    HW138699   1.483   2.919  13.746  0.6622  0.5062 -0.9908
 9079SOL    HW238700   1.451   3.045  13.674 -0.0823  0.5426 -1.0870
 9080SOL     OW38701   0.473   0.306   3.369 -0.0858 -0.2628 -0.4588
 9080SOL    HW138702   0.408   0.356   3.319  0.4021  2.5100  1.7270
 9080SOL    HW238703   0.518   0.281   3.288  1.7175  2.3896 -0.2733
 9081SOL     OW38704   2.375   4.110   0.741 -0.1653 -0.1178 -0.0013
 9081SOL    HW138705   2.311   4.046   0.709 -0.6131  0.9977 -1.3033
 9081SOL    HW238706   2.447   4.113   0.678  0.9752 -2.6913  1.1742
 9082SOL     OW38707   0.182   0.418   1.531  0.5283  0.3281  0.3769
 9082SOL    HW138708   0.152   0.343   1.583  0.4868 -1.0209 -1.6073
 9082SOL    HW238709   0.270   0.437   1.565  1.6846 -1.5309 -1.5470
 9083SOL     OW38710   1.970   2.874   7.523 -0.0623 -0.2343  0.3421
 9083SOL    HW138711   1.927   2.789   7.508  0.4676 -0.0106 -2.4645
 9083SOL    HW238712   2.060   2.852   7.545  0.6674 -0.0597 -2.4033
 9084SOL     OW38713   4.166   1.167   5.863 -0.3869 -0.1343  0.3461
 9084SOL    HW138714   4.134   1.248   5.823 -0.4614 -0.7133 -0.7837
 9084SOL    HW238715   4.220   1.196   5.936  0.1872  1.5028 -0.7458
 9085SOL     OW38716   3.473   2.072   1.984 -0.0686  0.2340  0.2534
 9085SOL    HW138717   3.425   2.076   2.067  0.2273 -0.7080  0.4618
 9085SOL    HW238718   3.404   2.098   1.923 -1.4255 -2.1694  0.8122
 9086SOL     OW38719   3.694   0.462   5.259 -0.1888 -0.1432 -0.0411
 9086SOL    HW138720   3.785   0.489   5.273 -0.2006  0.4902 -1.1998
 9086SOL    HW238721   3.700   0.417   5.174 -0.9783  0.4999 -0.4400
 9087SOL     OW38722   3.999   2.838   6.913 -0.1770  0.0861  0.2103
 9087SOL    HW138723   3.953   2.838   6.829  0.6842 -1.1690 -0.2651
 9087SOL    HW238724   4.025   2.745   6.915  1.1717  0.4573  0.3586
 9088SOL     OW38725   1.900   2.740   9.431 -0.0676  0.0189  0.2076
 9088SOL    HW138726   1.839   2.812   9.447 -0.6772 -0.5336  0.3587
 9088SOL    HW238727   1.975   2.780   9.386  0.1342 -0.3209  0.2445
 9089SOL     OW38728   1.688   3.815   9.500 -0.1277  0.0822  0.1442
 9089SOL    HW138729   1.766   3.802   9.555  1.1620 -0.7424 -1.8665
 9089SOL    HW238730   1.632   3.876   9.548  0.5247 -1.3127  2.6594
 9090SOL     OW38731   0.899   3.212   7.337  0.7403  0.5561 -0.0190
 9090SOL    HW138732   0.920   3.120   7.354  1.5461  0.9886  1.2640
 9090SOL    HW238733   0.955   3.207   7.259  2.2661  2.4333  0.9454
 9091SOL     OW38734   4.720   4.718   8.848 -0.0164 -0.1575 -0.7001
 9091SOL    HW138735   4.687   4.636   8.811 -0.7005 -0.3130  0.2570
 9091SOL    HW238736   0.041   4.694   8.929  1.2245  0.9215 -1.0648
 9092SOL     OW38737   1.801   2.621  11.384  0.3877 -0.7808  0.4219
 9092SOL    HW138738   1.779   2.714  11.391 -1.5184 -1.2915  1.4078
 9092SOL    HW238739   1.719   2.584  11.351  0.2079  0.1737 -0.2108
 9093SOL     OW38740   2.124   4.401   5.077  0.5673  0.2311  0.3350
 9093SOL    HW138741   2.152   4.340   5.009  0.3897 -0.4429  0.8596
 9093SOL    HW238742   2.174   4.370   5.153  2.7312  0.2852 -1.0934
 9094SOL     OW38743   3.445   1.177   3.634 -0.4048 -0.4855  1.0222
 9094SOL    HW138744   3.517   1.218   3.682 -1.1161  1.5949  0.3054
 9094SOL    HW238745   3.485   1.114   3.574 -2.1260 -2.6449  2.1532
 9095SOL     OW38746   1.563   0.859   8.617  0.4148  0.6468  0.2229
 9095SOL    HW138747   1.610   0.903   8.546  1.0038 -1.8682 -0.9723
 9095SOL    HW238748   1.591   0.911   8.691  1.8185 -0.8869  0.7709
 9096SOL     OW38749   1.636   2.775   0.405 -0.1302 -0.1433 -0.3705
 9096SOL    HW138750   1.717   2.753   0.452  0.4114  1.1690 -0.6885
 9096SOL    HW238751   1.659   2.864   0.377  0.0647  0.4956  1.8298
 9097SOL     OW38752   3.872   3.384   2.758 -0.5022 -0.1172  0.1921
 9097SOL    HW138753   3.838   3.473   2.755  2.4949  0.9419 -1.5438
 9097SOL    HW238754   3.821   3.350   2.832 -1.3421  1.8399  0.5241
 9098SOL     OW38755   0.090   4.489  15.418 -0.1162 -0.3900  0.4693
 9098SOL    HW138756   4.722   4.483  15.391 -0.1937 -0.4473  0.7485
 9098SOL    HW238757   0.090   4.439  15.499 -1.5985 -0.4167  0.4621
 9099SOL     OW38758   3.017   1.903   2.258  0.5492 -0.1622  0.3179
 9099SOL    HW138759   2.999   1.976   2.317  0.6552  0.0554  0.0804
 9099SOL    HW238760   2.937   1.898   2.206  1.3171  0.1086 -0.8935
 9100SOL     OW38761   3.619   0.342   7.591  1.1092  0.0670 -0.0889
 9100SOL    HW138762   3.534   0.362   7.552  2.2484 -1.5043 -3.3659
 9100SOL    HW238763   3.594   0.268   7.647 -0.9774  0.6045 -0.3067
 9101SOL     OW38764   2.998   0.582   1.065 -0.6400  0.3675 -0.4073
 9101SOL    HW138765   3.058   0.650   1.093  1.0859 -1.2159 -0.2647
 9101SOL    HW238766   2.937   0.587   1.139  0.9167  0.5981  0.8537
 9102SOL     OW38767   4.222   3.199  17.658 -0.1859  0.0119  0.2953
 9102SOL    HW138768   4.266   3.278  17.627 -0.3663 -0.4742 -1.1902
 9102SOL    HW238769   4.304   3.155  17.679 -0.4902 -0.9165 -0.4489
 9103SOL     OW38770   1.754   2.332  12.727 -0.0104  0.0840 -0.4644
 9103SOL    HW138771   1.682   2.302  12.672 -0.3497  1.5464 -0.8215
 9103SOL    HW238772   1.830   2.291  12.684  0.8272 -0.0876  1.1816
 9104SOL     OW38773   0.072   2.477   5.464 -0.6895 -0.3921  0.3654
 9104SOL    HW138774   0.060   2.549   5.403  1.7408 -0.3767 -0.0813
 9104SOL    HW238775   0.154   2.491   5.511 -0.0781 -0.6712 -0.6249
 9105SOL     OW38776   2.269   2.424  12.721  0.7646  0.1029  0.0424
 9105SOL    HW138777   2.272   2.400  12.628  1.4651 -3.0385  0.8728
 9105SOL    HW238778   2.360   2.423  12.751  1.0375  2.7451 -0.7008
 9106SOL     OW38779   3.599   3.701   1.556  0.1301  0.1005  0.5222
 9106SOL    HW138780   3.542   3.625   1.540  2.0018 -0.9361 -1.2759
 9106SOL    HW238781   3.568   3.751   1.480 -1.9449 -1.0957  0.5721
 9107SOL     OW38782   1.036   4.673   0.511 -0.5343  0.3596  0.4380
 9107SOL    HW138783   1.086   4.594   0.494 -2.8611 -1.0969  0.3808
 9107SOL    HW238784   1.016   4.702   0.422 -1.1169 -0.6672  0.2433
 9108SOL     OW38785   1.879   3.226   9.385 -0.5736  0.3201 -0.8349
 9108SOL    HW138786   1.785   3.233   9.372 -0.5012  0.4948 -1.2796
 9108SOL    HW238787   1.892   3.307   9.433  1.1102  0.1071 -0.9052
 9109SOL     OW38788   0.992   0.116   4.533 -0.3220  0.1385 -0.1393
 9109SOL    HW138789   0.997   0.105   4.438  1.3243 -0.5348  0.0242
 9109SOL    HW238790   1.003   0.211   4.538 -0.5199  0.1542 -0.0162
 9110SOL     OW38791   3.997   2.325   1.388 -0.2341  0.7408  0.3284
 9110SOL    HW138792   3.952   2.409   1.386 -1.9421 -0.2608 -4.5169
 9110SOL    HW238793   4.086   2.340   1.421 -0.2580  2.6372 -0.4732
 9111SOL     OW38794   2.687   3.999  10.353 -0.4251 -0.6030 -0.3344
 9111SOL    HW138795   2.709   3.922  10.407 -1.2813 -1.0023 -0.5424
 9111SOL    HW238796   2.650   4.063  10.414  0.1262 -0.7599  0.1600
 9112SOL     OW38797   1.702   1.376   9.019  0.1573  0.3683 -0.0236
 9112SOL    HW138798   1.617   1.333   9.031  1.2937 -2.2368 -1.2212
 9112SOL    HW238799   1.667   1.465   9.014  2.8640  1.3075 -1.9061
 9113SOL     OW38800   1.663   0.439   7.657 -0.4208  0.4658  0.3380
 9113SOL    HW138801   1.600   0.367   7.655  0.1543 -0.0426  0.5840
 9113SOL    HW238802   1.611   0.519   7.667 -2.7809 -1.2766  1.9328
 9114SOL     OW38803   0.224   3.087   9.219 -0.2751 -0.5828  0.1450
 9114SOL    HW138804   0.312   3.053   9.236 -0.0325 -0.5136 -0.9608
 9114SOL    HW238805   0.244   3.180   9.228  1.3829 -0.9320  0.0960
 9115SOL     OW38806   3.787   4.343   7.134 -0.5737  0.4611 -0.5729
 9115SOL    HW138807   3.792   4.306   7.046 -1.2221 -1.3047  0.1418
 9115SOL    HW238808   3.854   4.293   7.182 -1.0147 -0.7401 -1.2088
 9116SOL     OW38809   2.942   0.100   3.424  0.4982  0.2492 -0.1621
 9116SOL    HW138810   3.027   0.104   3.466  0.4458 -0.9089  0.0584
 9116SOL    HW238811   2.971   0.108   3.333  1.6001 -2.2819 -0.0368
 9117SOL     OW38812   1.355   1.171  14.367 -0.1979 -0.8642 -0.3131
 9117SOL    HW138813   1.312   1.085  14.366 -0.2479 -0.8078 -2.8220
 9117SOL    HW238814   1.446   1.145  14.377 -0.8997 -2.9609  0.7111
 9118SOL     OW38815   1.804   2.670   9.711 -0.4176  0.3730 -0.2108
 9118SOL    HW138816   1.892   2.675   9.748 -0.6635  0.4742  0.3572
 9118SOL    HW238817   1.829   2.680   9.619 -1.1430  2.2526 -0.2050
 9119SOL     OW38818   2.889   2.349  16.044 -0.0632 -0.3950  0.3117
 9119SOL    HW138819   2.809   2.399  16.029  0.0722 -0.7199 -1.4624
 9119SOL    HW238820   2.864   2.267  16.003 -0.0400 -0.8260  1.1571
 9120SOL     OW38821   3.103   1.624  16.570  0.4722 -0.1736 -0.6022
 9120SOL    HW138822   3.015   1.656  16.548  0.4875 -1.6631 -2.8740
 9120SOL    HW238823   3.134   1.600  16.482  1.1086 -1.4972 -0.0005
 9121SOL     OW38824   4.053   2.865  11.285  0.4520 -0.6517 -0.1985
 9121SOL    HW138825   4.073   2.880  11.192 -0.9041 -2.2103 -0.7384
 9121SOL    HW238826   4.051   2.958  11.307  2.2052 -1.0061  1.4463
 9122SOL     OW38827   3.263   1.679   1.814 -0.8304  0.2987  0.0620
 9122SOL    HW138828   3.311   1.601   1.785  1.8161  1.6551  0.8644
 9122SOL    HW238829   3.199   1.635   1.870 -0.3875 -1.0908 -0.5142
 9123SOL     OW38830   3.617   1.763  13.775 -0.4367 -0.5338 -0.5524
 9123SOL    HW138831   3.601   1.739  13.683 -1.8245  0.2247 -0.5095
 9123SOL    HW238832   3.578   1.849  13.760  0.6005 -0.0164 -0.2422
 9124SOL     OW38833   2.555   0.641   8.487 -0.1764  0.8138  0.0940
 9124SOL    HW138834   2.583   0.701   8.556 -1.2008 -0.0640  1.2627
 9124SOL    HW238835   2.583   0.688   8.409 -0.3265 -1.3849 -1.2822
 9125SOL     OW38836   1.335   1.118   6.830 -0.7773  0.2030 -0.1146
 9125SOL    HW138837   1.340   1.089   6.921 -2.1454 -1.3587 -0.5478
 9125SOL    HW238838   1.332   1.034   6.785  1.7740 -0.9859  1.8925
 9126SOL     OW38839   3.307   4.097  11.825 -1.0179  0.3823 -0.3592
 9126SOL    HW138840   3.348   4.183  11.827 -0.5794  0.1503  0.7761
 9126SOL    HW238841   3.387   4.048  11.843 -0.8490  1.2928  1.3558
 9127SOL     OW38842   4.130   2.808   3.528 -0.2515 -0.5204 -0.4086
 9127SOL    HW138843   4.073   2.737   3.500  0.1983 -0.8428 -0.5028
 9127SOL    HW238844   4.147   2.856   3.447 -0.3576  1.8891  0.9832
 9128SOL     OW38845   1.887   3.577  12.040 -0.4025  0.1322  0.1711
 9128SOL    HW138846   1.838   3.658  12.033  0.0239  0.3511 -0.2971
 9128SOL    HW238847   1.817   3.525  12.080 -0.5952  1.1433  1.1423
 9129SOL     OW38848   3.792   1.042  10.337  0.4836 -0.6672 -0.4674
 9129SOL    HW138849   3.779   1.123  10.288  0.7858 -0.2932  0.0601
 9129SOL    HW238850   3.861   1.066  10.400  1.6181 -0.1078 -1.9189
 9130SOL     OW38851   3.657   2.291  10.831 -0.6393 -0.0653 -0.1224
 9130SOL    HW138852   3.749   2.267  10.831 -0.9627 -1.2819 -0.0318
 9130SOL    HW238853   3.616   2.205  10.841 -2.2492  0.6842 -0.2363
 9131SOL     OW38854   2.689   1.608   5.372  0.0056 -0.0743  0.4990
 9131SOL    HW138855   2.620   1.642   5.429  0.4722 -1.1919  1.7626
 9131SOL    HW238856   2.648   1.630   5.289  1.5037  2.6188  0.4957
 9132SOL     OW38857   2.100   2.072   8.052  0.1546  0.4079 -0.0161
 9132SOL    HW138858   2.131   2.081   8.142 -0.3652 -0.0916  0.2204
 9132SOL    HW238859   2.026   2.011   8.060 -0.7115  1.2753 -1.3430
 9133SOL     OW38860   2.125   1.918   1.776  0.1947  0.0978 -0.2114
 9133SOL    HW138861   2.104   1.936   1.685 -0.5656  0.0433 -0.0493
 9133SOL    HW238862   2.044   1.871   1.798  0.8360 -0.9556 -0.1049
 9134SOL     OW38863   4.302   3.026   6.748  0.4411 -0.0738 -0.1692
 9134SOL    HW138864   4.397   3.021   6.751  0.5581  1.6098 -0.9776
 9134SOL    HW238865   4.275   2.942   6.786  1.0188 -0.5368 -0.7986
 9135SOL     OW38866   2.624   0.223  16.000 -0.8417  0.1520  0.6686
 9135SOL    HW138867   2.551   0.161  16.004 -0.0438 -0.7930  0.5789
 9135SOL    HW238868   2.573   0.291  16.044 -1.2758  1.4820 -1.8732
 9136SOL     OW38869   3.688   3.389   3.026 -0.9011  0.8662 -0.2909
 9136SOL    HW138870   3.699   3.294   3.025 -0.1240  0.9492  0.3570
 9136SOL    HW238871   3.599   3.402   2.995 -0.7687  0.5077 -0.8086
 9137SOL     OW38872   1.327   2.060   4.799 -0.3504  0.2242 -0.1412
 9137SOL    HW138873   1.273   2.033   4.725  0.0720  1.3155 -0.8434
 9137SOL    HW238874   1.290   2.012   4.874 -0.2349  0.1347 -0.1419
 9138SOL     OW38875   0.819   3.766   9.687 -0.6061 -0.3171  0.2173
 9138SOL    HW138876   0.777   3.851   9.691  0.5022  0.4114 -4.0076
 9138SOL    HW238877   0.761   3.722   9.625  1.8512 -0.9042 -1.6782
 9139SOL     OW38878   4.460   1.268   5.071 -0.5279  0.3113 -0.1299
 9139SOL    HW138879   4.461   1.341   5.132 -0.0832  0.7384 -0.6428
 9139SOL    HW238880   4.385   1.285   5.015 -0.8057 -1.8838 -0.4091
 9140SOL     OW38881   2.602   0.090   3.135 -0.0355 -0.2338 -0.5482
 9140SOL    HW138882   2.611   0.161   3.072  2.2882 -0.0808 -0.0526
 9140SOL    HW238883   2.688   0.047   3.133 -0.0721 -0.2943 -0.7702
 9141SOL     OW38884   4.551   2.916   7.268 -0.3132  0.0929  0.2571
 9141SOL    HW138885   4.459   2.894   7.282 -0.2096 -0.9616 -0.7390
 9141SOL    HW238886   4.589   2.830   7.248 -0.7788 -0.1825  0.5687
 9142SOL     OW38887   3.505   2.150   5.705 -0.1109 -0.3347  0.3767
 9142SOL    HW138888   3.598   2.163   5.723 -0.6748  3.5079  0.4215
 9142SOL    HW238889   3.457   2.118   5.781  0.6752  0.1253  1.0535
 9143SOL     OW38890   0.196   3.098   8.066 -0.0031  0.2156 -0.4160
 9143SOL    HW138891   0.126   3.110   8.130  2.3043 -0.4641  2.2558
 9143SOL    HW238892   0.263   3.087   8.133 -0.4492 -0.2616 -0.0451
 9144SOL     OW38893   0.683   2.365  16.106  0.1223 -0.4421  0.1614
 9144SOL    HW138894   0.692   2.442  16.161  1.1459 -1.2944  1.1715
 9144SOL    HW238895   0.682   2.408  16.020 -2.8644  1.1785  1.0143
 9145SOL     OW38896   0.292   0.416  11.039 -0.2731 -0.1702  0.0733
 9145SOL    HW138897   0.273   0.494  11.091 -1.6282  1.2175 -2.5220
 9145SOL    HW238898   0.221   0.362  11.073 -1.5404  0.1948 -2.0491
 9146SOL     OW38899   0.944   4.441  17.071  0.2674  0.1402 -0.5101
 9146SOL    HW138900   0.928   4.527  17.033  1.3963  0.8869  0.6845
 9146SOL    HW238901   1.033   4.419  17.043  0.7111  0.5386  0.5905
 9147SOL     OW38902   1.844   1.901   0.668  0.3802 -0.4471  0.0416
 9147SOL    HW138903   1.917   1.872   0.724 -0.1778  0.2676  1.1234
 9147SOL    HW238904   1.792   1.821   0.669 -1.9427  1.1269  2.2798
 9148SOL     OW38905   0.118   1.435   2.960  0.1915  0.2594  0.2337
 9148SOL    HW138906   0.200   1.386   2.969 -0.3712 -0.8214 -0.5532
 9148SOL    HW238907   0.135   1.528   2.975 -0.0304  0.6616 -2.0230
 9149SOL     OW38908   3.220   1.015   1.898  0.6074  0.5279 -0.0493
 9149SOL    HW138909   3.140   1.012   1.844  0.6983 -0.0479 -0.1477
 9149SOL    HW238910   3.216   0.926   1.932 -1.2650  0.6439  0.0668
 9150SOL     OW38911   3.356   3.239  14.346  0.1714  0.7271  0.0478
 9150SOL    HW138912   3.429   3.265  14.291 -0.2991  1.9256 -0.0130
 9150SOL    HW238913   3.378   3.282  14.429 -0.0471  0.2100  0.3779
 9151SOL     OW38914   1.413   2.619   6.363  0.5384 -0.9087 -0.0537
 9151SOL    HW138915   1.398   2.713   6.371 -2.7394 -1.6573  2.4784
 9151SOL    HW238916   1.462   2.612   6.281 -1.8390 -0.7852 -1.4798
 9152SOL     OW38917   3.965   0.356  12.573  0.1231  0.4470 -0.2193
 9152SOL    HW138918   3.992   0.280  12.624 -1.2359 -0.6365 -1.1281
 9152SOL    HW238919   4.033   0.418  12.600 -0.5343  1.0174  0.1353
 9153SOL     OW38920   1.233   2.139   5.357  0.8199  0.2282  0.4809
 9153SOL    HW138921   1.250   2.058   5.309  1.7028  1.3069 -1.0379
 9153SOL    HW238922   1.145   2.166   5.330  0.8192  0.7196  0.9587
 9154SOL     OW38923   3.343   2.021   7.398 -0.3552 -0.3587 -0.5584
 9154SOL    HW138924   3.285   2.050   7.328 -0.9489 -0.2727 -0.0387
 9154SOL    HW238925   3.389   1.952   7.351  2.2373  0.0534  1.3486
 9155SOL     OW38926   3.263   0.121   8.198 -0.1169 -0.3017  0.0240
 9155SOL    HW138927   3.326   0.164   8.140  1.1785 -1.4763  0.5617
 9155SOL    HW238928   3.193   0.186   8.203  0.4098  0.3671 -1.2843
 9156SOL     OW38929   1.941   2.079  13.622 -0.1285  0.4688 -0.4604
 9156SOL    HW138930   1.861   2.027  13.616  0.4452 -0.1496 -2.5665
 9156SOL    HW238931   1.979   2.070  13.535 -2.1823 -2.0937 -1.1057
 9157SOL     OW38932   0.753   2.715  17.613  0.0312  0.2107 -0.1292
 9157SOL    HW138933   0.779   2.805  17.634  0.2751  0.2866 -0.7417
 9157SOL    HW238934   0.822   2.665  17.656  0.0421  1.1073  0.8838
 9158SOL     OW38935   0.398   2.410   3.328 -0.5629  0.3528  0.4079
 9158SOL    HW138936   0.373   2.389   3.237  2.1531  3.0942 -0.9729
 9158SOL    HW238937   0.312   2.434   3.361 -0.4063  0.5529  0.6697
 9159SOL     OW38938   1.177   0.532   9.938 -0.2801  0.3421 -0.2821
 9159SOL    HW138939   1.261   0.569   9.966 -0.1545 -0.6284  0.6119
 9159SOL    HW238940   1.203   0.484   9.860  0.6392  0.0915  0.1753
 9160SOL     OW38941   0.785   3.660  10.788 -0.3074  0.2087 -0.8246
 9160SOL    HW138942   0.879   3.658  10.768 -0.4748  1.3945 -1.6893
 9160SOL    HW238943   0.789   3.606  10.867 -1.4925 -0.0050 -0.9111
 9161SOL     OW38944   0.910   1.728   4.805  0.3380  0.0749 -0.2564
 9161SOL    HW138945   0.968   1.663   4.766  2.1757  0.7584  1.3604
 9161SOL    HW238946   0.827   1.680   4.813  0.9511 -0.7455  1.1709
 9162SOL     OW38947   2.766   3.694   4.941  0.4219 -0.7275  0.2386
 9162SOL    HW138948   2.684   3.730   4.909 -0.1571 -0.3754  2.1857
 9162SOL    HW238949   2.764   3.704   5.036 -2.4646 -0.8393  0.1685
 9163SOL     OW38950   4.634   0.526  10.348 -0.4111  0.3340  0.0810
 9163SOL    HW138951   4.660   0.494  10.262 -1.2905 -1.7442  0.5907
 9163SOL    HW238952   4.701   0.484  10.401  0.1895 -0.1104 -1.0435
 9164SOL     OW38953   0.178   2.771   7.147  0.4431  0.0400  0.1600
 9164SOL    HW138954   0.102   2.732   7.191 -0.7071  1.3824 -0.6233
 9164SOL    HW238955   0.220   2.788   7.231  2.4718 -1.2226 -0.6101
 9165SOL     OW38956   4.029   2.260   4.471  0.0526 -0.1344 -0.5320
 9165SOL    HW138957   4.008   2.183   4.524  0.2681  1.8729  2.4369
 9165SOL    HW238958   4.093   2.220   4.412 -0.4563 -0.1186 -1.0964
 9166SOL     OW38959   2.705   4.027   3.640 -0.1912  0.0120  0.2720
 9166SOL    HW138960   2.678   3.993   3.555 -0.4617  2.1587 -0.4898
 9166SOL    HW238961   2.760   3.955   3.673 -1.1254 -0.4129  0.8875
 9167SOL     OW38962   4.011   1.553   8.267 -0.5744 -0.6040  0.1617
 9167SOL    HW138963   4.105   1.531   8.269 -0.3555  0.2330 -1.1069
 9167SOL    HW238964   3.972   1.467   8.282  1.9801 -1.5307  1.4268
 9168SOL     OW38965   0.623   0.612   8.049  0.4692  0.0194  0.2743
 9168SOL    HW138966   0.657   0.679   7.990  2.9491 -3.3221 -2.0672
 9168SOL    HW238967   0.589   0.663   8.123  1.6407  2.0326 -0.5769
 9169SOL     OW38968   4.160   1.052   0.036  0.3762  0.3089  0.3749
 9169SOL    HW138969   4.248   1.027   0.064  1.5882  2.6040 -1.3375
 9169SOL    HW238970   4.172   1.050  17.639  0.9366 -1.5668  0.4959
 9170SOL     OW38971   0.965   1.076   3.529 -0.0146 -0.0880  0.2536
 9170SOL    HW138972   0.878   1.037   3.533 -0.2508  0.6242  1.9421
 9170SOL    HW238973   0.973   1.099   3.436  1.4347  0.0418  0.4057
 9171SOL     OW38974   4.129   2.073   4.867  1.1124  0.0689 -0.5649
 9171SOL    HW138975   4.083   2.064   4.783 -0.5755 -2.1903  0.5946
 9171SOL    HW238976   4.214   2.104   4.836  1.2505 -1.0663 -1.3249
 9172SOL     OW38977   2.553   0.011  12.940  0.5645 -0.5481 -0.1375
 9172SOL    HW138978   2.581   0.004  12.849  1.3855  0.9609 -0.0062
 9172SOL    HW238979   2.460   0.034  12.934  0.7301 -0.4654 -2.3250
 9173SOL     OW38980   1.345   0.779   6.262 -0.6509  0.1077  0.6552
 9173SOL    HW138981   1.251   0.787   6.279 -0.6941 -0.7592  0.8529
 9173SOL    HW238982   1.361   0.870   6.238  3.6955 -0.5184  1.1619
 9174SOL     OW38983   1.276   4.608   3.328 -0.3677  0.1759 -0.4917
 9174SOL    HW138984   1.263   4.700   3.303 -1.0920  0.0965 -0.3940
 9174SOL    HW238985   1.245   4.568   3.247  0.3490 -2.6269  0.6383
 9175SOL     OW38986   1.816   3.518  10.226 -0.0486  0.5539 -0.2694
 9175SOL    HW138987   1.757   3.574  10.277  1.1605 -0.1851  1.9371
 9175SOL    HW238988   1.793   3.538  10.136 -1.4114 -0.4110 -0.1351
 9176SOL     OW38989   2.219   1.930   8.367  0.4381 -0.1902  0.1020
 9176SOL    HW138990   2.281   1.892   8.428 -0.1203 -1.2326  0.0218
 9176SOL    HW238991   2.259   2.016   8.352 -3.1334  1.2043 -1.4588
 9177SOL     OW38992   4.499   2.239   8.065  0.0277  0.8778 -0.3669
 9177SOL    HW138993   4.471   2.151   8.039 -2.4578  0.9179  2.1072
 9177SOL    HW238994   4.443   2.232   8.143 -0.2430 -0.8502 -0.7003
 9178SOL     OW38995   0.238   1.305  16.747  0.4852  0.0592 -0.4867
 9178SOL    HW138996   0.156   1.322  16.702  0.2068 -0.2783 -0.1100
 9178SOL    HW238997   0.210   1.300  16.838  0.3385  0.5621 -0.5033
 9179SOL     OW38998   2.848   4.130   4.323 -0.1992  0.3307 -0.3154
 9179SOL    HW138999   2.805   4.126   4.409  2.3927  0.6678  0.9919
 9179SOL    HW239000   2.774   4.124   4.262  0.3289 -2.7140 -0.6493
 9180SOL     OW39001   2.177   0.207   8.900 -0.3440 -0.0237  0.2495
 9180SOL    HW139002   2.179   0.222   8.806 -0.7813  1.2993  0.4473
 9180SOL    HW239003   2.269   0.230   8.918  0.4613 -1.8084 -1.5790
 9181SOL     OW39004   2.928   2.541   6.399  0.1401  0.3258  0.1645
 9181SOL    HW139005   2.847   2.490   6.395 -0.4438  1.2697 -0.0818
 9181SOL    HW239006   2.927   2.576   6.488  0.8668  1.3375 -0.2169
 9182SOL     OW39007   0.070   1.168   9.847  0.0632 -0.2714  0.7721
 9182SOL    HW139008   0.125   1.166   9.926  1.5486 -0.1280 -0.2662
 9182SOL    HW239009   0.041   1.078   9.834  0.6646 -0.2653 -0.5972
 9183SOL     OW39010   3.649   0.247   8.142  0.0649  0.0540  0.0654
 9183SOL    HW139011   3.595   0.270   8.218  2.3789  0.9460  1.4627
 9183SOL    HW239012   3.574   0.225   8.087  1.4157 -0.7598 -1.4359
 9184SOL     OW39013   0.703   3.632   2.610 -0.0083  0.0132 -0.1995
 9184SOL    HW139014   0.626   3.615   2.666 -0.6010 -2.1054 -1.6891
 9184SOL    HW239015   0.710   3.725   2.633  0.7718 -0.3195  0.9258
 9185SOL     OW39016   2.112   1.032   0.776  0.5328 -0.2775  0.1340
 9185SOL    HW139017   2.114   0.940   0.803 -1.7389 -0.0366  1.0746
 9185SOL    HW239018   2.190   1.060   0.823  0.8968 -0.2541 -0.4825
 9186SOL     OW39019   0.568   0.769  11.453 -0.5680  0.4840 -0.8049
 9186SOL    HW139020   0.643   0.709  11.458 -0.1920  0.8893 -1.4833
 9186SOL    HW239021   0.512   0.704  11.493 -0.6874  0.5621 -0.8460
 9187SOL     OW39022   2.685   1.393   5.102 -0.5628 -0.6674  0.1759
 9187SOL    HW139023   2.758   1.448   5.072  0.8272 -1.9252  1.2382
 9187SOL    HW239024   2.619   1.462   5.103 -0.9280 -0.9311 -3.1994
 9188SOL     OW39025   3.086   3.098  11.712  0.0375  0.5695  0.1659
 9188SOL    HW139026   3.133   3.041  11.774  0.3100 -2.0970 -2.5043
 9188SOL    HW239027   3.047   3.036  11.651  1.6313 -0.3663  0.0979
 9189SOL     OW39028   2.681   3.433   6.893  0.5471 -0.1850 -0.3379
 9189SOL    HW139029   2.694   3.351   6.940 -0.4321  0.4700  1.1141
 9189SOL    HW239030   2.592   3.439   6.859  0.8468  0.1712 -1.0472
 9190SOL     OW39031   3.467   1.370   7.310 -0.3474 -0.1046 -0.1665
 9190SOL    HW139032   3.505   1.443   7.360 -1.9116  2.2850 -2.5084
 9190SOL    HW239033   3.543   1.327   7.272 -0.1772 -1.2718  1.4996
 9191SOL     OW39034   3.558   2.235   4.087  0.6193  0.1270 -0.5162
 9191SOL    HW139035   3.521   2.274   4.166 -0.8472 -0.8210 -0.7315
 9191SOL    HW239036   3.612   2.301   4.042 -0.7818  0.5695 -1.5863
 9192SOL     OW39037   1.459   3.346   4.552 -0.6827 -0.1299  0.4748
 9192SOL    HW139038   1.549   3.353   4.583  1.2058 -1.0276 -4.6415
 9192SOL    HW239039   1.423   3.434   4.547 -0.1578  0.1891  2.7364
 9193SOL     OW39040   0.958   2.004   7.622 -0.1358  0.3782 -0.1551
 9193SOL    HW139041   0.943   2.096   7.646  2.4491  0.3670  1.5418
 9193SOL    HW239042   0.903   2.002   7.544 -0.5541  0.2862  0.1385
 9194SOL     OW39043   1.660   1.980   3.350 -0.0091 -0.2851 -0.3139
 9194SOL    HW139044   1.728   2.010   3.290  0.5490 -0.7071  0.1105
 9194SOL    HW239045   1.714   1.986   3.429  0.2865  0.1635 -0.5441
 9195SOL     OW39046   3.830   1.563   1.395  0.9341 -0.2718 -0.6304
 9195SOL    HW139047   3.878   1.582   1.315  1.3356  0.2178 -0.2757
 9195SOL    HW239048   3.898   1.563   1.462 -1.8902  0.0217  2.2322
 9196SOL     OW39049   2.342   0.543   2.314  0.3337  0.1620 -0.3322
 9196SOL    HW139050   2.351   0.505   2.402 -2.9816  1.1407  0.4118
 9196SOL    HW239051   2.281   0.486   2.268 -0.2538  1.5171 -1.2303
 9197SOL     OW39052   0.669   4.515  12.489 -0.3905  0.0429 -0.0618
 9197SOL    HW139053   0.697   4.509  12.580  2.2854 -2.8673 -1.0565
 9197SOL    HW239054   0.753   4.489  12.451 -0.4894  3.2066 -2.3858
 9198SOL     OW39055   4.443   1.791   6.144 -0.0617  0.1905  0.0765
 9198SOL    HW139056   4.367   1.779   6.201 -0.7350  2.5784 -0.3212
 9198SOL    HW239057   4.487   1.706   6.152 -1.2424 -0.3133  1.1841
 9199SOL     OW39058   1.574   1.105   4.105  0.4350  0.5768  0.3971
 9199SOL    HW139059   1.632   1.031   4.125  1.7837  1.7470  0.7967
 9199SOL    HW239060   1.535   1.118   4.192 -1.0382  2.3494 -0.5355
 9200SOL     OW39061   0.169   3.753   4.259  0.1236 -0.5935  0.7082
 9200SOL    HW139062   0.083   3.786   4.287  0.6706  0.9786  0.5175
 9200SOL    HW239063   0.185   3.681   4.320  2.1069  1.4432  2.5798
 9201SOL     OW39064   1.392   4.393   2.187 -0.2170  0.7693  0.0029
 9201SOL    HW139065   1.461   4.417   2.125  1.6269  2.5692  2.7550
 9201SOL    HW239066   1.314   4.421   2.137 -1.1664 -2.5720 -0.3602
 9202SOL     OW39067   1.258   2.786   5.216 -0.1975  0.2728  0.0898
 9202SOL    HW139068   1.207   2.796   5.135  0.3613  3.9307  0.2068
 9202SOL    HW239069   1.236   2.700   5.251  0.5886 -0.6822 -1.7516
 9203SOL     OW39070   1.090   4.051  10.530 -0.3696  0.3573 -0.2522
 9203SOL    HW139071   1.012   4.006  10.561 -0.8835  0.3092 -1.6572
 9203SOL    HW239072   1.156   4.026  10.595  0.5057  0.2975 -1.1661
 9204SOL     OW39073   2.623   0.927   0.498 -0.3425  0.3621 -0.6185
 9204SOL    HW139074   2.584   0.960   0.579 -0.2086  1.1516 -0.8832
 9204SOL    HW239075   2.580   0.842   0.502 -1.1769  0.8002 -0.3649
 9205SOL     OW39076   1.033   1.898  16.593  0.1924  0.3667 -0.4432
 9205SOL    HW139077   1.119   1.856  16.590  0.6629  1.1481  1.6061
 9205SOL    HW239078   0.972   1.825  16.601 -1.8182  2.1076 -0.0718
 9206SOL     OW39079   2.773   0.274   4.308  0.4491  0.6733 -0.1025
 9206SOL    HW139080   2.754   0.299   4.399 -0.4114  0.9248 -0.3461
 9206SOL    HW239081   2.790   0.180   4.319 -0.9141  0.4358  0.0083
 9207SOL     OW39082   3.693   2.019  14.930  0.1388  0.0662  0.0594
 9207SOL    HW139083   3.617   2.073  14.949  0.8059  1.3083 -0.7564
 9207SOL    HW239084   3.731   2.083  14.870  0.9752 -2.0749 -1.7100
 9208SOL     OW39085   1.635   0.082  11.688  0.0484 -0.5485  0.2331
 9208SOL    HW139086   1.635   0.108  11.780 -0.4214 -0.2205  0.1365
 9208SOL    HW239087   1.549   0.042  11.676 -1.1975  1.4186  2.8406
 9209SOL     OW39088   1.482   4.205  16.688  0.0423  0.0016  0.5762
 9209SOL    HW139089   1.564   4.176  16.649 -0.9705  1.7564 -2.8880
 9209SOL    HW239090   1.417   4.188  16.619 -0.5960 -3.0549  1.9695
 9210SOL     OW39091   0.756   4.428   7.034  0.0060  0.2101  0.1118
 9210SOL    HW139092   0.681   4.473   6.996  0.4258  0.0295 -0.9163
 9210SOL    HW239093   0.822   4.460   6.974 -1.2390 -0.9923 -1.8941
 9211SOL     OW39094   1.854   1.157   6.431 -0.4136  0.0659  0.1144
 9211SOL    HW139095   1.882   1.067   6.443 -0.2831 -0.3350 -3.2439
 9211SOL    HW239096   1.759   1.148   6.438 -0.4249  1.9466  2.4436
 9212SOL     OW39097   3.230   1.699   7.448 -0.8155  0.0883 -0.0243
 9212SOL    HW139098   3.141   1.728   7.469 -0.3771  1.3221  0.1442
 9212SOL    HW239099   3.214   1.606   7.433 -3.3185  0.6092 -0.6906
 9213SOL     OW39100   1.795   3.705   8.454 -0.4077  0.1055  0.2651
 9213SOL    HW139101   1.885   3.709   8.423 -1.5156  3.9312 -2.4819
 9213SOL    HW239102   1.793   3.613   8.481  2.1825  0.2093  0.7830
 9214SOL     OW39103   4.032   0.095   0.576 -0.0173  0.3703  0.2601
 9214SOL    HW139104   3.969   0.077   0.646  0.3007 -0.4094  0.3483
 9214SOL    HW239105   3.998   0.041   0.505 -1.1476  0.8851  0.4189
 9215SOL     OW39106   2.756   3.064   5.695  0.1997 -0.3576  0.6123
 9215SOL    HW139107   2.819   2.992   5.698  1.1594  0.4354 -0.4661
 9215SOL    HW239108   2.770   3.100   5.608  3.6394 -1.6314  0.6686
 9216SOL     OW39109   1.744   2.206   9.044  0.1459  0.2624  0.3903
 9216SOL    HW139110   1.697   2.192   9.126 -3.3958 -1.0352 -1.9003
 9216SOL    HW239111   1.802   2.278   9.072 -0.5026  0.3070  1.6081
 9217SOL     OW39112   3.690   4.711   5.138  0.0886 -0.1530 -0.1437
 9217SOL    HW139113   3.628   4.643   5.110 -0.3381  0.7274 -1.3472
 9217SOL    HW239114   3.636   0.052   5.184  0.2978  1.2672 -1.9023
 9218SOL     OW39115   3.153   1.557   1.158  0.4747 -0.0579  0.7209
 9218SOL    HW139116   3.152   1.599   1.072  0.3155  0.0847  0.7942
 9218SOL    HW239117   3.194   1.471   1.143 -1.6528 -0.7194 -1.2507
 9219SOL     OW39118   1.130   4.415   8.414  0.1406  0.1871 -0.3066
 9219SOL    HW139119   1.108   4.348   8.350  1.5209 -0.5224 -0.0270
 9219SOL    HW239120   1.216   4.381   8.437 -0.5124 -2.8418 -2.2728
 9220SOL     OW39121   4.670   2.224  11.934 -0.2856  0.2010 -0.3301
 9220SOL    HW139122   4.598   2.279  11.902 -2.3032 -3.0171 -1.3428
 9220SOL    HW239123   4.693   2.266  12.017  2.1961  0.0174 -0.9422
 9221SOL     OW39124   4.642   1.280  13.926 -0.0621 -0.4189  0.2495
 9221SOL    HW139125   4.639   1.342  13.853 -1.1171 -0.5332  0.1964
 9221SOL    HW239126   4.635   1.194  13.886 -0.4011  0.1567 -0.9306
 9222SOL     OW39127   2.884   2.546   4.271  0.0314 -0.3170 -0.1252
 9222SOL    HW139128   2.948   2.476   4.256  0.0124 -0.6960  1.5574
 9222SOL    HW239129   2.930   2.600   4.335 -0.4901  1.5904 -1.3647
 9223SOL     OW39130   1.214   0.561  13.676  0.1272 -0.2447 -0.1800
 9223SOL    HW139131   1.253   0.648  13.675  0.8127 -0.5661 -1.1701
 9223SOL    HW239132   1.298   0.517  13.690  0.4376  0.1686 -0.7423
 9224SOL     OW39133   4.367   3.242  14.777 -0.3654  0.3099  0.7198
 9224SOL    HW139134   4.339   3.278  14.693 -2.3930 -2.0458  0.4082
 9224SOL    HW239135   4.384   3.149  14.761 -1.4052  0.2983 -0.2857
 9225SOL     OW39136   3.277   1.590   6.597 -0.1195  0.3216  0.4406
 9225SOL    HW139137   3.211   1.651   6.630 -2.9961 -2.6036  0.1098
 9225SOL    HW239138   3.247   1.579   6.507 -4.5356  2.2507  1.6661
 9226SOL     OW39139   3.046   0.610  17.322  0.1596 -0.3560  0.3036
 9226SOL    HW139140   3.064   0.684  17.380 -0.2232  0.2701 -0.3747
 9226SOL    HW239141   3.001   0.551  17.383 -0.6233  1.2592  1.2885
 9227SOL     OW39142   1.573   1.429   4.094  0.0477 -0.3848 -0.3335
 9227SOL    HW139143   1.666   1.452   4.101  0.2500 -1.1499 -0.4398
 9227SOL    HW239144   1.588   1.366   4.024  1.4889 -3.0279  2.3105
 9228SOL     OW39145   0.478   4.393   6.008 -0.5069 -0.7885 -0.0784
 9228SOL    HW139146   0.439   4.433   6.086  1.0064 -0.1618  0.3485
 9228SOL    HW239147   0.408   4.345   5.965 -0.9774 -0.0513 -0.1479
 9229SOL     OW39148   4.026   2.902   3.174  0.0835  0.6142  0.3119
 9229SOL    HW139149   4.000   2.948   3.254  0.0915 -2.9746  2.4045
 9229SOL    HW239150   3.940   2.876   3.141  0.9080 -0.2627 -1.1254
 9230SOL     OW39151   3.104   4.533   7.538  0.0499 -0.1736  0.9265
 9230SOL    HW139152   3.163   4.591   7.490 -0.6540  0.2298  0.5507
 9230SOL    HW239153   3.080   4.578   7.619 -0.8411  2.1680 -0.6270
 9231SOL     OW39154   0.624   0.896  14.328  0.1723  0.2728 -0.9807
 9231SOL    HW139155   0.661   0.962  14.387 -0.7574 -0.6129  0.6010
 9231SOL    HW239156   0.702   0.845  14.349  0.9011  2.3250  1.3118
 9232SOL     OW39157   0.211   0.673   7.985 -0.4396  0.9357 -0.0990
 9232SOL    HW139158   0.252   0.726   7.917  1.0173  0.3861  0.3684
 9232SOL    HW239159   0.232   0.587   7.948 -2.8816  0.9431 -1.5433
 9233SOL     OW39160   3.752   2.456  11.227 -0.0025 -0.3282  0.0294
 9233SOL    HW139161   3.719   2.378  11.272 -0.5007  0.0104  0.2501
 9233SOL    HW239162   3.725   2.520  11.292 -2.5806 -0.4188 -0.9218
 9234SOL     OW39163   0.373   2.773   3.939  0.1596  0.2446  0.1308
 9234SOL    HW139164   0.366   2.775   4.035  2.4054 -2.7391  0.3612
 9234SOL    HW239165   0.397   2.682   3.926 -0.6998  0.2471 -1.3986
 9235SOL     OW39166   3.256   1.492   5.143  0.0549  0.4695  0.0247
 9235SOL    HW139167   3.328   1.526   5.090  2.0711 -1.6276  1.4269
 9235SOL    HW239168   3.302   1.461   5.221  0.5939 -0.0092 -0.4831
 9236SOL     OW39169   0.488   2.196   6.037  0.6217  0.1424  0.2697
 9236SOL    HW139170   0.523   2.268   5.984  1.3623 -0.2059  0.2791
 9236SOL    HW239171   0.474   2.148   5.955  0.2529  1.1534 -0.2648
 9237SOL     OW39172   3.739   1.458  17.636 -0.1888 -0.2431  0.4551
 9237SOL    HW139173   3.815   1.405  17.612 -0.5067 -0.4859 -0.0176
 9237SOL    HW239174   3.780   1.542  17.653 -0.5282 -0.1265  0.7068
 9238SOL     OW39175   2.770   4.619   0.322  0.7998  0.2812  0.3966
 9238SOL    HW139176   2.714   4.556   0.276  1.4261 -0.9713  1.3400
 9238SOL    HW239177   2.732   4.702   0.295 -1.6658 -0.6550  1.0367
 9239SOL     OW39178   1.147   1.273   9.973 -0.1964  0.5724  0.1818
 9239SOL    HW139179   1.194   1.277   9.889  0.6273  1.9001  0.7046
 9239SOL    HW239180   1.214   1.314  10.028  1.3815 -0.7792 -0.7204
 9240SOL     OW39181   2.594   4.018  10.886  0.2063  0.7447 -0.1675
 9240SOL    HW139182   2.640   3.939  10.916  1.8854  0.7643 -2.6593
 9240SOL    HW239183   2.645   4.089  10.924  0.5044  0.3411  0.1820
 9241SOL     OW39184   1.967   4.654   2.266 -0.1111  0.1741 -0.1334
 9241SOL    HW139185   1.961   4.586   2.200 -2.6074  0.2404  0.0228
 9241SOL    HW239186   2.030   4.621   2.330  0.1147 -1.0800 -1.0166
 9242SOL     OW39187   3.075   4.485   9.400 -0.4187  0.2878  0.4071
 9242SOL    HW139188   3.099   4.430   9.325 -1.6140  0.2885  0.0252
 9242SOL    HW239189   3.153   4.531   9.430  0.9323 -0.7755 -1.5111
 9243SOL     OW39190   0.689   3.813   8.944  0.1467 -0.4363 -0.0735
 9243SOL    HW139191   0.623   3.780   8.883  2.3244 -0.9384 -2.1319
 9243SOL    HW239192   0.751   3.854   8.884  0.2961 -0.6347 -0.0547
 9244SOL     OW39193   1.207   4.503   2.844 -0.3833  0.3282  0.3626
 9244SOL    HW139194   1.189   4.513   2.750 -0.8192 -1.0819  0.2810
 9244SOL    HW239195   1.243   4.414   2.845 -0.6077  0.2241 -0.6818
 9245SOL     OW39196   0.325   0.130   0.758  0.6803 -0.2571 -0.4089
 9245SOL    HW139197   0.337   0.176   0.841  0.8589  0.2254 -0.7038
 9245SOL    HW239198   0.389   0.060   0.767  1.3938  0.3107 -1.1550
 9246SOL     OW39199   4.343   4.682   1.957 -0.2941  0.6609 -0.0652
 9246SOL    HW139200   4.390   0.041   1.954  0.9801 -0.1217 -1.3779
 9246SOL    HW239201   4.319   4.668   2.049  2.5934 -0.1345  0.5471
 9247SOL     OW39202   1.478   4.439   5.372 -0.3322  0.5000  0.5396
 9247SOL    HW139203   1.501   4.523   5.333 -1.7222 -0.2194 -1.8146
 9247SOL    HW239204   1.497   4.379   5.300 -0.9700  1.0702 -0.1026
 9248SOL     OW39205   1.961   1.167   0.411 -0.0255  0.1400 -0.1077
 9248SOL    HW139206   2.035   1.120   0.373  0.1078 -0.1806  0.5393
 9248SOL    HW239207   2.017   1.216   0.471  1.7310  1.0114 -2.5042
 9249SOL     OW39208   1.449   3.265   8.216  0.3376  0.4507 -0.1094
 9249SOL    HW139209   1.424   3.208   8.143 -0.4857 -1.1906  1.4717
 9249SOL    HW239210   1.436   3.217   8.298 -0.3184 -1.3105 -1.2371
 9250SOL     OW39211   2.502   3.124   8.374  0.2621  0.3719  0.1163
 9250SOL    HW139212   2.453   3.110   8.293 -2.2112 -0.6778  1.7845
 9250SOL    HW239213   2.563   3.051   8.370 -0.1221  0.0932 -0.7634
 9251SOL     OW39214   3.225   1.024  16.627  0.6922 -0.5817  0.5693
 9251SOL    HW139215   3.247   1.072  16.547 -0.5312 -3.3112 -1.4003
 9251SOL    HW239216   3.244   0.932  16.608 -1.0975 -1.0517  1.0573
 9252SOL     OW39217   2.217   2.654   7.207  0.4161 -0.8206  0.0902
 9252SOL    HW139218   2.294   2.598   7.211  0.4809 -0.8118 -1.2303
 9252SOL    HW239219   2.243   2.740   7.175 -1.6676 -0.6458 -1.1282
 9253SOL     OW39220   3.082   4.124  12.038 -0.0590 -0.0995  0.1227
 9253SOL    HW139221   3.167   4.083  12.024  0.0857 -0.3421  1.7779
 9253SOL    HW239222   3.091   4.202  11.983  2.4384 -0.8800 -0.5749
 9254SOL     OW39223   3.239   1.937   6.289  0.0503  0.3957  0.4704
 9254SOL    HW139224   3.167   1.999   6.308 -2.4128 -2.0759 -0.8011
 9254SOL    HW239225   3.299   1.944   6.363  0.0488  0.9969  0.4159
 9255SOL     OW39226   3.443   2.617   6.643  0.0380 -0.4524 -0.5135
 9255SOL    HW139227   3.400   2.585   6.722 -3.1516  0.5684 -1.8111
 9255SOL    HW239228   3.534   2.632   6.668 -0.3031  1.5128 -0.4083
 9256SOL     OW39229   4.383   2.782   4.389 -0.7629  0.0274 -0.1153
 9256SOL    HW139230   4.360   2.854   4.330  1.1955  1.1573  0.4827
 9256SOL    HW239231   4.359   2.820   4.473  1.2140 -1.3899  1.0961
 9257SOL     OW39232   1.649   4.231   3.211 -0.1523  0.2136  0.3928
 9257SOL    HW139233   1.564   4.271   3.228  0.3108  1.3327  0.0771
 9257SOL    HW239234   1.629   4.140   3.193 -2.8503  0.8649  0.0666
 9258SOL     OW39235   0.511   3.541  13.680  0.1491  1.0260  0.7015
 9258SOL    HW139236   0.464   3.509  13.757  2.3388  1.5565  2.2549
 9258SOL    HW239237   0.468   3.626  13.665 -0.8759  0.2431 -0.8291
 9259SOL     OW39238   3.684   1.432   4.960 -0.0650  0.0022  0.0313
 9259SOL    HW139239   3.752   1.472   4.906 -0.7452 -0.0966 -0.9009
 9259SOL    HW239240   3.685   1.501   5.026  0.3523 -0.0246  0.0528
 9260SOL     OW39241   4.708   2.846   4.605  0.0949 -0.0562 -0.0361
 9260SOL    HW139242   4.644   2.785   4.642 -0.1261  0.4396  0.3928
 9260SOL    HW239243   4.682   2.934   4.630 -0.5401  0.2922 -1.9249
 9261SOL     OW39244   0.487   2.728   6.402  0.0128  0.6085 -0.0175
 9261SOL    HW139245   0.548   2.661   6.434  2.1122  2.4062 -0.2335
 9261SOL    HW239246   0.426   2.673   6.352 -0.4764  0.2892  0.9409
 9262SOL     OW39247   1.235   3.294  14.492  0.4859  0.3456 -0.2180
 9262SOL    HW139248   1.208   3.204  14.470 -0.7974  1.2962 -2.5427
 9262SOL    HW239249   1.167   3.328  14.550  0.7496 -1.0061  0.8874
 9263SOL     OW39250   3.190   1.753   1.547  0.2836  0.0533 -0.3136
 9263SOL    HW139251   3.198   1.688   1.477 -2.3279 -0.2364 -0.3434
 9263SOL    HW239252   3.213   1.702   1.624 -1.0779  0.9631  0.6971
 9264SOL     OW39253   2.586   1.337   6.990 -0.3799 -0.8201  0.2012
 9264SOL    HW139254   2.638   1.287   7.053 -1.3061 -0.4172  1.3054
 9264SOL    HW239255   2.616   1.298   6.908  0.8845  0.3029  0.1373
 9265SOL     OW39256   3.426   4.502  12.092 -0.3035  0.2811 -0.4880
 9265SOL    HW139257   3.493   4.533  12.031 -0.9702 -2.6850 -2.7201
 9265SOL    HW239258   3.480   4.451  12.152  0.2003  0.9992 -0.3256
 9266SOL     OW39259   1.155   3.742   4.133  0.4881 -0.2543  0.2741
 9266SOL    HW139260   1.166   3.684   4.057  1.0483 -0.8151  0.7845
 9266SOL    HW239261   1.232   3.715   4.184  0.1007  0.1176  1.0497
 9267SOL     OW39262   3.931   2.598   0.276 -0.2083  0.2899 -0.1038
 9267SOL    HW139263   3.900   2.686   0.253  2.6824  1.8960  2.0671
 9267SOL    HW239264   3.851   2.551   0.254 -0.2775 -0.5419  1.9749
 9268SOL     OW39265   3.843   2.681   7.399 -0.0959  0.3201 -0.1974
 9268SOL    HW139266   3.848   2.614   7.331 -0.3779 -0.4880  0.5764
 9268SOL    HW239267   3.888   2.750   7.351  0.6957 -0.4644 -0.5926
 9269SOL     OW39268   3.971   4.363  14.598  0.2653  0.1156  0.1720
 9269SOL    HW139269   3.915   4.335  14.526  0.7187  0.2749 -0.2364
 9269SOL    HW239270   3.918   4.443  14.602 -0.2951 -0.3190  1.7478
 9270SOL     OW39271   3.389   0.532  12.753  0.0219  0.4750 -0.1034
 9270SOL    HW139272   3.473   0.545  12.709  0.3391 -1.6538 -0.1466
 9270SOL    HW239273   3.415   0.506  12.842 -0.1208 -1.8525 -0.7406
 9271SOL     OW39274   2.108   1.106   4.963 -0.0099  0.3837 -0.1382
 9271SOL    HW139275   2.113   1.011   4.956  1.3254  0.5840 -1.8514
 9271SOL    HW239276   2.071   1.107   5.051 -0.6239 -0.6197 -0.3858
 9272SOL     OW39277   0.114   3.213   1.391 -0.7470  0.1836 -0.3771
 9272SOL    HW139278   0.058   3.270   1.339 -1.0070 -0.7277 -1.0887
 9272SOL    HW239279   0.102   3.124   1.361  1.0037 -0.3988  0.6167
 9273SOL     OW39280   1.789   2.727   6.484 -0.9826 -0.0902  0.0813
 9273SOL    HW139281   1.815   2.706   6.574 -0.7877 -0.3751 -0.0401
 9273SOL    HW239282   1.758   2.817   6.491  2.3990  1.1018  0.1089
 9274SOL     OW39283   1.864   0.708   6.004  0.1406 -0.3540  0.1372
 9274SOL    HW139284   1.918   0.690   5.927 -0.5631 -1.4235 -0.1002
 9274SOL    HW239285   1.924   0.686   6.075  2.3832 -0.1195 -1.6619
 9275SOL     OW39286   4.708   1.373   7.033 -0.1732 -1.1110 -0.5387
 9275SOL    HW139287   4.717   1.392   7.126 -0.6973 -0.3979 -0.6333
 9275SOL    HW239288   0.077   1.373   7.010 -0.1211 -0.9494 -0.3270
 9276SOL     OW39289   0.081   4.119   8.108 -0.2396 -0.0748  0.2011
 9276SOL    HW139290   0.053   4.181   8.041  1.6688 -0.0751 -0.5986
 9276SOL    HW239291   0.003   4.114   8.163 -2.2483 -0.5716 -2.7016
 9277SOL     OW39292   4.314   1.202  10.080  0.9473 -0.3283  0.5025
 9277SOL    HW139293   4.336   1.160  10.164 -0.0382 -1.6260  0.1160
 9277SOL    HW239294   4.362   1.134  10.032  0.4709 -0.2483 -0.0889
 9278SOL     OW39295   2.557   3.701  13.826 -0.2591 -0.1578 -0.6063
 9278SOL    HW139296   2.594   3.614  13.814  0.3181  0.0943 -0.6557
 9278SOL    HW239297   2.585   3.709  13.917 -0.6429  0.6734 -0.5552
 9279SOL     OW39298   3.921   1.689   1.871  0.4671 -0.4223  0.1343
 9279SOL    HW139299   3.846   1.643   1.833  0.0546  1.9008 -1.8549
 9279SOL    HW239300   3.900   1.667   1.961  1.7853 -1.7744  0.1224
 9280SOL     OW39301   1.978   2.829   0.078  0.2573  0.2185  0.6452
 9280SOL    HW139302   1.895   2.875   0.081 -0.1990 -0.5043 -0.8226
 9280SOL    HW239303   1.987   2.796  17.687  1.8563 -1.4628  1.4186
 9281SOL     OW39304   1.308   1.326   7.527  0.6594  0.4547 -0.2575
 9281SOL    HW139305   1.273   1.299   7.612 -0.4866  2.8614  0.0477
 9281SOL    HW239306   1.397   1.292   7.528  0.2232 -0.7013 -1.2056
 9282SOL     OW39307   3.448   0.801  14.995  0.1546  0.7487  0.1212
 9282SOL    HW139308   3.465   0.747  15.072  2.1511  0.3271 -0.6130
 9282SOL    HW239309   3.491   0.752  14.925 -1.8930 -1.9603  0.7565
 9283SOL     OW39310   1.457   1.327  11.351 -0.8387  0.1495  0.2248
 9283SOL    HW139311   1.459   1.416  11.314  0.0603 -0.0276 -0.1566
 9283SOL    HW239312   1.466   1.343  11.445 -1.9816  1.9722  0.0360
 9284SOL     OW39313   0.897   3.170   8.977  0.1983 -0.4759  0.5130
 9284SOL    HW139314   0.958   3.219   8.922 -0.7740 -0.7083 -0.7862
 9284SOL    HW239315   0.869   3.236   9.040 -1.0630 -0.5788  0.0601
 9285SOL     OW39316   0.009   1.378   5.540 -0.4062  0.3080 -0.3813
 9285SOL    HW139317   4.649   1.333   5.550 -0.1055 -0.2856 -0.4922
 9285SOL    HW239318   0.049   1.362   5.455  0.5897 -1.3484  0.3999
 9286SOL     OW39319   3.780   4.186   6.911 -0.2283  0.0603 -0.0860
 9286SOL    HW139320   3.864   4.152   6.878 -1.4132  0.6536 -3.6648
 9286SOL    HW239321   3.750   4.121   6.974 -2.0873  2.1879  1.2225
 9287SOL     OW39322   0.608   4.466   3.100  0.2302  0.3825  0.2131
 9287SOL    HW139323   0.586   4.549   3.058 -0.5801  0.1990  0.2789
 9287SOL    HW239324   0.634   4.412   3.026  1.2019  0.0764  0.7760
 9288SOL     OW39325   3.777   2.959   8.505 -0.2457  0.3640  0.0547
 9288SOL    HW139326   3.753   3.013   8.580 -0.8465  1.8183 -1.1751
 9288SOL    HW239327   3.871   2.970   8.514 -0.0979  0.1685 -1.2051
 9289SOL     OW39328   2.263   4.256   6.726  0.1612  0.5117  0.1684
 9289SOL    HW139329   2.287   4.348   6.733  1.1393  0.2428  0.3399
 9289SOL    HW239330   2.277   4.242   6.632  2.0086  0.5363  0.4278
 9290SOL     OW39331   1.808   0.374   3.430  0.1249  0.3389  0.0054
 9290SOL    HW139332   1.810   0.412   3.342 -0.4251 -1.2038 -0.6897
 9290SOL    HW239333   1.766   0.296   3.393  1.1790 -0.8158  1.2602
 9291SOL     OW39334   4.654   0.696   6.656 -0.2225 -0.3755  0.2440
 9291SOL    HW139335   4.699   0.663   6.579  0.1114 -1.1942  0.8029
 9291SOL    HW239336   4.724   0.684   6.719  0.3612 -1.0358 -0.5296
 9292SOL     OW39337   1.452   0.986  14.651 -0.3887 -0.6258  0.5597
 9292SOL    HW139338   1.495   1.044  14.714 -0.5993 -1.4559  1.4622
 9292SOL    HW239339   1.526   0.948  14.604  0.8599  0.5167  1.5949
 9293SOL     OW39340   2.224   0.094  12.559 -0.5932  0.1541 -0.2956
 9293SOL    HW139341   2.214   0.018  12.617  0.4779 -1.0360 -1.6523
 9293SOL    HW239342   2.235   0.150  12.635 -2.9334  1.8567 -1.2156
 9294SOL     OW39343   0.211   3.148   5.569  0.2046  0.3328  0.4708
 9294SOL    HW139344   0.248   3.091   5.636  1.3100 -1.6490 -1.8490
 9294SOL    HW239345   0.210   3.087   5.496  0.6507  0.9997 -0.0883
 9295SOL     OW39346   2.899   0.101   9.195 -0.0312  0.1972 -0.3805
 9295SOL    HW139347   2.821   0.082   9.142  0.4336 -0.8214 -0.6964
 9295SOL    HW239348   2.875   0.033   9.258  1.1901  1.2455  1.2027
 9296SOL     OW39349   4.370   0.070   4.844 -0.3601 -0.3884  0.5082
 9296SOL    HW139350   4.434   0.061   4.915  1.2768  1.0892 -0.7974
 9296SOL    HW239351   4.394   4.717   4.793 -2.1924 -1.2015  0.8634
 9297SOL     OW39352   1.757   3.006   7.080  0.2738  0.3408 -0.4717
 9297SOL    HW139353   1.839   3.013   7.128 -0.0682  0.5696  0.0757
 9297SOL    HW239354   1.708   2.956   7.144  0.8894  1.3090  0.7631
 9298SOL     OW39355   0.371   2.196   5.508  0.3758 -0.0557  0.4748
 9298SOL    HW139356   0.441   2.195   5.442  0.9121 -2.0463  1.0646
 9298SOL    HW239357   0.331   2.280   5.485 -0.8234 -0.7318  0.0516
 9299SOL     OW39358   2.404   4.366  15.714 -0.9712 -0.1264  0.4285
 9299SOL    HW139359   2.413   4.310  15.637  0.7198  1.1942 -0.3588
 9299SOL    HW239360   2.498   4.377  15.733 -1.2736  2.2925  0.5911
 9300SOL     OW39361   3.341   1.955   1.403 -0.0312 -0.5943  0.6003
 9300SOL    HW139362   3.414   1.946   1.464 -0.3458  0.5747  1.1447
 9300SOL    HW239363   3.270   1.909   1.448 -0.3622 -2.0247 -1.3898
 9301SOL     OW39364   1.238   2.463   7.611 -0.3288  0.3685 -0.1912
 9301SOL    HW139365   1.327   2.488   7.585 -0.1741  1.6102  1.5501
 9301SOL    HW239366   1.234   2.510   7.694  1.1343  1.5354 -0.7873
 9302SOL     OW39367   3.561   4.131   4.903  0.3257 -0.1431 -0.9356
 9302SOL    HW139368   3.654   4.151   4.915 -0.3402  3.4035 -1.5265
 9302SOL    HW239369   3.550   4.065   4.971  0.6412  0.0437 -0.7000
 9303SOL     OW39370   0.515   1.308   6.973 -0.1773  0.3818 -0.2049
 9303SOL    HW139371   0.432   1.338   6.935  0.0155  1.5466  0.2791
 9303SOL    HW239372   0.532   1.378   7.037  1.4698 -0.2424  0.0239
 9304SOL     OW39373   2.918   3.363   5.244 -0.2633  0.3253 -0.6944
 9304SOL    HW139374   2.937   3.408   5.327 -2.2769 -2.2960  1.1881
 9304SOL    HW239375   2.925   3.274   5.280 -0.0195  0.3236 -0.7437
 9305SOL     OW39376   1.069   4.465   9.453 -0.0320 -0.7371 -0.4193
 9305SOL    HW139377   1.104   4.382   9.485  0.1391 -0.9414 -1.1472
 9305SOL    HW239378   1.113   4.478   9.369 -0.8654  0.8837 -0.6115
 9306SOL     OW39379   0.424   1.120  16.667  0.4408 -0.5817 -0.3510
 9306SOL    HW139380   0.342   1.150  16.707  0.3278 -1.3454 -0.0035
 9306SOL    HW239381   0.394   1.139  16.578  0.7711  0.7713 -0.1656
 9307SOL     OW39382   4.536   0.021   6.907  0.6035  0.5601 -0.7765
 9307SOL    HW139383   4.599   4.711   6.970  1.8395  2.6780 -0.8631
 9307SOL    HW239384   4.568   4.700   6.829  2.7905 -0.6288  0.8005
 9308SOL     OW39385   0.598   2.743  10.883  0.6894  0.3979 -0.0963
 9308SOL    HW139386   0.682   2.785  10.901  0.1510  0.4994  2.2148
 9308SOL    HW239387   0.548   2.778  10.957  2.2873  1.0436  0.6605
 9309SOL     OW39388   3.260   3.955   7.031  0.2889  0.4136  0.3607
 9309SOL    HW139389   3.329   4.007   7.073 -1.1081  3.5302 -1.1718
 9309SOL    HW239390   3.176   3.994   7.056  0.9880  1.2057  1.4907
 9310SOL     OW39391   2.811   0.170   3.890 -0.5108  0.0199 -0.1803
 9310SOL    HW139392   2.813   0.208   3.802 -1.4226  1.7449  0.5267
 9310SOL    HW239393   2.848   0.084   3.873  1.1224  0.8582 -0.8302
 9311SOL     OW39394   3.680   1.765   7.000  0.1057 -0.2172 -0.2668
 9311SOL    HW139395   3.678   1.697   7.067  0.7746 -1.0218 -1.0699
 9311SOL    HW239396   3.752   1.822   7.027  1.2984 -1.0836 -1.6454
 9312SOL     OW39397   0.985   3.610   1.920  0.6587  0.2672 -0.1481
 9312SOL    HW139398   0.946   3.648   1.842 -0.9627  1.9751  1.5281
 9312SOL    HW239399   1.006   3.518   1.900 -1.2776  0.1509 -1.5548
 9313SOL     OW39400   3.646   2.527   2.604 -0.1536 -0.0460 -0.2515
 9313SOL    HW139401   3.599   2.489   2.679 -0.0083  0.0705 -0.1026
 9313SOL    HW239402   3.722   2.569   2.645  1.0909 -0.8678 -1.7311
 9314SOL     OW39403   1.181   3.954   9.343  0.6415 -0.3173  0.4597
 9314SOL    HW139404   1.124   3.943   9.420  1.0879 -0.2842  0.7992
 9314SOL    HW239405   1.250   3.890   9.361  1.8865  1.5228  2.2675
 9315SOL     OW39406   0.734   1.693   3.190 -0.1055 -0.5457  0.4627
 9315SOL    HW139407   0.801   1.644   3.142  0.4363  0.2409  0.4073
 9315SOL    HW239408   0.783   1.752   3.248 -0.7750 -1.5519  2.0441
 9316SOL     OW39409   4.530   0.537   8.276 -0.1466 -0.2521 -0.7689
 9316SOL    HW139410   4.504   0.450   8.245 -0.7475  0.0797 -1.1878
 9316SOL    HW239411   4.625   0.545   8.265  0.1036  1.3133  2.5336
 9317SOL     OW39412   3.440   1.397   2.140  0.1125  0.6420  0.6820
 9317SOL    HW139413   3.353   1.365   2.115  0.4351  0.0143  0.3382
 9317SOL    HW239414   3.496   1.354   2.075 -0.3303  0.9587  0.0948
 9318SOL     OW39415   4.424   1.657   1.321 -0.0814  0.2557 -0.2494
 9318SOL    HW139416   4.495   1.693   1.375  0.4745 -1.2231  0.0054
 9318SOL    HW239417   4.418   1.568   1.356 -0.5571 -0.0911 -1.2151
 9319SOL     OW39418   3.408   2.924   7.425  0.4784  0.5988  0.3277
 9319SOL    HW139419   3.383   2.902   7.335  0.6957 -2.8766  1.1043
 9319SOL    HW239420   3.503   2.912   7.426  0.2822 -1.0795 -1.1378
 9320SOL     OW39421   2.738   0.915   8.504  0.0556 -0.2474  0.0620
 9320SOL    HW139422   2.688   0.917   8.422 -0.1751  1.1798  0.2560
 9320SOL    HW239423   2.694   0.977   8.561 -0.8830 -1.2216  0.3963
 9321SOL     OW39424   3.297   1.667  13.686  0.0642  0.2380  0.3149
 9321SOL    HW139425   3.308   1.718  13.767  0.1209  0.0930  0.3986
 9321SOL    HW239426   3.385   1.637  13.662  0.2875  0.9153  0.2973
 9322SOL     OW39427   3.329   2.769   3.658  0.0119 -0.2494  0.0372
 9322SOL    HW139428   3.341   2.856   3.621 -1.1102 -0.8484 -1.7251
 9322SOL    HW239429   3.372   2.723   3.587  0.5025 -1.8615  1.3695
 9323SOL     OW39430   3.912   4.173   3.826 -0.1364 -0.0558  0.0300
 9323SOL    HW139431   3.862   4.122   3.889 -0.8944  2.1422  1.1868
 9323SOL    HW239432   3.987   4.113   3.815 -0.4745 -0.5541  0.4422
 9324SOL     OW39433   2.922   0.263  10.663  0.1156  0.6349 -0.2051
 9324SOL    HW139434   2.929   0.303  10.576  0.3956  0.1112 -0.4231
 9324SOL    HW239435   2.896   0.173  10.642  1.4471  0.8903 -2.9266
 9325SOL     OW39436   0.011   0.316   9.149  0.5973 -0.2475 -0.2392
 9325SOL    HW139437   0.015   0.294   9.056 -0.5775  3.8734 -1.2702
 9325SOL    HW239438   0.100   0.348   9.167  1.2096 -2.0454 -0.0413
 9326SOL     OW39439   2.871   4.041   6.499 -0.1542 -0.3106  0.0031
 9326SOL    HW139440   2.921   4.096   6.559 -2.5907 -0.1436  1.9069
 9326SOL    HW239441   2.930   4.020   6.426 -0.6329  1.2352 -0.8201
 9327SOL     OW39442   1.600   1.292  14.511  0.0315 -0.2403  0.1757
 9327SOL    HW139443   1.536   1.362  14.496 -1.3431 -2.1503 -2.8933
 9327SOL    HW239444   1.655   1.301  14.433  0.5039 -0.2111  0.5141
 9328SOL     OW39445   2.420   3.194   5.574 -0.1887 -0.1579  0.5589
 9328SOL    HW139446   2.473   3.124   5.536 -1.3407 -0.9259  0.3755
 9328SOL    HW239447   2.345   3.150   5.614 -0.8810 -0.2439 -0.8454
 9329SOL     OW39448   1.997   3.569  10.972 -0.1329  0.2451  0.4185
 9329SOL    HW139449   2.048   3.510  10.916 -3.4643  0.2383 -2.5995
 9329SOL    HW239450   2.048   3.651  10.975  1.0588 -0.4504 -0.6828
 9330SOL     OW39451   2.103   0.888  14.965 -0.3748 -0.8935  0.6769
 9330SOL    HW139452   2.008   0.897  14.951 -0.7108 -1.9384  2.1832
 9330SOL    HW239453   2.101   0.811  15.022  1.3549  0.0223  1.9582
 9331SOL     OW39454   3.333   3.310   8.107  0.8018 -0.4513 -0.0820
 9331SOL    HW139455   3.388   3.388   8.118 -0.0920  0.4279 -1.7251
 9331SOL    HW239456   3.248   3.355   8.105 -0.0809 -2.1656 -0.6460
 9332SOL     OW39457   1.941   4.099   6.272 -0.0161 -0.5058 -0.5722
 9332SOL    HW139458   1.905   4.032   6.215  0.4906 -1.3989  0.1527
 9332SOL    HW239459   1.979   4.157   6.206  0.2034 -0.8189 -0.7200
 9333SOL     OW39460   1.130   3.721   4.516  0.0480 -0.2824 -0.1380
 9333SOL    HW139461   1.153   3.657   4.448  0.3195  0.8241 -1.0874
 9333SOL    HW239462   1.037   3.707   4.532  0.6608 -0.6312  3.0254
 9334SOL     OW39463   4.089   0.734   2.976  0.6769 -0.1755  0.8006
 9334SOL    HW139464   4.161   0.791   3.002  1.3331 -0.4463 -0.4130
 9334SOL    HW239465   4.087   0.676   3.052 -1.3405 -1.1567  0.0129
 9335SOL     OW39466   0.209   3.395   2.545 -0.2689  0.1127 -0.2661
 9335SOL    HW139467   0.153   3.372   2.471 -0.5086 -1.6555  0.4689
 9335SOL    HW239468   0.139   3.396   2.611 -0.5618  1.2414 -0.5962
 9336SOL     OW39469   0.358   2.771   4.242  0.2154  0.0414  0.3469
 9336SOL    HW139470   0.387   2.737   4.326 -1.7276 -3.4710 -0.3759
 9336SOL    HW239471   0.266   2.789   4.264 -0.0563 -2.2992  1.1504
 9337SOL     OW39472   4.033   1.395   6.893 -0.0761  0.4000  0.3272
 9337SOL    HW139473   4.031   1.314   6.945 -1.5141 -0.9248 -1.7583
 9337SOL    HW239474   3.943   1.425   6.908 -0.1174  0.2933  0.2968
 9338SOL     OW39475   2.018   2.235   3.379 -0.0094 -0.3301  0.1122
 9338SOL    HW139476   1.941   2.288   3.400  1.8364  1.5587  2.0509
 9338SOL    HW239477   2.050   2.226   3.469  0.9513 -0.2436 -0.2277
 9339SOL     OW39478   1.845   0.130   8.556 -0.0477 -0.3519  0.1168
 9339SOL    HW139479   1.845   0.093   8.644 -3.4220 -0.3273  0.1461
 9339SOL    HW239480   1.919   0.189   8.568 -0.8783  0.6306  0.4036
 9340SOL     OW39481   3.132   0.850  17.439  0.3848  0.1719 -0.0407
 9340SOL    HW139482   3.150   0.908  17.365  2.1674 -0.2844  0.0379
 9340SOL    HW239483   3.173   0.892  17.515  0.3096  0.5490 -0.2074
 9341SOL     OW39484   2.524   0.594   2.709  0.8573  0.0893  0.0135
 9341SOL    HW139485   2.461   0.659   2.741 -0.4378 -1.2736  0.2089
 9341SOL    HW239486   2.457   0.531   2.684 -0.6596  1.6841  0.0653
 9342SOL     OW39487   0.273   1.628   4.546 -0.1825  0.2052  0.1430
 9342SOL    HW139488   0.338   1.587   4.603 -0.7708 -0.9451 -0.0316
 9342SOL    HW239489   0.279   1.721   4.568 -1.4176 -0.0298  1.4515
 9343SOL     OW39490   1.839   1.548   6.860  0.6862 -0.1842  0.6567
 9343SOL    HW139491   1.889   1.620   6.822  0.7725 -0.5274  0.1151
 9343SOL    HW239492   1.863   1.484   6.793 -1.8850  1.4000 -1.7253
 9344SOL     OW39493   3.056   3.923   1.191 -0.4993  0.4654 -0.3201
 9344SOL    HW139494   2.968   3.932   1.229  0.0594  1.9978  0.5781
 9344SOL    HW239495   3.053   3.970   1.107 -0.0633 -2.3255 -1.9023
 9345SOL     OW39496   2.373   0.423   0.506 -0.2465  0.1293  0.2486
 9345SOL    HW139497   2.288   0.459   0.532 -0.5788 -1.2349  1.0381
 9345SOL    HW239498   2.346   0.417   0.415  0.7371  0.9118 -0.0915
 9346SOL     OW39499   3.560   4.472   9.311  0.0712 -0.3765 -0.4025
 9346SOL    HW139500   3.512   4.546   9.275  1.7554  0.2663 -1.2989
 9346SOL    HW239501   3.499   4.453   9.383  0.1062 -1.1495 -0.5718
 9347SOL     OW39502   1.414   4.066   6.367  0.7041  0.5991 -0.7631
 9347SOL    HW139503   1.398   4.150   6.323 -1.4778  0.9609  0.7165
 9347SOL    HW239504   1.412   4.088   6.460  0.7633  0.9559 -0.8486
 9348SOL     OW39505   4.415   3.724  10.374 -0.1304  0.2338 -0.0008
 9348SOL    HW139506   4.397   3.724  10.280 -0.9894  2.9398  0.1873
 9348SOL    HW239507   4.346   3.660  10.393  1.5684 -1.2454  1.2016
 9349SOL     OW39508   4.343   4.321  16.126 -0.1486  0.1673  0.0263
 9349SOL    HW139509   4.308   4.245  16.078 -1.6022  0.5377  0.4893
 9349SOL    HW239510   4.437   4.309  16.120 -0.1492  0.1759  0.0011
 9350SOL     OW39511   2.637   2.037  14.678  0.0062  0.2310  0.4054
 9350SOL    HW139512   2.616   1.947  14.705  1.4427 -1.0052 -2.5371
 9350SOL    HW239513   2.725   2.045  14.714 -0.0920 -2.2504  1.2028
 9351SOL     OW39514   0.342   3.925   3.101 -0.1768  0.3794  0.1049
 9351SOL    HW139515   0.318   4.011   3.136  0.4314  0.5847  0.0108
 9351SOL    HW239516   0.297   3.877   3.170 -0.9800 -0.9522 -1.3292
 9352SOL     OW39517   0.497   3.159   9.237  0.6391 -0.1588  0.0914
 9352SOL    HW139518   0.537   3.174   9.152 -0.1354 -0.8660 -0.3975
 9352SOL    HW239519   0.542   3.077   9.257 -0.3867 -0.4431  1.2687
 9353SOL     OW39520   4.126   1.571  13.214  0.0628  0.2572  0.1946
 9353SOL    HW139521   4.031   1.557  13.216 -0.0405  0.8175 -0.6857
 9353SOL    HW239522   4.133   1.568  13.118 -1.0120  0.4282  0.1163
 9354SOL     OW39523   1.704   1.173   2.810  0.1654 -0.1395 -0.6133
 9354SOL    HW139524   1.777   1.234   2.820  1.6853 -2.2119  1.0576
 9354SOL    HW239525   1.673   1.179   2.900  0.1091  0.0255 -0.6436
 9355SOL     OW39526   2.248   0.078  11.839 -0.1067  0.2242 -0.1574
 9355SOL    HW139527   2.264   0.106  11.749 -1.8467  0.4728 -0.3861
 9355SOL    HW239528   2.268   0.158  11.886  2.4449 -1.8605  2.3313
 9356SOL     OW39529   4.578   0.135  13.274 -0.4853  0.3436 -0.3945
 9356SOL    HW139530   4.569   0.229  13.284 -1.8398  0.0528  1.1646
 9356SOL    HW239531   4.572   0.095  13.361  1.6171  0.0153 -0.3849
 9357SOL     OW39532   0.943   4.286  12.735 -0.5648 -0.3977  0.1585
 9357SOL    HW139533   0.979   4.200  12.754  2.6599  0.9636  0.2781
 9357SOL    HW239534   1.021   4.337  12.711  0.5204 -2.3022 -0.3414
 9358SOL     OW39535   1.641   3.716  13.279 -0.3586 -0.0254  0.1011
 9358SOL    HW139536   1.595   3.712  13.362 -0.1875  0.0464  0.1994
 9358SOL    HW239537   1.674   3.806  13.280  3.7415 -1.5451  1.3950
 9359SOL     OW39538   0.787   1.637   0.429  0.9905 -0.3652 -0.0561
 9359SOL    HW139539   0.776   1.716   0.482 -0.0862 -0.3367 -0.3367
 9359SOL    HW239540   0.696   1.611   0.413  0.8175  2.5041 -3.7178
 9360SOL     OW39541   1.900   0.256  12.762 -0.2633 -0.2623  0.1972
 9360SOL    HW139542   1.835   0.195  12.726  0.7141 -1.8702  1.1230
 9360SOL    HW239543   1.853   0.337  12.743 -1.0328 -0.6996  0.2353
 9361SOL     OW39544   1.904   3.634   8.887  0.0126 -0.2014 -0.2274
 9361SOL    HW139545   1.858   3.653   8.805 -0.1060 -0.3156 -0.1863
 9361SOL    HW239546   1.860   3.553   8.913 -1.1745  0.5789  0.2099
 9362SOL     OW39547   2.496   3.873   9.006 -0.1108 -0.3859  0.4474
 9362SOL    HW139548   2.450   3.803   8.959 -1.7139  2.4649 -2.1904
 9362SOL    HW239549   2.421   3.932   9.011  1.5111  1.8200 -1.3541
 9363SOL     OW39550   0.615   0.868   0.966  0.4009 -0.1150  0.1772
 9363SOL    HW139551   0.683   0.831   0.909  0.3427 -1.4385  0.9649
 9363SOL    HW239552   0.534   0.825   0.939  0.1437 -0.6905  1.8432
 9364SOL     OW39553   0.406   2.596   1.653 -0.3673  0.4755  0.1926
 9364SOL    HW139554   0.486   2.604   1.602 -0.6062 -1.1998 -0.4578
 9364SOL    HW239555   0.386   2.506   1.627  1.2404 -0.2731  1.5351
 9365SOL     OW39556   0.885   2.523   6.044 -0.3345 -0.1096  0.8217
 9365SOL    HW139557   0.920   2.435   6.057  1.7533  0.5045 -0.6633
 9365SOL    HW239558   0.956   2.576   6.080 -0.4112  0.2100  0.5058
 9366SOL     OW39559   1.390   1.131  10.171  0.1538 -0.1345  0.2059
 9366SOL    HW139560   1.480   1.146  10.201 -0.2442  0.2913  1.1854
 9366SOL    HW239561   1.364   1.211  10.126  0.5417  0.5454  1.1757
 9367SOL     OW39562   0.385   3.290   9.627 -0.0120  0.0631 -0.1901
 9367SOL    HW139563   0.319   3.252   9.684 -0.1430 -0.0387 -0.4113
 9367SOL    HW239564   0.453   3.318   9.688 -0.6114 -0.4971  0.7255
 9368SOL     OW39565   0.406   1.145  15.348 -0.6085  0.1544 -0.5670
 9368SOL    HW139566   0.368   1.104  15.425  0.2691  2.5962  1.1855
 9368SOL    HW239567   0.474   1.194  15.395 -1.1456  0.3317  0.0319
 9369SOL     OW39568   3.331   1.931   5.351 -0.1985 -0.0868 -1.2990
 9369SOL    HW139569   3.417   1.959   5.318  1.4694 -1.0478  2.2836
 9369SOL    HW239570   3.350   1.838   5.363  1.1903  0.5046  0.9290
 9370SOL     OW39571   2.778   0.166   8.718  0.3076 -0.5452  0.5533
 9370SOL    HW139572   2.859   0.144   8.765  0.1833 -1.2488  0.4365
 9370SOL    HW239573   2.753   0.240   8.772  1.1335 -0.4668  0.8363
 9371SOL     OW39574   3.952   3.565   3.409 -0.3790 -0.1523 -0.0918
 9371SOL    HW139575   3.979   3.474   3.422  0.5740  0.2640  0.8878
 9371SOL    HW239576   3.883   3.564   3.343  0.2088 -1.6190 -0.6701
 9372SOL     OW39577   2.140   0.974  15.930 -0.3684  0.2144  0.1099
 9372SOL    HW139578   2.215   1.019  15.892 -1.1096  1.6059  0.3209
 9372SOL    HW239579   2.080   0.980  15.855  0.6350 -1.1031 -0.8020
 9373SOL     OW39580   1.553   3.996   3.126 -0.2694  0.2300  0.0102
 9373SOL    HW139581   1.625   3.935   3.143  0.1643  0.1308 -2.1537
 9373SOL    HW239582   1.484   3.966   3.185 -0.4952  2.0601  0.6628
 9374SOL     OW39583   3.592   2.076   9.182 -0.5562  0.5583  0.4456
 9374SOL    HW139584   3.585   2.102   9.090  1.3836  0.0943  0.1777
 9374SOL    HW239585   3.663   2.131   9.213 -0.7751  1.9447 -1.5249
 9375SOL     OW39586   4.678   1.253   2.814  0.0120 -0.0922 -0.2461
 9375SOL    HW139587   0.028   1.275   2.871 -0.5631  1.2786 -0.0398
 9375SOL    HW239588   4.607   1.282   2.871  0.8313 -1.2140  1.3278
 9376SOL     OW39589   1.209   0.947  14.409 -0.0301  0.4042 -0.1170
 9376SOL    HW139590   1.159   0.889  14.351 -0.8826 -1.1358  2.1798
 9376SOL    HW239591   1.223   0.897  14.489  1.8927 -4.3856 -3.4815
 9377SOL     OW39592   2.863   4.185  12.226 -0.2195  0.1894 -0.4511
 9377SOL    HW139593   2.958   4.186  12.220 -0.3209  0.3038 -2.1779
 9377SOL    HW239594   2.829   4.246  12.160  0.1366  0.3904 -0.4492
 9378SOL     OW39595   0.952   2.712   6.636 -0.6210  0.3568  0.1131
 9378SOL    HW139596   0.887   2.738   6.701 -0.6796  0.1885  0.1238
 9378SOL    HW239597   1.017   2.662   6.685 -0.4536  2.5032  2.0700
 9379SOL     OW39598   3.717   2.669  14.875  0.7189  0.3832 -0.1802
 9379SOL    HW139599   3.780   2.597  14.876 -0.6498 -0.7984  0.7234
 9379SOL    HW239600   3.676   2.665  14.789 -1.7162  3.3509  0.8403
 9380SOL     OW39601   0.826   2.211  10.427 -0.5767  0.2024  0.0361
 9380SOL    HW139602   0.889   2.217  10.499 -0.5871  1.3760 -0.0373
 9380SOL    HW239603   0.776   2.289  10.453 -0.0351  1.1161 -1.6908
 9381SOL     OW39604   2.883   1.203   3.880 -0.0293 -0.5915  0.2144
 9381SOL    HW139605   2.971   1.179   3.853  0.7516  1.0990  1.2544
 9381SOL    HW239606   2.857   1.122   3.924  0.8967 -1.0128 -0.0237
 9382SOL     OW39607   0.348   0.626  11.529  0.0290  0.0834  0.1143
 9382SOL    HW139608   0.309   0.563  11.589 -0.5268  0.6266  0.3263
 9382SOL    HW239609   0.331   0.581  11.446  0.4341 -0.3396  0.2639
 9383SOL     OW39610   1.932   0.945   1.269  0.0807  0.5863  0.2483
 9383SOL    HW139611   2.001   0.923   1.206 -0.0696  1.3732 -0.1926
 9383SOL    HW239612   1.960   0.897   1.347 -0.4333  1.6180  1.0571
 9384SOL     OW39613   3.353   1.315  12.594 -0.3121 -1.0531  0.0371
 9384SOL    HW139614   3.283   1.298  12.531 -1.0218 -0.7366  0.7445
 9384SOL    HW239615   3.317   1.312  12.682 -0.9040 -2.8192 -0.2585
 9385SOL     OW39616   0.687   2.751  13.425  0.4324  0.1229 -0.2627
 9385SOL    HW139617   0.771   2.777  13.462  0.5789 -0.5687 -0.1064
 9385SOL    HW239618   0.625   2.761  13.497  1.8356 -0.8707  1.0846
 9386SOL     OW39619   4.305   2.317   8.258 -0.1400  0.3268 -0.4200
 9386SOL    HW139620   4.250   2.371   8.314  0.7883  0.7744  0.0711
 9386SOL    HW239621   4.243   2.252   8.225  0.9960 -1.4588  0.9926
 9387SOL     OW39622   3.202   3.663   7.211 -0.4482  0.1070 -0.7436
 9387SOL    HW139623   3.212   3.634   7.302 -1.8519  0.1803 -0.5613
 9387SOL    HW239624   3.287   3.705   7.197 -0.0040 -0.5053  0.0811
 9388SOL     OW39625   4.248   2.010   7.582 -0.3753  0.0500  0.5022
 9388SOL    HW139626   4.169   1.959   7.569 -1.2468  1.6228 -0.3361
 9388SOL    HW239627   4.309   1.972   7.519  0.3951  2.2808 -0.1069
 9389SOL     OW39628   0.540   4.575   2.227 -0.6523 -0.2116 -0.1323
 9389SOL    HW139629   0.635   4.581   2.221 -0.5907  0.7217  1.7306
 9389SOL    HW239630   0.508   4.660   2.258  1.3828  0.3205  0.5078
 9390SOL     OW39631   2.558   2.575   7.929  0.1282 -0.4818 -0.8409
 9390SOL    HW139632   2.612   2.527   7.992 -1.1796 -2.8294 -1.4920
 9390SOL    HW239633   2.550   2.512   7.858 -0.7930 -0.9852 -0.2883
 9391SOL     OW39634   3.233   0.577   9.693  0.1910 -0.2677 -0.4116
 9391SOL    HW139635   3.188   0.624   9.623 -0.5906 -1.3917 -0.6703
 9391SOL    HW239636   3.171   0.610   9.758 -2.6595 -1.4707 -2.5364
 9392SOL     OW39637   0.217   1.908  15.666  0.5177  0.1087 -0.5083
 9392SOL    HW139638   0.279   1.843  15.634  0.4914 -0.1800  0.0237
 9392SOL    HW239639   0.173   1.934  15.585 -2.3285 -0.1238  0.9823
 9393SOL     OW39640   1.766   3.328  10.695 -0.3074 -0.6026 -0.9761
 9393SOL    HW139641   1.740   3.264  10.629  1.3084 -0.2417 -1.9665
 9393SOL    HW239642   1.787   3.406  10.643  1.5302  0.0324  0.7204
 9394SOL     OW39643   4.246   0.213   7.669  0.0085 -0.3277  0.2048
 9394SOL    HW139644   4.304   0.287   7.652 -1.4270  0.1009 -2.6973
 9394SOL    HW239645   4.169   0.240   7.619 -0.0133 -0.4986  0.1459
 9395SOL     OW39646   3.123   2.702  10.270 -0.2654 -0.4290  0.4924
 9395SOL    HW139647   3.113   2.658  10.186  3.4824  3.2327 -1.8287
 9395SOL    HW239648   3.039   2.748  10.279  0.5670  1.4696 -1.7853
 9396SOL     OW39649   4.263   1.113   9.722 -0.0401 -0.2373  0.0209
 9396SOL    HW139650   4.241   1.023   9.699 -0.6088 -0.0217 -0.2734
 9396SOL    HW239651   4.267   1.107   9.817  0.2314 -1.7845 -0.0836
 9397SOL     OW39652   0.972   2.127  10.208  0.0277 -0.9161  0.1153
 9397SOL    HW139653   0.934   2.165  10.287 -2.4682  1.6894 -2.3087
 9397SOL    HW239654   1.037   2.068  10.246  1.3084 -1.0420 -2.2462
 9398SOL     OW39655   3.757   4.025   2.231  0.5035  0.0988 -0.6404
 9398SOL    HW139656   3.843   4.055   2.261  0.0955  0.3999  0.2001
 9398SOL    HW239657   3.789   3.963   2.164 -1.1634  1.0267 -2.2945
 9399SOL     OW39658   1.279   4.481   8.886 -0.0861  0.3035 -0.3577
 9399SOL    HW139659   1.351   4.418   8.891  0.2895  0.7532 -0.1345
 9399SOL    HW239660   1.286   4.515   8.797 -0.6213  1.0946 -0.0954
 9400SOL     OW39661   4.597   2.705  14.101  0.7289 -0.1972 -0.0111
 9400SOL    HW139662   4.646   2.682  14.023  0.5880 -2.9810  0.7450
 9400SOL    HW239663   4.525   2.742  14.050  0.0433 -1.9545 -0.2818
 9401SOL     OW39664   3.950   2.212   7.804  0.4286 -0.1350 -0.6126
 9401SOL    HW139665   3.919   2.289   7.757  0.4962 -0.6880 -1.5590
 9401SOL    HW239666   3.930   2.253   7.888  0.2097  1.1919 -1.3172
 9402SOL     OW39667   1.807   4.255   8.127 -0.2514 -0.0914 -0.1062
 9402SOL    HW139668   1.901   4.268   8.125  0.0507 -2.2041  0.0859
 9402SOL    HW239669   1.780   4.346   8.122  0.2232  0.1173  1.1791
 9403SOL     OW39670   0.837   2.198   6.137  0.1080  0.0763  0.0893
 9403SOL    HW139671   0.773   2.127   6.147 -1.3817  1.6732  1.9489
 9403SOL    HW239672   0.803   2.252   6.209 -0.2950 -1.0024  0.6980
 9404SOL     OW39673   0.934   0.205  10.271 -0.5206 -0.6925 -0.5514
 9404SOL    HW139674   0.967   0.215  10.182  0.1394 -0.7674 -0.3205
 9404SOL    HW239675   1.006   0.236  10.326 -1.8933 -0.6206  1.2019
 9405SOL     OW39676   4.254   3.762   6.724 -0.1401  0.2174  0.3175
 9405SOL    HW139677   4.255   3.857   6.731  0.4287  0.1024  2.0194
 9405SOL    HW239678   4.303   3.731   6.801  1.3692  2.6340  0.3172
 9406SOL     OW39679   1.972   3.020   0.534 -0.4593 -0.0311  0.7267
 9406SOL    HW139680   1.967   2.926   0.513  0.9868 -0.1380  0.8369
 9406SOL    HW239681   1.924   3.015   0.616 -1.3700 -1.0385  0.1455
 9407SOL     OW39682   3.518   4.400   8.629 -0.5225  0.4386 -0.1039
 9407SOL    HW139683   3.474   4.324   8.589 -0.4101 -0.9638  2.3931
 9407SOL    HW239684   3.466   4.472   8.592 -0.1099  0.2573 -1.0334
 9408SOL     OW39685   4.017   1.819   5.976 -0.2611  0.6615 -0.6579
 9408SOL    HW139686   4.017   1.891   6.038 -1.6824  0.4642 -0.4115
 9408SOL    HW239687   4.057   1.755   6.035 -1.3185  2.0389  1.5166
 9409SOL     OW39688   4.711   0.026  11.581  0.4221 -0.0506  0.8941
 9409SOL    HW139689   4.719   0.120  11.565  2.2942 -0.5094 -0.8154
 9409SOL    HW239690   4.619   0.013  11.606  0.0317  1.9612  0.5325
 9410SOL     OW39691   1.277   1.341  17.395 -0.0492  0.1572  0.0571
 9410SOL    HW139692   1.289   1.368  17.304  0.2489 -0.3033 -0.0375
 9410SOL    HW239693   1.291   1.247  17.386  0.4890 -0.0243  3.0521
 9411SOL     OW39694   4.068   3.765  15.899  0.0009 -0.0156  0.0122
 9411SOL    HW139695   4.121   3.830  15.853 -1.6638 -0.0384 -1.9493
 9411SOL    HW239696   4.027   3.817  15.969  0.6823 -0.0295  0.4210
 9412SOL     OW39697   4.478   4.454   6.171 -0.2009 -0.6568  0.1907
 9412SOL    HW139698   4.401   4.510   6.179 -1.5755 -2.3638 -0.9560
 9412SOL    HW239699   4.439   4.375   6.134 -0.8961 -0.9778  1.6261
 9413SOL     OW39700   2.110   1.660   5.152 -0.1227  0.1414  0.4962
 9413SOL    HW139701   2.125   1.711   5.073  1.5263  0.6073  1.1246
 9413SOL    HW239702   2.052   1.723   5.194 -0.2286 -1.0911  2.1909
 9414SOL     OW39703   1.861   0.968   2.733  0.3129  0.0099 -0.4869
 9414SOL    HW139704   1.889   1.029   2.665 -1.0518  0.2639 -0.8221
 9414SOL    HW239705   1.801   1.014   2.792  1.4971  1.5437 -0.4961
 9415SOL     OW39706   2.550   3.494  13.545 -0.4680  1.1791  0.0369
 9415SOL    HW139707   2.492   3.570  13.529  0.0025  1.7347  1.0114
 9415SOL    HW239708   2.634   3.526  13.513 -0.0055  0.2507  0.3564
 9416SOL     OW39709   1.226   3.397   7.638  0.4987  0.4932 -0.2572
 9416SOL    HW139710   1.139   3.428   7.612  0.3633  0.2504 -0.0921
 9416SOL    HW239711   1.218   3.422   7.730 -2.5078 -0.2022 -0.3441
 9417SOL     OW39712   3.519   3.067   0.081  0.5109  0.0001 -0.3819
 9417SOL    HW139713   3.499   2.974   0.073 -2.4712  0.8313 -2.5302
 9417SOL    HW239714   3.613   3.062   0.060  0.5687 -0.6477  0.0427
 9418SOL     OW39715   1.079   2.338  11.385  0.0872 -0.5751  0.0471
 9418SOL    HW139716   0.988   2.326  11.355 -0.6377 -0.3049  2.1018
 9418SOL    HW239717   1.115   2.310  11.301 -0.8362 -0.9308 -0.2328
 9419SOL     OW39718   0.646   2.678  15.349 -0.8464 -0.3326  0.5741
 9419SOL    HW139719   0.703   2.735  15.297 -1.8388  0.2419  0.1296
 9419SOL    HW239720   0.623   2.614  15.282  2.3595 -0.3646 -0.5033
 9420SOL     OW39721   2.837   4.048  13.251  0.1672  0.3271  0.6188
 9420SOL    HW139722   2.889   4.119  13.286  0.1250  1.0999 -0.9001
 9420SOL    HW239723   2.899   4.018  13.185 -0.0424  1.3921 -0.0603
 9421SOL     OW39724   4.065   1.844   0.710 -0.2389 -0.1312  0.8702
 9421SOL    HW139725   4.127   1.892   0.766  0.4775 -0.0984  0.0513
 9421SOL    HW239726   4.023   1.788   0.775  0.5680 -1.1395  0.5298
 9422SOL     OW39727   4.583   0.138  17.635  0.1740 -0.0465  0.3028
 9422SOL    HW139728   4.659   0.119  17.691 -0.4371  1.1347  1.5392
 9422SOL    HW239729   4.554   0.049  17.618  1.6848  0.0995 -3.1363
 9423SOL     OW39730   4.422   1.318   7.009 -0.1411  0.1096 -0.1427
 9423SOL    HW139731   4.512   1.349   7.017 -0.1044 -0.1459  0.4454
 9423SOL    HW239732   4.374   1.367   7.075  0.6923  0.7729 -0.0309
 9424SOL     OW39733   4.167   3.227  11.904 -0.5402 -0.2747  0.1663
 9424SOL    HW139734   4.082   3.257  11.870  0.1807  1.4097 -0.1312
 9424SOL    HW239735   4.166   3.286  11.980 -1.4236 -0.3802  0.2404
 9425SOL     OW39736   3.526   1.103   6.876  0.1409 -0.8686 -0.0944
 9425SOL    HW139737   3.567   1.177   6.831 -0.8461  0.4571  1.2041
 9425SOL    HW239738   3.441   1.142   6.895 -0.2670 -1.9210  0.2197
 9426SOL     OW39739   3.181   0.180   4.675 -0.2584  0.3861  0.7824
 9426SOL    HW139740   3.274   0.171   4.657 -0.3151 -0.9371  1.1369
 9426SOL    HW239741   3.132   0.216   4.601 -0.1642  1.6684  1.3539
 9427SOL     OW39742   2.325   4.017   2.329  0.1573  0.2461 -0.6545
 9427SOL    HW139743   2.377   4.005   2.408 -1.6155  0.4520  0.5428
 9427SOL    HW239744   2.310   3.925   2.307  0.5466  0.1624 -0.5719
 9428SOL     OW39745   0.954   2.318  16.808  0.2255 -0.5324  0.3328
 9428SOL    HW139746   1.005   2.322  16.728 -3.2060  2.1127 -1.6989
 9428SOL    HW239747   0.965   2.223  16.812 -1.4798 -0.6840  1.8948
 9429SOL     OW39748   0.899   1.582   4.517 -0.3607 -0.6836  0.3431
 9429SOL    HW139749   0.984   1.625   4.529  0.2055 -1.2731 -1.6058
 9429SOL    HW239750   0.933   1.492   4.507  0.1807 -0.3843 -0.4777
 9430SOL     OW39751   2.477   3.894  11.169 -0.5396 -0.0462  0.5364
 9430SOL    HW139752   2.536   3.839  11.117 -1.1203 -1.8890  1.8054
 9430SOL    HW239753   2.545   3.951  11.205  0.5759 -0.9757 -0.0844
 9431SOL     OW39754   1.026   2.650   3.006 -0.1540 -0.4435 -0.4033
 9431SOL    HW139755   1.068   2.573   3.046 -0.1567 -0.0935  0.2674
 9431SOL    HW239756   0.958   2.673   3.069 -1.9476 -0.9367 -2.1449
 9432SOL     OW39757   2.091   0.716   3.356 -0.5428 -0.4985  0.3929
 9432SOL    HW139758   2.166   0.737   3.412  0.4816 -1.3104 -0.6734
 9432SOL    HW239759   2.023   0.769   3.398  0.4771  0.3506  0.9786
 9433SOL     OW39760   1.774   1.301   2.199  0.5487  0.3716  0.3146
 9433SOL    HW139761   1.827   1.371   2.238  0.4311 -1.2648  3.3884
 9433SOL    HW239762   1.803   1.230   2.255 -0.8822  0.7667  1.5554
 9434SOL     OW39763   2.888   3.719   2.888 -0.0971 -0.0112 -0.4508
 9434SOL    HW139764   2.918   3.808   2.906 -0.2064  0.0076 -0.3576
 9434SOL    HW239765   2.794   3.730   2.871 -0.4261 -1.3522  0.5117
 9435SOL     OW39766   0.450   4.347   3.742  0.3586  0.3175 -0.4095
 9435SOL    HW139767   0.520   4.294   3.702  1.0285  0.7761  0.1600
 9435SOL    HW239768   0.367   4.309   3.712  0.7823  1.8647 -3.5504
 9436SOL     OW39769   2.735   3.175  16.679 -0.0683  0.0280  0.8289
 9436SOL    HW139770   2.777   3.257  16.703 -0.3776  0.6365 -0.7326
 9436SOL    HW239771   2.645   3.205  16.695 -0.2432 -1.4726  2.7090
 9437SOL     OW39772   4.367   1.221   8.538  0.2267 -0.3786  0.1680
 9437SOL    HW139773   4.385   1.180   8.453 -1.2721 -1.3706  0.3429
 9437SOL    HW239774   4.271   1.214   8.539  0.3452 -1.7925  1.8738
 9438SOL     OW39775   3.723   2.213  12.655 -0.1760 -0.1448 -0.1950
 9438SOL    HW139776   3.661   2.146  12.628 -1.2125  0.2713  1.1804
 9438SOL    HW239777   3.688   2.280  12.597 -0.1056  0.3507  0.3365
 9439SOL     OW39778   1.270   1.321  14.622  0.1322  0.4297  0.5394
 9439SOL    HW139779   1.303   1.239  14.585 -1.1342  0.4944 -0.7322
 9439SOL    HW239780   1.328   1.382  14.576  4.1800 -2.2089  2.0694
 9440SOL     OW39781   2.258   1.380   3.294 -0.0574  0.4887 -0.4853
 9440SOL    HW139782   2.218   1.391   3.208 -1.0059 -1.3687 -0.2747
 9440SOL    HW239783   2.184   1.334   3.333  0.0311  1.4101  0.7498
 9441SOL     OW39784   3.015   4.547   2.648  0.8412  0.1743 -0.3725
 9441SOL    HW139785   3.061   4.587   2.574  1.2648 -1.1578 -0.8356
 9441SOL    HW239786   2.987   4.620   2.703  1.2486 -1.2585  1.7269
 9442SOL     OW39787   4.634   2.849   0.634  0.0699 -0.0946  0.4944
 9442SOL    HW139788   4.694   2.823   0.705 -0.0222 -1.6257  0.0223
 9442SOL    HW239789   4.572   2.778   0.650  1.3629 -1.0736  1.2343
 9443SOL     OW39790   3.414   4.512   1.268 -0.6651  0.8277  0.0779
 9443SOL    HW139791   3.425   4.496   1.362 -1.0958  1.2222  0.1957
 9443SOL    HW239792   3.426   4.607   1.267 -0.0375  0.7477 -0.1394
 9444SOL     OW39793   2.271   0.039  12.883 -0.1768 -0.3418 -0.1952
 9444SOL    HW139794   2.230   4.678  12.869  1.1984 -1.2934  1.6010
 9444SOL    HW239795   2.190   0.089  12.889 -1.1168 -1.4139 -3.9754
 9445SOL     OW39796   2.248   2.057   6.350  0.2315 -0.3854 -0.2607
 9445SOL    HW139797   2.203   2.052   6.434 -0.1012  2.6244 -0.2783
 9445SOL    HW239798   2.190   1.999   6.300 -0.8238  0.0030  0.5021
 9446SOL     OW39799   0.099   1.458   4.396 -0.0900 -0.4068  0.0112
 9446SOL    HW139800   0.161   1.515   4.442  0.3517 -1.0219  0.1680
 9446SOL    HW239801   0.034   1.519   4.361 -0.4906 -0.9470 -0.1874
 9447SOL     OW39802   3.240   3.256   6.094 -0.1772 -0.2325  0.1033
 9447SOL    HW139803   3.260   3.347   6.071  2.5694 -0.7619  0.4908
 9447SOL    HW239804   3.311   3.217   6.045  0.4300 -1.0828  1.6580
 9448SOL     OW39805   3.299   2.748   6.459 -0.6664 -0.7820  0.1221
 9448SOL    HW139806   3.317   2.840   6.482  0.2618 -0.7077 -0.9494
 9448SOL    HW239807   3.333   2.707   6.539 -1.3386  1.1700  1.4154
 9449SOL     OW39808   0.205   2.860  10.520 -0.2580 -0.3679 -0.0151
 9449SOL    HW139809   0.201   2.835  10.612  1.6632  0.8562  0.4025
 9449SOL    HW239810   0.294   2.832  10.499 -0.0134  0.6568 -0.3581
 9450SOL     OW39811   2.045   2.693   1.812 -0.1033  0.4609 -0.2806
 9450SOL    HW139812   2.129   2.678   1.770 -1.1551  1.2901 -2.6759
 9450SOL    HW239813   1.990   2.664   1.739 -2.5788  0.6717  1.4714
 9451SOL     OW39814   4.249   1.837   8.925 -0.1885  0.1120 -0.7767
 9451SOL    HW139815   4.187   1.788   8.871 -0.0424  0.2002 -1.0219
 9451SOL    HW239816   4.314   1.874   8.866  0.8773  1.3752  1.1833
 9452SOL     OW39817   1.718   2.363   7.030  0.3106  0.1694 -0.8423
 9452SOL    HW139818   1.638   2.376   6.979 -1.4061 -2.2545  1.2506
 9452SOL    HW239819   1.729   2.457   7.047  0.6201 -0.1791  0.9500
 9453SOL     OW39820   1.512   2.041   8.404 -0.7102  0.7573 -0.2609
 9453SOL    HW139821   1.424   2.042   8.442 -1.3954  0.3564 -1.8051
 9453SOL    HW239822   1.536   2.129   8.431  1.3679  0.1256 -0.0049
 9454SOL     OW39823   0.386   0.820   4.966 -0.3162 -0.2232  0.4823
 9454SOL    HW139824   0.294   0.800   4.981 -0.4815  0.1909 -0.0168
 9454SOL    HW239825   0.382   0.910   4.935  0.7498  0.3195  1.9214
 9455SOL     OW39826   2.624   2.288  14.282  0.1453  0.3287 -0.2167
 9455SOL    HW139827   2.712   2.317  14.257  0.4304  0.9233  1.4195
 9455SOL    HW239828   2.623   2.203  14.238 -1.0366  0.1932  0.0711
 9456SOL     OW39829   4.140   1.033   1.030  0.4961 -0.1924  0.0395
 9456SOL    HW139830   4.080   1.106   1.038  1.9153  0.8352  1.4353
 9456SOL    HW239831   4.080   0.960   1.013  0.2577  0.3221 -1.2483
 9457SOL     OW39832   4.184   1.453   8.998  0.0555  1.0510  0.0311
 9457SOL    HW139833   4.205   1.361   8.983  0.0446  0.7859  1.6139
 9457SOL    HW239834   4.133   1.479   8.922  0.6295 -0.6823 -0.9295
 9458SOL     OW39835   1.743   3.365  13.214 -0.4053 -0.2863 -0.2466
 9458SOL    HW139836   1.687   3.436  13.184 -0.0266 -0.5256 -1.5467
 9458SOL    HW239837   1.826   3.376  13.168  0.3622 -0.6175  1.0484
 9459SOL     OW39838   4.662   0.398   0.861 -0.0638  0.8248 -0.0108
 9459SOL    HW139839   4.601   0.467   0.889  0.4537  1.3323 -0.1428
 9459SOL    HW239840   0.017   0.447   0.880 -0.5827  0.7988  2.1795
 9460SOL     OW39841   1.956   3.628   7.091 -0.2048  0.6854 -0.5161
 9460SOL    HW139842   1.955   3.532   7.093  0.5992  0.6607 -1.9178
 9460SOL    HW239843   1.956   3.634   6.996  3.3780 -0.8480 -0.5812
 9461SOL     OW39844   0.084   0.762   6.880 -0.3327 -0.2966 -0.0773
 9461SOL    HW139845   0.087   0.844   6.928 -0.7204  1.0026 -2.3014
 9461SOL    HW239846   0.173   0.744   6.908  0.1665  0.7667 -0.9983
 9462SOL     OW39847   4.253   1.770  10.065 -0.4243  0.6374 -0.0929
 9462SOL    HW139848   4.267   1.786  10.158 -2.4715 -0.2952  0.3774
 9462SOL    HW239849   4.231   1.677  10.060  1.5325  0.1986 -0.3609
 9463SOL     OW39850   4.606   3.643   2.720  0.1252 -0.0352 -0.2612
 9463SOL    HW139851   4.515   3.614   2.718 -0.5453  2.1203 -1.6279
 9463SOL    HW239852   4.595   3.729   2.679 -1.9179  0.5464  1.4879
 9464SOL     OW39853   1.562   2.825   8.154 -0.2896  0.1862 -0.1064
 9464SOL    HW139854   1.585   2.916   8.137 -0.9018  0.6690  1.7219
 9464SOL    HW239855   1.649   2.785   8.155 -0.9965 -1.3325  1.3134
 9465SOL     OW39856   2.028   2.599   8.207 -0.6266  0.9672 -0.2397
 9465SOL    HW139857   2.086   2.667   8.240  1.8592  0.0525 -2.7443
 9465SOL    HW239858   2.022   2.537   8.280  0.9670  0.4094 -0.5925
 9466SOL     OW39859   0.909   3.332   9.355 -0.2446 -0.1047 -0.6295
 9466SOL    HW139860   0.945   3.244   9.340 -2.8160 -1.2970  0.1055
 9466SOL    HW239861   0.865   3.318   9.439  0.8475 -0.3757 -0.0987
 9467SOL     OW39862   1.060   0.051  13.330  0.5927 -0.5004 -0.4608
 9467SOL    HW139863   0.977   0.006  13.312 -0.3194  0.4356  1.2824
 9467SOL    HW239864   1.062   0.117  13.261  0.6255  0.8104  0.7692
 9468SOL     OW39865   2.901   0.236  14.812 -0.6371  0.5631  0.3531
 9468SOL    HW139866   2.953   0.250  14.732  0.8836  0.3604  1.3060
 9468SOL    HW239867   2.882   0.143  14.809  1.1979  0.2276 -0.8918
 9469SOL     OW39868   0.702   2.432   4.968 -0.0866  0.7941  0.1355
 9469SOL    HW139869   0.778   2.449   4.913  0.6147 -2.2113  0.1622
 9469SOL    HW239870   0.756   2.400   5.040 -0.3141 -0.4045 -0.2279
 9470SOL     OW39871   2.852   3.972   3.038  0.3797 -0.1270 -0.0211
 9470SOL    HW139872   2.780   3.952   2.979  0.3257 -1.8913  0.6528
 9470SOL    HW239873   2.816   4.035   3.100 -0.2344 -1.1509  0.6554
 9471SOL     OW39874   1.171   2.768   4.035  0.2547  0.6813  0.1238
 9471SOL    HW139875   1.241   2.753   4.098  1.0599 -0.5647 -1.0522
 9471SOL    HW239876   1.137   2.679   4.051  3.1483 -0.3197  0.7142
 9472SOL     OW39877   1.392   2.899   5.792  0.1944  0.2190  0.1016
 9472SOL    HW139878   1.460   2.963   5.767 -0.6462  0.5558 -1.3026
 9472SOL    HW239879   1.410   2.886   5.885 -0.5904  0.9611  0.3570
 9473SOL     OW39880   1.543   2.480   2.986 -0.0591  0.3013 -0.5293
 9473SOL    HW139881   1.480   2.441   3.047 -0.3374 -1.8947 -2.2273
 9473SOL    HW239882   1.612   2.415   2.979 -0.4595 -0.0356 -1.3687
 9474SOL     OW39883   0.551   2.709   8.678  0.4016  0.1159 -0.0668
 9474SOL    HW139884   0.575   2.693   8.770 -1.6978 -1.1295  0.2557
 9474SOL    HW239885   0.637   2.705   8.636 -1.0472 -1.4058 -2.8872
 9475SOL     OW39886   1.760   0.259   2.864 -0.3568  0.1584  0.4043
 9475SOL    HW139887   1.689   0.273   2.801 -1.1407  0.3587  1.3225
 9475SOL    HW239888   1.715   0.283   2.945 -0.7783  1.0473 -0.0916
 9476SOL     OW39889   4.012   3.290   3.485 -0.4840 -0.0817 -0.6020
 9476SOL    HW139890   3.988   3.227   3.552 -0.9867 -0.1888 -0.8855
 9476SOL    HW239891   3.926   3.294   3.442 -0.8741  0.1516  0.2054
 9477SOL     OW39892   1.994   4.107   0.372 -0.2303  0.8291 -0.4707
 9477SOL    HW139893   2.071   4.151   0.337  0.3105  1.7659  1.9084
 9477SOL    HW239894   2.004   4.111   0.467  1.0787 -0.4880 -0.5502
 9478SOL     OW39895   1.612   3.359  12.879  0.0577 -0.5927  0.1489
 9478SOL    HW139896   1.582   3.400  12.798 -2.5024  1.4114  2.1024
 9478SOL    HW239897   1.586   3.422  12.946 -1.2072 -1.3974  0.4381
 9479SOL     OW39898   3.984   1.891   4.315 -0.3982 -0.1545 -0.0179
 9479SOL    HW139899   3.945   1.804   4.322  2.0307 -1.1468  1.1925
 9479SOL    HW239900   3.956   1.906   4.225 -1.6251 -2.3560 -0.0201
 9480SOL     OW39901   0.587   2.619   9.809 -0.2420  0.6741  0.6914
 9480SOL    HW139902   0.515   2.616   9.871 -0.2856 -0.4707  0.5718
 9480SOL    HW239903   0.546   2.623   9.723  0.4674  0.4075  0.3348
 9481SOL     OW39904   2.580   4.693   8.369 -0.1169 -0.6261 -0.2130
 9481SOL    HW139905   2.617   4.620   8.319  1.1800  0.7820 -1.2971
 9481SOL    HW239906   2.492   4.703   8.335 -1.1100 -1.4345  2.0780
 9482SOL     OW39907   2.581   3.188   4.298 -0.2054 -0.1865 -0.9430
 9482SOL    HW139908   2.523   3.247   4.347 -0.9729 -1.5559 -0.1925
 9482SOL    HW239909   2.628   3.143   4.368  0.7776  0.7957 -0.9816
 9483SOL     OW39910   1.928   2.801  17.508  0.4436 -0.0489  0.3571
 9483SOL    HW139911   1.916   2.742  17.434 -0.8158 -0.2071  0.6927
 9483SOL    HW239912   1.848   2.852  17.501 -0.2030 -0.9659  1.1668
 9484SOL     OW39913   0.481   3.823   7.383 -0.4179  0.3355  0.1629
 9484SOL    HW139914   0.534   3.888   7.338 -1.3263 -0.6800 -2.3804
 9484SOL    HW239915   0.551   3.761   7.403 -0.6929  0.3097  1.0734
 9485SOL     OW39916   1.856   0.697   8.288 -0.6054  0.2691  0.0160
 9485SOL    HW139917   1.826   0.786   8.303 -0.7830  0.2823 -0.4265
 9485SOL    HW239918   1.772   0.664   8.255  0.2053 -2.6464  0.8564
 9486SOL     OW39919   4.496   2.505   9.541 -0.2687  0.2634 -0.0043
 9486SOL    HW139920   4.573   2.455   9.516 -0.0521  1.0735 -0.9943
 9486SOL    HW239921   4.529   2.538   9.624  1.4830  0.0954 -0.6409
 9487SOL     OW39922   0.911   0.989   5.529  0.6530 -0.4653  0.1795
 9487SOL    HW139923   0.871   1.076   5.525 -0.5395 -0.9717  0.8913
 9487SOL    HW239924   0.993   1.023   5.494  0.7452 -0.2463  0.5957
 9488SOL     OW39925   1.361   4.661  14.709  0.4072 -0.3885 -0.1244
 9488SOL    HW139926   1.307   0.016  14.713 -0.5870 -1.1468  1.5580
 9488SOL    HW239927   1.446   4.697  14.684  0.0507 -1.5410 -3.0213
 9489SOL     OW39928   1.445   0.988   2.118 -0.6293  0.1469  0.4332
 9489SOL    HW139929   1.354   0.956   2.116 -0.9860  1.2279 -0.6375
 9489SOL    HW239930   1.494   0.911   2.148 -0.9764 -0.2949 -0.1226
 9490SOL     OW39931   4.336   2.204   3.812  0.3948  0.4664 -0.0790
 9490SOL    HW139932   4.391   2.175   3.884  0.1365 -0.8921 -0.4353
 9490SOL    HW239933   4.379   2.156   3.742 -0.5826 -1.1523  0.4176
 9491SOL     OW39934   2.202   2.331  15.473 -0.3104  0.1193 -0.3638
 9491SOL    HW139935   2.115   2.347  15.437  0.0457 -0.4614 -1.4713
 9491SOL    HW239936   2.256   2.392  15.423  1.3630 -1.6271 -0.6879
 9492SOL     OW39937   3.083   0.799   5.884  1.0559 -0.4325 -0.2022
 9492SOL    HW139938   3.142   0.810   5.810 -0.1378 -0.9703 -1.2368
 9492SOL    HW239939   3.001   0.788   5.836  0.4578  0.1659  0.6731
 9493SOL     OW39940   4.317   1.913   9.184  0.5666 -0.1125 -0.0636
 9493SOL    HW139941   4.231   1.872   9.194  0.5688  0.3710  1.9115
 9493SOL    HW239942   4.323   1.899   9.089  0.1986  1.7054 -0.3637
 9494SOL     OW39943   2.779   2.747   6.847  0.4678  0.4175 -0.3106
 9494SOL    HW139944   2.821   2.801   6.914  3.0771 -0.8260 -0.9679
 9494SOL    HW239945   2.732   2.815   6.799 -0.6256  0.1645  0.3924
 9495SOL     OW39946   1.571   0.497   2.531  0.0163 -0.5257 -0.2291
 9495SOL    HW139947   1.494   0.545   2.561  0.0018 -0.6820 -0.0132
 9495SOL    HW239948   1.642   0.549   2.568 -0.5178  0.8665 -1.1426
 9496SOL     OW39949   3.624   4.656   5.733  0.1841  0.0760 -0.3321
 9496SOL    HW139950   3.696   4.707   5.696 -0.3821  1.0701 -0.0504
 9496SOL    HW239951   3.594   4.605   5.657 -0.4386 -1.7469  1.1287
 9497SOL     OW39952   1.407   1.505  14.452 -0.1923  0.1997 -0.8790
 9497SOL    HW139953   1.402   1.508  14.357 -1.3663 -1.5216 -0.8775
 9497SOL    HW239954   1.450   1.587  14.477  0.4130  0.0849 -1.5365
 9498SOL     OW39955   4.293   4.588   2.552 -0.8202  0.1843  0.9003
 9498SOL    HW139956   4.389   4.589   2.551 -0.8294  0.0231 -1.1435
 9498SOL    HW239957   4.269   4.498   2.530 -3.5301  1.1022  0.0501
 9499SOL     OW39958   1.642   1.926   2.299  0.0589  0.5361  0.3765
 9499SOL    HW139959   1.625   2.020   2.308 -0.4625  0.4905 -0.1611
 9499SOL    HW239960   1.722   1.908   2.250  0.0504  4.4028 -1.0252
 9500SOL     OW39961   0.833   0.895   7.658 -0.4664 -0.3895  0.3397
 9500SOL    HW139962   0.886   0.943   7.595  0.5257  0.7006  2.0178
 9500SOL    HW239963   0.752   0.945   7.664 -0.3730 -0.1198 -0.6689
 9501SOL     OW39964   0.912   3.307   6.715 -0.1513 -0.7420 -0.0283
 9501SOL    HW139965   0.903   3.214   6.735  2.9848 -0.6730  1.6452
 9501SOL    HW239966   0.888   3.341   6.801  2.1976  0.2869  0.2214
 9502SOL     OW39967   1.267   3.488  11.406 -0.4852 -0.3433  0.0098
 9502SOL    HW139968   1.333   3.420  11.393 -0.8104 -0.5638 -0.5070
 9502SOL    HW239969   1.198   3.467  11.343  1.5705  1.9944 -3.0156
 9503SOL     OW39970   4.596   0.644   6.979 -0.2235  0.1225  0.3149
 9503SOL    HW139971   4.530   0.709   7.001 -0.8893 -0.8254  1.1436
 9503SOL    HW239972   4.658   0.693   6.925 -1.4380 -0.0442 -1.2382
 9504SOL     OW39973   0.365   0.755   7.712  0.1399  0.6908 -0.3508
 9504SOL    HW139974   0.390   0.753   7.620 -0.2250  0.8529 -0.4535
 9504SOL    HW239975   0.354   0.849   7.727 -0.8308  0.3677  0.9565
 9505SOL     OW39976   3.110   4.314   9.012  0.6645 -0.3364 -0.0039
 9505SOL    HW139977   3.056   4.278   9.083 -2.0366  0.8056 -1.5084
 9505SOL    HW239978   3.197   4.305   9.051  1.4588  1.1067 -1.4449
 9506SOL     OW39979   2.647   4.238  16.670 -0.0256 -0.5846  0.5516
 9506SOL    HW139980   2.646   4.300  16.743  0.8142 -1.0033  0.9287
 9506SOL    HW239981   2.699   4.168  16.710  0.3588 -0.3482  0.4677
 9507SOL     OW39982   2.756   0.564   5.604  0.5018 -0.7047  0.5913
 9507SOL    HW139983   2.717   0.536   5.521  2.4498  1.2371 -0.9678
 9507SOL    HW239984   2.832   0.506   5.601  0.2295 -1.0008 -0.8415
 9508SOL     OW39985   3.831   1.309   1.698 -0.0635  0.1126  0.4143
 9508SOL    HW139986   3.923   1.324   1.724  0.0688 -0.5918  0.3397
 9508SOL    HW239987   3.845   1.232   1.644  1.1045  0.9789 -0.5101
 9509SOL     OW39988   3.090   3.694   8.371  0.0506 -0.0682  0.3131
 9509SOL    HW139989   3.053   3.606   8.381  0.8634 -0.5781 -1.1302
 9509SOL    HW239990   3.014   3.746   8.344 -0.1628 -0.6062 -0.1174
 9510SOL     OW39991   0.746   2.788   4.687 -0.3773  0.3699  0.3809
 9510SOL    HW139992   0.837   2.786   4.659 -0.9003  0.8319 -1.3542
 9510SOL    HW239993   0.706   2.745   4.612  0.4560 -2.3543  1.4928
 9511SOL     OW39994   1.739   4.614  10.419  0.1225  0.1558  0.1078
 9511SOL    HW139995   1.650   4.644  10.400  0.2976  0.9403  0.5174
 9511SOL    HW239996   1.724   4.520  10.429 -0.0875 -0.0667 -2.2512
 9512SOL     OW39997   1.356   1.045   0.875 -0.3622  0.1428  0.0376
 9512SOL    HW139998   1.363   1.010   0.786 -0.6655 -1.1253  0.5141
 9512SOL    HW239999   1.263   1.057   0.894 -0.3191 -0.8610  0.9401
 9513SOL     OW40000   3.132   4.537  15.737  0.5030  0.0997 -0.1373
 9513SOL    HW140001   3.152   4.449  15.707 -2.3965 -1.3405  2.1248
 9513SOL    HW240002   3.036   4.531  15.732  0.4816  0.0555  0.3702
 9514SOL     OW40003   0.410   2.419   2.955  0.0355  0.5830 -0.3945
 9514SOL    HW140004   0.316   2.409   2.965  0.0708 -0.2384 -0.9421
 9514SOL    HW240005   0.419   2.359   2.881  1.3648  1.5519 -1.0187
 9515SOL     OW40006   2.986   0.939   6.851 -0.4126 -0.5775  0.6079
 9515SOL    HW140007   3.079   0.927   6.873  0.3833 -1.1383 -3.0920
 9515SOL    HW240008   2.967   0.845   6.848 -1.8167 -0.2648 -0.1933
 9516SOL     OW40009   1.916   0.921   7.075  0.4622 -0.1410  0.6820
 9516SOL    HW140010   1.832   0.964   7.059  0.4154 -0.7287 -0.6439
 9516SOL    HW240011   1.894   0.848   7.134  1.2974 -1.4643 -0.6248
 9517SOL     OW40012   0.378   4.066   3.875  0.4889  0.5892 -0.4206
 9517SOL    HW140013   0.338   4.112   3.801 -0.2585 -0.1822 -0.4954
 9517SOL    HW240014   0.317   3.995   3.895  1.5064 -1.3900 -4.2644
 9518SOL     OW40015   0.405   1.793   8.948 -0.1991 -0.1706 -0.0810
 9518SOL    HW140016   0.414   1.775   9.042  0.2273 -1.9805 -0.4868
 9518SOL    HW240017   0.367   1.881   8.949 -1.3960 -0.6988 -0.2817
 9519SOL     OW40018   1.812   0.288   6.716 -0.3176 -0.1666  0.2063
 9519SOL    HW140019   1.823   0.307   6.810 -1.1817  0.7944  0.1136
 9519SOL    HW240020   1.851   0.369   6.683 -1.0528  0.1566  0.1247
 9520SOL     OW40021   2.652   0.375   4.541 -0.3457  0.3822 -0.5552
 9520SOL    HW140022   2.698   0.378   4.625 -1.0023  2.8985 -0.2899
 9520SOL    HW240023   2.608   0.290   4.543  0.9158 -0.2917 -1.1845
 9521SOL     OW40024   2.228   1.436   8.621 -0.0595  0.5182  0.0696
 9521SOL    HW140025   2.160   1.501   8.602 -0.5105  0.6296  1.9777
 9521SOL    HW240026   2.284   1.491   8.676 -0.9836  1.3406  0.2052
 9522SOL     OW40027   0.475   2.827   5.100 -0.3606  0.0521 -0.0758
 9522SOL    HW140028   0.518   2.778   5.030 -0.2766 -0.7662  0.5455
 9522SOL    HW240029   0.400   2.857   5.050 -0.1060  0.4677 -0.2040
 9523SOL     OW40030   4.140   1.378   6.196  0.3577 -0.2209  0.5575
 9523SOL    HW140031   4.116   1.302   6.248 -0.7172 -0.2207  0.0490
 9523SOL    HW240032   4.222   1.348   6.157  1.2617  2.8733  0.0741
 9524SOL     OW40033   4.491   0.613   3.646  0.3534  0.0543 -0.7445
 9524SOL    HW140034   4.423   0.567   3.696  0.9783 -0.5524 -0.4457
 9524SOL    HW240035   4.572   0.562   3.651 -0.2674 -0.7620  0.8932
 9525SOL     OW40036   0.793   2.065   9.090 -0.3141 -0.1951 -0.4922
 9525SOL    HW140037   0.724   2.046   9.154  1.0633  1.5209  1.4586
 9525SOL    HW240038   0.774   2.000   9.021 -0.5378  0.1632 -0.7711
 9526SOL     OW40039   1.802   2.949   3.463  0.3659  0.2795  0.3968
 9526SOL    HW140040   1.846   3.034   3.459 -1.5978  1.1117 -3.2381
 9526SOL    HW240041   1.821   2.921   3.553 -2.4486  1.8303  1.5042
 9527SOL     OW40042   4.335   3.707  13.380  0.5558 -0.5545 -0.9489
 9527SOL    HW140043   4.370   3.728  13.293  1.3267  1.0807 -0.2260
 9527SOL    HW240044   4.262   3.650  13.353  0.1026 -1.0897  1.4221
 9528SOL     OW40045   3.149   4.639   1.203 -0.3138 -0.5516 -0.1366
 9528SOL    HW140046   3.109   4.575   1.262  3.1541 -1.6462  1.0648
 9528SOL    HW240047   3.231   4.597   1.176 -0.8947 -1.3609 -0.6619
 9529SOL     OW40048   0.251   1.959   0.394  0.0788 -0.0425  0.0184
 9529SOL    HW140049   0.298   1.922   0.319  2.6553  2.8043  0.2256
 9529SOL    HW240050   0.285   2.048   0.402  2.2211 -0.6856 -1.9392
 9530SOL     OW40051   4.518   1.547   2.577  0.6816  0.0621 -0.5028
 9530SOL    HW140052   4.602   1.530   2.618  0.5548 -0.8884 -0.6214
 9530SOL    HW240053   4.528   1.513   2.488  0.6226  1.2916 -0.9832
 9531SOL     OW40054   3.900   0.647   0.208 -0.0955 -0.6447  0.1582
 9531SOL    HW140055   3.914   0.741   0.218 -0.8261 -0.5733  0.4924
 9531SOL    HW240056   3.928   0.630   0.118 -1.3403  0.9668 -0.5272
 9532SOL     OW40057   0.834   4.145   3.078 -0.4187 -0.1491 -0.6204
 9532SOL    HW140058   0.877   4.214   3.129  0.7311  0.8927 -3.0209
 9532SOL    HW240059   0.834   4.080   3.149 -1.0308 -1.0728 -1.4631
 9533SOL     OW40060   0.747   1.187   9.291  0.3468  0.2755 -0.1730
 9533SOL    HW140061   0.740   1.195   9.386 -0.7316  1.0460 -0.3061
 9533SOL    HW240062   0.811   1.117   9.280  1.2194  0.9521  0.6231
 9534SOL     OW40063   1.951   0.666   5.733 -0.2140  0.2828  0.3012
 9534SOL    HW140064   2.028   0.664   5.677 -0.2769 -1.7240  0.2751
 9534SOL    HW240065   1.896   0.593   5.703  0.9584 -0.1432 -0.7976
 9535SOL     OW40066   1.966   1.194   4.755 -0.2041  0.3314  0.1549
 9535SOL    HW140067   2.015   1.257   4.702  1.4597 -0.5202  0.6899
 9535SOL    HW240068   2.020   1.181   4.833 -1.3074 -2.2950  0.5000
 9536SOL     OW40069   0.104   3.880   8.426 -0.4845 -0.0243 -0.2117
 9536SOL    HW140070   0.125   3.855   8.336 -2.2333 -2.0227 -0.0843
 9536SOL    HW240071   0.019   3.923   8.413 -0.6968 -1.1053 -2.4539
 9537SOL     OW40072   0.075   4.201   6.514 -0.1444  0.6470  0.1039
 9537SOL    HW140073   0.054   4.137   6.582  0.2157  1.6704  1.1732
 9537SOL    HW240074   0.043   4.152   6.438  0.8943 -1.8615  1.2854
 9538SOL     OW40075   0.169   0.216  15.815  0.1403  0.1438 -0.3321
 9538SOL    HW140076   0.113   0.187  15.887 -0.0964  0.0078 -0.5697
 9538SOL    HW240077   0.137   0.303  15.792  3.3114  1.7860  1.5798
 9539SOL     OW40078   0.834   2.372   9.670 -0.1411  0.1031  0.0750
 9539SOL    HW140079   0.915   2.323   9.680  0.5818  1.2152 -0.4044
 9539SOL    HW240080   0.845   2.450   9.725  1.4961 -0.3074  0.3109
 9540SOL     OW40081   2.377   4.064   4.268 -0.2330 -0.1396 -0.0104
 9540SOL    HW140082   2.360   4.133   4.204  1.9028 -1.2136 -1.7360
 9540SOL    HW240083   2.290   4.025   4.267 -0.8802  1.2778  2.9723
 9541SOL     OW40084   1.006   1.307   4.320 -0.3178  0.7811 -0.1958
 9541SOL    HW140085   0.987   1.356   4.240  2.8732  0.3273 -1.2210
 9541SOL    HW240086   1.096   1.338   4.326 -0.1318  0.5784 -1.9278
 9542SOL     OW40087   3.760   2.032   3.707  1.1096 -0.3510 -0.1144
 9542SOL    HW140088   3.855   2.040   3.701  0.9534  0.5169 -1.4408
 9542SOL    HW240089   3.737   1.983   3.629 -0.4119 -2.5446  1.7147
 9543SOL     OW40090   1.950   2.496   9.459 -0.8125 -0.6088 -0.2588
 9543SOL    HW140091   1.941   2.591   9.467  2.1213 -0.1922 -1.8145
 9543SOL    HW240092   1.907   2.480   9.375 -1.0592  3.1506 -0.8370
 9544SOL     OW40093   3.106   2.757   7.108 -0.0223  0.0218  0.2290
 9544SOL    HW140094   3.037   2.804   7.061  0.1783 -1.0349 -1.1365
 9544SOL    HW240095   3.172   2.826   7.112 -0.9468  0.8547  1.0802
 9545SOL     OW40096   1.389   1.693   6.236 -0.0439 -0.0653  0.1423
 9545SOL    HW140097   1.378   1.655   6.323  0.1406  1.5893  0.8880
 9545SOL    HW240098   1.296   1.707   6.216 -0.1003 -0.1594  0.3437
 9546SOL     OW40099   3.886   0.801  12.907  0.2507  0.5187 -0.2251
 9546SOL    HW140100   3.811   0.742  12.913 -1.3568  2.6393  0.4180
 9546SOL    HW240101   3.863   0.872  12.967 -1.4736  0.1984 -0.5134
 9547SOL     OW40102   4.387   4.106   5.250 -0.2345 -0.2012  0.3348
 9547SOL    HW140103   4.430   4.023   5.230  0.6830  0.2573  0.3860
 9547SOL    HW240104   4.459   4.146   5.299  1.5651  0.6822 -3.0329
 9548SOL     OW40105   0.177   0.627   5.331 -0.1548 -0.1305 -0.1492
 9548SOL    HW140106   0.168   0.648   5.424  0.6202  1.0475 -0.3447
 9548SOL    HW240107   0.085   0.644   5.308 -0.7675 -1.9869  0.9284
 9549SOL     OW40108   1.666   2.203   2.277  0.1527 -0.7170 -0.4686
 9549SOL    HW140109   1.667   2.215   2.182  0.6475  2.1088 -0.0989
 9549SOL    HW240110   1.609   2.276   2.302 -0.3702 -0.8814 -1.1561
 9550SOL     OW40111   0.050   2.045  15.972 -0.1118  0.0728 -0.1106
 9550SOL    HW140112   4.691   2.057  15.927 -0.3956  1.2093  0.7157
 9550SOL    HW240113   0.081   1.964  15.931  1.2558  0.8084 -0.5466
 9551SOL     OW40114   2.010   3.111   9.832  0.7001  0.4283 -0.1082
 9551SOL    HW140115   2.043   3.102   9.921 -4.5190  0.7742  1.8282
 9551SOL    HW240116   2.031   3.203   9.817  2.6353  0.3363  2.0711
 9552SOL     OW40117   1.794   1.054  11.153 -0.0470 -0.4536 -0.4327
 9552SOL    HW140118   1.791   0.988  11.083  2.3715  0.1798 -1.1318
 9552SOL    HW240119   1.707   1.042  11.191 -0.0175  0.3958 -0.0909
 9553SOL     OW40120   2.443   0.397   8.384 -0.4857  0.1032  0.1368
 9553SOL    HW140121   2.466   0.490   8.386  1.1322 -0.2555 -1.2890
 9553SOL    HW240122   2.523   0.354   8.416 -0.7250  0.5148  1.2884
 9554SOL     OW40123   3.467   2.882  17.566  0.1009  0.3059 -0.1318
 9554SOL    HW140124   3.477   2.828  17.487 -1.2762 -0.3366  0.1376
 9554SOL    HW240125   3.385   2.927  17.547  0.1467  0.4461 -0.0010
 9555SOL     OW40126   2.907   1.476  12.895  0.3416  0.2199 -0.7266
 9555SOL    HW140127   2.925   1.495  12.803  0.9933 -1.2142 -0.9090
 9555SOL    HW240128   2.873   1.555  12.935 -4.0461 -3.1673  2.2510
 9556SOL     OW40129   3.130   3.942   7.905  0.3616  0.3745  0.2473
 9556SOL    HW140130   3.086   3.977   7.828  0.1596  0.4282  0.3887
 9556SOL    HW240131   3.060   3.938   7.969  2.3886  1.4505  2.5474
 9557SOL     OW40132   0.979   1.412  11.250 -0.1816  0.1578  0.7407
 9557SOL    HW140133   0.906   1.467  11.279 -1.0796 -0.3078 -0.6025
 9557SOL    HW240134   0.982   1.350  11.323 -0.3344  0.5143  1.0507
 9558SOL     OW40135   4.122   1.254   7.813 -0.4588 -0.1237  0.1587
 9558SOL    HW140136   4.095   1.338   7.850  0.1285 -0.2800  0.9419
 9558SOL    HW240137   4.044   1.199   7.822 -0.1062 -0.6185  0.1649
 9559SOL     OW40138   1.896   0.034   4.780 -0.4594 -0.1529 -0.2363
 9559SOL    HW140139   1.908   0.035   4.875  1.4097  2.1171 -0.4989
 9559SOL    HW240140   1.816   4.707   4.778 -0.1038 -0.7092 -0.1797
 9560SOL     OW40141   1.895   2.978  12.371 -0.0221  0.1371 -0.3333
 9560SOL    HW140142   1.875   3.048  12.432  0.3860 -0.1787  0.1708
 9560SOL    HW240143   1.820   2.987  12.312 -0.5988 -0.4303  0.3225
 9561SOL     OW40144   4.348   1.606   6.549  0.4093 -0.1600  0.4687
 9561SOL    HW140145   4.356   1.556   6.631  0.8241 -1.7819 -0.5582
 9561SOL    HW240146   4.384   1.539   6.491 -1.0415  0.2898 -0.9396
 9562SOL     OW40147   0.394   1.138   6.677  0.1888 -0.2368  0.3343
 9562SOL    HW140148   0.483   1.108   6.695 -0.0183 -0.4193  1.0633
 9562SOL    HW240149   0.403   1.233   6.666 -1.1497  0.2115  3.2952
 9563SOL     OW40150   1.080   2.916  14.849  0.0570 -0.1686 -0.4067
 9563SOL    HW140151   1.099   2.829  14.813 -0.8316 -0.1491 -0.9274
 9563SOL    HW240152   1.128   2.915  14.931  2.7019  1.9409 -1.9374
 9564SOL     OW40153   4.369   2.226   9.679  0.8658 -0.9453  0.1507
 9564SOL    HW140154   4.313   2.150   9.668 -0.2889  0.1648 -1.6017
 9564SOL    HW240155   4.297   2.286   9.699  1.1219 -0.4556 -0.3728
 9565SOL     OW40156   1.162   2.513   2.051 -0.0845  0.4276  0.0568
 9565SOL    HW140157   1.089   2.573   2.037 -1.3774 -0.9942  0.5994
 9565SOL    HW240158   1.228   2.571   2.088 -0.1970  0.1917  0.6235
 9566SOL     OW40159   1.755   4.712   1.336 -0.4993 -0.4069 -0.2155
 9566SOL    HW140160   1.710   4.655   1.399  0.1170 -1.8349 -1.0576
 9566SOL    HW240161   1.703   4.685   1.260  0.2978  1.9517 -1.5758
 9567SOL     OW40162   1.636   4.418   7.229  0.3147  0.0389 -0.2275
 9567SOL    HW140163   1.719   4.372   7.242  0.3259  0.6735  1.8897
 9567SOL    HW240164   1.584   4.339   7.213 -1.0662  1.3249 -2.1703
 9568SOL     OW40165   2.093   0.153  10.834  0.0578  0.0801 -0.0376
 9568SOL    HW140166   2.153   0.226  10.827  0.0080  0.2489  1.1648
 9568SOL    HW240167   2.076   0.139  10.928 -0.6752 -1.3214 -0.3725
   4.72410   4.72410  17.69805
