Membrane in water
40167
    1TCq1    O1    1   2.548   2.207  11.266 -0.0956 -0.3047 -0.4993
    1TCq1    C1    2   2.504   2.191  11.394 -0.3608 -0.2888 -0.5994
    1TCq1    O2    3   2.531   2.273  11.480 -0.2961  0.3736 -0.3523
    1TCq1    C2    4   2.407   2.084  11.388 -0.2715 -0.4027  0.7337
    1TCq1    C3    5   2.358   2.032  11.271  0.2775  0.1954 -0.0852
    1TCq1    C4    6   2.287   1.919  11.274 -0.0633 -0.0947 -0.0208
    1TCq1    C5    7   2.279   1.840  11.385  0.0911  0.0306 -0.3856
    1TCq1    C6    8   2.333   1.887  11.500 -0.1165  1.1753 -0.4533
    1TCq1    C7    9   2.402   2.008  11.498 -0.1752  0.2032 -0.1611
    1TCq1    C8   10   2.350   1.791  11.607 -0.1990  0.6388 -0.3168
    1TCq1    O4   11   2.265   1.711  11.637  0.9142  0.5198 -0.1045
    1TCq1    C9   12   2.238   1.853  11.149  0.1535  0.4348  0.3039
    1TCq1    O5   13   2.292   1.898  11.050  0.7338  0.2326  0.2572
    1TCq1    O6   14   2.162   1.758  11.163  0.0275  0.1626  0.2210
    1TCq1    H1   15   2.512   2.139  11.205 -3.3206  0.6555  0.3290
    1TCq1    H2   16   2.352   2.094  11.182  0.6262  1.0040  0.4571
    1TCq1    H3   17   2.237   1.740  11.384  1.0271 -0.3748  1.3099
    1TCq1    H4   18   2.439   2.049  11.591  0.4526 -0.1268 -0.2634
    2MPD2     C   19   2.647   1.473  11.890 -1.1042 -0.0681  0.1919
    2MPD2    C1   20   2.515   1.506  11.895 -0.5059  0.4003 -0.2004
    2MPD2    C2   21   2.451   1.617  11.829 -0.3207 -0.0407  0.0316
    2MPD2    C3   22   2.529   1.683  11.737 -1.0228 -0.0382  0.3966
    2MPD2    C4   23   2.668   1.656  11.733  0.0737 -0.6642  0.0124
    2MPD2    C5   24   2.729   1.556  11.809  0.0996  0.3645 -0.2655
    2MPD2     H   25   2.351   1.645  11.858  0.2573 -1.0118  2.9613
    2MPD2    H1   26   2.731   1.712  11.664  0.0539 -4.1641 -2.8586
    2MPD2    H2   27   2.688   1.389  11.946 -0.6568 -0.6443 -0.9986
    2MPD2    H3   28   2.837   1.546  11.804  0.1865  1.3888 -0.6026
    2MPD2     N   29   2.479   1.783  11.652  0.2727  0.3467  0.2848
    2MPD2    H5   30   2.546   1.838  11.598 -0.2789  0.1739 -0.5661
    2MPD2    N1   31   2.425   1.430  11.975  0.7811 -0.2295  0.0451
    2MPD2    H7   32   2.334   1.474  11.977 -0.0475 -1.8597 -2.8845
    3TCq1    O1   33   1.359   2.034  10.250  0.2466 -0.0443  0.0428
    3TCq1    C1   34   1.338   2.151  10.189  0.2890 -0.0670 -0.4020
    3TCq1    O2   35   1.333   2.166  10.067  0.2127 -0.4578 -0.0664
    3TCq1    C2   36   1.342   2.249  10.291 -0.1403  0.5320 -0.0565
    3TCq1    C3   37   1.377   2.378  10.256  0.2482 -0.2934 -0.4682
    3TCq1    C4   38   1.375   2.476  10.351 -0.0296  0.1961 -0.0991
    3TCq1    C5   39   1.353   2.440  10.482  0.5154 -0.7364  0.3501
    3TCq1    C6   40   1.311   2.312  10.511 -0.0845  0.5099 -0.2767
    3TCq1    C7   41   1.298   2.216  10.417 -0.2440 -0.2058 -0.4964
    3TCq1    C8   42   1.298   2.266  10.647 -0.1650 -0.7171  0.3597
    3TCq1    O4   43   1.269   2.145  10.667 -0.0568 -0.1459  0.0154
    3TCq1    C9   44   1.401   2.615  10.313  0.3895  0.2500 -0.1143
    3TCq1    O5   45   1.428   2.637  10.198  0.0134  0.3188 -0.0477
    3TCq1    O6   46   1.422   2.693  10.411 -0.1568 -0.1701 -0.5291
    3TCq1    H1   47   1.397   2.045  10.340 -4.0716 -1.2454  1.9912
    3TCq1    H2   48   1.403   2.405  10.154 -0.9347 -0.8935 -0.9355
    3TCq1    H3   49   1.362   2.517  10.559 -2.5317  0.0392 -0.0951
    3TCq1    H4   50   1.263   2.116  10.438  0.5408 -0.9817 -3.0376
    4MPD2     C   51   1.136   2.366  11.126  0.7954  0.4900 -0.6647
    4MPD2    C1   52   1.171   2.484  11.063  0.6734  0.1726 -0.1487
    4MPD2    C2   53   1.213   2.484  10.928 -0.1650 -1.1018 -0.2175
    4MPD2    C3   54   1.219   2.369  10.861 -0.5148  0.5607 -0.0329
    4MPD2    C4   55   1.191   2.249  10.928  0.7256  0.3169 -0.4532
    4MPD2    C5   56   1.144   2.247  11.056  1.0052 -0.4858  0.3001
    4MPD2     H   57   1.249   2.573  10.878 -3.0910 -1.3636 -2.7982
    4MPD2    H1   58   1.189   2.150  10.884  0.1307  0.3438 -0.4893
    4MPD2    H2   59   1.110   2.369  11.231  1.0671  1.2871 -0.6241
    4MPD2    H3   60   1.124   2.153  11.106  0.0856 -0.8591 -0.7759
    4MPD2     N   61   1.267   2.377  10.725 -0.2392  0.1750  1.2092
    4MPD2    H5   62   1.265   2.463  10.671  0.2425 -0.6267 -0.0881
    4MPD2    N1   63   1.179   2.605  11.130  0.0123 -0.2176 -0.3198
    4MPD2    H7   64   1.202   2.687  11.074 -3.0476  0.4912 -0.5326
    5TCq1    O1   65   1.126   4.563  10.876  0.3429 -0.2144  0.2794
    5TCq1    C1   66   1.194   4.444  10.877  0.4744  0.5209  0.4358
    5TCq1    O2   67   1.178   4.349  10.951  0.1630  0.5313 -0.9387
    5TCq1    C2   68   1.267   4.431  10.753 -0.0796  0.0844 -0.0362
    5TCq1    C3   69   1.225   4.505  10.642 -0.4952  0.2202  0.4286
    5TCq1    C4   70   1.264   4.460  10.525  0.2211 -0.8149 -0.0108
    5TCq1    C5   71   1.338   4.349  10.510  0.1772 -0.8950  0.1094
    5TCq1    C6   72   1.370   4.276  10.619 -0.1788  0.1050  0.5556
    5TCq1    C7   73   1.335   4.313  10.747 -0.4582  0.1108  0.0408
    5TCq1    C8   74   1.473   4.173  10.607  0.0542  0.2935  0.2378
    5TCq1    O4   75   1.489   4.094  10.698  0.5002 -0.3995 -0.2344
    5TCq1    C9   76   1.232   4.540  10.409 -0.2897  0.4156  0.1395
    5TCq1    O5   77   1.319   4.517  10.318  1.2049 -0.1165  0.2678
    5TCq1    O6   78   1.177   4.652  10.427 -0.2623 -0.2250 -0.2579
    5TCq1    H1   79   1.154   4.627  10.807  0.4452 -0.7851 -0.2153
    5TCq1    H2   80   1.158   4.589  10.659  1.1155  1.7517 -0.7185
    5TCq1    H3   81   1.359   4.315  10.409 -0.1991 -1.3603  0.1888
    5TCq1    H4   82   1.376   4.273  10.839  0.5596 -1.0368 -0.8928
    6MPD2     C   83   1.745   4.215  10.360  0.5084  0.2337  0.1857
    6MPD2    C1   84   1.678   4.143  10.453  0.2118 -0.3175 -0.1431
    6MPD2    C2   85   1.720   4.019  10.498 -0.3907 -0.2880  0.8366
    6MPD2    C3   86   1.835   3.956  10.442  0.2935  0.3382  0.4655
    6MPD2    C4   87   1.905   4.033  10.347 -0.6266 -0.5345 -0.2998
    6MPD2    C5   88   1.863   4.158  10.313 -0.0974  0.1352 -0.4929
    6MPD2     H   89   1.668   3.967  10.577  1.1588 -1.2626  1.2120
    6MPD2    H1   90   1.993   3.994  10.298  0.4176  1.2664  0.1171
    6MPD2    H2   91   1.721   4.313  10.322  1.3904 -0.5392 -2.3643
    6MPD2    H3   92   1.929   4.214  10.249 -1.2793  0.8254 -1.1079
    6MPD2     N   93   1.860   3.817  10.464  0.3164  0.0095 -1.4107
    6MPD2    H5   94   1.784   3.761  10.502  0.2646  1.4573  0.6438
    6MPD2    N1   95   1.561   4.207  10.498 -0.2540  0.2685  0.4084
    6MPD2    H7   96   1.524   4.281  10.439 -0.1739 -2.1437 -2.6986
    7TCq1    O1   97   0.568   4.377  13.341  0.3845  0.5890  0.1292
    7TCq1    C1   98   0.540   4.261  13.288  0.9918  0.5425  0.1450
    7TCq1    O2   99   0.437   4.241  13.226  0.6138  0.1065  0.1488
    7TCq1    C2  100   0.605   4.152  13.356 -0.0270  0.3003 -0.1097
    7TCq1    C3  101   0.741   4.158  13.357 -0.0444  0.4620 -0.6131
    7TCq1    C4  102   0.809   4.055  13.409 -0.0266  0.5480  0.1266
    7TCq1    C5  103   0.739   3.950  13.459  0.8648  0.3424 -0.1076
    7TCq1    C6  104   0.601   3.945  13.435  0.1326 -1.0597 -0.4306
    7TCq1    C7  105   0.538   4.041  13.376 -0.1689 -1.0242 -0.0262
    7TCq1    C8  106   0.541   3.809  13.438  0.9512 -0.4573 -0.1523
    7TCq1    O4  107   0.420   3.801  13.449  0.1874  0.7500 -0.4548
    7TCq1    C9  108   0.954   4.073  13.432  0.3809 -0.2919 -0.5581
    7TCq1    O5  109   1.019   3.985  13.495  0.7848 -0.0555 -0.2665
    7TCq1    O6  110   1.004   4.173  13.383 -0.4961 -0.1265 -0.1740
    7TCq1    H1  111   0.634   4.368  13.413 -0.6122 -0.1443  0.9616
    7TCq1    H2  112   0.795   4.249  13.334  0.1685 -0.3740 -3.5310
    7TCq1    H3  113   0.795   3.873  13.510  1.2565  0.2064 -0.7380
    7TCq1    H4  114   0.434   4.019  13.354 -0.7458  1.9165 -0.2074
    8MPD2     C  115   0.584   3.307  13.353 -0.2083  0.3435  0.0706
    8MPD2    C1  116   0.479   3.377  13.408 -0.4108  0.8219 -0.5385
    8MPD2    C2  117   0.492   3.511  13.433 -0.1991  0.4801 -0.3243
    8MPD2    C3  118   0.608   3.578  13.394  0.5850 -0.2675 -0.0105
    8MPD2    C4  119   0.711   3.511  13.337  1.2246  0.9874  0.5226
    8MPD2    C5  120   0.691   3.375  13.313  0.7790  0.4099  0.4467
    8MPD2     H  121   0.407   3.557  13.482  0.1642  1.9037 -1.0269
    8MPD2    H1  122   0.807   3.557  13.318  1.9958 -1.6705 -2.0482
    8MPD2    H2  123   0.570   3.200  13.342 -0.2092  0.4108 -0.5991
    8MPD2    H3  124   0.773   3.321  13.265 -0.2912 -1.1563  0.3759
    8MPD2     N  125   0.638   3.715  13.406 -0.2093  0.6083 -0.2835
    8MPD2    H5  126   0.732   3.743  13.380  0.7591 -0.9929  1.3908
    8MPD2    N1  127   0.367   3.297  13.423  0.3425 -0.1553 -0.6631
    8MPD2    H7  128   0.362   3.208  13.374  1.3463  0.3465 -1.6485
    9TCq1    O1  129   1.876   2.798  11.001  0.6704  0.0067 -0.4720
    9TCq1    C1  130   1.867   2.843  10.873  0.4005 -0.0718  0.8425
    9TCq1    O2  131   1.808   2.943  10.836 -0.1713  0.3371 -0.1490
    9TCq1    C2  132   1.920   2.742  10.792 -0.5404  0.5112  0.5737
    9TCq1    C3  133   1.985   2.775  10.679 -0.2863  0.2594 -0.2370
    9TCq1    C4  134   2.044   2.687  10.599 -0.5748  0.1087 -0.5392
    9TCq1    C5  135   2.059   2.561  10.636 -1.0719 -0.3056 -0.1100
    9TCq1    C6  136   1.991   2.524  10.750 -0.1838  0.0951  1.1524
    9TCq1    C7  137   1.927   2.610  10.833 -0.0627 -0.7851  0.0581
    9TCq1    C8  138   1.978   2.381  10.774 -0.2006 -0.5244 -0.0114
    9TCq1    O4  139   1.985   2.304  10.677 -0.0010  0.0073 -0.0102
    9TCq1    C9  140   2.116   2.729  10.486  0.0545  0.1905  0.5635
    9TCq1    O5  141   2.154   2.852  10.486 -0.4136  0.1196 -0.2015
    9TCq1    O6  142   2.188   2.641  10.435 -0.6180 -0.0070  0.0676
    9TCq1    H1  143   1.953   2.737  11.003  1.8181  1.5070  0.7151
    9TCq1    H2  144   1.956   2.869  10.634 -0.0746  1.1235  1.4483
    9TCq1    H3  145   2.117   2.486  10.583 -0.0360  0.4075  0.0219
    9TCq1    H4  146   1.873   2.577  10.922 -1.7625  0.7591 -0.3888
   10MPD2     C  147   1.875   2.125  10.890 -0.0635 -0.0700  0.1837
   10MPD2    C1  148   1.922   2.233  10.965  0.0190 -0.7133  0.6888
   10MPD2    C2  149   1.916   2.208  11.102 -0.3263 -1.3163 -0.7175
   10MPD2    C3  150   1.880   2.088  11.160 -0.1723 -0.4818 -0.4071
   10MPD2    C4  151   1.829   1.986  11.081  0.3589 -0.1405 -0.1125
   10MPD2    C5  152   1.829   2.008  10.946  0.4448 -0.0539 -0.6097
   10MPD2     H  153   1.941   2.290  11.169 -1.8574 -0.3496 -1.3252
   10MPD2    H1  154   1.797   1.886  11.110 -0.8482  0.4803  0.6669
   10MPD2    H2  155   1.857   2.137  10.784  1.7379 -1.7386 -0.3229
   10MPD2    H3  156   1.792   1.929  10.882 -1.5090  0.8027 -0.5660
   10MPD2     N  157   1.902   2.057  11.293  0.5978 -0.0470  0.2944
   10MPD2    H5  158   1.883   1.961  11.319 -0.0609  0.2343  0.8489
   10MPD2    N1  159   1.960   2.354  10.911 -0.1669 -0.4802  0.7767
   10MPD2    H7  160   1.977   2.435  10.970  0.4026  0.1584 -0.2603
   11TCq1    O1  161   3.104   2.335  14.349  0.4155  0.0242  0.1112
   11TCq1    C1  162   2.973   2.303  14.327 -0.4241  0.2885 -0.3336
   11TCq1    O2  163   2.920   2.282  14.219 -0.0200  0.0028  0.3303
   11TCq1    C2  164   2.917   2.277  14.456 -0.6001 -0.8098 -0.8609
   11TCq1    C3  165   2.939   2.366  14.555 -0.0588 -0.4328 -0.8890
   11TCq1    C4  166   2.861   2.356  14.666  0.0698 -0.0040 -0.0829
   11TCq1    C5  167   2.751   2.273  14.665 -0.7631 -0.2268 -0.6746
   11TCq1    C6  168   2.734   2.189  14.562 -0.7797 -0.6033 -0.5047
   11TCq1    C7  169   2.810   2.190  14.450 -0.3350  0.1099 -0.3822
   11TCq1    C8  170   2.609   2.111  14.571  0.1502 -0.6050  0.2173
   11TCq1    O4  171   2.534   2.124  14.666 -0.4340  0.2079 -0.0448
   11TCq1    C9  172   2.885   2.440  14.777  0.1485  0.5484 -0.8664
   11TCq1    O5  173   2.966   2.537  14.761  0.6579  0.5096 -0.6500
   11TCq1    O6  174   2.822   2.410  14.880 -0.0469  0.0508  0.1695
   11TCq1    H1  175   3.134   2.346  14.441 -2.6386 -0.8544  1.2153
   11TCq1    H2  176   3.020   2.437  14.545 -0.2854 -0.1180 -0.4915
   11TCq1    H3  177   2.686   2.285  14.751 -2.1987  1.6657 -2.0339
   11TCq1    H4  178   2.789   2.128  14.363  2.5986 -0.1161 -0.9389
   12MPD2     C  179   2.340   2.017  14.474  0.7889 -0.1950  0.1365
   12MPD2    C1  180   2.460   1.986  14.419  0.1325 -0.0324  0.7874
   12MPD2    C2  181   2.465   1.882  14.324 -0.5788  0.2490 -0.2155
   12MPD2    C3  182   2.348   1.818  14.285 -0.7496 -0.5535  0.9769
   12MPD2    C4  183   2.231   1.855  14.341 -0.2914 -0.6557  0.5902
   12MPD2    C5  184   2.226   1.953  14.438  0.1981  0.6935 -0.2422
   12MPD2     H  185   2.563   1.841  14.303 -0.4374  1.1393 -1.2840
   12MPD2    H1  186   2.138   1.804  14.321  0.9104 -2.8319  0.5127
   12MPD2    H2  187   2.332   2.085  14.558  3.4656 -1.0463  1.0585
   12MPD2    H3  188   2.130   1.974  14.485 -0.9741 -0.9190 -1.9237
   12MPD2     N  189   2.362   1.706  14.197  0.0911 -0.4401  0.0162
   12MPD2    H5  190   2.456   1.677  14.172 -0.2706 -0.9552 -0.7102
   12MPD2    N1  191   2.591   2.034  14.463 -0.2449 -0.1876 -0.4421
   12MPD2    H7  192   2.666   2.017  14.396  1.2491 -2.1823  1.7528
   13TCq1    O1  193   1.111   0.544  11.175 -0.8199  0.0828  0.0093
   13TCq1    C1  194   1.180   0.653  11.218  0.1724  0.1968 -0.1715
   13TCq1    O2  195   1.192   0.675  11.337 -0.3727  0.4034 -0.1660
   13TCq1    C2  196   1.229   0.725  11.106  0.0590 -0.4528 -0.3130
   13TCq1    C3  197   1.268   0.659  10.990  0.4628  0.6102 -1.1511
   13TCq1    C4  198   1.353   0.735  10.900 -0.0759  0.5120 -0.1368
   13TCq1    C5  199   1.390   0.862  10.925  0.2603 -0.4685 -0.4343
   13TCq1    C6  200   1.344   0.921  11.043 -0.1467 -0.2717 -0.0779
   13TCq1    C7  201   1.265   0.854  11.133  0.3188 -0.0546 -0.4499
   13TCq1    C8  202   1.397   1.056  11.077  1.2161 -0.6159 -0.6584
   13TCq1    O4  203   1.346   1.119  11.170 -0.2943  0.3072  1.0660
   13TCq1    C9  204   1.409   0.673  10.788 -0.3160  0.3820  0.0474
   13TCq1    O5  205   1.344   0.577  10.745 -0.5215  0.2394  0.1010
   13TCq1    O6  206   1.495   0.730  10.719  0.0717  0.4171 -0.3008
   13TCq1    H1  207   1.092   0.536  11.079 -1.7779  1.9952  0.0301
   13TCq1    H2  208   1.248   0.554  10.972  0.0890  0.0450  2.5914
   13TCq1    H3  209   1.440   0.919  10.847  1.5277 -1.3018 -0.2312
   13TCq1    H4  210   1.231   0.897  11.226  1.2283  1.3495 -0.7517
   14MPD2     C  211   1.701   1.192  10.921 -0.1758  0.4975  0.2251
   14MPD2    C1  212   1.577   1.198  10.980  0.0621 -0.9596  0.3413
   14MPD2    C2  213   1.520   1.323  11.017  0.4843  0.5846  0.1616
   14MPD2    C3  214   1.587   1.439  10.986 -0.6812  0.0024  0.2678
   14MPD2    C4  215   1.711   1.431  10.925  0.2049  0.1793 -0.3113
   14MPD2    C5  216   1.768   1.310  10.895 -0.0408  0.1943  0.1613
   14MPD2     H  217   1.424   1.327  11.067  0.7695  1.2030  0.6611
   14MPD2    H1  218   1.778   1.515  10.910 -0.7366  0.8586 -0.6849
   14MPD2    H2  219   1.742   1.093  10.902  2.0006  1.0729  1.9412
   14MPD2    H3  220   1.871   1.318  10.862  0.2091 -0.0463  0.8715
   14MPD2     N  221   1.526   1.555  11.032  0.3181  0.3513 -0.1415
   14MPD2    H5  222   1.439   1.533  11.079  1.7037 -1.4986  1.5177
   14MPD2    N1  223   1.510   1.076  11.010  0.1373  0.3358 -0.6721
   14MPD2    H7  224   1.544   0.993  10.961 -1.7643  1.2132 -3.4617
   15TCq1    O1  225   2.871   1.855   1.333 -0.5249 -0.6791 -0.3847
   15TCq1    C1  226   2.996   1.821   1.373 -0.0346 -0.0180 -0.2808
   15TCq1    O2  227   3.085   1.795   1.298 -0.2463 -0.5753 -0.1383
   15TCq1    C2  228   3.003   1.783   1.511 -0.1381  0.5127  0.4525
   15TCq1    C3  229   2.926   1.839   1.613 -0.4930  0.4653  0.0162
   15TCq1    C4  230   2.972   1.832   1.744 -0.3760  0.1036 -0.4414
   15TCq1    C5  231   3.100   1.785   1.777 -0.0672 -0.4700  0.0813
   15TCq1    C6  232   3.175   1.723   1.679  0.2126  0.0304 -0.0137
   15TCq1    C7  233   3.123   1.724   1.547 -0.3738  0.0752  0.0161
   15TCq1    C8  234   3.309   1.675   1.700 -0.4689 -0.6834  0.6083
   15TCq1    O4  235   3.361   1.605   1.613  0.4144 -0.2338  0.1801
   15TCq1    C9  236   2.894   1.874   1.853 -0.3230 -0.0698 -0.0165
   15TCq1    O5  237   2.786   1.937   1.823  0.3289 -0.5323  0.3428
   15TCq1    O6  238   2.948   1.871   1.968 -0.6196 -0.2502  0.4835
   15TCq1    H1  239   2.805   1.867   1.405  0.2525  1.0215  0.0591
   15TCq1    H2  240   2.842   1.903   1.592 -1.0844 -0.5327 -0.6934
   15TCq1    H3  241   3.132   1.775   1.880 -0.2807  0.9291  0.2827
   15TCq1    H4  242   3.185   1.691   1.464 -2.6861  0.3415 -1.8423
   16MPD2     C  243   3.485   1.746   2.011  0.5429 -0.4933 -0.2200
   16MPD2    C1  244   3.476   1.689   1.886  0.4944  0.9742  0.1385
   16MPD2    C2  245   3.576   1.630   1.837 -0.2024 -0.1684  0.4695
   16MPD2    C3  246   3.702   1.630   1.900  0.0937 -0.1977  0.0960
   16MPD2    C4  247   3.716   1.700   2.023  0.1497 -0.5499 -0.4940
   16MPD2    C5  248   3.605   1.762   2.078 -0.0746  0.5820 -0.0224
   16MPD2     H  249   3.559   1.574   1.746  3.3419 -0.3618 -0.0638
   16MPD2    H1  250   3.810   1.701   2.077  0.1286  0.5957 -0.4794
   16MPD2    H2  251   3.402   1.797   2.057  0.2905 -2.0963  1.1324
   16MPD2    H3  252   3.626   1.826   2.163 -2.7049 -0.3081  1.2815
   16MPD2     N  253   3.803   1.548   1.841 -0.7642  0.0350  0.0858
   16MPD2    H5  254   3.773   1.500   1.756 -0.9652 -1.2603  0.8789
   16MPD2    N1  255   3.349   1.700   1.829  0.3233  0.5312 -0.0905
   16MPD2    H7  256   3.276   1.743   1.885  0.5806  0.5573  0.2226
   17TCq1    O1  257   1.062   0.155  11.215 -0.3642 -0.4316  0.0497
   17TCq1    C1  258   1.179   0.109  11.266  0.2418 -1.0681 -0.1238
   17TCq1    O2  259   1.205   0.117  11.385  0.1970  0.4585  0.0071
   17TCq1    C2  260   1.276   0.144  11.171 -0.1539  0.1052 -0.3372
   17TCq1    C3  261   1.259   0.115  11.038  0.3132 -0.3705  0.2661
   17TCq1    C4  262   1.309   0.189  10.935  0.2830 -0.0520  0.2895
   17TCq1    C5  263   1.382   0.305  10.968  0.0927  0.5275  0.7065
   17TCq1    C6  264   1.404   0.323  11.104  0.4792 -0.3829  0.0696
   17TCq1    C7  265   1.337   0.258  11.209  0.2048 -0.0891  1.4276
   17TCq1    C8  266   1.468   0.445  11.153 -0.6031  0.1019 -0.2371
   17TCq1    O4  267   1.452   0.478  11.272 -0.3005  0.6967 -0.0336
   17TCq1    C9  268   1.261   0.168  10.797  0.3590  0.7346  0.5273
   17TCq1    O5  269   1.208   0.062  10.768 -0.6638 -0.8027  0.1681
   17TCq1    O6  270   1.284   0.258  10.711  0.6442  0.1367 -0.7320
   17TCq1    H1  271   1.071   0.170  11.119 -1.5863 -0.9755 -0.1428
   17TCq1    H2  272   1.195   0.029  11.020  0.8412 -0.4779 -1.1261
   17TCq1    H3  273   1.411   0.374  10.890  0.0875  0.4219  0.6116
   17TCq1    H4  274   1.361   0.282  11.312 -0.5456 -0.6936  1.7482
   18MPD2     C  275   1.618   0.710  11.174  0.4868  0.3658  0.0004
   18MPD2    C1  276   1.633   0.610  11.072  0.6595 -0.2921  0.0986
   18MPD2    C2  277   1.714   0.636  10.961  0.1406 -0.5861  0.1726
   18MPD2    C3  278   1.795   0.747  10.958  0.1786  0.9459  0.0444
   18MPD2    C4  279   1.778   0.851  11.055 -0.1207 -0.4479  0.6715
   18MPD2    C5  280   1.690   0.828  11.156  0.0774  0.4322  0.3591
   18MPD2     H  281   1.723   0.561  10.883 -0.6383  1.8091 -2.2097
   18MPD2    H1  282   1.840   0.940  11.055 -0.4970 -0.1847  0.1725
   18MPD2    H2  283   1.545   0.703  11.254  0.3565 -0.3517 -0.1855
   18MPD2    H3  284   1.692   0.902  11.236 -0.1520  0.6219  0.1900
   18MPD2     N  285   1.904   0.777  10.866  0.2578  0.4156 -0.5986
   18MPD2    H5  286   1.963   0.857  10.886  1.4917 -0.6916  0.2362
   18MPD2    N1  287   1.552   0.496  11.059 -0.1464 -0.4324  0.5241
   18MPD2    H7  288   1.572   0.439  10.977 -0.8998 -0.8633  0.6330
   19TMC2    C1  289   3.830   2.150  14.068 -0.2430 -0.1230  0.2829
   19TMC2    C2  290   3.791   2.215  13.956  0.1769 -0.0760  0.2313
   19TMC2    C3  291   3.721   2.147  13.867  0.1181  0.2741 -0.0757
   19TMC2    C4  292   3.812   2.013  14.094  0.4250 -0.1376 -0.5050
   19TMC2    C5  293   3.759   1.943  13.994 -0.3921  0.0677  0.3635
   19TMC2    C6  294   3.705   2.009  13.888 -0.0178 -0.1504  0.8455
   19TMC2     C  295   3.897   2.232  14.176  0.0825 -0.4169  0.1167
   19TMC2     O  296   3.943   2.339  14.141 -0.0301 -0.0931 -0.1672
   19TMC2     H  297   3.802   2.323  13.950  0.3901 -0.0629  0.7842
   19TMC2    H1  298   3.858   1.966  14.180 -1.7215 -0.2943  0.5459
   19TMC2    H2  299   3.643   1.955  13.817 -0.4689  1.0272  0.3510
   19TMC2    C7  300   3.673   1.838  14.047 -0.0904 -0.1147  0.0651
   19TMC2    C8  301   3.689   2.207  13.744  0.1192  0.2575  0.4947
   19TMC2    O1  302   3.703   1.805  14.161  0.1897 -0.2535  0.1917
   19TMC2    O2  303   3.689   2.143  13.641 -0.2908  0.0154  0.0958
   19TMC2    O5  304   3.625   2.321  13.777  0.1473 -0.7063 -0.4540
   19TMC2    H5  305   3.607   2.329  13.873  0.2059  0.5494 -0.5461
   20MPD2     C  306   4.036   2.311  14.432 -0.2078 -0.2833  0.0698
   20MPD2    C1  307   3.947   2.205  14.423  0.0265 -0.1616  0.6417
   20MPD2    C2  308   3.910   2.137  14.539  0.1350 -0.5685 -0.0522
   20MPD2    C3  309   3.969   2.172  14.660  0.7023  0.4908  0.5202
   20MPD2    C4  310   4.059   2.277  14.668 -0.4471  0.8872 -0.8254
   20MPD2    C5  311   4.085   2.346  14.555  0.0283 -0.6361  0.3208
   20MPD2     H  312   3.831   2.064  14.522 -1.6179  2.0017 -2.8954
   20MPD2    H1  313   4.126   2.296  14.751 -0.4462 -1.0365 -0.3833
   20MPD2    H2  314   4.060   2.381  14.353  3.5576 -2.3392 -0.5997
   20MPD2    H3  315   4.156   2.428  14.559 -0.8331  0.0867  0.7575
   20MPD2     N  316   3.947   2.103  14.780 -0.6125  0.1832 -0.0910
   20MPD2    H5  317   3.989   2.140  14.864 -1.9788  0.4921  0.4539
   20MPD2    N1  318   3.876   2.173  14.301  0.1403  0.1551  0.0017
   20MPD2    H7  319   3.824   2.086  14.306  3.1522 -1.5808  0.9009
   21MPD2     C  320   1.573   2.927  14.621 -0.0372  0.1543  0.2010
   21MPD2    C1  321   1.596   2.833  14.523 -0.0629 -0.5604  0.6693
   21MPD2    C2  322   1.484   2.762  14.469  0.3906 -0.1571  0.3825
   21MPD2    C3  323   1.353   2.796  14.514  0.0091 -0.1153 -0.7502
   21MPD2    C4  324   1.337   2.897  14.604 -0.0934  0.3352  0.2285
   21MPD2    C5  325   1.444   2.959  14.667  0.1794 -0.3721 -0.3307
   21MPD2     H  326   1.507   2.696  14.386  0.6639 -0.9889  1.1265
   21MPD2    H1  327   1.243   2.944  14.628  0.0906  2.1708 -2.7075
   21MPD2    H2  328   1.659   2.970  14.671  0.4031 -1.7424  1.0847
   21MPD2    H3  329   1.430   3.037  14.741 -0.7700 -1.0549  0.2059
   21MPD2     N  330   1.237   2.740  14.463 -0.4204  0.0688  0.3023
   21MPD2    H5  331   1.149   2.775  14.499  0.4223  1.4044  1.0616
   21MPD2    N1  332   1.719   2.795  14.475 -0.5451 -0.1777 -0.5757
   21MPD2    H7  333   1.725   2.723  14.403  1.1748 -0.0014 -0.6157
   22TCq2    C1  334   1.231   2.648  14.359  0.4863  0.7750 -0.0943
   22TCq2    O2  335   1.313   2.612  14.275  0.2161  0.2175  0.4266
   22TCq2    C2  336   1.093   2.603  14.330  0.1709 -0.2477  0.2227
   22TCq2    C3  337   1.075   2.552  14.201  0.2440  0.3021  0.1193
   22TCq2    C4  338   0.957   2.541  14.142 -0.0376  0.6503 -0.3179
   22TCq2    C5  339   0.848   2.594  14.197 -0.1537  0.4658 -0.4517
   22TCq2    C6  340   0.863   2.646  14.322 -0.5511  0.0993  0.0023
   22TCq2    C7  341   0.985   2.654  14.389  0.2913 -0.4637  0.3645
   22TCq2    C8  342   0.743   2.704  14.384  0.2764 -0.1575  0.3138
   22TCq2    O4  343   0.669   2.759  14.306 -0.6108 -0.2961  0.5260
   22TCq2    C9  344   0.943   2.477  14.013  0.5903 -0.9689  0.1663
   22TCq2    O5  345   0.834   2.423  13.976 -0.0892  0.1641  0.8388
   22TCq2    O6  346   1.044   2.453  13.947  0.3786 -0.0106  0.7745
   22TCq2    H2  347   1.165   2.517  14.153 -1.5780 -3.1997 -0.7666
   22TCq2    H3  348   0.745   2.598  14.165 -0.7403  1.4949  1.5316
   22TCq2    H4  349   0.993   2.701  14.486 -1.4989 -1.5248  1.0284
   23MPD2     C  350   2.683   2.909  14.547  0.0056 -0.6321  0.0842
   23MPD2    C1  351   2.630   2.970  14.667  0.5286 -0.5371 -0.0358
   23MPD2    C2  352   2.570   3.094  14.653 -0.2262 -0.3647  0.2799
   23MPD2    C3  353   2.556   3.165  14.535  0.4423 -0.0732  0.4465
   23MPD2    C4  354   2.605   3.101  14.419  0.0241 -0.5950  0.6919
   23MPD2    C5  355   2.672   2.982  14.428 -0.1383  0.8482  0.2291
   23MPD2     H  356   2.544   3.139  14.748  3.7435  0.7612  0.8514
   23MPD2    H1  357   2.597   3.147  14.321  1.4894 -0.3472  0.6893
   23MPD2    H2  358   2.732   2.813  14.546  0.8536 -0.2000  0.3471
   23MPD2    H3  359   2.729   2.951  14.342 -0.5731  1.3397 -0.2328
   23MPD2     N  360   2.498   3.293  14.520 -0.0215  0.0265  0.3559
   23MPD2    H5  361   2.482   3.326  14.426 -1.4229  0.2751  0.6820
   23MPD2    N1  362   2.615   2.907  14.794 -0.3911  0.1117  0.1037
   23MPD2    H7  363   2.564   2.966  14.860 -0.3480  0.7410 -0.4246
   24TCq2    C1  364   2.439   3.366  14.628 -0.3774 -0.2719  0.1537
   24TCq2    O2  365   2.474   3.353  14.747  0.0036 -0.1019  0.1283
   24TCq2    C2  366   2.342   3.465  14.583 -0.4017 -0.3423 -0.1937
   24TCq2    C3  367   2.312   3.477  14.450  0.2847  0.6066  0.1021
   24TCq2    C4  368   2.188   3.525  14.410  0.5232 -0.2813  0.1013
   24TCq2    C5  369   2.097   3.564  14.508  0.3642  0.8469  0.8964
   24TCq2    C6  370   2.129   3.553  14.636 -0.3197  0.2127  0.4735
   24TCq2    C7  371   2.249   3.498  14.675  0.8488  0.6836 -0.2574
   24TCq2    C8  372   2.040   3.602  14.737  0.8897 -0.2438  0.2122
   24TCq2    O4  373   2.066   3.578  14.855  0.1835  0.4269 -0.1323
   24TCq2    C9  374   2.156   3.555  14.274  0.0122 -0.8663 -0.1089
   24TCq2    O5  375   2.253   3.555  14.196  0.0828  0.2717  0.2018
   24TCq2    O6  376   2.031   3.576  14.255 -0.1826  0.7285  0.0614
   24TCq2    H2  377   2.369   3.446  14.363  0.0041 -0.1988  0.2015
   24TCq2    H3  378   2.003   3.594  14.464 -0.8169 -1.6199  1.7176
   24TCq2    H4  379   2.284   3.490  14.777 -1.5596 -0.5329  0.4838
   25TMC2    C1  380   1.808   0.122  11.531 -0.6560  0.1725 -0.4651
   25TMC2    C2  381   1.939   0.150  11.518 -0.1806  0.0114 -0.4852
   25TMC2    C3  382   2.001   0.239  11.600  0.0427  0.2078  0.3547
   25TMC2    C4  383   1.729   0.171  11.636  0.0171 -0.2207 -0.1831
   25TMC2    C5  384   1.803   0.239  11.732 -0.8021 -0.4037 -0.3733
   25TMC2    C6  385   1.934   0.282  11.707 -0.1808  0.3417  0.7379
   25TMC2     C  386   1.758   0.023  11.445  0.0816  0.4041  0.4245
   25TMC2     O  387   1.849   4.690  11.390  0.7239  0.5849  0.7450
   25TMC2     H  388   1.986   0.135  11.422  0.9889 -3.5980  0.6617
   25TMC2    H1  389   1.625   0.152  11.657 -0.0275 -1.1344 -1.2218
   25TMC2    H2  390   1.990   0.348  11.773  0.3066  2.3277 -1.6572
   25TMC2    C7  391   1.733   0.315  11.831 -0.2752  0.0343 -0.3066
   25TMC2    C8  392   2.128   0.302  11.549  0.0802 -0.0565  0.2133
   25TMC2    O1  393   1.651   0.249  11.890  0.5545 -0.2875  0.7689
   25TMC2    O2  394   2.148   0.361  11.443 -0.2143  0.6366  0.0696
   25TMC2    O5  395   2.188   0.338  11.666  0.3346 -0.7418  0.2686
   25TMC2    H5  396   2.173   0.270  11.735  1.0388 -1.2041 -0.0285
   26MPD2     C  397   1.444   4.494  11.129 -0.0361  0.2858  0.0942
   26MPD2    C1  398   1.372   4.531  11.236 -0.0406  0.0459 -0.0721
   26MPD2    C2  399   1.440   4.608  11.337 -1.1813 -0.2137  0.0632
   26MPD2    C3  400   1.572   4.653  11.326  0.8616  0.1986 -0.4483
   26MPD2    C4  401   1.638   4.600  11.216 -0.1605 -0.0641  1.2262
   26MPD2    C5  402   1.583   4.523  11.118 -0.0667  0.4948 -0.4941
   26MPD2     H  403   1.374   4.638  11.417 -2.3820  0.7711 -1.3022
   26MPD2    H1  404   1.742   4.626  11.199  0.0273 -1.4701  0.1931
   26MPD2    H2  405   1.404   4.422  11.058  1.8809  0.3286 -1.0236
   26MPD2    H3  406   1.639   4.477  11.038 -1.1732 -1.8405  0.0736
   26MPD2     N  407   1.623   0.009  11.430  0.5653  0.1922 -0.0443
   26MPD2    H5  408   1.561   0.061  11.492 -1.1093 -3.4240  1.2994
   26MPD2    N1  409   1.240   4.484  11.237  0.0265  0.3872 -0.2466
   26MPD2    H7  410   1.206   4.450  11.148 -0.4102 -0.3845  0.2166
   27TMC2    C1  411   0.262   2.680  12.128  0.5155 -0.2158  0.5307
   27TMC2    C2  412   0.171   2.774  12.079  0.0428  0.5723 -0.1532
   27TMC2    C3  413   0.218   2.901  12.063  0.3732 -0.1359  0.1300
   27TMC2    C4  414   0.401   2.703  12.136 -0.4760  0.6096  0.3841
   27TMC2    C5  415   0.438   2.833  12.124 -0.3596  0.5559  0.5113
   27TMC2    C6  416   0.351   2.937  12.087  0.4089  0.0302  0.0316
   27TMC2     C  417   0.219   2.575  12.218  0.0125  0.3951  0.8644
   27TMC2     O  418   0.303   2.489  12.244 -0.5281  0.4686 -0.5195
   27TMC2     H  419   0.070   2.743  12.054  0.4254 -1.6119  1.0389
   27TMC2    H1  420   0.483   2.636  12.156 -0.5284  0.3600 -0.2449
   27TMC2    H2  421   0.376   3.040  12.069 -1.8303  0.2665 -1.6986
   27TMC2    C7  422   0.566   2.861  12.166 -0.2894 -0.6710  0.4571
   27TMC2    C8  423   0.145   2.988  11.965  0.7123 -0.4551  0.5141
   27TMC2    O1  424   0.655   2.804  12.099  0.1576  0.0835  0.6306
   27TMC2    O2  425   0.138   2.957  11.852  0.0902  0.0033 -0.3864
   27TMC2    O5  426   0.162   3.112  12.003  0.3543 -0.1960 -0.0628
   27TMC2    H5  427   0.172   3.111  12.101  0.4122  2.3021 -0.0375
   28MPD2     C  428   4.651   2.376  12.596 -1.0643 -0.0450 -0.0821
   28MPD2    C1  429   4.591   2.485  12.546  0.0160 -0.2622  0.4071
   28MPD2    C2  430   4.649   2.552  12.436  0.0545  0.1110 -0.1344
   28MPD2    C3  431   0.042   2.511  12.378  0.1223 -0.0285 -0.1181
   28MPD2    C4  432   0.097   2.396  12.432 -0.1033 -0.2295 -0.0926
   28MPD2    C5  433   0.042   2.340  12.543  0.0666 -0.4195  0.0756
   28MPD2     H  434   4.600   2.636  12.389  0.2333  0.1231 -0.3003
   28MPD2    H1  435   0.191   2.352  12.401  1.0624  0.7164  2.0547
   28MPD2    H2  436   4.608   2.319  12.678  0.3438  0.3866  0.9489
   28MPD2    H3  437   0.098   2.251  12.571 -0.8208 -0.7749  0.7479
   28MPD2     N  438   0.094   2.593  12.272  0.1591 -0.4309 -0.3313
   28MPD2    H5  439   0.038   2.670  12.238 -0.8956 -1.2155 -0.3941
   28MPD2    N1  440   4.471   2.529  12.613  0.1708 -0.4076  0.0996
   28MPD2    H7  441   4.452   2.480  12.700 -0.4622 -0.5186 -0.1007
   29MPD2     C  442   4.161   0.431  14.245 -0.4804 -0.3108 -0.3215
   29MPD2    C1  443   4.251   0.410  14.350 -0.7312  0.1238 -0.2090
   29MPD2    C2  444   4.291   0.517  14.425  0.3225  0.4840  0.1950
   29MPD2    C3  445   4.240   0.646  14.404 -0.0962  0.3252 -0.6403
   29MPD2    C4  446   4.159   0.667  14.297  0.5841 -0.1913 -0.3208
   29MPD2    C5  447   4.117   0.559  14.222 -0.4319  0.3145 -0.0453
   29MPD2     H  448   4.364   0.516  14.505  0.3135  0.0320  0.1975
   29MPD2    H1  449   4.111   0.760  14.269  1.4524  0.0517 -1.0227
   29MPD2    H2  450   4.112   0.349  14.194  0.0592  0.2603 -1.7691
   29MPD2    H3  451   4.050   0.572  14.137  0.1447  2.6088 -0.1257
   29MPD2     N  452   4.262   0.759  14.493 -0.3360 -0.8124 -0.0454
   29MPD2    H5  453   4.209   0.844  14.477  1.2711  0.3403  0.7395
   29MPD2    N1  454   4.322   0.287  14.378  0.0776 -1.1601  0.1030
   29MPD2    H7  455   4.391   0.282  14.453  1.5060  0.6977 -1.0906
   30TCq2    C1  456   4.312   0.747  14.617  0.3251  0.1681 -0.3872
   30TCq2    O2  457   4.339   0.646  14.684  0.1955 -0.0287  0.7610
   30TCq2    C2  458   4.301   0.871  14.696  0.7095  0.3411  0.5255
   30TCq2    C3  459   4.281   0.857  14.826 -0.1238  0.1730  0.6244
   30TCq2    C4  460   4.271   0.969  14.907  0.0946 -0.1558 -0.8762
   30TCq2    C5  461   4.281   1.092  14.855  0.3258  1.0944 -0.1738
   30TCq2    C6  462   4.286   1.100  14.712 -0.4132  0.1915 -0.1243
   30TCq2    C7  463   4.307   0.992  14.633  0.9320 -0.4966 -0.0751
   30TCq2    C8  464   4.279   1.226  14.644 -0.1033  0.7505  0.8434
   30TCq2    O4  465   4.233   1.224  14.528  0.2520  0.1835 -0.1430
   30TCq2    C9  466   4.239   0.954  15.047 -0.6187  0.1319  0.4634
   30TCq2    O5  467   4.196   0.840  15.089  0.0343 -0.2899 -0.1023
   30TCq2    O6  468   4.237   1.065  15.115  0.0300 -0.7522  0.2613
   30TCq2    H2  469   4.284   0.761  14.876  0.7498  0.4341  1.0711
   30TCq2    H3  470   4.291   1.175  14.924 -1.8171  0.8705  0.4062
   30TCq2    H4  471   4.325   1.004  14.527  0.3636 -0.8034 -0.2091
   31MPD2     C  472   2.014   4.011  14.980  0.5149 -0.0656 -0.1890
   31MPD2    C1  473   1.940   4.125  14.989 -0.4291  0.3139 -0.2711
   31MPD2    C2  474   1.846   4.150  15.082 -0.2349 -0.0518 -0.1904
   31MPD2    C3  475   1.842   4.064  15.187  1.1686  0.3089  0.1071
   31MPD2    C4  476   1.922   3.944  15.185 -0.0753  0.7946  0.2225
   31MPD2    C5  477   2.006   3.920  15.080  0.4841  0.1900 -0.5616
   31MPD2     H  478   1.789   4.242  15.085  0.4776  0.4747 -2.4252
   31MPD2    H1  479   1.915   3.871  15.264  0.8469 -1.7179 -2.0162
   31MPD2    H2  480   2.079   3.996  14.895  1.1818 -0.9530  0.4698
   31MPD2    H3  481   2.060   3.828  15.066 -2.8659 -2.3388  2.9445
   31MPD2     N  482   1.764   4.081  15.301 -0.0166 -0.3652  1.0888
   31MPD2    H5  483   1.785   4.023  15.381  1.5037 -0.9030  0.2908
   31MPD2    N1  484   1.964   4.216  14.882 -0.6564 -0.1835 -0.6660
   31MPD2    H7  485   2.034   4.183  14.816  3.3867  0.2115  3.4109
   32TCq2    C1  486   1.647   4.155  15.312  0.1306  0.3269 -0.0193
   32TCq2    O2  487   1.589   4.222  15.225 -0.7346 -0.1781 -0.0513
   32TCq2    C2  488   1.563   4.090  15.409 -0.0083  0.3276  0.3685
   32TCq2    C3  489   1.424   4.083  15.389 -0.6179  0.3519  0.3161
   32TCq2    C4  490   1.345   4.019  15.484  0.0348  0.6645 -0.0468
   32TCq2    C5  491   1.410   3.956  15.586  0.0292 -0.0432 -1.0379
   32TCq2    C6  492   1.542   3.968  15.602  0.5437 -0.9291 -0.2377
   32TCq2    C7  493   1.626   4.038  15.516  0.1345 -0.0942 -0.0098
   32TCq2    C8  494   1.607   3.902  15.706  0.5476 -0.0812 -0.3674
   32TCq2    O4  495   1.716   3.855  15.683  0.4301 -0.4915  0.0780
   32TCq2    C9  496   1.204   4.008  15.473 -0.8724 -0.3430  0.6228
   32TCq2    O5  497   1.162   4.017  15.356  0.0902  0.1665  0.1126
   32TCq2    O6  498   1.142   3.978  15.579  0.0979 -0.0991  0.2630
   32TCq2    H2  499   1.372   4.131  15.306  1.6068 -0.0822 -1.3300
   32TCq2    H3  500   1.349   3.894  15.651  0.1431  3.4986  2.4157
   32TCq2    H4  501   1.731   4.051  15.538  0.1792 -0.1886 -0.1634
   33MPD2     C  502   2.123   0.367  10.203  0.2834 -0.1519 -0.1532
   33MPD2    C1  503   2.176   0.497  10.196 -0.2844 -0.6836 -0.0584
   33MPD2    C2  504   2.261   0.533  10.094  0.6543 -0.1230  1.1478
   33MPD2    C3  505   2.291   0.450   9.992 -0.2018 -0.2828 -0.1837
   33MPD2    C4  506   2.239   0.324  10.002  0.4075  0.5430  0.3230
   33MPD2    C5  507   2.157   0.286  10.105  0.3889 -0.7364  0.2185
   33MPD2     H  508   2.304   0.631  10.079 -0.2625  0.0059 -0.6516
   33MPD2    H1  509   2.268   0.254   9.925 -2.4265 -0.3482  0.0815
   33MPD2    H2  510   2.066   0.329  10.287  2.0691 -1.2713  0.5654
   33MPD2    H3  511   2.124   0.182  10.102  3.1354 -1.6492  1.8559
   33MPD2     N  512   2.385   0.478   9.885  0.3138  0.0346  0.2271
   33MPD2    H5  513   2.411   0.411   9.813  1.2445 -0.9833  1.4917
   33MPD2    N1  514   2.155   0.575  10.312  0.0398 -0.2074 -0.1021
   33MPD2    H7  515   2.097   0.534  10.385 -1.4805  2.5448  0.2529
   34TCq2    C1  516   2.451   0.597   9.866 -0.0079 -0.3216  0.8851
   34TCq2    O2  517   2.428   0.706   9.915  0.0432 -0.9100 -0.1004
   34TCq2    C2  518   2.538   0.595   9.750 -0.5665  0.2443  0.0163
   34TCq2    C3  519   2.602   0.481   9.717 -0.0700  0.0653  0.6458
   34TCq2    C4  520   2.711   0.488   9.630 -0.1168 -0.5918  0.3090
   34TCq2    C5  521   2.754   0.610   9.578  0.3134  0.3115 -0.5770
   34TCq2    C6  522   2.681   0.721   9.618 -0.7953 -0.0690  0.3838
   34TCq2    C7  523   2.576   0.721   9.707 -0.2706 -0.0019 -0.1083
   34TCq2    C8  524   2.716   0.854   9.565  0.3886 -0.3648  0.1641
   34TCq2    O4  525   2.649   0.946   9.612 -0.5630 -0.0670  0.1335
   34TCq2    C9  526   2.761   0.364   9.579 -0.1813  0.1143 -0.7944
   34TCq2    O5  527   2.829   0.370   9.477 -0.0917 -0.1490 -0.3513
   34TCq2    O6  528   2.698   0.260   9.617  0.0787 -0.1217 -0.0691
   34TCq2    H2  529   2.574   0.386   9.761  0.3368  1.0026  2.9515
   34TCq2    H3  530   2.838   0.609   9.510 -0.4224  0.7501 -1.4973
   34TCq2    H4  531   2.511   0.804   9.730  0.0723  0.4175 -0.6602
   35MPD2     C  532   3.915   3.027  11.996  0.1262  0.3480 -0.1007
   35MPD2    C1  533   3.843   2.921  11.945 -1.0318  0.0183 -0.4484
   35MPD2    C2  534   3.805   2.902  11.813 -0.4392 -0.3386  0.4836
   35MPD2    C3  535   3.855   2.993  11.720 -0.2498 -0.7245 -0.7071
   35MPD2    C4  536   3.926   3.100  11.764  0.0238 -0.5839  0.0220
   35MPD2    C5  537   3.954   3.122  11.901  0.4849 -0.0468  0.4624
   35MPD2     H  538   3.744   2.818  11.783  0.6509 -1.3433  1.0384
   35MPD2    H1  539   3.967   3.174  11.695  0.5818 -1.5471 -0.6823
   35MPD2    H2  540   3.921   3.046  12.102 -3.0028 -1.5279  0.4253
   35MPD2    H3  541   3.994   3.219  11.928 -0.7782  0.2771  1.1732
   35MPD2     N  542   3.810   2.975  11.586 -0.5230  0.2825  0.0077
   35MPD2    H5  543   3.746   2.898  11.569 -1.4017  1.2737 -1.2787
   35MPD2    N1  544   3.797   2.818  12.037  0.1286 -0.4596 -0.1123
   35MPD2    H7  545   3.811   2.839  12.135 -0.7056  0.2574 -0.1508
   36TCq2    C1  546   3.858   3.046  11.477 -0.5038 -0.2519 -0.2917
   36TCq2    O2  547   3.929   3.145  11.477  0.1845  0.2974  0.2302
   36TCq2    C2  548   3.804   3.006  11.346 -0.2118  1.0688 -0.8164
   36TCq2    C3  549   3.833   3.075  11.228  0.0921 -0.1947 -0.4259
   36TCq2    C4  550   3.774   3.047  11.105 -0.5891  0.2881 -0.0987
   36TCq2    C5  551   3.685   2.946  11.096 -0.5594  0.1901 -0.2077
   36TCq2    C6  552   3.661   2.880  11.212  0.2328  0.1127 -0.0709
   36TCq2    C7  553   3.714   2.902  11.335  1.1726 -0.1950 -0.2262
   36TCq2    C8  554   3.578   2.758  11.203  0.0576 -0.5520 -0.6984
   36TCq2    O4  555   3.606   2.643  11.235 -0.7254  0.4773 -0.1178
   36TCq2    C9  556   3.823   3.117  10.991  0.8507  0.4650 -0.3013
   36TCq2    O5  557   3.746   3.171  10.911  0.8890 -0.2666  0.2424
   36TCq2    O6  558   3.947   3.156  11.002 -0.3448  0.4435 -0.6987
   36TCq2    H2  559   3.908   3.153  11.231  0.3450 -0.4755  0.6803
   36TCq2    H3  560   3.640   2.917  11.002  0.8140 -0.9652 -0.4975
   36TCq2    H4  561   3.689   2.824  11.406 -0.3330  0.0133 -0.5166
   37TMC2    C1  562   1.336   3.160  11.521 -0.2971 -0.1482 -0.3581
   37TMC2    C2  563   1.345   3.261  11.429  0.5024 -0.3983 -0.3891
   37TMC2    C3  564   1.463   3.272  11.358  0.1843  0.2479  0.1258
   37TMC2    C4  565   1.441   3.068  11.538  0.1145 -0.2088 -0.5218
   37TMC2    C5  566   1.551   3.075  11.455  0.3819 -0.3101  0.6785
   37TMC2    C6  567   1.561   3.177  11.359 -0.0409  0.1738  0.6099
   37TMC2     C  568   1.212   3.150  11.602 -0.0157  0.0555  0.0378
   37TMC2     O  569   1.113   3.210  11.560 -0.0790  0.0289 -0.0124
   37TMC2     H  570   1.264   3.331  11.412 -0.8325 -2.0975 -1.0230
   37TMC2    H1  571   1.447   2.991  11.615  1.3598 -0.0730 -0.4731
   37TMC2    H2  572   1.659   3.206  11.323 -0.1749  1.6590  1.4018
   37TMC2    C7  573   1.672   3.026  11.514 -0.2716  0.4387 -0.9428
   37TMC2    C8  574   1.495   3.395  11.286 -0.0253 -0.3567 -1.1090
   37TMC2    O1  575   1.686   3.004  11.632 -0.1543 -0.1199  0.7215
   37TMC2    O2  576   1.609   3.434  11.265 -0.0494 -0.1685 -0.6538
   37TMC2    O5  577   1.398   3.396  11.190  0.1448 -0.2157 -0.1215
   37TMC2    H5  578   1.330   3.326  11.192 -0.7329  0.6355 -0.3180
   38MPD2     C  579   1.006   3.062  12.065  0.0260  0.9216  0.0059
   38MPD2    C1  580   1.130   2.999  12.058 -0.1761  0.2581 -0.3981
   38MPD2    C2  581   1.199   3.004  11.937  0.2825 -0.4397 -0.6145
   38MPD2    C3  582   1.143   3.062  11.826  0.1005 -0.3102 -0.6112
   38MPD2    C4  583   1.013   3.108  11.836 -0.5540 -1.1383 -0.2544
   38MPD2    C5  584   0.942   3.099  11.950 -0.2192  0.1800 -0.1460
   38MPD2     H  585   1.295   2.956  11.927 -0.4548 -1.7384 -1.5102
   38MPD2    H1  586   0.956   3.146  11.752 -0.4745  0.2270  0.3101
   38MPD2    H2  587   0.950   3.061  12.157  1.0658 -2.6319  0.5993
   38MPD2    H3  588   0.839   3.132  11.952 -1.0028 -2.3358  1.2278
   38MPD2     N  589   1.227   3.071  11.713 -0.0898 -0.2533  0.3514
   38MPD2    H5  590   1.316   3.024  11.728  0.1620  0.2669  0.4687
   38MPD2    N1  591   1.196   2.938  12.166  0.1553 -0.5967 -0.5344
   38MPD2    H7  592   1.273   2.881  12.134  0.0339 -0.4076 -1.1676
   39MPD2     C  593   4.178   1.001   1.947  0.3973  0.0595  0.0255
   39MPD2    C1  594   4.067   1.074   1.968  0.2647 -0.1576 -0.0054
   39MPD2    C2  595   3.963   1.070   1.882  0.1760  0.6241 -0.7066
   39MPD2    C3  596   3.962   0.980   1.776 -0.2077  0.5871  0.0668
   39MPD2    C4  597   4.068   0.894   1.754  0.3683  0.4072  0.1020
   39MPD2    C5  598   4.182   0.928   1.832 -0.6996  0.1931  0.5685
   39MPD2     H  599   3.883   1.139   1.907  0.4988  0.3544  1.0636
   39MPD2    H1  600   4.080   0.837   1.663 -0.0409 -1.7894  1.4164
   39MPD2    H2  601   4.269   1.023   2.002  0.4036 -0.3356  0.1776
   39MPD2    H3  602   4.276   0.885   1.801 -0.4988  0.6330  0.5629
   39MPD2     N  603   3.853   0.973   1.682  0.6380  0.4872  0.2894
   39MPD2    H5  604   3.851   0.905   1.606  2.4621  0.4049  0.3207
   39MPD2    N1  605   4.068   1.159   2.081 -0.2081  0.1980 -0.2156
   39MPD2    H7  606   4.154   1.148   2.134 -1.3868 -2.3206  1.1889
   40TCq2    C1  607   3.971   1.253   2.117 -0.1184 -0.6741 -0.0567
   40TCq2    O2  608   3.855   1.258   2.090 -0.1172 -0.0652  0.0878
   40TCq2    C2  609   4.026   1.338   2.222  0.0120 -0.1346  0.7025
   40TCq2    C3  610   3.930   1.409   2.297  0.4283  0.1073  0.2491
   40TCq2    C4  611   3.980   1.481   2.403  0.0255 -0.2586 -0.1015
   40TCq2    C5  612   4.111   1.503   2.432  0.2426 -0.1331 -0.5297
   40TCq2    C6  613   4.203   1.449   2.347  0.5340  0.2624  0.8752
   40TCq2    C7  614   4.164   1.365   2.237  0.0059 -0.7810  0.2023
   40TCq2    C8  615   4.339   1.444   2.388 -0.1372  0.1217  0.1236
   40TCq2    O4  616   4.354   1.446   2.509  0.2393 -0.5521  0.1789
   40TCq2    C9  617   3.886   1.553   2.486  0.2385  0.3218 -0.4575
   40TCq2    O5  618   3.760   1.534   2.469  0.0424 -0.0575 -0.0255
   40TCq2    O6  619   3.935   1.634   2.571 -0.9105 -0.2461  0.2634
   40TCq2    H2  620   3.826   1.414   2.265  1.1123  1.4762 -1.7317
   40TCq2    H3  621   4.143   1.548   2.526  0.9277  0.4519 -1.0356
   40TCq2    H4  622   4.237   1.312   2.177 -1.5238  0.8729 -3.1225
   41TMC2    C1  623   3.126   3.565  13.836 -0.4347  0.2041  0.2853
   41TMC2    C2  624   3.163   3.649  13.932 -0.2344 -0.6019  0.0896
   41TMC2    C3  625   3.208   3.771  13.896  0.0389 -0.2233  0.2428
   41TMC2    C4  626   3.125   3.597  13.701 -0.3660 -0.0808 -0.3040
   41TMC2    C5  627   3.172   3.723  13.670 -0.2758 -0.6065 -0.0693
   41TMC2    C6  628   3.207   3.815  13.765 -0.8209 -0.1696  0.7610
   41TMC2     C  629   3.134   3.429  13.871  0.3801  0.4494  0.0916
   41TMC2     O  630   3.189   3.357  13.788 -0.1680  0.1908 -0.3384
   41TMC2     H  631   3.174   3.612  14.034  1.1512 -1.7893 -0.4914
   41TMC2    H1  632   3.081   3.538  13.621  0.4314 -0.2823 -0.5909
   41TMC2    H2  633   3.251   3.911  13.741 -0.3010 -0.6664 -0.2964
   41TMC2    C7  634   3.133   3.783  13.543  0.7407 -0.1824  0.6396
   41TMC2    C8  635   3.200   3.877  13.995 -0.5626 -0.6002  0.8651
   41TMC2    O1  636   3.081   3.892  13.552  0.4096 -0.6249  0.0774
   41TMC2    O2  637   3.282   3.970  13.996  0.0031 -0.0245 -0.4496
   41TMC2    O5  638   3.088   3.858  14.067  0.7932  0.2852  0.3942
   41TMC2    H5  639   3.044   3.774  14.040 -1.2057  2.0933 -1.9537
   42MPD2     C  640   3.106   3.166  14.006 -0.1622  0.3453 -0.0844
   42MPD2    C1  641   3.062   3.287  14.056 -0.6027  0.0291 -0.6809
   42MPD2    C2  642   3.019   3.294  14.182  0.5830 -0.0916 -0.9247
   42MPD2    C3  643   3.025   3.184  14.265 -0.8891 -0.0783  0.0584
   42MPD2    C4  644   3.074   3.060  14.217 -0.0966  0.5617  0.1644
   42MPD2    C5  645   3.114   3.056  14.088  0.7746 -0.3503  0.1671
   42MPD2     H  646   2.981   3.387  14.222  1.2893 -0.5640  0.8539
   42MPD2    H1  647   3.072   2.965  14.268 -3.5842  1.2774  1.3782
   42MPD2    H2  648   3.135   3.145  13.903 -0.9406 -0.2098 -0.1918
   42MPD2    H3  649   3.168   2.970  14.049 -0.9987 -1.4801  0.2024
   42MPD2     N  650   2.969   3.178  14.396 -0.5110 -0.2850 -0.2912
   42MPD2    H5  651   2.979   3.087  14.441  2.6364  0.3115  0.1770
   42MPD2    N1  652   3.062   3.406  13.981  0.1108  0.8030 -0.1826
   42MPD2    H7  653   3.021   3.492  14.018  0.5092  0.0979  1.9020
   43MPD2     C  654   4.204   1.667   0.782  0.1143  0.0209  0.3470
   43MPD2    C1  655   4.328   1.661   0.837  0.2537 -0.1041 -0.1344
   43MPD2    C2  656   4.342   1.729   0.962  0.1958  0.5014  0.7479
   43MPD2    C3  657   4.240   1.780   1.033  0.4102  0.0425 -0.8001
   43MPD2    C4  658   4.114   1.770   0.977 -0.4205  0.4172 -0.0971
   43MPD2    C5  659   4.097   1.714   0.855 -0.1858 -0.0714 -0.0582
   43MPD2     H  660   4.442   1.733   1.003  1.1600 -0.3736 -1.5074
   43MPD2    H1  661   4.033   1.816   1.032 -1.5845 -1.9464  0.1874
   43MPD2    H2  662   4.184   1.629   0.682 -1.5627 -0.8100  0.9992
   43MPD2    H3  663   3.997   1.714   0.814  0.5176 -0.6544 -1.7557
   43MPD2     N  664   4.261   1.846   1.153  0.1464 -0.1758 -0.1131
   43MPD2    H5  665   4.189   1.911   1.182 -0.7843 -1.6839  1.0049
   43MPD2    N1  666   4.438   1.605   0.772 -0.1601  0.3383  0.6568
   43MPD2    H7  667   4.520   1.589   0.829 -0.0622 -0.6577  0.2421
   44TCq2    C1  668   4.474   1.902   1.696  0.2595  1.3553  0.0922
   44TCq2    O2  669   4.541   1.800   1.674  0.0252  0.0856  0.0200
   44TCq2    C2  670   4.407   1.953   1.575 -0.8466 -0.3839 -0.7882
   44TCq2    C3  671   4.356   2.083   1.566 -0.4982  0.3797 -0.1210
   44TCq2    C4  672   4.301   2.115   1.447 -0.1298  0.2213 -0.5154
   44TCq2    C5  673   4.310   2.041   1.331 -0.1541 -0.1881 -0.2087
   44TCq2    C6  674   4.375   1.920   1.345  0.0640 -0.5482  0.5585
   44TCq2    C7  675   4.419   1.871   1.463  0.1460  0.6500 -0.3426
   44TCq2    C8  676   4.360   1.817   1.242 -0.4981 -0.1358 -0.3975
   44TCq2    O4  677   4.438   1.725   1.240  0.1737 -0.0378 -0.1801
   44TCq2    C9  678   4.236   2.240   1.447 -0.1526 -0.7221  0.0438
   44TCq2    O5  679   4.211   2.293   1.560 -0.1930  0.0952  0.6274
   44TCq2    O6  680   4.232   2.293   1.329 -0.5159 -0.4846  0.3107
   44TCq2    H2  681   4.349   2.156   1.646 -0.9609  0.0645  0.1316
   44TCq2    H3  682   4.279   2.081   1.236 -2.2451  2.6844  1.7131
   44TCq2    H4  683   4.467   1.774   1.463 -2.0267 -0.4241 -1.2673
   45TMC2    C1  684   0.976   3.285   9.296  0.4339 -0.1329  0.0488
   45TMC2    C2  685   1.095   3.227   9.260  0.1576 -0.4113 -0.8819
   45TMC2    C3  686   1.212   3.292   9.291 -0.2402  0.1793  0.7581
   45TMC2    C4  687   0.970   3.399   9.367  0.2572 -0.0164 -0.7759
   45TMC2    C5  688   1.091   3.455   9.405  0.1625 -0.3918 -0.3622
   45TMC2    C6  689   1.211   3.399   9.374 -0.0887 -0.0217  0.0158
   45TMC2     C  690   0.864   3.236   9.226  0.0253  0.4898 -0.1265
   45TMC2     O  691   0.882   3.149   9.144  0.1856 -0.2753 -0.8371
   45TMC2     H  692   1.102   3.133   9.208 -1.2025  0.3605 -2.4473
   45TMC2    H1  693   0.881   3.458   9.385  3.8113  4.5499  2.1425
   45TMC2    H2  694   1.308   3.437   9.404 -0.1922  0.4368 -0.2208
   45TMC2    C7  695   1.082   3.562   9.504  0.1937  0.0236  0.1320
   45TMC2    C8  696   1.342   3.221   9.283 -0.1329  0.6157  0.4777
   45TMC2    O1  697   0.980   3.572   9.571 -0.6776 -0.6448 -0.1740
   45TMC2    O2  698   1.438   3.244   9.360  0.2442  0.1030  0.0502
   45TMC2    O5  699   1.342   3.133   9.184  0.6668  0.4428 -0.2023
   45TMC2    H5  700   1.291   3.171   9.110  0.7827 -1.8777 -1.4903
   46MPD2     C  701   0.563   3.170   9.148  0.0837 -0.1820  0.3593
   46MPD2    C1  702   0.607   3.251   9.248  0.5910 -0.0192  0.1539
   46MPD2    C2  703   0.507   3.313   9.324 -0.0142  0.1057 -0.1155
   46MPD2    C3  704   0.373   3.277   9.321  0.8456  0.6592  0.3675
   46MPD2    C4  705   0.339   3.209   9.208  0.5975  0.2386 -0.2425
   46MPD2    C5  706   0.428   3.148   9.130  0.5355  0.2236  0.3580
   46MPD2     H  707   0.528   3.396   9.390  0.2154 -0.8122  0.9648
   46MPD2    H1  708   0.236   3.198   9.177 -0.0236 -1.2315  2.3199
   46MPD2    H2  709   0.630   3.113   9.084  0.2895 -1.2995  1.5582
   46MPD2    H3  710   0.392   3.086   9.048 -1.9217 -0.2666  1.8104
   46MPD2     N  711   0.277   3.342   9.403  0.0361 -0.8124  0.0188
   46MPD2    H5  712   0.323   3.400   9.472  0.5965 -0.2522 -0.8278
   46MPD2    N1  713   0.739   3.278   9.285  0.2250  0.0255  0.3814
   46MPD2    H7  714   0.751   3.345   9.361  1.8554  0.6402 -0.4149
   47TMC2    C1  715   1.937   3.313   9.277  0.2382 -0.5284 -0.5985
   47TMC2    C2  716   1.884   3.348   9.157  0.3891  0.1907  0.3317
   47TMC2    C3  717   1.785   3.276   9.103 -0.1036  0.2504 -0.0146
   47TMC2    C4  718   1.887   3.214   9.356  0.1561 -0.0186 -1.0527
   47TMC2    C5  719   1.776   3.156   9.314  0.0153 -0.1237  0.8578
   47TMC2    C6  720   1.729   3.183   9.187  0.1316 -0.8050  0.1517
   47TMC2     C  721   2.074   3.353   9.292  0.0277  0.4957  0.4530
   47TMC2     O  722   2.098   3.475   9.276  0.1017 -0.1506 -0.0815
   47TMC2     H  723   1.929   3.431   9.104  0.0671 -0.3272 -0.7488
   47TMC2    H1  724   1.932   3.200   9.454 -0.7083 -1.6353 -0.8862
   47TMC2    H2  725   1.643   3.128   9.151  1.2589 -2.0886 -0.5923
   47TMC2    C7  726   1.726   3.040   9.388  0.0283  0.3173 -0.2424
   47TMC2    C8  727   1.714   3.330   8.991 -0.0176  0.1907  0.2734
   47TMC2    O1  728   1.798   2.987   9.472 -0.0006 -0.3771 -0.3067
   47TMC2    O2  729   1.593   3.306   8.979 -0.6528  0.4297 -0.2581
   47TMC2    O5  730   1.796   3.386   8.909 -0.0756  0.0132 -0.0045
   47TMC2    H5  731   1.891   3.382   8.933  1.1032  1.2229 -4.4600
   48MPD2     C  732   2.359   3.378   9.362  0.5606  0.6257 -0.1259
   48MPD2    C1  733   2.294   3.257   9.353  0.4687  0.0208  0.4528
   48MPD2    C2  734   2.368   3.138   9.354  0.1551 -0.1059  0.3844
   48MPD2    C3  735   2.506   3.139   9.391  0.4247 -0.0914  0.2196
   48MPD2    C4  736   2.567   3.263   9.404  0.0537 -0.1689  0.5208
   48MPD2    C5  737   2.491   3.381   9.398 -0.0389  0.1308  0.8487
   48MPD2     H  738   2.315   3.044   9.343  1.8933 -0.8120 -2.1436
   48MPD2    H1  739   2.671   3.279   9.430  0.0427  1.9089 -0.7869
   48MPD2    H2  740   2.308   3.472   9.344 -1.5191 -0.1651  1.6510
   48MPD2    H3  741   2.538   3.479   9.403  0.5609 -0.2197  2.0413
   48MPD2     N  742   2.584   3.023   9.388  0.2408 -0.0320  0.2240
   48MPD2    H5  743   2.533   2.935   9.385  1.4148 -0.7924  2.1331
   48MPD2    N1  744   2.156   3.246   9.317  0.3261 -0.3692  0.0757
   48MPD2    H7  745   2.126   3.149   9.309 -0.5236 -0.0120 -1.0770
   49MPD2     C  746   0.165   0.391  10.357 -0.8072  0.1396 -0.3811
   49MPD2    C1  747   0.202   0.400  10.490 -0.0965  0.1202 -0.0429
   49MPD2    C2  748   0.291   0.501  10.522 -0.5939  0.1927  0.3349
   49MPD2    C3  749   0.356   0.584  10.430  0.5899  0.6541  0.4941
   49MPD2    C4  750   0.315   0.573  10.301 -0.1563 -0.0696 -0.1101
   49MPD2    C5  751   0.220   0.473  10.266 -0.2418 -0.3011 -0.9564
   49MPD2     H  752   0.318   0.516  10.626  0.2217 -4.3960  0.8065
   49MPD2    H1  753   0.347   0.640  10.222 -0.6272 -0.1340 -0.3546
   49MPD2    H2  754   0.095   0.316  10.324 -0.3507 -1.0778  1.3909
   49MPD2    H3  755   0.201   0.454  10.161  1.8416 -1.9705 -1.0354
   49MPD2     N  756   0.444   0.693  10.465  0.2792  0.3962  0.1621
   49MPD2    H5  757   0.448   0.758  10.386  0.9519  0.1937  0.0329
   49MPD2    N1  758   0.146   0.332  10.596 -0.5479  0.9144 -0.0987
   49MPD2    H7  759   0.179   0.360  10.688 -0.9789 -0.2876  0.4159
   50TCq2    C1  760   0.047   0.234  10.592 -0.5351 -0.4529 -0.1876
   50TCq2    O2  761   4.717   0.172  10.500  0.2081  0.2750 -0.3587
   50TCq2    C2  762   0.015   0.187  10.726  0.3697  0.2104 -0.5458
   50TCq2    C3  763   4.629   0.129  10.748 -0.4741  0.2835 -0.0833
   50TCq2    C4  764   4.593   0.083  10.869 -0.0000 -0.4964  0.5149
   50TCq2    C5  765   4.671   0.111  10.979 -0.0724 -0.5528 -0.5144
   50TCq2    C6  766   0.059   0.176  10.959  0.3930  0.1020  0.2660
   50TCq2    C7  767   0.099   0.212  10.834 -0.5360  0.0115 -0.5784
   50TCq2    C8  768   0.159   0.209  11.069  0.5118  0.0229 -0.5777
   50TCq2    O4  769   0.162   0.142  11.171 -0.1891  0.2602 -0.1667
   50TCq2    C9  770   4.458   0.024  10.891 -0.3045  0.2470  0.2652
   50TCq2    O5  771   4.434   4.696  11.008 -0.4230  0.2639 -0.3868
   50TCq2    O6  772   4.371   0.035  10.800 -0.4619 -0.1754  0.2705
   50TCq2    H2  773   4.574   0.094  10.661 -1.4378  2.9660 -0.5619
   50TCq2    H3  774   4.636   0.078  11.076  0.8700  2.1798  0.7437
   50TCq2    H4  775   0.202   0.245  10.820  0.2096 -1.5295  1.2307
   51MPD2     C  776   1.245   3.868   1.646  0.4224  0.3748 -0.2160
   51MPD2    C1  777   1.336   3.957   1.591 -0.2968  0.3615 -0.5422
   51MPD2    C2  778   1.329   4.092   1.622 -0.1397 -0.5283  0.1531
   51MPD2    C3  779   1.235   4.138   1.713 -0.6412  0.1464  0.2089
   51MPD2    C4  780   1.165   4.043   1.787 -0.9923  0.1534  0.0262
   51MPD2    C5  781   1.174   3.912   1.754 -0.8686  0.1415 -0.0407
   51MPD2     H  782   1.395   4.155   1.564 -0.0925 -0.6914  0.0323
   51MPD2    H1  783   1.118   4.067   1.881 -0.7153 -0.1603  0.2430
   51MPD2    H2  784   1.254   3.761   1.632  1.3283  0.6390 -1.6463
   51MPD2    H3  785   1.127   3.835   1.814 -0.5458 -0.6334 -0.7652
   51MPD2     N  786   1.213   4.274   1.746 -0.2955 -0.5869  0.0406
   51MPD2    H5  787   1.160   4.298   1.829 -1.6567 -1.6821 -0.5302
   51MPD2    N1  788   1.436   3.911   1.500  0.8844  0.0296 -0.6443
   51MPD2    H7  789   1.496   3.977   1.451  0.2871 -0.6107 -2.2372
   52TCq2    C1  790   1.246   4.379   1.665 -0.1546  0.7141  0.6569
   52TCq2    O2  791   1.283   4.367   1.551 -0.0731 -0.6468 -0.8988
   52TCq2    C2  792   1.227   4.513   1.716  0.4143 -0.5834 -0.6466
   52TCq2    C3  793   1.167   4.541   1.835  0.3875 -0.1605 -0.0800
   52TCq2    C4  794   1.156   4.672   1.884 -0.4198  0.4231 -0.2251
   52TCq2    C5  795   1.208   0.041   1.800 -0.0062  0.5429 -0.0282
   52TCq2    C6  796   1.260   0.013   1.680  0.0661 -0.3169  1.2791
   52TCq2    C7  797   1.267   4.613   1.632 -0.1383  0.5539  1.1262
   52TCq2    C8  798   1.279   0.128   1.594  0.2590  0.2737 -0.1434
   52TCq2    O4  799   1.297   0.237   1.652  0.0459  0.2345 -0.1954
   52TCq2    C9  800   1.099   4.700   2.014  0.1325 -0.1996 -0.8454
   52TCq2    O5  801   1.045   4.600   2.070  0.0759  0.3362 -0.1935
   52TCq2    O6  802   1.118   0.087   2.067 -0.0779 -0.5928 -0.1074
   52TCq2    H2  803   1.137   4.455   1.894 -2.9576  2.7208  2.4004
   52TCq2    H3  804   1.215   0.144   1.835 -2.7261  0.9237 -0.5723
   52TCq2    H4  805   1.321   4.593   1.540 -1.1146  0.9162  0.4703
   53TMC2    C1  806   2.299   2.929  11.895 -0.1311  0.1171  1.2955
   53TMC2    C2  807   2.434   2.918  11.938  0.2162 -0.0938 -0.0856
   53TMC2    C3  808   2.462   2.909  12.072  0.7856 -0.3498  0.1309
   53TMC2    C4  809   2.199   2.924  11.987  0.1349  0.0783 -0.0221
   53TMC2    C5  810   2.233   2.922  12.122 -0.3244 -0.1525 -0.4221
   53TMC2    C6  811   2.360   2.918  12.170  0.3802 -0.3837 -0.0048
   53TMC2     C  812   2.277   2.911  11.749 -0.5190  0.2175  0.8597
   53TMC2     O  813   2.376   2.911  11.678 -0.4870  0.6938 -0.0562
   53TMC2     H  814   2.516   2.911  11.868 -0.3536  2.4686 -1.0187
   53TMC2    H1  815   2.095   2.914  11.959  0.7517 -1.5627 -1.6848
   53TMC2    H2  816   2.376   2.931  12.276 -1.5032 -0.2643  0.2757
   53TMC2    C7  817   2.116   2.939  12.203 -0.1258  0.0835 -0.5181
   53TMC2    C8  818   2.598   2.915  12.121  0.0276  0.7395  0.8315
   53TMC2    O1  819   2.016   2.976  12.147  0.0725 -0.2557  0.2614
   53TMC2    O2  820   2.682   2.996  12.083  0.4711 -0.0204  0.1461
   53TMC2    O5  821   2.597   2.835  12.231 -0.1098 -0.1004 -0.2110
   53TMC2    H5  822   2.522   2.773  12.223  0.4659 -0.8655  0.3343
   54MPD2     C  823   2.174   2.912  11.472  0.0393 -0.3560  0.1084
   54MPD2    C1  824   2.096   2.937  11.585 -0.4660 -0.2259 -0.0263
   54MPD2    C2  825   1.962   2.961  11.563 -0.2095  0.5729 -0.2386
   54MPD2    C3  826   1.899   2.974  11.435 -0.3438  0.3333  0.2473
   54MPD2    C4  827   1.988   2.959  11.329 -0.1184 -0.5318 -0.1210
   54MPD2    C5  828   2.118   2.928  11.346  0.3088 -0.3744  0.7972
   54MPD2     H  829   1.889   2.972  11.643 -0.8582 -1.3265 -0.5729
   54MPD2    H1  830   1.954   2.966  11.226 -1.5511 -0.1284  0.3830
   54MPD2    H2  831   2.280   2.889  11.473  0.0439 -0.3667 -0.8849
   54MPD2    H3  832   2.184   2.927  11.260  0.9522 -0.4750  1.2909
   54MPD2     N  833   1.766   3.010  11.413 -0.6306 -0.1500  0.5564
   54MPD2    H5  834   1.728   3.027  11.320  0.0435 -0.4701  0.2273
   54MPD2    N1  835   2.145   2.933  11.716 -0.2838  0.5386 -0.2576
   54MPD2    H7  836   2.072   2.938  11.786  0.7970  0.0750  0.9090
   55MPD2     C  837   2.182   1.043  17.582  0.2255 -0.0060  0.1370
   55MPD2    C1  838   2.157   0.971  17.691 -0.1018  0.0583  0.3144
   55MPD2    C2  839   2.063   1.016   0.076 -0.0228  0.3643  0.2165
   55MPD2    C3  840   2.013   1.141   0.065 -0.8824 -0.0099 -1.1370
   55MPD2    C4  841   2.030   1.210  17.652  0.1234  0.4273  0.5704
   55MPD2    C5  842   2.123   1.162  17.569  0.2687  0.2786  0.0323
   55MPD2     H  843   2.038   0.963   0.167 -1.6835  1.0122  0.1319
   55MPD2    H1  844   1.972   1.301  17.640 -0.7496 -0.1829  0.2184
   55MPD2    H2  845   2.248   1.007  17.503  1.9567 -1.1905  2.1361
   55MPD2    H3  846   2.145   1.220  17.479  2.1746 -2.3322 -1.1870
   55MPD2     N  847   1.922   1.189   0.156 -0.6127  0.1042  0.0158
   55MPD2    H5  848   1.867   1.271   0.132 -2.2989 -0.2945  2.5600
   55MPD2    N1  849   2.205   0.838  17.691  0.0652 -0.0555  0.2367
   55MPD2    H7  850   2.257   0.812  17.608 -0.6639  0.3852 -0.3616
   56TCq2    C1  851   2.174   0.736   0.071  0.4186 -0.1684 -0.4845
   56TCq2    O2  852   2.107   0.742   0.174  0.3442  0.7925  0.0627
   56TCq2    C2  853   2.258   0.615   0.057  0.4119  0.3068  0.0715
   56TCq2    C3  854   2.348   0.608  17.656 -0.4544 -0.6158 -0.1122
   56TCq2    C4  855   2.429   0.499  17.652  0.4461 -0.6758  0.3734
   56TCq2    C5  856   2.418   0.400   0.048 -0.2009  0.3228 -0.2245
   56TCq2    C6  857   2.332   0.416   0.157 -0.0557 -0.2154  0.3550
   56TCq2    C7  858   2.243   0.524   0.162 -0.2157  0.3116 -0.0817
   56TCq2    C8  859   2.365   0.342   0.281 -0.6635  0.3288  0.0249
   56TCq2    O4  860   2.480   0.301   0.288  0.9403 -0.1222  0.4806
   56TCq2    C9  861   2.541   0.492  17.563  0.3900  0.1051 -0.0527
   56TCq2    O5  862   2.618   0.390  17.561  0.8535 -0.5782  0.1138
   56TCq2    O6  863   2.574   0.601  17.511 -0.1640 -0.3908  0.2006
   56TCq2    H2  864   2.358   0.678  17.574  1.5759  0.5329  1.1222
   56TCq2    H3  865   2.487   0.317   0.056  2.3914  2.5983  1.5783
   56TCq2    H4  866   2.187   0.544   0.252  0.3143  1.4782 -0.0096
   57TMC2    C1  867   1.659   2.177  13.602 -0.3114  0.1360  0.1953
   57TMC2    C2  868   1.788   2.168  13.650  0.2912  0.4641  0.0345
   57TMC2    C3  869   1.868   2.064  13.616 -0.1899 -0.1406  0.1697
   57TMC2    C4  870   1.598   2.077  13.535  0.8867  0.1087 -0.0686
   57TMC2    C5  871   1.682   1.972  13.501 -0.5146  0.4193  0.6071
   57TMC2    C6  872   1.816   1.962  13.540  0.9019  0.5472 -0.1713
   57TMC2     C  873   1.587   2.300  13.632  0.2278 -0.1237  0.1025
   57TMC2     O  874   1.503   2.340  13.549  0.3012  0.6175  0.3580
   57TMC2     H  875   1.835   2.256  13.692 -0.7650  0.2422  1.6610
   57TMC2    H1  876   1.497   2.087  13.498  0.1535  0.0050  1.8990
   57TMC2    H2  877   1.884   1.885  13.505 -0.6299 -0.3258 -1.2089
   57TMC2    C7  878   1.644   1.914  13.366  0.3873 -0.6906 -0.0300
   57TMC2    C8  879   2.009   2.059  13.654  0.0927 -0.9524 -0.3092
   57TMC2    O1  880   1.554   1.962  13.293 -0.0109 -0.4539  0.2012
   57TMC2    O2  881   2.096   1.985  13.606 -0.5445  1.0299  0.3920
   57TMC2    O5  882   2.019   2.093  13.784 -0.4572  0.4369  0.3877
   57TMC2    H5  883   1.941   2.136  13.826 -0.8225 -0.4020  0.5775
   58MPD2     C  884   1.389   2.619  13.975 -0.0493  0.1120 -0.3761
   58MPD2    C1  885   1.362   2.598  13.842 -1.0052  0.4205  0.0540
   58MPD2    C2  886   1.426   2.498  13.773 -0.5699 -0.7028 -0.1055
   58MPD2    C3  887   1.532   2.431  13.830  0.5982  0.0302  0.6561
   58MPD2    C4  888   1.568   2.456  13.962  0.3907 -0.3991  0.2987
   58MPD2    C5  889   1.492   2.544  14.035 -0.4777  1.2931  0.1546
   58MPD2     H  890   1.394   2.484  13.670  1.1352  2.2734 -1.0430
   58MPD2    H1  891   1.650   2.408  14.013  0.5753  0.2191  0.5874
   58MPD2    H2  892   1.341   2.694  14.038  3.0827  2.2608 -0.5769
   58MPD2    H3  893   1.516   2.559  14.139 -0.6338 -0.2223  0.4040
   58MPD2     N  894   1.614   2.343  13.759 -0.0666 -0.3332  0.0867
   58MPD2    H5  895   1.687   2.304  13.818  0.8784 -0.2405 -1.0210
   58MPD2    N1  896   1.252   2.652  13.773 -0.3086  0.6528  0.0288
   58MPD2    H7  897   1.242   2.636  13.674 -0.8601 -0.5442  0.2794
   59MPD2     C  898   3.969   2.278  13.347  0.2824 -0.1934 -0.2242
   59MPD2    C1  899   4.083   2.285  13.265  0.8426  0.1690  0.9108
   59MPD2    C2  900   4.155   2.403  13.275  0.2163 -0.5977 -0.1004
   59MPD2    C3  901   4.134   2.493  13.377  0.6479 -0.4501  1.0843
   59MPD2    C4  902   4.026   2.480  13.464 -0.8843 -0.0023  0.2951
   59MPD2    C5  903   3.940   2.367  13.443  0.4697 -0.7053  0.4097
   59MPD2     H  904   4.236   2.418  13.204  2.0770 -1.1422  1.9081
   59MPD2    H1  905   4.012   2.553  13.543 -1.9540 -1.4404  1.4214
   59MPD2    H2  906   3.900   2.195  13.340 -0.4285  0.4570 -1.0091
   59MPD2    H3  907   3.858   2.346  13.511  0.5370  1.8351  1.2590
   59MPD2     N  908   4.226   2.600  13.406 -0.1346  0.3287 -0.4166
   59MPD2    H5  909   4.211   2.662  13.484  1.4911 -0.7036  0.6997
   59MPD2    N1  910   4.107   2.191  13.158 -0.5769 -0.4833  0.4469
   59MPD2    H7  911   4.172   2.219  13.086 -0.8115  0.6474  0.6755
   60TCq2    C1  912   4.051   2.067  13.138 -0.4149  0.0550  0.3145
   60TCq2    O2  913   3.966   2.010  13.208  0.4211  0.3472  0.4974
   60TCq2    C2  914   4.102   1.987  13.030 -0.7880 -0.4384 -0.3050
   60TCq2    C3  915   4.133   1.860  13.054 -0.2925  0.1095 -0.1943
   60TCq2    C4  916   4.205   1.792  12.962  0.1055 -0.7487  0.2379
   60TCq2    C5  917   4.246   1.859  12.844 -0.1063 -0.2955 -0.6175
   60TCq2    C6  918   4.201   1.983  12.820  0.6629  0.2099 -0.7105
   60TCq2    C7  919   4.126   2.051  12.914 -0.3769  1.0657 -0.7954
   60TCq2    C8  920   4.236   2.054  12.691  0.5820 -0.6011 -0.0564
   60TCq2    O4  921   4.340   2.016  12.633  0.0048 -0.0269 -0.3884
   60TCq2    C9  922   4.255   1.665  13.002  0.7643  0.6856  0.0595
   60TCq2    O5  923   4.224   1.621  13.116  0.0102  0.2817  0.4626
   60TCq2    O6  924   4.296   1.588  12.908 -0.3174  0.4982 -0.2313
   60TCq2    H2  925   4.107   1.828  13.154  2.3412  1.8113  1.0350
   60TCq2    H3  926   4.303   1.797  12.776  2.4814 -1.1194  2.2746
   60TCq2    H4  927   4.081   2.146  12.886  0.6984  1.4144 -1.3184
   61MPD2     C  928   3.140   3.661  14.549  0.3696 -0.0357 -0.0591
   61MPD2    C1  929   3.196   3.763  14.621 -0.4932 -0.1570 -0.3803
   61MPD2    C2  930   3.188   3.892  14.576  0.5343  0.3126  0.3375
   61MPD2    C3  931   3.136   3.915  14.451  0.3326 -0.2822  0.9901
   61MPD2    C4  932   3.083   3.813  14.381 -0.1143  0.5207  0.5786
   61MPD2    C5  933   3.079   3.689  14.431  0.0573 -0.2829 -0.4071
   61MPD2     H  934   3.216   3.980  14.632 -0.9721  1.2771 -0.4074
   61MPD2    H1  935   3.035   3.831  14.285  1.2170  1.0930  0.0327
   61MPD2    H2  936   3.150   3.557  14.579 -0.0016 -0.0483  0.0214
   61MPD2    H3  937   3.046   3.611  14.363  0.9573 -0.5466 -0.5350
   61MPD2     N  938   3.123   4.040  14.381  0.3633 -0.1862 -0.2932
   61MPD2    H5  939   3.100   4.035  14.282  0.4960  0.5106 -0.3616
   61MPD2    N1  940   3.233   3.738  14.755 -0.7335  0.0122 -0.1816
   61MPD2    H7  941   3.263   3.818  14.810 -1.0257 -0.1198  0.1707
   62TCq2    C1  942   3.242   3.621  14.824 -0.1835 -0.6473 -0.2007
   62TCq2    O2  943   3.236   3.502  14.791  0.6469  0.3623  0.1993
   62TCq2    C2  944   3.244   3.636  14.964  1.2978  0.0103  0.3469
   62TCq2    C3  945   3.184   3.533  15.027 -0.1778 -0.1483 -0.4148
   62TCq2    C4  946   3.123   3.564  15.151 -0.5325 -0.0715 -0.1208
   62TCq2    C5  947   3.131   3.694  15.203  0.4066 -0.1097 -0.0188
   62TCq2    C6  948   3.195   3.790  15.133  0.8472  0.6248 -0.0293
   62TCq2    C7  949   3.258   3.765  15.018 -0.3701  0.2145  0.4819
   62TCq2    C8  950   3.189   3.936  15.167 -0.2673 -0.6411 -0.2200
   62TCq2    O4  951   3.277   4.009  15.117 -0.3000 -0.0235 -0.2494
   62TCq2    C9  952   3.050   3.455  15.210  0.0992  0.5126 -0.1591
   62TCq2    O5  953   2.977   3.480  15.310 -0.0935  0.2601  0.6586
   62TCq2    O6  954   3.040   3.350  15.142 -0.4329  0.0177 -0.4279
   62TCq2    H2  955   3.193   3.428  15.002  0.9333  0.1291 -1.1682
   62TCq2    H3  956   3.077   3.725  15.293  0.5095  0.5959 -0.1990
   62TCq2    H4  957   3.329   3.834  14.974 -2.5225  1.6559 -0.6723
   63TMC2    C1  958   3.248   3.513  10.840 -0.3106 -0.1117 -0.0013
   63TMC2    C2  959   3.301   3.517  10.967 -0.6191  0.1522 -0.5879
   63TMC2    C3  960   3.384   3.626  10.987 -0.4100  0.3207 -0.2420
   63TMC2    C4  961   3.285   3.582  10.733  0.3306 -0.5684  0.9286
   63TMC2    C5  962   3.372   3.692  10.764  1.1955 -0.2250  1.0703
   63TMC2    C6  963   3.425   3.713  10.891  0.5316 -0.5263  1.1483
   63TMC2     C  964   3.156   3.407  10.812 -0.0840 -0.0784 -0.2257
   63TMC2     O  965   3.156   3.365  10.697 -0.0478 -0.1211 -0.1962
   63TMC2     H  966   3.273   3.455  11.052 -0.2434 -0.3748 -0.8498
   63TMC2    H1  967   3.237   3.573  10.636 -0.9047 -3.9717  1.8692
   63TMC2    H2  968   3.503   3.782  10.919  0.1434 -0.2366  1.5202
   63TMC2    C7  969   3.422   3.763  10.650  0.9436  0.8921  0.4214
   63TMC2    C8  970   3.478   3.625  11.096  0.1511  0.3647  0.0213
   63TMC2    O1  971   3.384   3.716  10.543 -0.3241 -0.0839  0.1228
   63TMC2    O2  972   3.596   3.630  11.077 -0.0617 -0.1544 -0.5601
   63TMC2    O5  973   3.416   3.562  11.196  0.3273 -0.3627  0.2390
   63TMC2    H5  974   3.325   3.593  11.216 -0.5222 -1.0614 -2.6373
   64MPD2     C  975   2.814   3.042  10.912 -0.2843 -0.5975 -0.8439
   64MPD2    C1  976   2.911   3.058  10.816 -0.0425 -0.1207 -0.0712
   64MPD2    C2  977   2.979   3.173  10.804  0.0136 -0.9166  0.4715
   64MPD2    C3  978   2.976   3.264  10.908 -0.2466 -0.7431 -0.0035
   64MPD2    C4  979   2.888   3.240  11.015  0.6091  0.5087  0.2796
   64MPD2    C5  980   2.797   3.140  11.007  0.0485  0.1376 -0.4557
   64MPD2     H  981   3.060   3.170  10.733  0.5438  0.4764  1.0145
   64MPD2    H1  982   2.888   3.310  11.098  0.8630  1.2483 -0.3479
   64MPD2    H2  983   2.754   2.952  10.915 -1.4340  0.1773 -0.6707
   64MPD2    H3  984   2.732   3.116  11.091  0.4962  0.6854  0.0440
   64MPD2     N  985   3.073   3.368  10.918  0.8884 -0.1349  0.0235
   64MPD2    H5  986   3.062   3.429  10.998  1.2233  0.7101 -0.5672
   64MPD2    N1  987   2.942   2.956  10.722 -0.6834  0.2579  0.3672
   64MPD2    H7  988   3.016   2.982  10.658  1.0550 -2.6145  1.2185
   65MPD2     C  989   3.891   3.204  15.939 -0.3835 -0.0754 -0.1838
   65MPD2    C1  990   3.914   3.196  15.803  0.3823  0.0306 -0.5562
   65MPD2    C2  991   3.941   3.071  15.751 -0.8441 -0.3283 -0.3790
   65MPD2    C3  992   3.917   2.956  15.827 -0.7639  0.3025  0.1447
   65MPD2    C4  993   3.896   2.967  15.966  0.0873 -0.1360 -0.4047
   65MPD2    C5  994   3.882   3.091  16.020  0.1848 -0.5086  0.5238
   65MPD2     H  995   3.972   3.061  15.647 -0.9598  1.0688 -0.5450
   65MPD2    H1  996   3.875   2.882  16.031  2.3385 -2.3157 -2.4903
   65MPD2    H2  997   3.863   3.297  15.988 -1.5993  0.0902 -1.2058
   65MPD2    H3  998   3.860   3.094  16.126 -2.8612  0.4976 -0.1439
   65MPD2     N  999   3.921   2.830  15.771  0.2998 -0.0048  0.7715
   65MPD2    H5 1000   3.905   2.755  15.838  0.6177  1.1797  2.1657
   65MPD2    N1 1001   3.918   3.303  15.712  0.1605 -0.1070 -0.1918
   65MPD2    H7 1002   3.947   3.275  15.619 -0.6926 -1.3906 -0.0610
   66TCq2    C1 1003   3.876   3.435  15.734  0.0495  0.8191 -0.2769
   66TCq2    O2 1004   3.804   3.477  15.824 -0.5806 -0.0009 -0.2145
   66TCq2    C2 1005   3.905   3.529  15.626 -0.6218  0.8370 -0.6910
   66TCq2    C3 1006   4.009   3.496  15.538  0.3408 -0.6066  0.2018
   66TCq2    C4 1007   4.022   3.580  15.429  0.4178 -0.4351 -0.3234
   66TCq2    C5 1008   3.944   3.688  15.413  1.1191  0.2695 -0.4615
   66TCq2    C6 1009   3.852   3.717  15.504  0.7349 -0.7462  0.9582
   66TCq2    C7 1010   3.829   3.642  15.617 -0.4125 -0.3146 -0.5980
   66TCq2    C8 1011   3.762   3.826  15.465  0.1618 -0.4284 -0.2495
   66TCq2    O4 1012   3.783   3.874  15.357 -0.0227 -0.0637 -0.1757
   66TCq2    C9 1013   4.125   3.558  15.336 -0.2766 -0.2388  0.9684
   66TCq2    O5 1014   4.131   3.633  15.236  0.3135 -0.0774  0.3105
   66TCq2    O6 1015   4.191   3.454  15.361  0.0151  0.0076  0.3884
   66TCq2    H2 1016   4.080   3.418  15.563 -0.7103 -0.9564  2.1113
   66TCq2    H3 1017   3.960   3.757  15.330  2.0979  0.7452  0.1202
   66TCq2    H4 1018   3.744   3.655  15.683 -0.4167  0.9315 -0.8442
   67MPD2     C 1019   4.013   2.996  14.169 -0.5675 -0.9233 -0.0344
   67MPD2    C1 1020   3.950   2.976  14.288 -0.4102  0.1915 -0.5880
   67MPD2    C2 1021   3.828   2.915  14.290 -0.2455 -0.3886 -0.5398
   67MPD2    C3 1022   3.758   2.885  14.172  0.8540 -0.0845 -0.0486
   67MPD2    C4 1023   3.820   2.913  14.051 -0.1366  0.5094 -0.4134
   67MPD2    C5 1024   3.947   2.968  14.054 -0.6197  0.2462 -0.0337
   67MPD2     H 1025   3.782   2.884  14.383  1.0367 -3.1281 -0.8226
   67MPD2    H1 1026   3.774   2.907  13.953 -0.6521  0.5554 -0.1747
   67MPD2    H2 1027   4.113   3.039  14.163 -2.0501  2.7814  2.3097
   67MPD2    H3 1028   3.996   3.000  13.962 -0.7682  1.6123  0.3697
   67MPD2     N 1029   3.623   2.829  14.174 -0.1879 -0.3640 -0.6155
   67MPD2    H5 1030   3.579   2.821  14.083  0.9566  1.1841 -1.3315
   67MPD2    N1 1031   4.005   3.010  14.415  0.7540  0.2223  0.0403
   67MPD2    H7 1032   3.946   2.987  14.494 -0.7955  0.2878 -1.0934
   68TCq2    C1 1033   4.133   3.060  14.435  0.2158  0.3149 -0.0483
   68TCq2    O2 1034   4.220   3.093  14.358 -0.2593 -0.9414 -0.5235
   68TCq2    C2 1035   4.156   3.094  14.577  0.1192  0.2984  0.7933
   68TCq2    C3 1036   4.056   3.140  14.658 -0.4476 -0.0192  0.2404
   68TCq2    C4 1037   4.082   3.169  14.786  0.1593 -0.1337 -0.6569
   68TCq2    C5 1038   4.202   3.150  14.840  0.2272  0.4512 -0.0610
   68TCq2    C6 1039   4.302   3.108  14.756 -0.5323  0.7049  0.3927
   68TCq2    C7 1040   4.284   3.076  14.626  0.7299 -0.2757  0.5641
   68TCq2    C8 1041   4.428   3.057  14.820  0.3168  0.2883  0.3397
   68TCq2    O4 1042   4.501   2.993  14.744 -0.2080  0.3752  0.4538
   68TCq2    C9 1043   3.974   3.197  14.877 -0.1391  0.2101 -0.4246
   68TCq2    O5 1044   3.862   3.217  14.820  0.6323 -0.3897  0.3412
   68TCq2    O6 1045   3.999   3.256  14.991  0.5520 -0.1093 -1.0624
   68TCq2    H2 1046   3.958   3.160  14.617 -0.8844 -1.1712  0.7036
   68TCq2    H3 1047   4.215   3.192  14.939 -0.3875 -1.3272  0.7839
   68TCq2    H4 1048   4.361   3.032  14.563  0.2131  0.1296 -0.3516
   69TMC2    C1 1049   1.315   3.735  12.267  0.5583 -0.1218 -1.0892
   69TMC2    C2 1050   1.180   3.728  12.264 -0.2154  0.6214 -0.1103
   69TMC2    C3 1051   1.116   3.758  12.144  0.6005 -0.1590 -0.4845
   69TMC2    C4 1052   1.386   3.765  12.154 -0.0920 -0.1540  0.0630
   69TMC2    C5 1053   1.322   3.776  12.037  0.1403 -0.0135  0.4537
   69TMC2    C6 1054   1.187   3.780  12.028  0.1191 -0.2860  0.0133
   69TMC2     C 1055   1.385   3.665  12.373  0.2006 -0.5410 -0.1290
   69TMC2     O 1056   1.326   3.618  12.467 -0.3757  0.3991  0.6852
   69TMC2     H 1057   1.128   3.714  12.358 -1.5584  0.2662 -0.8910
   69TMC2    H1 1058   1.489   3.798  12.156 -1.0311  2.7935  0.4376
   69TMC2    H2 1059   1.125   3.787  11.940  0.4027  0.9518 -0.0847
   69TMC2    C7 1060   1.408   3.747  11.926 -0.6341  0.6717 -0.0478
   69TMC2    C8 1061   0.971   3.775  12.126  0.0935  0.3004  0.6683
   69TMC2    O1 1062   1.513   3.692  11.953 -0.1833  0.1145 -0.3855
   69TMC2    O2 1063   0.917   3.842  12.041 -0.3886  0.8108  0.0730
   69TMC2    O5 1064   0.912   3.713  12.234  0.0843 -0.0825 -0.6282
   69TMC2    H5 1065   0.967   3.649  12.284 -1.5275 -0.0004  1.2476
   70MPD2     C 1066   1.745   3.574  12.367 -0.2671 -0.7166  0.3221
   70MPD2    C1 1067   1.618   3.590  12.427 -0.4080  0.0889 -0.6687
   70MPD2    C2 1068   1.594   3.534  12.548 -0.2491 -0.6839 -0.5874
   70MPD2    C3 1069   1.689   3.454  12.608  0.5827  0.4514  0.0743
   70MPD2    C4 1070   1.810   3.439  12.544 -0.1130 -0.0079 -0.1163
   70MPD2    C5 1071   1.841   3.499  12.426 -0.2101  0.3739  0.0778
   70MPD2     H 1072   1.492   3.538  12.587 -0.9115  0.4537 -2.4711
   70MPD2    H1 1073   1.894   3.380  12.580 -0.9109 -1.6826 -1.0073
   70MPD2    H2 1074   1.763   3.615  12.269 -1.9155 -0.4764  0.1249
   70MPD2    H3 1075   1.945   3.496  12.395  0.0524  0.3626  0.9441
   70MPD2     N 1076   1.677   3.393  12.736  0.1934  0.1498  0.2259
   70MPD2    H5 1077   1.751   3.325  12.754  1.3291  1.2233 -0.3486
   70MPD2    N1 1078   1.522   3.664  12.351  0.2675 -0.4317 -0.7862
   70MPD2    H7 1079   1.565   3.697  12.266 -1.8320 -2.0282 -2.4590
   71TMC2    C1 1080   4.385   0.216   1.719  0.1334 -0.1444  0.9707
   71TMC2    C2 1081   4.505   0.200   1.776  0.9231 -0.8947 -0.3273
   71TMC2    C3 1082   4.548   0.286   1.876 -0.2840 -0.3809 -0.0037
   71TMC2    C4 1083   4.307   0.325   1.760  0.1872  0.4587  0.3345
   71TMC2    C5 1084   4.360   0.413   1.854  0.5123 -0.0284  0.0923
   71TMC2    C6 1085   4.483   0.399   1.911  0.6169 -0.3871  0.0955
   71TMC2     C 1086   4.364   0.164   1.581  0.3558  0.2216  0.6834
   71TMC2     O 1087   4.400   0.049   1.555  0.1551  0.4405 -0.1297
   71TMC2     H 1088   4.580   0.126   1.748  0.4492 -1.3286 -0.4462
   71TMC2    H1 1089   4.211   0.340   1.711 -0.5489 -1.2306  1.2418
   71TMC2    H2 1090   4.530   0.474   1.975 -2.2694  1.5037 -0.0211
   71TMC2    C7 1091   4.274   0.521   1.898  0.6095 -0.0170 -0.5990
   71TMC2    C8 1092   4.686   0.286   1.886  0.6290  0.5283 -0.3069
   71TMC2    O1 1093   4.322   0.614   1.959  0.9024 -0.4199  0.1190
   71TMC2    O2 1094   0.023   0.260   1.785 -0.0431  0.1585  0.2078
   71TMC2    O5 1095   4.698   0.247   2.013 -0.0079 -0.0734  0.4066
   71TMC2    H5 1096   4.614   0.241   2.063  0.0899 -0.5503  0.5153
   72MPD2     C 1097   4.295   0.248   1.078  0.1646  0.0677 -0.8516
   72MPD2    C1 1098   4.275   0.370   1.149 -0.2534  0.1394  0.8883
   72MPD2    C2 1099   4.281   0.370   1.288 -0.0483  0.3154 -0.4027
   72MPD2    C3 1100   4.309   0.252   1.352 -0.4782  0.5077 -0.7461
   72MPD2    C4 1101   4.335   0.139   1.282 -0.1631  0.4114 -0.2371
   72MPD2    C5 1102   4.333   0.138   1.142 -0.3052 -0.4838  0.3942
   72MPD2     H 1103   4.259   0.460   1.343 -1.3649 -0.5037  0.4124
   72MPD2    H1 1104   4.363   0.046   1.331  0.3751  0.9151  0.4002
   72MPD2    H2 1105   4.279   0.237   0.971  0.0940 -2.0206 -0.6306
   72MPD2    H3 1106   4.345   0.040   1.096 -0.0293  0.1276 -0.8044
   72MPD2     N 1107   4.320   0.265   1.497 -0.4066  0.2746 -0.5476
   72MPD2    H5 1108   4.297   0.354   1.541  0.0975 -0.4625  1.2383
   72MPD2    N1 1109   4.238   0.489   1.083  0.2482 -0.2312  0.0621
   72MPD2    H7 1110   4.201   0.565   1.139  1.6549  2.1555 -2.2310
   73TMC2    C1 1111   3.844   1.421  14.113 -0.0476  0.4642  0.0317
   73TMC2    C2 1112   3.725   1.443  14.178  0.3113  0.0770 -0.2810
   73TMC2    C3 1113   3.728   1.454  14.312  0.3816 -0.1012  0.2084
   73TMC2    C4 1114   3.964   1.442  14.178  0.8464  0.0631  0.0257
   73TMC2    C5 1115   3.959   1.478  14.313  0.4407  0.4851  0.4084
   73TMC2    C6 1116   3.839   1.471  14.381 -0.7790  0.4496 -0.6886
   73TMC2     C 1117   3.853   1.485  13.984 -0.0619  0.3430  0.3520
   73TMC2     O 1118   3.953   1.556  13.970  0.7879  0.3425  0.0668
   73TMC2     H 1119   3.635   1.461  14.120 -0.5669 -1.4914  0.5981
   73TMC2    H1 1120   4.057   1.428  14.124  0.4790  1.3745 -0.9566
   73TMC2    H2 1121   3.822   1.521  14.476 -2.6663  0.0160 -0.7925
   73TMC2    C7 1122   4.032   1.605  14.333  1.2156  0.3611 -0.0231
   73TMC2    C8 1123   3.604   1.494  14.374  0.5631 -0.1921 -0.4421
   73TMC2    O1 1124   4.037   1.658  14.443  0.2941  0.1361  0.6165
   73TMC2    O2 1125   3.591   1.588  14.453 -0.4421 -0.6482  0.5958
   73TMC2    O5 1126   3.511   1.398  14.367  0.0585 -0.3795  0.6413
   73TMC2    H5 1127   3.523   1.326  14.302 -1.9662  1.4088 -1.7045
   74MPD2     C 1128   3.679   1.636  13.533  1.4787 -0.1197  0.0558
   74MPD2    C1 1129   3.777   1.694  13.613  0.1190 -0.5108  0.8245
   74MPD2    C2 1130   3.802   1.635  13.735  0.2642  0.8203 -0.3032
   74MPD2    C3 1131   3.731   1.520  13.771 -0.7187 -0.3310  0.1956
   74MPD2    C4 1132   3.643   1.455  13.680  0.1456 -0.0517 -0.2782
   74MPD2    C5 1133   3.618   1.514  13.560  0.0546  0.0010  0.2583
   74MPD2     H 1134   3.874   1.679  13.804 -0.3309  1.0888  0.1487
   74MPD2    H1 1135   3.598   1.361  13.709  1.0768 -0.9812 -1.8143
   74MPD2    H2 1136   3.659   1.678  13.435  3.7627  1.0414  0.1161
   74MPD2    H3 1137   3.545   1.469  13.494  0.1661 -0.4168  0.4167
   74MPD2     N 1138   3.749   1.456  13.895  0.0763 -0.4455 -0.3374
   74MPD2    H5 1139   3.684   1.383  13.921 -1.4209  1.3385  0.9393
   74MPD2    N1 1140   3.849   1.804  13.562 -0.3790  0.2486  0.0697
   74MPD2    H7 1141   3.814   1.846  13.476 -1.5073 -0.4339  0.1930
   75TCq2    C1 1142   3.548   2.805  14.286 -0.2535  0.0976 -1.1293
   75TCq2    O2 1143   3.574   2.821  14.405 -0.5648 -0.2062  0.0621
   75TCq2    C2 1144   3.410   2.780  14.253  0.6013 -0.1100  0.1342
   75TCq2    C3 1145   3.326   2.760  14.365 -0.1721 -0.2846 -0.6276
   75TCq2    C4 1146   3.203   2.716  14.350  0.8031 -0.9622 -0.2078
   75TCq2    C5 1147   3.152   2.701  14.224 -0.5294 -0.4334  0.1023
   75TCq2    C6 1148   3.234   2.719  14.116 -0.5873 -1.1553  0.9212
   75TCq2    C7 1149   3.361   2.768  14.123  0.8673  0.0406 -0.0915
   75TCq2    C8 1150   3.192   2.695  13.980 -0.7492 -0.7290 -0.8944
   75TCq2    O4 1151   3.279   2.678  13.893 -0.5069  0.0278 -0.1855
   75TCq2    C9 1152   3.113   2.700  14.461 -0.4759 -0.3006 -0.0563
   75TCq2    O5 1153   2.991   2.713  14.440  0.7801 -0.4690 -0.7409
   75TCq2    O6 1154   3.157   2.704  14.581  0.0182 -0.5244 -0.0677
   75TCq2    H2 1155   3.365   2.770  14.465 -2.0543 -2.0101  0.2706
   75TCq2    H3 1156   3.057   2.649  14.217 -1.3196  0.9632  0.3276
   75TCq2    H4 1157   3.422   2.791  14.036  0.2944 -2.2231 -1.0822
   76MPD2     C 1158   2.377   3.259  11.889 -0.0420  0.0982  0.1969
   76MPD2    C1 1159   2.376   3.267  11.749 -0.1501 -0.8675  0.4116
   76MPD2    C2 1160   2.499   3.286  11.680  0.3285  0.5978  0.3650
   76MPD2    C3 1161   2.616   3.303  11.752  0.5850  0.1183  0.2757
   76MPD2    C4 1162   2.617   3.301  11.891 -0.5449 -0.7948  0.8764
   76MPD2    C5 1163   2.496   3.280  11.958  0.8689  0.1717  0.3826
   76MPD2     H 1164   2.502   3.298  11.573  0.9985  1.0592  0.4391
   76MPD2    H1 1165   2.715   3.316  11.935  0.9490  0.7049 -2.9668
   76MPD2    H2 1166   2.285   3.251  11.946 -0.8105 -0.6192 -1.1237
   76MPD2    H3 1167   2.486   3.281  12.066  1.1200 -0.6311  0.4112
   76MPD2     N 1168   2.735   3.349  11.694  0.8521 -0.5427 -0.8336
   76MPD2    H5 1169   2.801   3.395  11.756 -2.4286  0.4987  1.8975
   76MPD2    N1 1170   2.262   3.269  11.672 -0.0851  0.0750  0.1792
   76MPD2    H7 1171   2.278   3.262  11.573  0.0486  1.2583  0.1175
   77TCq2    C1 1172   2.764   3.359  11.560 -0.1614  0.0905 -0.9830
   77TCq2    O2 1173   2.690   3.337  11.463  0.3918  0.2100  0.0377
   77TCq2    C2 1174   2.904   3.388  11.541 -0.3567 -0.1567  0.1181
   77TCq2    C3 1175   2.936   3.434  11.417  0.1032  0.2454  0.2887
   77TCq2    C4 1176   3.060   3.483  11.389  0.5808 -0.2619 -0.1522
   77TCq2    C5 1177   3.155   3.481  11.488  0.8711 -0.9288 -0.0148
   77TCq2    C6 1178   3.127   3.422  11.609  0.2465 -0.4807 -0.7923
   77TCq2    C7 1179   2.998   3.375  11.643 -0.5750  0.4213 -0.4640
   77TCq2    C8 1180   3.227   3.443  11.707 -0.2846 -0.4008  0.9568
   77TCq2    O4 1181   3.347   3.456  11.673 -0.0862  0.1349 -0.2792
   77TCq2    C9 1182   3.079   3.541  11.255 -0.1829 -0.0961  0.1988
   77TCq2    O5 1183   3.003   3.508  11.159  0.1317  0.0540 -0.3271
   77TCq2    O6 1184   3.174   3.618  11.244 -0.9237  0.4143 -0.1140
   77TCq2    H2 1185   2.862   3.439  11.338 -1.1380  1.9773  1.5480
   77TCq2    H3 1186   3.250   3.522  11.456  0.9209  0.3142  1.7711
   77TCq2    H4 1187   2.976   3.317  11.732 -0.7700 -0.9795 -1.4234
   78MPD1     C 1188   3.771   4.235   1.403  0.0611 -0.4532 -0.3286
   78MPD1    C1 1189   3.871   4.303   1.334  0.1715 -0.8826 -0.2749
   78MPD1    C2 1190   3.945   4.219   1.248  0.4149 -0.1280  0.1201
   78MPD1    C3 1191   3.925   4.086   1.218  0.0101 -0.2284  0.0400
   78MPD1    C4 1192   3.820   4.029   1.287  0.1839 -0.8171 -0.1938
   78MPD1    C5 1193   3.739   4.099   1.374 -0.4253  0.3205 -0.0500
   78MPD1     H 1194   4.015   4.277   1.189 -2.2575  2.9583 -0.0498
   78MPD1    H1 1195   3.786   3.929   1.262 -0.2319 -0.3498 -1.5474
   78MPD1    H2 1196   3.705   4.290   1.470 -2.4812 -1.5026 -1.9873
   78MPD1    H3 1197   3.648   4.056   1.414 -1.7503  1.0989 -2.2849
   78MPD1     N 1198   4.012   4.004   1.132  0.2947  0.3918 -0.4885
   78MPD1    H5 1199   3.997   3.903   1.137  0.8307  0.2617 -1.4067
   78MPD1    N1 1200   3.864   4.442   1.321  0.2194  0.2810  0.2262
   78MPD1    H6 1201   3.845   4.494   1.407 -0.5864  1.6137 -0.7549
   78MPD1    H7 1202   3.954   4.475   1.287  0.5865  1.1377  2.0354
   79TCq2    C1 1203   4.088   4.059   1.031 -0.3609  0.6772  0.5803
   79TCq2    O2 1204   4.084   4.172   0.986  0.3266 -1.1061  0.1105
   79TCq2    C2 1205   4.168   3.959   0.964  0.2189  0.1335 -0.2663
   79TCq2    C3 1206   4.153   3.825   0.999 -0.3502  0.0164 -0.7067
   79TCq2    C4 1207   4.260   3.744   0.972 -0.2480  0.1584 -0.0129
   79TCq2    C5 1208   4.378   3.787   0.919 -0.6238 -0.3317 -0.4809
   79TCq2    C6 1209   4.394   3.926   0.898  0.4727  0.6691 -0.0192
   79TCq2    C7 1210   4.286   4.013   0.914  0.7894  0.7936  0.2508
   79TCq2    C8 1211   4.527   3.978   0.919 -0.7036 -0.0152  0.4146
   79TCq2    O4 1212   4.533   4.099   0.953 -0.1353  0.2061 -0.6347
   79TCq2    C9 1213   4.252   3.611   1.021 -0.2604 -0.2754 -0.1733
   79TCq2    O5 1214   4.306   3.521   0.948  0.3636  0.2312  0.1001
   79TCq2    O6 1215   4.162   3.594   1.106 -0.1047  0.2897 -0.1860
   79TCq2    H2 1216   4.062   3.786   1.045  0.8121 -2.6975 -0.7174
   79TCq2    H3 1217   4.460   3.716   0.911 -0.9577 -0.8634  0.8050
   79TCq2    H4 1218   4.299   4.120   0.907 -0.4196  0.8464 -1.2608
   80MPD2     C 1219   2.065   2.556  12.326  0.5438  0.2919  0.1811
   80MPD2    C1 1220   1.968   2.585  12.228 -0.2384  0.1687 -0.2482
   80MPD2    C2 1221   1.843   2.630  12.267 -0.2323 -0.2684 -0.5145
   80MPD2    C3 1222   1.810   2.663  12.400  0.9275  0.8962 -0.4438
   80MPD2    C4 1223   1.907   2.626  12.490 -0.0734  0.0486  0.1812
   80MPD2    C5 1224   2.034   2.583  12.453 -0.2478  0.0977  0.1355
   80MPD2     H 1225   1.774   2.646  12.185  0.7701  0.1864 -1.2780
   80MPD2    H1 1226   1.878   2.659  12.589  1.7958 -0.1713  0.8026
   80MPD2    H2 1227   2.165   2.525  12.299  1.1382  2.3328  0.0465
   80MPD2    H3 1228   2.111   2.570  12.528  0.9545  0.5869 -1.0170
   80MPD2     N 1229   1.687   2.709  12.453  0.6749 -0.1741 -0.2593
   80MPD2    H5 1230   1.678   2.704  12.554 -1.6118 -1.9095 -0.5453
   80MPD2    N1 1231   1.997   2.558  12.096  0.1676  0.3565 -0.3146
   80MPD2    H7 1232   1.912   2.574  12.043 -0.4316  0.9789  0.8370
   81TCq2    C1 1233   2.113   2.517  12.034 -0.1281 -0.4444 -0.1993
   81TCq2    O2 1234   2.227   2.532  12.071  0.2775  0.2505  0.2507
   81TCq2    C2 1235   2.085   2.495  11.894  0.1454 -0.3266 -0.6491
   81TCq2    C3 1236   2.168   2.559  11.800 -0.8176 -0.5929 -0.2367
   81TCq2    C4 1237   2.142   2.528  11.667 -0.0608 -0.0734 -0.0851
   81TCq2    C5 1238   2.024   2.471  11.633  0.2329  0.6532 -0.0776
   81TCq2    C6 1239   1.937   2.435  11.729  0.7905  0.9115 -0.1425
   81TCq2    C7 1240   1.957   2.444  11.865  0.4845 -0.0268 -0.0225
   81TCq2    C8 1241   1.822   2.356  11.685 -0.4630 -0.5252 -0.2399
   81TCq2    O4 1242   1.769   2.382  11.578  0.4686 -0.0829 -0.2325
   81TCq2    C9 1243   2.239   2.558  11.568  0.0028  0.1618 -0.0745
   81TCq2    O5 1244   2.355   2.595  11.612 -0.4262  0.1303  0.0003
   81TCq2    O6 1245   2.201   2.543  11.448  0.1430  0.3066 -0.3041
   81TCq2    H2 1246   2.258   2.619  11.814 -2.1538  1.4176 -0.3340
   81TCq2    H3 1247   2.003   2.454  11.528  0.2563  0.8256 -0.1117
   81TCq2    H4 1248   1.889   2.412  11.942  1.9360 -0.2407  1.1598
   82MPD2     C 1249   0.525   2.377  10.630  1.1212 -0.6231 -0.3555
   82MPD2    C1 1250   0.411   2.346  10.696 -0.3640  0.1307  0.6788
   82MPD2    C2 1251   0.414   2.251  10.796 -0.4737 -0.0978 -0.2817
   82MPD2    C3 1252   0.534   2.193  10.836 -0.1450  0.2935 -0.2490
   82MPD2    C4 1253   0.653   2.234  10.779  0.0244 -0.1078 -0.1439
   82MPD2    C5 1254   0.645   2.326  10.671  0.2468  0.6737 -0.3130
   82MPD2     H 1255   0.332   2.210  10.853  0.5332  0.1092  1.3210
   82MPD2    H1 1256   0.753   2.199  10.803 -0.4092 -1.8567 -0.8362
   82MPD2    H2 1257   0.530   2.448  10.548  0.5087  0.9666  0.9906
   82MPD2    H3 1258   0.735   2.352  10.615  1.0346  0.5498  0.8967
   82MPD2     N 1259   0.546   2.098  10.941  0.3033 -0.3170  0.4571
   82MPD2    H5 1260   0.640   2.073  10.970  0.6894 -0.8713 -1.3108
   82MPD2    N1 1261   0.286   2.394  10.650 -0.1524  0.4765  0.7137
   82MPD2    H7 1262   0.288   2.440  10.559 -0.4004 -0.8646  0.0279
   83TCq2    C1 1263   0.438   2.039  11.010  0.1466  0.2273 -0.6994
   83TCq2    O2 1264   0.316   2.035  10.984  0.6366  0.0432  0.0630
   83TCq2    C2 1265   0.482   1.966  11.120  0.2785  0.5487 -0.5245
   83TCq2    C3 1266   0.615   1.946  11.143 -0.2171  0.1832  0.0498
   83TCq2    C4 1267   0.653   1.850  11.221 -0.7938  0.1480 -0.6031
   83TCq2    C5 1268   0.562   1.767  11.280 -0.0030  0.5109  0.8701
   83TCq2    C6 1269   0.429   1.789  11.259 -0.1092  0.4105  0.1271
   83TCq2    C7 1270   0.388   1.892  11.185 -0.1128  0.2258  0.5824
   83TCq2    C8 1271   0.320   1.695  11.307  0.2984 -0.7552 -0.3394
   83TCq2    O4 1272   0.337   1.657  11.420 -0.2327  0.2228 -0.3362
   83TCq2    C9 1273   0.799   1.825  11.223 -1.3232 -0.5319 -0.6673
   83TCq2    O5 1274   0.872   1.927  11.211  0.2445  0.5291  0.1152
   83TCq2    O6 1275   0.836   1.721  11.279  0.2854  0.0422 -0.2501
   83TCq2    H2 1276   0.694   2.005  11.097 -1.7996  1.0862 -1.5448
   83TCq2    H3 1277   0.601   1.692  11.348  0.8681 -3.0994 -3.6027
   83TCq2    H4 1278   0.285   1.921  11.167 -0.7500 -1.2289  1.8473
   84TCq2    C1 1279   0.489   0.726  10.595  0.3362  0.6022 -0.1018
   84TCq2    O2 1280   0.463   0.665  10.700  0.3779 -0.1031  0.1716
   84TCq2    C2 1281   0.612   0.799  10.584 -0.2591 -0.0815  0.0448
   84TCq2    C3 1282   0.668   0.842  10.466  0.3644  0.3696 -0.3849
   84TCq2    C4 1283   0.775   0.937  10.475 -0.1703  0.4182  0.0687
   84TCq2    C5 1284   0.828   0.975  10.595  0.1761 -0.7740 -0.2561
   84TCq2    C6 1285   0.781   0.907  10.703  0.5539  0.5022  0.1548
   84TCq2    C7 1286   0.665   0.837  10.700  0.6542 -1.9064  0.4657
   84TCq2    C8 1287   0.836   0.948  10.827  0.5800  0.5860 -0.0185
   84TCq2    O4 1288   0.903   1.053  10.827 -0.7774 -0.0071 -0.0062
   84TCq2    C9 1289   0.839   0.992  10.358  0.0945  0.5906 -0.0835
   84TCq2    O5 1290   0.791   0.941  10.256 -0.0612 -0.5760  0.1081
   84TCq2    O6 1291   0.950   1.044  10.369 -0.0737 -0.1639  0.2000
   84TCq2    H2 1292   0.619   0.822  10.371  0.9262 -2.9351  0.0121
   84TCq2    H3 1293   0.914   1.040  10.592 -0.4706  0.1370  0.9156
   84TCq2    H4 1294   0.612   0.815  10.792 -0.9851  1.8716  0.4209
   85MPD2     C 1295   1.367   3.856  16.670 -0.0116 -0.4840 -0.7547
   85MPD2    C1 1296   1.313   3.865  16.544 -0.2130  0.3932 -0.1262
   85MPD2    C2 1297   1.334   3.975  16.461  0.2706  0.8965  0.0894
   85MPD2    C3 1298   1.404   4.083  16.509  0.6367  0.4008  0.2357
   85MPD2    C4 1299   1.455   4.077  16.638 -0.3802 -0.3051 -0.8962
   85MPD2    C5 1300   1.427   3.971  16.721  0.4994  0.1180 -0.2161
   85MPD2     H 1301   1.297   3.978  16.360 -0.0373 -0.7929  0.1589
   85MPD2    H1 1302   1.499   4.160  16.693 -0.7264 -0.9521  0.3745
   85MPD2    H2 1303   1.358   3.771  16.737 -0.3717  1.8393  2.1412
   85MPD2    H3 1304   1.464   3.970  16.823 -0.1096 -1.5317 -0.0183
   85MPD2     N 1305   1.428   4.181  16.418 -0.3498  0.1797  0.2874
   85MPD2    H5 1306   1.388   4.179  16.325  1.2120  0.9421 -0.4067
   85MPD2    N1 1307   1.250   3.752  16.483  0.0237 -0.1198 -0.6343
   85MPD2    H7 1308   1.215   3.758  16.388 -1.8388 -0.6698  0.0233
   86TCq2    C1 1309   1.502   4.292  16.455 -0.1821 -0.0049  0.2004
   86TCq2    O2 1310   1.556   4.327  16.558  0.6294  0.0147 -0.2402
   86TCq2    C2 1311   1.505   4.386  16.343 -0.4972 -0.0687  0.9660
   86TCq2    C3 1312   1.405   4.411  16.252  0.3192 -0.2712 -0.0547
   86TCq2    C4 1313   1.417   4.503  16.156  0.5108 -0.0431  0.0645
   86TCq2    C5 1314   1.528   4.578  16.145 -0.6823  0.2121  0.0972
   86TCq2    C6 1315   1.638   4.547  16.224 -0.7304 -0.0919  0.2553
   86TCq2    C7 1316   1.619   4.459  16.330  0.6043  0.3388 -0.2535
   86TCq2    C8 1317   1.779   4.565  16.182  0.4306  0.8032 -0.1331
   86TCq2    O4 1318   1.864   4.538  16.268  0.8851  0.1724 -0.4402
   86TCq2    C9 1319   1.306   4.545  16.076 -1.1367 -0.5653 -0.4664
   86TCq2    O5 1320   1.192   4.520  16.116 -0.1023 -0.0390  0.1677
   86TCq2    O6 1321   1.322   4.618  15.977 -0.4968  0.3730 -0.1042
   86TCq2    H2 1322   1.306   4.367  16.259  0.1858  0.2810  1.6936
   86TCq2    H3 1323   1.536   4.657  16.071  1.3278  0.6229  0.7625
   86TCq2    H4 1324   1.701   4.422  16.390 -0.3576 -0.9839  0.2587
   87MPD2     C 1325   4.386   3.670   2.122  0.3371 -0.0077 -0.6263
   87MPD2    C1 1326   4.412   3.602   2.011  0.0971  0.3416 -0.0219
   87MPD2    C2 1327   4.311   3.565   1.920  0.0373 -0.1359 -0.1168
   87MPD2    C3 1328   4.183   3.594   1.948  0.0620  0.2360 -0.1657
   87MPD2    C4 1329   4.150   3.662   2.063  0.4378  0.1988  0.2155
   87MPD2    C5 1330   4.247   3.704   2.148 -0.7196  0.0336 -0.6017
   87MPD2     H 1331   4.341   3.516   1.828 -2.2910 -1.6238 -0.0601
   87MPD2    H1 1332   4.046   3.658   2.095 -0.4156  1.3334 -2.3913
   87MPD2    H2 1333   4.463   3.687   2.198  1.2751  0.3814 -1.6628
   87MPD2    H3 1334   4.213   3.727   2.249 -1.0120  0.1066 -0.7160
   87MPD2     N 1335   4.072   3.561   1.867 -0.0051  0.2331 -1.0437
   87MPD2    H5 1336   3.981   3.598   1.892 -1.2168 -1.5876 -2.8316
   87MPD2    N1 1337   4.546   3.562   2.001  0.6569  0.6846  0.5880
   87MPD2    H7 1338   4.610   3.614   2.061  1.0938 -0.7468  1.3645
   88TCq2    C1 1339   4.598   3.468   1.910 -0.1407 -0.2169  0.4548
   88TCq2    O2 1340   4.545   3.430   1.805 -0.0202 -0.1807  1.0355
   88TCq2    C2 1341   0.007   3.426   1.938  0.1709  0.0984  0.0824
   88TCq2    C3 1342   0.039   3.411   2.073  0.2891 -0.6260  0.4656
   88TCq2    C4 1343   0.154   3.347   2.095 -0.2690  0.4454 -0.1655
   88TCq2    C5 1344   0.241   3.313   1.999 -0.1879  0.5215  0.0070
   88TCq2    C6 1345   0.204   3.332   1.862 -0.4577  0.5086 -0.1068
   88TCq2    C7 1346   0.088   3.389   1.831  0.2180  0.5963 -0.7221
   88TCq2    C8 1347   0.290   3.304   1.754 -0.2763 -0.3497  0.0349
   88TCq2    O4 1348   0.239   3.325   1.640 -0.5635  0.0665  0.2527
   88TCq2    C9 1349   0.187   3.309   2.230 -0.7880 -0.2163 -0.7069
   88TCq2    O5 1350   0.281   3.231   2.245 -0.2111 -0.0105  0.3182
   88TCq2    O6 1351   0.112   3.344   2.325  0.5324  0.3318 -0.4709
   88TCq2    H2 1352   4.694   3.437   2.150  0.7926  4.0081 -0.6280
   88TCq2    H3 1353   0.328   3.253   2.022 -2.0057 -2.1504 -0.0832
   88TCq2    H4 1354   0.061   3.417   1.730 -0.9085  2.1406  0.0069
   89MPD2     C 1355   4.622   1.520   2.401 -0.8690 -0.4954  0.1654
   89MPD2    C1 1356   4.555   1.491   2.284  0.3016  0.0832 -0.2182
   89MPD2    C2 1357   4.633   1.502   2.164  0.8769  0.0655  0.1760
   89MPD2    C3 1358   0.035   1.555   2.168 -0.0816 -0.7009 -0.7302
   89MPD2    C4 1359   0.091   1.601   2.282 -0.2324 -0.5102  0.4794
   89MPD2    C5 1360   0.020   1.575   2.398  0.4055 -0.1485 -0.3586
   89MPD2     H 1361   4.592   1.466   2.071  0.1628  0.5814  0.2913
   89MPD2    H1 1362   0.188   1.649   2.277 -1.3187  1.3377 -2.9814
   89MPD2    H2 1363   4.585   1.519   2.503  2.6441  0.6638  1.4525
   89MPD2    H3 1364   0.060   1.607   2.494 -1.6782  1.9207 -0.1899
   89MPD2     N 1365   0.109   1.559   2.044  1.2335 -0.5233 -0.0510
   89MPD2    H5 1366   0.057   1.546   1.958  1.2784  0.7450 -0.2699
   89MPD2    N1 1367   4.425   1.444   2.281 -0.6347  0.9593  0.2941
   89MPD2    H7 1368   4.379   1.435   2.191  1.5547 -0.3967 -0.6860
   90TCq2    C1 1369   0.245   1.561   2.029 -0.3751 -0.6451 -0.0757
   90TCq2    O2 1370   0.329   1.529   2.114  0.0440 -0.2667 -0.4820
   90TCq2    C2 1371   0.288   1.590   1.895  0.7139  0.3950 -0.1136
   90TCq2    C3 1372   0.421   1.547   1.868 -0.0395  0.3052 -0.2191
   90TCq2    C4 1373   0.472   1.584   1.743 -0.1480  0.1767  0.1104
   90TCq2    C5 1374   0.410   1.681   1.662  1.0581 -0.2950  0.3659
   90TCq2    C6 1375   0.294   1.739   1.715  0.7212 -1.5657  0.1514
   90TCq2    C7 1376   0.219   1.696   1.831  0.0532 -0.6987  0.9204
   90TCq2    C8 1377   0.216   1.819   1.623 -0.0322  0.0859  0.0068
   90TCq2    O4 1378   0.112   1.864   1.669 -0.0491 -0.2224  0.0651
   90TCq2    C9 1379   0.585   1.523   1.692  0.0147 -0.3827 -0.1576
   90TCq2    O5 1380   0.665   1.458   1.769  0.0069  0.1738  0.1554
   90TCq2    O6 1381   0.582   1.509   1.567  0.6881 -0.0602 -0.1010
   90TCq2    H2 1382   0.467   1.462   1.917 -1.2208  1.6980  3.3212
   90TCq2    H3 1383   0.469   1.728   1.585  1.4063 -3.4192 -1.2545
   90TCq2    H4 1384   0.121   1.731   1.860 -0.7060 -2.1109  0.0538
   91TMC2    C1 1385   2.107   0.586  16.957 -0.0049 -0.1682 -0.0170
   91TMC2    C2 1386   2.170   0.661  17.052  0.0749  0.0208  0.8929
   91TMC2    C3 1387   2.103   0.695  17.169  0.3348  0.6076  0.2908
   91TMC2    C4 1388   1.973   0.562  16.968 -0.0317  0.3022  0.5027
   91TMC2    C5 1389   1.908   0.592  17.086  0.4083 -0.5160 -0.4541
   91TMC2    C6 1390   1.966   0.667  17.187  0.0429 -1.0761  0.3642
   91TMC2     C 1391   2.180   0.544  16.839  0.4726  0.0718  0.9937
   91TMC2     O 1392   2.270   0.614  16.797  1.1699 -0.0315  0.0833
   91TMC2     H 1393   2.269   0.696  17.025  0.1388  0.1040  1.2323
   91TMC2    H1 1394   1.922   0.493  16.902 -0.1122 -1.2832  2.2278
   91TMC2    H2 1395   1.912   0.711  17.270  1.0878  1.5435 -0.3609
   91TMC2    C7 1396   1.765   0.604  17.073  0.7006  0.3109  0.0350
   91TMC2    C8 1397   2.175   0.776  17.257 -0.6253 -0.6777  0.3798
   91TMC2    O1 1398   1.701   0.623  17.177 -0.0272  0.1006  0.2312
   91TMC2    O2 1399   2.231   0.868  17.205  0.3965  0.0122  0.2235
   91TMC2    O5 1400   2.224   0.688  17.346  0.5215  0.5482 -0.1201
   91TMC2    H5 1401   2.159   0.616  17.364  0.0282  0.9657 -0.2384
   92MPD2     C 1402   2.124   0.232  16.634  0.4277 -0.3136  0.4084
   92MPD2    C1 1403   2.178   0.353  16.679  0.4081  0.1547 -0.2835
   92MPD2    C2 1404   2.272   0.408  16.593 -0.5633 -0.3197  0.2455
   92MPD2    C3 1405   2.310   0.353  16.474  0.2054  0.9697  0.2176
   92MPD2    C4 1406   2.242   0.241  16.439 -0.3609  1.0176  0.0331
   92MPD2    C5 1407   2.153   0.174  16.511 -0.1228 -0.6977 -0.2338
   92MPD2     H 1408   2.325   0.500  16.618 -0.5745 -0.1600 -0.3195
   92MPD2    H1 1409   2.257   0.193  16.343 -0.1510 -1.8257  1.4834
   92MPD2    H2 1410   2.042   0.193  16.693  0.0663  1.7531  1.2807
   92MPD2    H3 1411   2.104   0.086  16.470  1.3693 -0.5419 -2.3533
   92MPD2     N 1412   2.412   0.404  16.398 -0.5077 -0.1256 -0.7429
   92MPD2    H5 1413   2.440   0.497  16.428  0.8343 -0.9046  0.4028
   92MPD2    N1 1414   2.133   0.415  16.802  0.2289  0.2820  0.1599
   92MPD2    H7 1415   2.069   0.368  16.866 -0.4900 -0.0900 -0.8253
   93MPD2     C 1416   3.060   0.502  14.085  0.0117 -0.2228  0.1276
   93MPD2    C1 1417   3.076   0.625  14.139  0.6327 -0.0858  0.0709
   93MPD2    C2 1418   2.976   0.679  14.220  0.5408 -0.0519  0.0680
   93MPD2    C3 1419   2.860   0.605  14.247 -0.0701  0.5981  1.2644
   93MPD2    C4 1420   2.846   0.480  14.190  0.2204 -0.6587 -0.3674
   93MPD2    C5 1421   2.945   0.427  14.112 -0.3181 -0.2757 -0.1204
   93MPD2     H 1422   2.983   0.785  14.240 -1.0850 -0.3631  2.3069
   93MPD2    H1 1423   2.756   0.424  14.213 -0.5155 -0.6438 -3.1684
   93MPD2    H2 1424   3.127   0.465  14.008  0.2223  1.7764 -0.6550
   93MPD2    H3 1425   2.934   0.326  14.074  1.6621 -1.8366  3.4861
   93MPD2     N 1426   2.746   0.667  14.305  0.1514 -0.1034  1.1159
   93MPD2    H5 1427   2.665   0.606  14.302  1.4127 -1.6895 -1.0694
   93MPD2    N1 1428   3.195   0.701  14.126 -0.1251 -0.2970  0.0957
   93MPD2    H7 1429   3.202   0.784  14.183  1.3066 -0.5039  0.2271
   94TCq2    C1 1430   3.297   0.682  14.037 -0.3324  0.7828  0.2832
   94TCq2    O2 1431   3.312   0.605  13.940 -0.2851 -0.5686  0.4296
   94TCq2    C2 1432   3.395   0.780  14.057 -0.0294 -0.3816  0.5913
   94TCq2    C3 1433   3.376   0.884  14.145 -0.6102 -0.4906  0.7561
   94TCq2    C4 1434   3.479   0.973  14.150  0.0572 -0.2524 -0.1185
   94TCq2    C5 1435   3.592   0.973  14.080 -0.0041  0.7785 -0.2243
   94TCq2    C6 1436   3.603   0.875  13.989  0.2127 -0.7715 -0.2096
   94TCq2    C7 1437   3.502   0.781  13.974  0.4209  0.2228 -0.2949
   94TCq2    C8 1438   3.721   0.858  13.911  0.0950 -0.2239  0.6602
   94TCq2    O4 1439   3.756   0.744  13.889  0.4069  0.2164  0.0812
   94TCq2    C9 1440   3.461   1.082  14.242  0.3595 -0.0125 -0.1558
   94TCq2    O5 1441   3.357   1.074  14.312 -0.5723  0.4863 -0.4054
   94TCq2    O6 1442   3.541   1.181  14.237  0.0942 -0.2302 -0.1230
   94TCq2    H2 1443   3.301   0.883  14.223 -1.9267  2.0004 -0.4982
   94TCq2    H3 1444   3.673   1.044  14.095 -0.8859  1.4571  1.2690
   94TCq2    H4 1445   3.518   0.704  13.899 -0.0097 -2.7291  2.6412
   95TMC2    C1 1446   3.263   2.209  16.216 -0.5607  0.1541 -0.4318
   95TMC2    C2 1447   3.306   2.074  16.219 -0.3465  0.6156 -0.3101
   95TMC2    C3 1448   3.236   1.983  16.296  0.3103  0.0722  0.5773
   95TMC2    C4 1449   3.185   2.255  16.319 -0.8294  0.5892 -0.3620
   95TMC2    C5 1450   3.141   2.164  16.409  0.6593 -0.3452 -0.1097
   95TMC2    C6 1451   3.163   2.029  16.401  0.3887  0.5891  0.0691
   95TMC2     C 1452   3.327   2.292  16.112  0.2697 -0.3053  0.2802
   95TMC2     O 1453   3.426   2.242  16.058 -0.2335 -0.0552  0.5661
   95TMC2     H 1454   3.369   2.031  16.143 -2.2459 -1.5442 -0.6504
   95TMC2    H1 1455   3.173   2.362  16.327 -1.6498  0.4641  0.0771
   95TMC2    H2 1456   3.129   1.958  16.475 -0.7654  1.1942  0.1194
   95TMC2    C7 1457   3.076   2.213  16.527  0.2490 -0.1712  0.6588
   95TMC2    C8 1458   3.278   1.845  16.285  0.4857 -0.3238 -0.0077
   95TMC2    O1 1459   3.080   2.138  16.629 -0.0290 -0.0460  0.1362
   95TMC2    O2 1460   3.291   1.774  16.381 -0.2585 -0.1939  0.3584
   95TMC2    O5 1461   3.291   1.804  16.157 -0.4417 -0.5960  0.1421
   95TMC2    H5 1462   3.249   1.861  16.088  0.5900 -1.5409 -1.2848
   96MPD2     C 1463   3.321   2.691  15.799  0.4429 -0.6407  0.0830
   96MPD2    C1 1464   3.406   2.588  15.797  0.0811  0.2514 -0.3668
   96MPD2    C2 1465   3.389   2.489  15.885  0.1950  0.1816  0.3972
   96MPD2    C3 1466   3.283   2.498  15.975 -0.2044  0.6807 -0.1917
   96MPD2    C4 1467   3.196   2.605  15.970  0.6483 -0.0585 -0.7017
   96MPD2    C5 1468   3.224   2.707  15.887  0.0805 -0.6234 -0.8548
   96MPD2     H 1469   3.466   2.414  15.900 -0.4481 -1.0363 -2.3366
   96MPD2    H1 1470   3.120   2.628  16.044  2.7739 -1.6376  2.0126
   96MPD2    H2 1471   3.335   2.774  15.730  0.9152 -2.2426 -1.7303
   96MPD2    H3 1472   3.159   2.793  15.877 -1.1364 -1.4481 -0.1520
   96MPD2     N 1473   3.256   2.402  16.077 -0.5190 -0.5838 -0.5244
   96MPD2    H5 1474   3.171   2.424  16.128  0.4923  0.6245  0.6202
   96MPD2    N1 1475   3.528   2.593  15.718  0.5751 -0.2639 -0.2830
   96MPD2    H7 1476   3.557   2.677  15.668  0.9643 -0.6742 -0.7407
   97MPD2     C 1477   0.471   4.624   1.339 -0.5024 -0.4738  0.4621
   97MPD2    C1 1478   0.614   4.618   1.342 -0.3727  1.1178  0.1189
   97MPD2    C2 1479   0.690   4.543   1.250  0.4460 -0.0850  0.7495
   97MPD2    C3 1480   0.621   4.456   1.171  0.2732  0.4195  0.3845
   97MPD2    C4 1481   0.484   4.468   1.166  0.3471  0.6952  0.5054
   97MPD2    C5 1482   0.415   4.547   1.242 -0.0451 -0.2142 -0.2947
   97MPD2     H 1483   0.798   4.537   1.256  0.5514  1.6248  0.4928
   97MPD2    H1 1484   0.428   4.417   1.088  0.5970  1.3634 -0.1088
   97MPD2    H2 1485   0.418   4.676   1.419 -1.0942  0.2964 -0.4282
   97MPD2    H3 1486   0.307   4.544   1.244 -0.1428  1.3966 -2.7059
   97MPD2     N 1487   0.694   4.374   1.083 -0.1666 -0.0399 -0.1322
   97MPD2    H5 1488   0.794   4.388   1.076 -0.0910  0.4036  1.7732
   97MPD2    N1 1489   0.665   4.711   1.433 -0.0689  0.3303  0.7169
   97MPD2    H7 1490   0.599   0.034   1.493 -1.6190 -1.2371  0.2923
   98TCq2    C1 1491   0.651   4.247   1.053  0.2215 -0.0606 -0.8160
   98TCq2    O2 1492   0.564   4.176   1.100 -0.5355  0.4917  0.1479
   98TCq2    C2 1493   0.765   4.178   0.991 -0.0862 -0.0595  0.4086
   98TCq2    C3 1494   0.790   4.052   1.033 -0.0433 -0.3456  0.2624
   98TCq2    C4 1495   0.913   4.004   1.000  0.6680  1.0687  0.3208
   98TCq2    C5 1496   1.002   4.074   0.922  0.0507  0.2397  0.0825
   98TCq2    C6 1497   0.957   4.197   0.873  0.1164 -0.0147  0.6531
   98TCq2    C7 1498   0.838   4.256   0.907  0.4854  0.3878  0.3370
   98TCq2    C8 1499   1.024   4.258   0.760 -0.4862 -0.3825  0.4078
   98TCq2    O4 1500   0.999   4.373   0.732 -0.2048  0.2271 -0.1822
   98TCq2    C9 1501   0.950   3.869   1.043  0.3173 -0.9085  0.7406
   98TCq2    O5 1502   0.874   3.804   1.122 -0.3053  0.1583  0.4854
   98TCq2    O6 1503   1.064   3.835   1.013  0.4777  0.1168 -0.6843
   98TCq2    H2 1504   0.722   3.992   1.092  0.1928 -1.3550 -0.4924
   98TCq2    H3 1505   1.099   4.029   0.905 -0.4667 -0.5123 -0.8729
   98TCq2    H4 1506   0.812   4.354   0.869  2.9110 -0.5618 -3.7859
   99MPD2     C 1507   4.584   1.934   2.212 -0.4585 -0.4311  0.1111
   99MPD2    C1 1508   4.464   2.003   2.187  0.5661  0.3615  0.0469
   99MPD2    C2 1509   4.411   2.008   2.058  0.0369  0.6769 -0.1324
   99MPD2    C3 1510   4.472   1.945   1.949  0.4017  0.0675  0.5085
   99MPD2    C4 1511   4.593   1.881   1.978  0.0895 -0.3312  0.1483
   99MPD2    C5 1512   4.651   1.884   2.103  0.3993  0.0355  0.0291
   99MPD2     H 1513   4.326   2.072   2.041  1.4902  2.2752 -1.3863
   99MPD2    H1 1514   4.638   1.832   1.892 -2.7840  2.1913 -2.8187
   99MPD2    H2 1515   4.632   1.923   2.308 -0.6194 -3.4805 -0.1631
   99MPD2    H3 1516   0.017   1.828   2.112 -0.7980 -2.1012 -0.9380
   99MPD2     N 1517   4.426   1.958   1.811  0.5407 -0.0113 -0.1233
   99MPD2    H5 1518   4.340   2.012   1.809  0.5482  0.0070  0.0508
   99MPD2    N1 1519   4.393   2.074   2.281  0.1914  0.4921 -0.5009
   99MPD2    H7 1520   4.324   2.138   2.242 -0.9983 -2.0140 -2.5136
  100TCq2    C1 1521   4.429   2.094   2.412 -0.3692  0.0831 -0.3007
  100TCq2    O2 1522   4.530   2.061   2.474  0.4898  0.2205 -0.5359
  100TCq2    C2 1523   4.346   2.200   2.473 -0.6175  0.9330  0.2259
  100TCq2    C3 1524   4.399   2.257   2.583 -0.0459  0.0479 -0.6205
  100TCq2    C4 1525   4.335   2.353   2.647 -0.0181  0.6571  0.5034
  100TCq2    C5 1526   4.202   2.378   2.610 -1.0098  0.0600  0.4816
  100TCq2    C6 1527   4.146   2.314   2.502 -0.3236 -0.4258 -0.4498
  100TCq2    C7 1528   4.219   2.223   2.433  0.3206 -0.6987 -0.1035
  100TCq2    C8 1529   4.001   2.306   2.496 -0.5264 -0.5310 -0.5481
  100TCq2    O4 1530   3.937   2.331   2.593 -0.2645  0.5027 -0.0651
  100TCq2    C9 1531   4.385   2.428   2.760  0.0218 -0.6366  0.4746
  100TCq2    O5 1532   4.503   2.394   2.798  0.1465  0.3942  0.1027
  100TCq2    O6 1533   4.311   2.513   2.821  0.1624  0.3167  0.4450
  100TCq2    H2 1534   4.501   2.239   2.615  0.0179  1.4026 -0.0726
  100TCq2    H3 1535   4.138   2.445   2.666 -1.9939 -1.3133  1.0185
  100TCq2    H4 1536   4.173   2.155   2.363 -0.9913  0.7435 -0.6383
  101MPD2     C 1537   0.430   2.772  12.996  0.5273 -0.1447 -0.4047
  101MPD2    C1 1538   0.337   2.874  12.999  0.0060 -0.3507 -0.5455
  101MPD2    C2 1539   0.230   2.858  13.083 -0.6584 -0.0179  0.0622
  101MPD2    C3 1540   0.210   2.745  13.156  0.7126  0.1289 -0.2301
  101MPD2    C4 1541   0.291   2.634  13.136 -0.3113  0.1253 -0.0463
  101MPD2    C5 1542   0.399   2.653  13.055 -0.1735  0.1409 -0.1962
  101MPD2     H 1543   0.157   2.937  13.088 -0.9061 -0.1539 -1.4426
  101MPD2    H1 1544   0.277   2.539  13.186 -0.4691 -0.9300 -2.0838
  101MPD2    H2 1545   0.527   2.767  12.949 -0.4430 -1.8428 -2.2591
  101MPD2    H3 1546   0.464   2.567  13.045  0.7450  0.5324  2.2831
  101MPD2     N 1547   0.099   2.745  13.243 -0.4431 -0.3994  0.3767
  101MPD2    H5 1548   0.041   2.828  13.239  1.7078  1.0539 -1.0574
  101MPD2    N1 1549   0.369   2.994  12.934 -0.5505 -0.0045  0.3926
  101MPD2    H7 1550   0.453   2.988  12.878 -0.5778 -0.8203  0.4459
  102TCq2    C1 1551   0.703   3.355  12.821 -0.4327 -0.3957 -0.2483
  102TCq2    O2 1552   0.763   3.255  12.779  0.2778 -0.3269 -0.1331
  102TCq2    C2 1553   0.560   3.348  12.828 -0.3518  0.0175  0.3936
  102TCq2    C3 1554   0.493   3.455  12.779  0.5466 -0.0622  0.1890
  102TCq2    C4 1555   0.351   3.444  12.774 -0.1039 -0.4221  0.4961
  102TCq2    C5 1556   0.284   3.328  12.816  0.6418 -0.1523 -0.2837
  102TCq2    C6 1557   0.363   3.225  12.864 -0.4478  0.7277  0.4497
  102TCq2    C7 1558   0.495   3.237  12.876 -0.1970  0.2294  0.1905
  102TCq2    C8 1559   0.295   3.109  12.929 -0.2288 -0.7416  0.0469
  102TCq2    O4 1560   0.190   3.130  12.985 -0.0500 -0.4238  1.0242
  102TCq2    C9 1561   0.274   3.547  12.722  0.2291  0.7905 -0.7515
  102TCq2    O5 1562   0.340   3.641  12.672 -0.0995  0.5783  0.1580
  102TCq2    O6 1563   0.151   3.530  12.704 -0.2210  0.1127 -0.4244
  102TCq2    H2 1564   0.546   3.544  12.747 -0.1467 -0.3960 -1.8712
  102TCq2    H3 1565   0.177   3.316  12.811  0.5869  0.7773 -1.2888
  102TCq2    H4 1566   0.546   3.157  12.929  1.9900  1.8912  0.5943
  103TMC2    C1 1567   3.043   3.472  12.507  0.6543  0.0626  0.2661
  103TMC2    C2 1568   2.942   3.391  12.544 -0.4728  0.0869  0.1492
  103TMC2    C3 1569   2.913   3.382  12.682  1.0305  0.0007  0.0176
  103TMC2    C4 1570   3.106   3.553  12.599 -0.6984  0.1022 -0.9270
  103TMC2    C5 1571   3.079   3.531  12.736 -1.1506 -0.3442  0.7394
  103TMC2    C6 1572   2.968   3.459  12.780  0.0876  0.3235 -0.4090
  103TMC2     C 1573   3.062   3.474  12.368  0.4212  0.3286  0.1765
  103TMC2     O 1574   2.961   3.455  12.302  0.3643  0.5459  0.1190
  103TMC2     H 1575   2.903   3.316  12.477 -0.4696 -0.4014  0.6995
  103TMC2    H1 1576   3.187   3.619  12.570  0.9850 -1.6956 -0.3080
  103TMC2    H2 1577   2.939   3.449  12.884 -1.5213 -2.7741 -1.1631
  103TMC2    C7 1578   3.134   3.627  12.831 -0.2389  0.1626 -0.5226
  103TMC2    C8 1579   2.882   3.244  12.723  1.2219  0.2137 -0.2441
  103TMC2    O1 1580   3.183   3.728  12.777 -0.0155 -0.8419 -0.2747
  103TMC2    O2 1581   2.838   3.229  12.835  0.0423 -0.2252 -0.3952
  103TMC2    O5 1582   2.969   3.163  12.663 -0.1835 -0.3875 -0.5168
  103TMC2    H5 1583   3.031   3.210  12.603  2.0490 -0.8170  1.4613
  104MPD2     C 1584   3.361   3.571  12.181 -0.7222  0.2270  0.1243
  104MPD2    C1 1585   3.243   3.502  12.193 -0.2565 -0.5981  0.1864
  104MPD2    C2 1586   3.176   3.461  12.075 -0.3541 -0.8870  0.6479
  104MPD2    C3 1587   3.237   3.480  11.948 -0.2541 -0.3108  0.0050
  104MPD2    C4 1588   3.362   3.544  11.940 -0.5712 -0.5359  0.0590
  104MPD2    C5 1589   3.412   3.601  12.058  0.0441 -1.2442  0.0263
  104MPD2     H 1590   3.089   3.396  12.082 -1.8120  0.8118 -1.6951
  104MPD2    H1 1591   3.419   3.559  11.849  1.5369  1.1866  1.6789
  104MPD2    H2 1592   3.409   3.612  12.270 -1.7476  1.0370  0.3019
  104MPD2    H3 1593   3.504   3.658  12.054 -1.7570  1.7362  1.5184
  104MPD2     N 1594   3.173   3.436  11.830 -0.2615 -0.3418  0.0494
  104MPD2    H5 1595   3.077   3.412  11.850 -0.8096  1.6633 -0.1080
  104MPD2    N1 1596   3.196   3.497  12.328 -0.3139 -0.0176  0.4185
  104MPD2    H7 1597   3.254   3.528  12.406  1.4936  3.6052 -2.3187
  105MPD2     C 1598   0.512   2.436   0.436  0.4564  0.2190  0.3622
  105MPD2    C1 1599   0.450   2.552   0.402  0.2951  0.2103 -0.4481
  105MPD2    C2 1600   0.444   2.659   0.487 -0.1502  0.1640 -0.0050
  105MPD2    C3 1601   0.500   2.652   0.616 -0.5962  0.7335 -0.6745
  105MPD2    C4 1602   0.564   2.533   0.646 -0.6257 -0.0450  0.0228
  105MPD2    C5 1603   0.566   2.423   0.561  0.2350 -0.5899  0.5659
  105MPD2     H 1604   0.405   2.753   0.451 -0.7438 -0.4000 -0.8246
  105MPD2    H1 1605   0.626   2.532   0.735  1.2751  0.9896 -1.2992
  105MPD2    H2 1606   0.514   2.345   0.377  0.7114  0.9435 -0.7436
  105MPD2    H3 1607   0.620   2.330   0.566  0.5129 -0.4863 -0.4741
  105MPD2     N 1608   0.471   2.762   0.703 -0.3708  0.5465  0.3661
  105MPD2    H5 1609   0.405   2.833   0.673  2.7463  2.1556 -2.5552
  105MPD2    N1 1610   0.386   2.569   0.277  0.3618 -0.5180  0.2620
  105MPD2    H7 1611   0.361   2.667   0.266 -0.1582 -0.4766  1.7100
  106TCq2    C1 1612   0.526   2.772   0.827  0.5683 -0.7652  0.7977
  106TCq2    O2 1613   0.614   2.703   0.875  0.2839  0.0294  0.2283
  106TCq2    C2 1614   0.467   2.876   0.912  0.6613 -0.6952  0.3383
  106TCq2    C3 1615   0.336   2.900   0.907 -0.2351 -0.4129 -0.2772
  106TCq2    C4 1616   0.279   2.946   1.022 -0.1814 -0.3520 -0.3429
  106TCq2    C5 1617   0.356   2.971   1.132 -0.0410  0.3259  0.1034
  106TCq2    C6 1618   0.490   2.963   1.134  0.5752 -0.1268 -0.1538
  106TCq2    C7 1619   0.543   2.899   1.024  0.7290 -0.1705  0.0009
  106TCq2    C8 1620   0.567   2.965   1.263 -0.4193 -0.1789 -0.0981
  106TCq2    O4 1621   0.675   2.910   1.269 -1.5248 -0.2473  0.3872
  106TCq2    C9 1622   0.134   2.941   1.037 -0.7841 -0.2283 -0.6206
  106TCq2    O5 1623   0.092   2.977   1.154 -0.0044 -0.0689  0.2382
  106TCq2    O6 1624   0.068   2.884   0.952  0.1522 -0.0512 -0.0532
  106TCq2    H2 1625   0.269   2.860   0.832  0.7790  1.9154 -2.4304
  106TCq2    H3 1626   0.306   2.995   1.225 -2.2130  2.4239 -1.6149
  106TCq2    H4 1627   0.650   2.885   1.016  0.7641  1.2639 -2.1250
  107TMC2    C1 1628   0.983   1.506  11.553 -0.3519  0.6559 -1.3603
  107TMC2    C2 1629   1.030   1.577  11.437  0.8452  0.1303  0.5795
  107TMC2    C3 1630   1.085   1.505  11.342 -0.0107 -0.4830 -0.3281
  107TMC2    C4 1631   0.978   1.369  11.558  0.1151 -0.1021 -0.2757
  107TMC2    C5 1632   1.043   1.309  11.455  0.4928 -0.1973  0.1751
  107TMC2    C6 1633   1.092   1.371  11.346  0.6169  0.0671 -0.6050
  107TMC2     C 1634   0.891   1.579  11.645 -0.4782  0.3475  0.7897
  107TMC2     O 1635   0.858   1.528  11.751  0.2489  0.3897  0.4266
  107TMC2     H 1636   1.055   1.682  11.439  1.2824  0.0821 -2.5319
  107TMC2    H1 1637   0.931   1.314  11.639 -0.9435 -0.6283 -1.2504
  107TMC2    H2 1638   1.155   1.320  11.275 -0.5548  0.0154 -1.6053
  107TMC2    C7 1639   0.989   1.181  11.427  0.0499 -0.7280  0.0186
  107TMC2    C8 1640   1.150   1.566  11.232  0.3232  1.2241  0.1579
  107TMC2    O1 1641   0.977   1.118  11.530  0.0763  0.6144  0.2055
  107TMC2    O2 1642   1.261   1.520  11.197  0.4025  0.2266 -0.0332
  107TMC2    O5 1643   1.064   1.626  11.156 -0.1468 -0.0501 -0.6146
  107TMC2    H5 1644   0.987   1.651  11.212 -0.2240 -1.5503 -0.0619
  108MPD2     C 1645   0.740   1.900  11.589 -0.1718 -0.2733 -0.5368
  108MPD2    C1 1646   0.778   1.798  11.665 -0.4198  1.0026  0.4109
  108MPD2    C2 1647   0.729   1.789  11.799  0.3704  0.3051  0.0219
  108MPD2    C3 1648   0.647   1.889  11.844  0.0737 -0.3745  0.5611
  108MPD2    C4 1649   0.603   1.993  11.760 -0.3799 -0.2761 -0.8127
  108MPD2    C5 1650   0.648   1.995  11.633  0.6321  0.1259 -0.8370
  108MPD2     H 1651   0.755   1.707  11.865  0.2243  0.6672  0.5286
  108MPD2    H1 1652   0.527   2.065  11.787  0.2622 -0.3127  1.0840
  108MPD2    H2 1653   0.770   1.905  11.485 -0.3104  3.3927 -0.3855
  108MPD2    H3 1654   0.621   2.065  11.555 -0.9822 -0.9181 -1.2116
  108MPD2     N 1655   0.583   1.895  11.974  0.0447 -0.4383  0.0677
  108MPD2    H5 1656   0.522   1.974  11.990  1.5461  1.1383 -2.1329
  108MPD2    N1 1657   0.860   1.705  11.598  0.0316 -0.2166  0.0544
  108MPD2    H7 1658   0.883   1.729  11.502 -4.1228  0.8120 -0.7127
  109MPD2     C 1659   4.553   4.531   1.652  0.2048 -0.2133  0.0126
  109MPD2    C1 1660   4.688   4.529   1.681 -0.3979 -0.0072  0.7767
  109MPD2    C2 1661   0.007   4.567   1.809 -0.4794 -0.2501 -0.0135
  109MPD2    C3 1662   4.645   4.604   1.906  0.1966 -0.2805 -0.0676
  109MPD2    C4 1663   4.504   4.594   1.879  0.5606 -0.7581  0.3192
  109MPD2    C5 1664   4.465   4.553   1.755 -1.1087 -0.5541  0.0879
  109MPD2     H 1665   0.112   4.586   1.832 -0.7715  2.2489 -0.6579
  109MPD2    H1 1666   4.428   4.629   1.949  0.7887  0.0161  0.1817
  109MPD2    H2 1667   4.504   4.502   1.561 -1.3422  2.9781 -0.1743
  109MPD2    H3 1668   4.358   4.547   1.737 -0.8749 -0.2419 -1.3980
  109MPD2     N 1669   4.697   4.624   2.032 -0.3000  0.4910 -0.2070
  109MPD2    H5 1670   0.070   4.643   2.038 -0.3632  0.7353  0.0700
  109MPD2    N1 1671   0.046   4.453   1.596 -0.4489  0.5789 -0.3926
  109MPD2    H7 1672   0.004   4.405   1.517  1.9086 -0.6625 -0.8975
  110TCq2    C1 1673   4.631   4.628   2.154 -0.2655 -0.3607 -0.3846
  110TCq2    O2 1674   4.514   4.601   2.177 -0.1934  0.4601 -0.5359
  110TCq2    C2 1675   4.708   4.661   2.277 -0.0060 -0.4146 -0.1249
  110TCq2    C3 1676   4.644   4.629   2.387  0.1586 -0.6352 -0.1249
  110TCq2    C4 1677   4.697   4.670   2.505 -0.1236 -0.1549 -0.1166
  110TCq2    C5 1678   0.081   0.023   2.513  0.0645  0.4110  0.1482
  110TCq2    C6 1679   0.133   0.057   2.394  0.0382 -0.2762  0.5846
  110TCq2    C7 1680   0.089   0.011   2.274 -0.2630  0.1746 -0.7481
  110TCq2    C8 1681   0.267   0.116   2.402  0.0998  0.3807 -0.7211
  110TCq2    O4 1682   0.292   0.173   2.507  0.2182 -0.2088  0.3862
  110TCq2    C9 1683   4.625   4.641   2.629 -0.0278 -0.5309 -0.0021
  110TCq2    O5 1684   4.521   4.567   2.618  0.4929 -0.0942  0.2571
  110TCq2    O6 1685   4.660   4.703   2.731  0.2787  0.2849  0.6831
  110TCq2    H2 1686   4.560   4.560   2.383  1.1719 -1.8518 -0.4923
  110TCq2    H3 1687   0.129   0.047   2.608  0.4658 -0.7589  0.2446
  110TCq2    H4 1688   0.124   0.046   2.178  2.1452  1.2971  0.5231
  111TMC2    C1 1689   0.455   3.454  11.814 -0.6097 -0.5918 -0.1093
  111TMC2    C2 1690   0.357   3.469  11.907  0.1687  0.1906 -0.7110
  111TMC2    C3 1691   0.386   3.471  12.040  0.0643 -0.0337 -1.1992
  111TMC2    C4 1692   0.586   3.456  11.849 -0.2249  0.4258 -0.2538
  111TMC2    C5 1693   0.614   3.451  11.983  0.4829 -0.0812 -1.0993
  111TMC2    C6 1694   0.518   3.461  12.076  0.8463  0.2501 -0.2930
  111TMC2     C 1695   0.427   3.459  11.676  0.0487 -0.9034 -0.6716
  111TMC2     O 1696   0.523   3.470  11.603 -0.3868  0.2489  0.0524
  111TMC2     H 1697   0.253   3.473  11.875  0.5045  0.7196 -1.7347
  111TMC2    H1 1698   0.666   3.444  11.777  0.7287 -0.3403  0.9170
  111TMC2    H2 1699   0.537   3.466  12.182  0.6565 -0.4826 -0.2255
  111TMC2    C7 1700   0.754   3.445  12.029  0.7422  0.3228 -0.3081
  111TMC2    C8 1701   0.284   3.466  12.141  0.0998  0.0019 -0.2312
  111TMC2    O1 1702   0.768   3.410  12.146  0.0155  0.0041 -0.1140
  111TMC2    O2 1703   0.317   3.400  12.238  0.2239 -0.1530 -0.0527
  111TMC2    O5 1704   0.164   3.481  12.097  0.0345  0.2825  0.1557
  111TMC2    H5 1705   0.163   3.549  12.027 -2.1521 -0.6342 -0.6929
  112MPD2     C 1706   0.112   3.666  11.340  0.6037 -0.0105 -0.4397
  112MPD2    C1 1707   0.249   3.680  11.357 -0.1935  0.4375 -0.5286
  112MPD2    C2 1708   0.314   3.609  11.457  0.3466 -0.4015  0.1400
  112MPD2    C3 1709   0.242   3.526  11.533 -0.2899 -0.0136 -1.0570
  112MPD2    C4 1710   0.105   3.517  11.524 -0.6645  0.2845  0.3923
  112MPD2    C5 1711   0.046   3.582  11.424  0.2984  0.1886  0.2018
  112MPD2     H 1712   0.422   3.616  11.460  0.3136  0.1906 -0.1795
  112MPD2    H1 1713   0.052   3.447  11.588 -2.2794 -0.3167 -1.6196
  112MPD2    H2 1714   0.074   3.706  11.247  2.2532  0.1092 -1.0610
  112MPD2    H3 1715   4.666   3.575  11.401  0.8377 -0.0270 -2.2520
  112MPD2     N 1716   0.297   3.451  11.641  0.3583 -0.4831 -0.0932
  112MPD2    H5 1717   0.233   3.391  11.694 -1.8804  1.8034 -0.1918
  112MPD2    N1 1718   0.327   3.772  11.278 -0.3027 -0.0452 -0.1868
  112MPD2    H7 1719   0.426   3.775  11.298 -0.2505  0.7120 -0.5573
  113MPD2     C 1720   3.527   2.194   0.535 -0.5042 -0.1091  0.0172
  113MPD2    C1 1721   3.559   2.083   0.599 -0.0584  0.3263 -0.8197
  113MPD2    C2 1722   3.474   1.970   0.605  0.4381 -0.6201  0.4773
  113MPD2    C3 1723   3.350   1.978   0.547  0.4213  0.0147 -0.5411
  113MPD2    C4 1724   3.315   2.095   0.476 -0.2240 -0.4611 -0.6191
  113MPD2    C5 1725   3.402   2.203   0.481  0.3688 -0.3459  0.0358
  113MPD2     H 1726   3.496   1.877   0.655  0.1753 -0.2900  1.2093
  113MPD2    H1 1727   3.222   2.116   0.425 -0.0485  1.0179 -0.3483
  113MPD2    H2 1728   3.592   2.281   0.541 -0.6084 -0.2274  3.1698
  113MPD2    H3 1729   3.367   2.296   0.437  1.9060  0.1902 -0.0520
  113MPD2     N 1730   3.246   1.875   0.556 -0.1073  0.3116  0.1912
  113MPD2    H5 1731   3.151   1.901   0.529 -0.4407  0.9050  1.9415
  113MPD2    N1 1732   3.678   2.073   0.668  0.5714 -0.0212 -0.8723
  113MPD2    H7 1733   3.689   1.999   0.737 -1.1989  0.6262  0.0992
  114TCq2    C1 1734   3.265   1.747   0.605 -0.0879  0.1579 -0.4773
  114TCq2    O2 1735   3.366   1.681   0.624  0.4090 -0.0237 -0.7827
  114TCq2    C2 1736   3.133   1.672   0.639  0.3282 -0.0022  0.6679
  114TCq2    C3 1737   3.010   1.733   0.639  0.4344 -0.1860  0.5840
  114TCq2    C4 1738   2.897   1.670   0.686 -0.3264 -0.2304  0.8653
  114TCq2    C5 1739   2.909   1.546   0.734 -0.9931 -0.1220  0.4128
  114TCq2    C6 1740   3.035   1.487   0.730 -0.4208 -0.6025  0.4407
  114TCq2    C7 1741   3.148   1.547   0.686 -0.4492 -0.3161 -0.5023
  114TCq2    C8 1742   3.053   1.362   0.802  0.1109 -1.1134 -0.1101
  114TCq2    O4 1743   3.161   1.315   0.791  0.4992  0.4806  0.5183
  114TCq2    C9 1744   2.768   1.738   0.661 -0.0611 -0.0339 -0.4393
  114TCq2    O5 1745   2.775   1.835   0.583 -0.5684 -0.2382  0.3675
  114TCq2    O6 1746   2.672   1.695   0.729 -0.8336  0.5873  0.1802
  114TCq2    H2 1747   3.003   1.826   0.583 -1.4418 -0.7961 -0.1894
  114TCq2    H3 1748   2.822   1.484   0.754 -1.7260  0.2672 -1.6367
  114TCq2    H4 1749   3.243   1.497   0.698 -0.3896 -1.0834 -4.2148
  115TMC2    C1 1750   4.025   4.249   0.229  0.5216 -0.9971  0.4605
  115TMC2    C2 1751   4.146   4.239   0.164 -0.5733  0.5288 -0.0271
  115TMC2    C3 1752   4.211   4.357   0.145  0.0469  0.9680 -0.4003
  115TMC2    C4 1753   3.968   4.367   0.272  0.2438  0.3598 -0.4014
  115TMC2    C5 1754   4.045   4.482   0.239  0.0792 -0.3451 -0.1521
  115TMC2    C6 1755   4.167   4.484   0.182  0.5526  0.0337  0.1814
  115TMC2     C 1756   3.950   4.125   0.208 -0.2567  0.1952 -0.6260
  115TMC2     O 1757   3.984   4.039   0.127 -0.3601 -0.0996  0.4803
  115TMC2     H 1758   4.187   4.149   0.120 -0.8562  0.9635 -1.2043
  115TMC2    H1 1759   3.868   4.377   0.313  1.3303  1.4297  2.0019
  115TMC2    H2 1760   4.223   4.576   0.179  0.8099 -0.0806  1.6599
  115TMC2    C7 1761   3.973   4.603   0.243 -0.1047 -1.1971  0.4733
  115TMC2    C8 1762   4.329   4.348   0.072 -0.3616  0.4499 -0.0098
  115TMC2    O1 1763   3.879   4.614   0.324  0.0849 -0.0083 -0.1882
  115TMC2    O2 1764   4.421   4.274   0.091 -0.2999  1.0148  0.5204
  115TMC2    O5 1765   4.350   4.461  17.705  0.4868 -0.1948  0.1396
  115TMC2    H5 1766   4.274   4.523  17.699  0.3462 -0.3068  0.7958
  116MPD2     C 1767   3.601   3.808   0.406  0.2064  0.3042 -0.3667
  116MPD2    C1 1768   3.662   3.804   0.279 -0.4661 -0.3670  0.0917
  116MPD2    C2 1769   3.733   3.912   0.239 -0.1246 -0.4900 -0.4768
  116MPD2    C3 1770   3.750   4.018   0.326  0.0765 -0.5031 -0.1567
  116MPD2    C4 1771   3.691   4.018   0.453  1.2609  0.6988 -0.1252
  116MPD2    C5 1772   3.604   3.916   0.483 -0.4526 -0.0424 -0.9909
  116MPD2     H 1773   3.767   3.920   0.136 -2.1033 -0.2400 -1.1161
  116MPD2    H1 1774   3.690   4.107   0.516  0.1270  0.8670 -0.3767
  116MPD2    H2 1775   3.537   3.727   0.437  0.7217  0.2148  0.4557
  116MPD2    H3 1776   3.540   3.917   0.571  2.5247  0.9851  1.1398
  116MPD2     N 1777   3.845   4.122   0.304 -0.3450 -0.7399 -0.0477
  116MPD2    H5 1778   3.847   4.198   0.373 -2.4543  0.1929 -1.0099
  116MPD2    N1 1779   3.661   3.680   0.210  0.3017  0.5162  0.9134
  116MPD2    H7 1780   3.596   3.608   0.238 -2.0647  2.3691  0.1708
  117TMC2    C1 1781   3.130   1.528  14.689  0.2297  0.5136  0.2697
  117TMC2    C2 1782   3.204   1.563  14.798  0.2330 -0.0935 -0.4974
  117TMC2    C3 1783   3.309   1.646  14.786 -0.6361  0.5686 -0.4141
  117TMC2    C4 1784   3.157   1.581  14.564 -0.5372  0.1116 -0.0503
  117TMC2    C5 1785   3.254   1.674  14.557 -0.0164  0.0280  0.2556
  117TMC2    C6 1786   3.324   1.716  14.667 -0.0993 -0.1811  0.0428
  117TMC2     C 1787   3.016   1.438  14.706  0.7138 -1.1644  0.0416
  117TMC2     O 1788   2.986   1.400  14.820 -0.1041  0.1139 -0.0361
  117TMC2     H 1789   3.184   1.510  14.891 -0.1710  0.6931 -0.1381
  117TMC2    H1 1790   3.085   1.562  14.485  0.5970  2.1664 -1.5460
  117TMC2    H2 1791   3.387   1.804  14.658  0.1518 -0.3625  0.0288
  117TMC2    C7 1792   3.300   1.715  14.428 -0.0882  0.7883 -0.4354
  117TMC2    C8 1793   3.357   1.694  14.914 -0.3716  0.0451 -0.0617
  117TMC2    O1 1794   3.376   1.810  14.426 -0.0663  0.0384  0.1101
  117TMC2    O2 1795   3.277   1.701  15.004  0.3773 -0.3321 -0.3504
  117TMC2    O5 1796   3.466   1.767  14.901  0.0826 -0.3403  0.2382
  117TMC2    H5 1797   3.507   1.749  14.813 -1.5676 -0.3247 -0.5259
  118MPD2     C 1798   3.255   1.559  14.105 -0.3958 -1.5847  0.2476
  118MPD2    C1 1799   3.313   1.642  14.192  0.4538 -0.3172 -0.8496
  118MPD2    C2 1800   3.423   1.716  14.151 -0.1603 -0.0639  0.5436
  118MPD2    C3 1801   3.450   1.727  14.019  0.0454 -0.2627 -0.6077
  118MPD2    C4 1802   3.376   1.656  13.922 -0.0403  0.6656 -0.3408
  118MPD2    C5 1803   3.283   1.565  13.970 -0.3640 -0.4525  0.5360
  118MPD2     H 1804   3.470   1.771  14.231  0.4284 -1.5525  1.2249
  118MPD2    H1 1805   3.409   1.667  13.820  0.9624 -2.2314 -0.3192
  118MPD2    H2 1806   3.178   1.495  14.146 -0.5995 -1.0143  0.7605
  118MPD2    H3 1807   3.235   1.499  13.899  3.2733 -0.1277 -2.2201
  118MPD2     N 1808   3.564   1.797  13.972  0.5378 -0.0790  0.2450
  118MPD2    H5 1809   3.568   1.830  13.877 -0.7171 -1.0832 -0.1495
  118MPD2    N1 1810   3.259   1.636  14.322 -0.1829 -0.1071 -0.2033
  118MPD2    H7 1811   3.199   1.558  14.346  1.2253 -1.2470 -0.3692
  119MPD2     C 1812   1.151   2.721  13.112  0.9092  0.1667 -0.8263
  119MPD2    C1 1813   1.050   2.674  13.192 -0.2953  0.0970  0.4040
  119MPD2    C2 1814   0.975   2.564  13.167 -0.2059 -0.0180  0.0252
  119MPD2    C3 1815   1.016   2.484  13.063 -0.6658 -0.0761  0.1967
  119MPD2    C4 1816   1.123   2.517  12.978  0.4789  0.2949 -0.1565
  119MPD2    C5 1817   1.188   2.638  13.003 -0.0052  0.2240 -0.6465
  119MPD2     H 1818   0.895   2.532  13.234  0.1542  0.1717  0.5483
  119MPD2    H1 1819   1.162   2.455  12.898 -0.9895 -1.0546  0.1667
  119MPD2    H2 1820   1.209   2.809  13.134 -1.6421  1.2452  1.5173
  119MPD2    H3 1821   1.273   2.666  12.942 -1.7708 -0.5820 -3.4806
  119MPD2     N 1822   0.949   2.361  13.047 -0.2078  0.0558  0.0238
  119MPD2    H5 1823   0.998   2.295  12.988  0.1615  1.0567 -0.7973
  119MPD2    N1 1824   1.036   2.738  13.312 -0.5205 -0.3230 -0.2175
  119MPD2    H7 1825   1.114   2.800  13.333 -2.1967  1.2939  1.2098
  120TCq2    C1 1826   0.825   2.333  13.093 -0.2464  0.2849  0.0019
  120TCq2    O2 1827   0.734   2.407  13.136 -0.4405  0.3110  0.0784
  120TCq2    C2 1828   0.785   2.196  13.064  0.3540  0.3005 -0.2340
  120TCq2    C3 1829   0.877   2.098  13.037 -0.4913 -0.3465  0.2468
  120TCq2    C4 1830   0.841   1.968  13.047 -0.3110 -0.1030  0.1069
  120TCq2    C5 1831   0.713   1.932  13.092 -0.0368 -0.7262  0.6212
  120TCq2    C6 1832   0.637   2.032  13.137  0.5336  0.2368  0.0558
  120TCq2    C7 1833   0.665   2.161  13.120  0.5660 -0.1211  0.1878
  120TCq2    C8 1834   0.542   2.000  13.235 -0.6529  0.1101  0.6040
  120TCq2    O4 1835   0.480   1.896  13.228  0.0436  0.3836 -1.0882
  120TCq2    C9 1836   0.928   1.862  13.015 -0.1022 -0.4104 -0.3606
  120TCq2    O5 1837   1.044   1.891  12.967 -0.0095 -0.1828 -0.3268
  120TCq2    O6 1838   0.882   1.742  13.021  0.1701  0.6044  0.0757
  120TCq2    H2 1839   0.979   2.123  13.009 -1.1089  0.9707 -0.8539
  120TCq2    H3 1840   0.695   1.828  13.119 -1.9257 -0.2162  1.2773
  120TCq2    H4 1841   0.596   2.238  13.153  1.6656  0.8645  0.2253
  121TMC2    C1 1842   2.816   4.479  14.731  0.2223  0.1066 -0.1672
  121TMC2    C2 1843   2.773   4.472  14.862  0.4230 -0.3650 -0.1049
  121TMC2    C3 1844   2.685   4.377  14.893  0.1929 -0.1392 -0.0822
  121TMC2    C4 1845   2.776   4.381  14.638 -0.8129  0.3248 -0.8388
  121TMC2    C5 1846   2.685   4.290  14.680 -0.1128  0.2141 -0.1237
  121TMC2    C6 1847   2.637   4.289  14.809 -1.5031  0.1993 -0.3501
  121TMC2     C 1848   2.941   4.556  14.715 -0.1642  0.4074  0.8746
  121TMC2     O 1849   2.990   4.591  14.824 -0.1457 -0.1140 -0.2129
  121TMC2     H 1850   2.805   4.537  14.942 -1.8322  1.8961 -1.0284
  121TMC2    H1 1851   2.810   4.382  14.535 -0.4139  0.7899 -0.7080
  121TMC2    H2 1852   2.574   4.206  14.839 -2.2766  0.5475 -0.9857
  121TMC2    C7 1853   2.671   4.175  14.602  0.5320  0.6230  0.0079
  121TMC2    C8 1854   2.633   4.378  15.030 -0.3433 -0.0600 -0.3899
  121TMC2    O1 1855   2.687   4.069  14.659  0.0980 -0.3969 -0.5856
  121TMC2    O2 1856   2.519   4.414  15.055  0.2917  0.5346  0.0189
  121TMC2    O5 1857   2.676   4.251  15.065  0.7634  0.5521 -0.2013
  121TMC2    H5 1858   2.766   4.235  15.030  0.3185 -0.3543 -0.9628
  122MPD2     C 1859   3.191   4.697  14.626 -0.5557 -0.2345 -0.3330
  122MPD2    C1 1860   3.104   4.629  14.539  0.1472 -1.3897 -0.2489
  122MPD2    C2 1861   3.131   4.618  14.402  0.1162 -0.6035 -0.4455
  122MPD2    C3 1862   3.240   4.685  14.354 -0.5571 -0.8880  0.1433
  122MPD2    C4 1863   3.327   0.012  14.443  0.3501 -0.9254 -0.2617
  122MPD2    C5 1864   3.303   0.017  14.579 -0.2894  0.7934  0.3915
  122MPD2     H 1865   3.059   4.564  14.342  0.5622 -3.5767  1.6415
  122MPD2    H1 1866   3.416   0.063  14.406 -0.0563  0.3349  0.5332
  122MPD2    H2 1867   3.172   4.703  14.733 -2.4033 -1.3843 -0.5961
  122MPD2    H3 1868   3.370   0.064  14.649 -0.4586  1.7299 -0.0757
  122MPD2     N 1869   3.275   4.704  14.224  0.8280 -0.2796 -0.8923
  122MPD2    H5 1870   3.360   0.029  14.202  1.9005 -1.8604 -0.4478
  122MPD2    N1 1871   2.980   4.570  14.584 -0.3417 -0.1424 -0.2339
  122MPD2    H7 1872   2.926   4.526  14.510 -0.8656  0.5040 -0.2292
  123MPD2     C 1873   4.350   1.958   9.636  1.0075 -0.2107  0.0816
  123MPD2    C1 1874   4.440   2.045   9.568 -0.0193 -0.1173  0.4529
  123MPD2    C2 1875   4.576   2.016   9.578  0.3059  0.2427 -0.3547
  123MPD2    C3 1876   4.623   1.907   9.644 -0.0028  0.0558 -0.1958
  123MPD2    C4 1877   4.536   1.824   9.709 -0.2998 -0.0471  0.1410
  123MPD2    C5 1878   4.402   1.854   9.700  0.0981 -0.0408 -0.9066
  123MPD2     H 1879   4.650   2.080   9.531 -2.5758  4.0453  0.3005
  123MPD2    H1 1880   4.576   1.741   9.766  1.6112 -0.5970 -1.9981
  123MPD2    H2 1881   4.243   1.976   9.634  1.1628  0.7642  0.7319
  123MPD2    H3 1882   4.333   1.785   9.748 -1.9214  1.4591 -1.6783
  123MPD2     N 1883   0.036   1.888   9.635  0.9216 -0.2311 -0.0891
  123MPD2    H5 1884   0.092   1.967   9.603  0.5596 -0.3886 -1.0843
  123MPD2    N1 1885   4.379   2.146   9.497  0.2940 -0.4648  0.7130
  123MPD2    H7 1886   4.278   2.152   9.507  0.1396  1.3786 -1.9881
  124TCq2    C1 1887   0.106   1.783   9.685  0.3868  0.0225 -0.1171
  124TCq2    O2 1888   0.070   1.695   9.762 -0.0534  0.0552  0.0228
  124TCq2    C2 1889   0.247   1.797   9.659 -0.0370  0.2916 -0.1895
  124TCq2    C3 1890   0.287   1.901   9.585  0.4887  0.8676 -0.0158
  124TCq2    C4 1891   0.424   1.931   9.585  0.1233  0.6957  0.1039
  124TCq2    C5 1892   0.505   1.883   9.678  0.4247  0.5776  0.1659
  124TCq2    C6 1893   0.460   1.800   9.775 -0.2273  0.2459  0.3705
  124TCq2    C7 1894   0.333   1.749   9.761 -0.1760 -0.5535  0.1177
  124TCq2    C8 1895   0.550   1.759   9.879 -0.6756  0.0695  0.5152
  124TCq2    O4 1896   0.513   1.666   9.945 -0.2417  0.3798 -0.3266
  124TCq2    C9 1897   0.465   2.037   9.493 -0.6012  0.6266 -0.0342
  124TCq2    O5 1898   0.579   2.083   9.514 -0.7659 -0.4151  0.1360
  124TCq2    O6 1899   0.381   2.079   9.412 -0.5040  0.0960 -0.4126
  124TCq2    H2 1900   0.227   1.945   9.507  0.2337  0.0785 -0.2727
  124TCq2    H3 1901   0.609   1.912   9.668  0.5898  0.3716  1.3120
  124TCq2    H4 1902   0.306   1.680   9.840  0.8913  0.6852  1.5692
  125TMC2    C1 1903   1.805   2.160   9.744  0.5591 -0.5117  0.0483
  125TMC2    C2 1904   1.940   2.184   9.716 -0.4685 -0.3683  0.8223
  125TMC2    C3 1905   1.958   2.288   9.631  0.6801 -0.3352  0.5627
  125TMC2    C4 1906   1.708   2.231   9.688  0.2475 -0.7830 -0.0172
  125TMC2    C5 1907   1.729   2.338   9.601  0.4423 -0.0300 -0.1531
  125TMC2    C6 1908   1.861   2.368   9.574  0.2649 -0.1675  0.3112
  125TMC2     C 1909   1.764   2.053   9.835  0.0433  0.0753 -0.5780
  125TMC2     O 1910   1.656   1.997   9.820 -0.3587  0.3419 -0.0592
  125TMC2     H 1911   2.026   2.142   9.766  0.4437  1.2715  0.6216
  125TMC2    H1 1912   1.607   2.201   9.713 -0.2065  0.4998 -0.2832
  125TMC2    H2 1913   1.892   2.428   9.489 -0.7955  0.1496  0.1495
  125TMC2    C7 1914   1.617   2.412   9.543  0.6727  0.2873  1.0397
  125TMC2    C8 1915   2.097   2.310   9.609 -0.4188  0.0205  0.2501
  125TMC2    O1 1916   1.515   2.347   9.522  0.1380 -0.3828  0.1310
  125TMC2    O2 1917   2.189   2.236   9.634  0.0777 -0.5120 -0.1370
  125TMC2    O5 1918   2.113   2.446   9.607  0.2905  0.1552 -0.0688
  125TMC2    H5 1919   2.023   2.486   9.605  0.1503 -0.0904  1.6687
  126MPD1     C 1920   1.823   1.784  10.280 -0.7843 -0.1829 -0.6029
  126MPD1    C1 1921   1.909   1.895  10.277  0.8441  0.6245 -0.7051
  126MPD1    C2 1922   1.932   1.959  10.157  0.0022 -0.6205 -0.1680
  126MPD1    C3 1923   1.845   1.950  10.046 -0.5709  1.0953  0.4148
  126MPD1    C4 1924   1.754   1.841  10.055 -0.4965  0.6178 -0.5632
  126MPD1    C5 1925   1.740   1.764  10.174 -0.0535  0.3981  0.6574
  126MPD1     H 1926   2.011   2.034  10.154 -0.0974 -0.5280 -0.4979
  126MPD1    H1 1927   1.689   1.820   9.971 -2.4546  0.2350  1.0352
  126MPD1    H2 1928   1.793   1.723  10.365 -0.1812 -0.8209 -0.8445
  126MPD1    H3 1929   1.667   1.684  10.168 -0.3955  0.8321 -1.0160
  126MPD1     N 1930   1.856   2.036   9.931 -0.0869  0.0694  0.3858
  126MPD1    H5 1931   1.923   2.112   9.939  0.4857 -0.3155 -0.7387
  126MPD1    N1 1932   1.992   1.910  10.385  0.1692 -0.0582 -0.0946
  126MPD1    H6 1933   2.010   2.010  10.393 -1.0370  0.0124  1.7080
  126MPD1    H7 1934   1.949   1.884  10.474 -0.3896  0.3975 -0.2312
  127MPD2     C 1935   2.761   2.085   9.111 -0.8244  0.5632  0.4430
  127MPD2    C1 1936   2.754   2.080   9.247  0.1033  0.4785 -0.2552
  127MPD2    C2 1937   2.751   2.198   9.311  0.3426 -1.0048  0.9690
  127MPD2    C3 1938   2.752   2.321   9.246 -0.2085  0.0807 -0.3696
  127MPD2    C4 1939   2.744   2.326   9.106  0.4037  0.5646 -0.0947
  127MPD2    C5 1940   2.756   2.206   9.042 -0.4370 -0.0922  0.1485
  127MPD2     H 1941   2.776   2.197   9.416  0.5788  1.6982  0.9534
  127MPD2    H1 1942   2.747   2.415   9.043  1.3280  0.2578 -0.4788
  127MPD2    H2 1943   2.756   1.999   9.045  1.2118  0.1403  0.8492
  127MPD2    H3 1944   2.769   2.209   8.935 -2.3939  0.9071 -0.0505
  127MPD2     N 1945   2.779   2.437   9.319 -0.1736 -0.2136  0.0717
  127MPD2    H5 1946   2.818   2.430   9.413  0.0823 -2.2107 -0.1984
  127MPD2    N1 1947   2.765   1.950   9.310  0.5903  0.0396  0.0646
  127MPD2    H7 1948   2.762   1.864   9.255 -1.0128  1.2273 -1.6984
  128TCq2    C1 1949   2.767   1.931   9.443  1.0059 -0.0533  0.0332
  128TCq2    O2 1950   2.752   2.013   9.537  0.4842  0.4537 -0.8094
  128TCq2    C2 1951   2.752   1.793   9.481 -0.5851  0.3772  0.6989
  128TCq2    C3 1952   2.680   1.768   9.598 -0.2387  0.3747  0.1256
  128TCq2    C4 1953   2.656   1.641   9.628  0.3611 -0.6710 -0.4473
  128TCq2    C5 1954   2.695   1.531   9.551  0.0168  0.7539  0.5281
  128TCq2    C6 1955   2.766   1.562   9.440  0.9326  0.0601 -0.1625
  128TCq2    C7 1956   2.789   1.692   9.400 -0.4255 -0.1555 -0.3227
  128TCq2    C8 1957   2.826   1.454   9.362 -0.6393  0.0289  0.7389
  128TCq2    O4 1958   2.862   1.484   9.249 -0.0110  0.2511  0.0064
  128TCq2    C9 1959   2.580   1.617   9.745  1.0730 -0.4853  0.0712
  128TCq2    O5 1960   2.549   1.720   9.808 -0.1577 -0.3095 -0.2372
  128TCq2    O6 1961   2.543   1.498   9.755 -0.4039 -0.6083  0.5028
  128TCq2    H2 1962   2.658   1.848   9.668 -3.3801 -0.8501  0.5773
  128TCq2    H3 1963   2.678   1.430   9.587  2.7993 -0.0905 -0.5200
  128TCq2    H4 1964   2.844   1.721   9.311 -0.3595  1.3016  0.1880
  129MPD2     C 1965   2.184   3.257   1.621  0.2623  0.2458 -0.1663
  129MPD2    C1 1966   2.056   3.238   1.664 -0.2848 -0.3729  0.1350
  129MPD2    C2 1967   1.958   3.311   1.596  0.2239  0.1083  0.0849
  129MPD2    C3 1968   1.986   3.406   1.500 -0.2628 -0.3251 -0.0357
  129MPD2    C4 1969   2.115   3.424   1.463  0.3851  0.1974  0.4983
  129MPD2    C5 1970   2.213   3.356   1.528  0.0069 -0.8543 -0.4495
  129MPD2     H 1971   1.861   3.292   1.641  0.3657  0.6557  0.6286
  129MPD2    H1 1972   2.139   3.511   1.402 -1.5361 -0.0280 -0.5763
  129MPD2    H2 1973   2.269   3.201   1.659  0.6394  0.9543  0.0332
  129MPD2    H3 1974   2.316   3.368   1.497 -0.1962  3.3966  0.4154
  129MPD2     N 1975   1.881   3.486   1.445  0.5709  0.3845 -0.0924
  129MPD2    H5 1976   1.785   3.478   1.477  0.9514 -0.6354  0.7892
  129MPD2    N1 1977   2.015   3.157   1.769  0.1903 -0.8781 -0.2613
  129MPD2    H7 1978   1.917   3.157   1.793  0.6336  2.1918  1.4951
  130TCq2    C1 1979   2.098   3.075   1.838  0.7879  1.1897 -0.0851
  130TCq2    O2 1980   2.221   3.073   1.842  0.1913 -0.2637  0.1574
  130TCq2    C2 1981   2.026   2.971   1.917  0.3739  0.6031 -0.1595
  130TCq2    C3 1982   2.107   2.872   1.967 -0.1250 -0.0222 -0.2185
  130TCq2    C4 1983   2.057   2.759   2.032 -0.0519  0.1405 -0.8616
  130TCq2    C5 1984   1.922   2.745   2.037  0.0457  0.2326  0.2414
  130TCq2    C6 1985   1.845   2.848   1.992  0.6591 -0.7929  0.3278
  130TCq2    C7 1986   1.892   2.958   1.928 -0.1543  0.1425  0.1756
  130TCq2    C8 1987   1.697   2.838   1.981 -0.5706  0.4102  0.7918
  130TCq2    O4 1988   1.626   2.935   1.963 -0.0954  0.5639 -0.5499
  130TCq2    C9 1989   2.142   2.656   2.079  0.4903 -0.2205  0.2315
  130TCq2    O5 1990   2.095   2.582   2.169 -0.3010  0.1511  0.3902
  130TCq2    O6 1991   2.265   2.662   2.055 -0.6224  0.5825 -0.0946
  130TCq2    H2 1992   2.212   2.890   1.982 -0.7532  2.0764  1.5693
  130TCq2    H3 1993   1.889   2.654   2.086  1.3254  0.0136  0.7200
  130TCq2    H4 1994   1.821   3.026   1.883 -0.1555  0.6999  1.0112
  131MPD2     C 1995   0.122   2.897   9.084 -0.2621 -1.0604 -0.5369
  131MPD2    C1 1996   0.144   2.800   9.184 -0.1537 -0.1898  0.3427
  131MPD2    C2 1997   0.037   2.718   9.223  0.6165  0.1086  0.6032
  131MPD2    C3 1998   4.638   2.731   9.167 -0.7650  0.5545  0.9176
  131MPD2    C4 1999   4.615   2.837   9.076 -0.3781  0.8522 -1.3064
  131MPD2    C5 2000   4.722   2.910   9.029 -0.5466 -0.1336  0.8871
  131MPD2     H 2001   0.048   2.647   9.304  2.1175 -1.3772 -0.8891
  131MPD2    H1 2002   4.525   2.847   9.016 -1.0928 -2.1756 -0.7100
  131MPD2    H2 2003   0.208   2.953   9.049 -2.2274  0.2487 -3.2616
  131MPD2    H3 2004   4.702   2.979   8.949  0.3244 -1.5211 -0.5290
  131MPD2     N 2005   4.539   2.637   9.206  0.2463  0.3542  0.6150
  131MPD2    H5 2006   4.575   2.567   9.270 -0.1144  0.7197  1.2103
  131MPD2    N1 2007   0.272   2.787   9.241  0.6387  0.4669  0.5507
  131MPD2    H7 2008   0.350   2.837   9.202 -0.0339 -0.1512 -1.5788
  132TCq2    C1 2009   0.661   2.971   9.479  0.1341  0.2889 -0.1040
  132TCq2    O2 2010   0.578   3.052   9.516  0.4571  0.1244 -0.4719
  132TCq2    C2 2011   0.622   2.844   9.428 -0.6120  0.0089  0.1104
  132TCq2    C3 2012   0.694   2.733   9.460 -0.4905  0.1446  0.2020
  132TCq2    C4 2013   0.642   2.610   9.449  0.4815 -0.2478  0.4075
  132TCq2    C5 2014   0.514   2.592   9.406  0.6249  0.6087  0.0877
  132TCq2    C6 2015   0.444   2.707   9.365  0.2092 -0.5130  0.0540
  132TCq2    C7 2016   0.502   2.835   9.367 -0.4187  0.1479  0.0414
  132TCq2    C8 2017   0.304   2.696   9.339 -0.7050  0.2817  0.7706
  132TCq2    O4 2018   0.242   2.596   9.376 -0.4783  0.0021 -0.3777
  132TCq2    C9 2019   0.714   2.494   9.484  0.2477  0.1808 -0.5639
  132TCq2    O5 2020   0.658   2.382   9.479 -0.2267 -0.2376 -0.1347
  132TCq2    O6 2021   0.834   2.502   9.515  0.5151  0.0987 -0.1256
  132TCq2    H2 2022   0.799   2.741   9.485 -0.0628 -3.4906 -0.5156
  132TCq2    H3 2023   0.479   2.491   9.391 -0.0730  1.3158 -3.1465
  132TCq2    H4 2024   0.456   2.929   9.338 -0.7639  0.5660  1.9150
  133MPD2     C 2025   0.216   4.010  10.112  0.2383  0.8599 -0.0008
  133MPD2    C1 2026   0.308   3.959  10.029 -0.1939  0.7470  0.0230
  133MPD2    C2 2027   0.273   3.846   9.948  0.2653 -0.0686 -0.2593
  133MPD2    C3 2028   0.153   3.785   9.964  0.0598 -0.0136  0.0895
  133MPD2    C4 2029   0.065   3.844  10.056 -0.6917  0.2892 -0.1956
  133MPD2    C5 2030   0.092   3.961  10.123  1.3988 -1.1187 -0.5406
  133MPD2     H 2031   0.353   3.810   9.885  0.1978 -0.3169 -0.2024
  133MPD2    H1 2032   4.702   3.793  10.092  0.1971 -0.0835  1.5135
  133MPD2    H2 2033   0.236   4.103  10.164  2.4121  0.5605 -0.3291
  133MPD2    H3 2034   0.028   4.013  10.193  0.2659 -2.3286 -0.6807
  133MPD2     N 2035   0.112   3.670   9.897 -0.5868  0.4481 -0.6688
  133MPD2    H5 2036   0.026   3.624   9.926  0.5144 -0.8482  0.5228
  133MPD2    N1 2037   0.425   4.037  10.006  0.3217 -0.4055 -0.1339
  133MPD2    H7 2038   0.431   4.120  10.065 -2.1842  0.9883 -1.8641
  134TCq2    C1 2039   0.528   4.006   9.925 -0.3962  0.1738 -0.0267
  134TCq2    O2 2040   0.555   3.907   9.857 -0.3806  0.2622 -0.3639
  134TCq2    C2 2041   0.630   4.112   9.924  0.6355  0.0418 -0.4227
  134TCq2    C3 2042   0.621   4.240   9.988  0.0447  0.6693 -0.3581
  134TCq2    C4 2043   0.709   4.343   9.963  0.3053  0.5532 -0.0284
  134TCq2    C5 2044   0.813   4.328   9.878  0.2592  0.2861 -0.2323
  134TCq2    C6 2045   0.831   4.198   9.826 -0.0088 -0.5609  0.6490
  134TCq2    C7 2046   0.738   4.096   9.839 -0.4508  0.5207  0.9412
  134TCq2    C8 2047   0.937   4.173   9.726 -0.8164 -1.0933 -0.3342
  134TCq2    O4 2048   0.916   4.092   9.639 -0.7036  0.7862  0.4309
  134TCq2    C9 2049   0.680   4.469  10.028  1.0532 -0.5443  0.1349
  134TCq2    O5 2050   0.569   4.471  10.097  0.2303  0.4270 -0.0649
  134TCq2    O6 2051   0.775   4.555  10.014 -0.1438 -0.3745 -0.4596
  134TCq2    H2 2052   0.533   4.260  10.047  1.2420 -2.2316  2.3578
  134TCq2    H3 2053   0.880   4.412   9.863 -0.3852  0.9159  0.4172
  134TCq2    H4 2054   0.744   4.010   9.773  0.4563  0.4130  1.1636
  135MPD2     C 2055   2.635   2.938   8.881 -0.1181 -0.2916 -0.0134
  135MPD2    C1 2056   2.679   3.042   8.955  0.4008  0.5160 -0.1719
  135MPD2    C2 2057   2.800   3.035   9.023 -0.0955  0.5195 -0.0947
  135MPD2    C3 2058   2.869   2.918   9.024  0.0933  0.0476  0.3938
  135MPD2    C4 2059   2.819   2.806   8.954  0.1935  0.4436  0.0572
  135MPD2    C5 2060   2.706   2.818   8.875 -0.1611  0.7154 -0.3037
  135MPD2     H 2061   2.834   3.123   9.077 -2.7379  1.2584  0.3645
  135MPD2    H1 2062   2.879   2.717   8.950  1.5419  1.2789  1.5173
  135MPD2    H2 2063   2.550   2.953   8.815 -0.5025  2.0671  1.0592
  135MPD2    H3 2064   2.667   2.733   8.820 -2.5145  0.1940  2.1680
  135MPD2     N 2065   3.000   2.906   9.075  0.1144  0.4419  0.1692
  135MPD2    H5 2066   3.056   2.823   9.057  1.1023  1.5671 -2.0211
  135MPD2    N1 2067   2.616   3.166   8.964 -0.1321 -0.1095  0.2260
  135MPD2    H7 2068   2.659   3.234   9.026  0.4421 -1.1505  0.9627
  136TCq2    C1 2069   2.494   3.206   8.914 -0.5794 -0.2819 -0.1871
  136TCq2    O2 2070   2.415   3.136   8.850 -0.5800  0.0231 -0.5102
  136TCq2    C2 2071   2.440   3.338   8.959  0.2726 -0.7832 -1.0230
  136TCq2    C3 2072   2.310   3.363   8.923 -0.2654  0.2647  0.7873
  136TCq2    C4 2073   2.262   3.495   8.933 -0.0207 -0.0657  0.2399
  136TCq2    C5 2074   2.340   3.588   8.994 -0.2727 -0.1453  0.0096
  136TCq2    C6 2075   2.461   3.551   9.048 -0.4403 -0.6856  0.2420
  136TCq2    C7 2076   2.517   3.429   9.024  0.0835 -0.0825  0.7065
  136TCq2    C8 2077   2.538   3.625   9.140 -0.4451 -0.3901 -0.1491
  136TCq2    O4 2078   2.655   3.602   9.161 -0.6966 -0.2913  0.2999
  136TCq2    C9 2079   2.128   3.525   8.893  0.1059  0.1447 -0.1699
  136TCq2    O5 2080   2.064   3.429   8.843 -0.1745 -0.4562  0.2575
  136TCq2    O6 2081   2.075   3.633   8.931 -0.1681 -0.1197 -0.0096
  136TCq2    H2 2082   2.255   3.302   8.853  1.7960 -3.3722  2.3226
  136TCq2    H3 2083   2.293   3.684   9.009 -1.8114 -1.1099  1.4556
  136TCq2    H4 2084   2.615   3.403   9.064  0.4149 -0.6061 -0.4709
  137MPD2     C 2085   2.875   2.594  10.143  0.4465  0.2745 -0.2388
  137MPD2    C1 2086   2.736   2.620  10.159  0.0949  0.3058 -0.6851
  137MPD2    C2 2087   2.703   2.743  10.210 -0.7016 -0.4846  0.3517
  137MPD2    C3 2088   2.794   2.843  10.229  0.1267 -0.2256 -0.2032
  137MPD2    C4 2089   2.930   2.819  10.200  0.5169 -0.0473 -0.9629
  137MPD2    C5 2090   2.962   2.693  10.160 -0.0721  0.4374  0.0064
  137MPD2     H 2091   2.600   2.762  10.237 -0.6708  0.8725 -0.5064
  137MPD2    H1 2092   3.004   2.896  10.215 -0.8490  1.0749 -0.0055
  137MPD2    H2 2093   2.908   2.499  10.103 -0.9107 -1.0313  1.7501
  137MPD2    H3 2094   3.062   2.667  10.127 -0.5928  0.3641 -1.5080
  137MPD2     N 2095   2.733   2.964  10.257  0.5217 -0.0366  0.1469
  137MPD2    H5 2096   2.632   2.969  10.244  0.6182  0.8062 -0.2652
  137MPD2    N1 2097   2.644   2.515  10.122  0.4884  0.0087 -0.5333
  137MPD2    H7 2098   2.696   2.429  10.105  0.8951  0.3276 -0.9195
  138TCq2    C1 2099   2.506   2.535  10.099  0.0642 -0.3666 -0.4645
  138TCq2    O2 2100   2.435   2.637  10.118  0.4391 -0.1808 -0.0792
  138TCq2    C2 2101   2.440   2.420  10.038  0.2896 -0.1774 -0.3071
  138TCq2    C3 2102   2.510   2.305  10.013 -0.0024  0.2718 -0.0107
  138TCq2    C4 2103   2.441   2.194   9.966 -0.5539  0.2943 -0.0605
  138TCq2    C5 2104   2.307   2.199   9.940  0.0402 -0.4990  0.2061
  138TCq2    C6 2105   2.242   2.322   9.952  0.5993 -0.3839 -0.9237
  138TCq2    C7 2106   2.308   2.434   9.995  0.4064  0.7920  0.2295
  138TCq2    C8 2107   2.098   2.332   9.978  0.1660  0.2825 -0.1725
  138TCq2    O4 2108   2.042   2.224  10.005 -0.2672 -0.2166  0.1155
  138TCq2    C9 2109   2.504   2.068   9.946  0.5404 -0.2447  0.2943
  138TCq2    O5 2110   2.434   1.964   9.939 -0.0564  0.1108  0.0728
  138TCq2    O6 2111   2.628   2.063   9.967  0.3580 -0.2939  0.4253
  138TCq2    H2 2112   2.617   2.295  10.029  0.1622 -1.7161 -2.2215
  138TCq2    H3 2113   2.262   2.109   9.900  0.1985 -2.5634  4.6348
  138TCq2    H4 2114   2.263   2.533   9.998 -1.4445  0.0230 -1.6927
  139TMC2    C1 2115   2.238   2.075  13.313 -0.3444 -0.0235 -0.3693
  139TMC2    C2 2116   2.165   2.034  13.202 -0.1399 -0.3345 -0.2851
  139TMC2    C3 2117   2.053   2.111  13.170  0.5728 -0.8544  0.1645
  139TMC2    C4 2118   2.212   2.187  13.386 -0.0559  0.0558  0.0983
  139TMC2    C5 2119   2.105   2.263  13.342  0.3034 -0.1061 -0.5915
  139TMC2    C6 2120   2.026   2.232  13.231  0.3848 -0.0891  0.3500
  139TMC2     C 2121   2.335   1.977  13.366 -0.1030  0.0528 -0.5830
  139TMC2     O 2122   2.315   1.860  13.330 -0.2173 -0.2178  0.0331
  139TMC2     H 2123   2.181   1.941  13.148  1.0332  0.3579 -1.0978
  139TMC2    H1 2124   2.257   2.200  13.484 -1.6879  3.3660  0.4089
  139TMC2    H2 2125   1.934   2.284  13.208  0.2587 -0.2724  0.4400
  139TMC2    C7 2126   2.059   2.364  13.425  0.0920 -0.0796  0.5868
  139TMC2    C8 2127   1.973   2.068  13.061  0.1585  0.1996  0.6151
  139TMC2    O1 2128   1.939   2.397  13.411  0.7735 -0.4167 -0.6989
  139TMC2    O2 2129   1.922   2.149  12.981  0.0742  0.2395 -0.0618
  139TMC2    O5 2130   1.918   1.951  13.105  0.2271  0.1445  0.8004
  139TMC2    H5 2131   1.975   1.910  13.173 -1.3665  0.6043  2.4283
  140MPD2     C 2132   2.627   2.018  13.577 -0.4014  0.8220  0.5731
  140MPD2    C1 2133   2.535   1.955  13.499 -0.2741  0.2429  0.2127
  140MPD2    C2 2134   2.565   1.820  13.461  0.1798 -0.0023  0.4494
  140MPD2    C3 2135   2.671   1.757  13.516  0.4332  0.5591 -0.2928
  140MPD2    C4 2136   2.752   1.821  13.611  0.0393  0.1272  0.1539
  140MPD2    C5 2137   2.734   1.954  13.630 -0.3465  0.0590 -0.4662
  140MPD2     H 2138   2.490   1.771  13.399  1.4123 -2.3458  0.8257
  140MPD2    H1 2139   2.825   1.761  13.663 -1.1859 -1.3599  0.1771
  140MPD2    H2 2140   2.623   2.120  13.613 -1.4549  0.1714  2.3266
  140MPD2    H3 2141   2.790   2.003  13.708 -2.4053  1.2475  0.2489
  140MPD2     N 2142   2.680   1.624  13.488  0.0491  0.5387  0.0660
  140MPD2    H5 2143   2.626   1.593  13.408 -0.0119 -1.6781  0.9682
  140MPD2    N1 2144   2.423   2.028  13.449  0.4323 -0.1342 -0.3297
  140MPD2    H7 2145   2.417   2.127  13.472  1.3834 -0.1901  0.1245
  141TCq2    C1 2146   2.922   3.274  14.476 -0.5814  0.7324  0.0790
  141TCq2    O2 2147   2.899   3.390  14.447  0.7128 -0.6944  0.2821
  141TCq2    C2 2148   2.895   3.226  14.615 -0.1609 -0.2741  0.1052
  141TCq2    C3 2149   2.944   3.116  14.672  0.0386  0.1336 -0.3305
  141TCq2    C4 2150   2.925   3.087  14.802 -0.2455  0.7935 -0.1757
  141TCq2    C5 2151   2.860   3.178  14.883 -0.7543 -0.1068 -0.4292
  141TCq2    C6 2152   2.809   3.297  14.831  0.7161 -0.2265  0.0866
  141TCq2    C7 2153   2.825   3.312  14.695 -0.2522  0.3208 -0.3621
  141TCq2    C8 2154   2.770   3.407  14.920 -0.1991  0.0941 -1.3481
  141TCq2    O4 2155   2.726   3.381  15.031  0.3919  0.2571 -0.2031
  141TCq2    C9 2156   2.983   2.966  14.850 -0.2027 -1.0168 -0.6786
  141TCq2    O5 2157   3.017   2.884  14.759  0.3641 -0.5890 -0.4057
  141TCq2    O6 2158   2.977   2.940  14.973  0.3296  0.4616 -0.0662
  141TCq2    H2 2159   3.004   3.051  14.609  1.0611  1.7890 -1.0465
  141TCq2    H3 2160   2.850   3.159  14.989  2.5380 -0.5653 -0.2019
  141TCq2    H4 2161   2.776   3.399  14.653  0.7714  0.5788 -1.0339
  142MPD2     C 2162   0.392   0.987  11.038  0.4798 -0.6730 -0.0730
  142MPD2    C1 2163   0.382   1.015  10.901  0.5744  0.7572  0.1486
  142MPD2    C2 2164   0.469   1.103  10.835 -0.9555  0.4418 -0.5474
  142MPD2    C3 2165   0.567   1.170  10.907  0.0893 -0.8285 -0.0721
  142MPD2    C4 2166   0.583   1.143  11.039  0.8392  0.1495 -0.2082
  142MPD2    C5 2167   0.497   1.052  11.107  0.1958  0.1314 -0.1116
  142MPD2     H 2168   0.441   1.129  10.734 -1.3287 -1.8122 -1.0321
  142MPD2    H1 2169   0.674   1.182  11.083  0.3578  0.1176  0.7994
  142MPD2    H2 2170   0.328   0.912  11.082  1.4239 -2.0878 -1.1400
  142MPD2    H3 2171   0.518   1.026  11.210  1.7644 -0.4102 -0.5644
  142MPD2     N 2172   0.658   1.257  10.841 -0.0097  0.1025  0.1075
  142MPD2    H5 2173   0.754   1.263  10.876  0.4849  0.6165 -1.3431
  142MPD2    N1 2174   0.282   0.942  10.831  0.2533  0.5780 -0.0012
  142MPD2    H7 2175   0.235   0.873  10.889  0.7525  0.9996  0.9090
  143TCq2    C1 2176   0.612   1.326  10.734  1.0858 -0.2186  0.5000
  143TCq2    O2 2177   0.499   1.334  10.680  0.6900  0.0636  0.3591
  143TCq2    C2 2178   0.718   1.397  10.660  0.4409 -0.2814 -0.3186
  143TCq2    C3 2179   0.849   1.371  10.687  0.5370  0.4490  0.0740
  143TCq2    C4 2180   0.945   1.447  10.616  0.0923  0.5592 -0.3248
  143TCq2    C5 2181   0.909   1.545  10.532  0.3363 -0.1299  0.2118
  143TCq2    C6 2182   0.778   1.562  10.502 -0.0586 -0.3867  0.0172
  143TCq2    C7 2183   0.676   1.484  10.558  0.2008  0.3738  0.6175
  143TCq2    C8 2184   0.729   1.629  10.380  0.2892 -0.0137  0.4923
  143TCq2    O4 2185   0.630   1.592  10.314  0.1269  0.4982  0.2155
  143TCq2    C9 2186   1.086   1.437  10.658 -0.4244 -0.0025  0.0757
  143TCq2    O5 2187   1.106   1.377  10.768  0.7828  0.0559 -0.2632
  143TCq2    O6 2188   1.170   1.491  10.587 -0.1907  0.6315  0.0204
  143TCq2    H2 2189   0.888   1.295  10.754 -0.6913  0.0276  0.2976
  143TCq2    H3 2190   0.989   1.599  10.483 -0.9994  1.7807  0.1330
  143TCq2    H4 2191   0.571   1.508  10.540  0.3564  0.5024 -0.1323
  144MPD2     C 2192   3.587   1.433   0.689 -0.2785  0.6359  0.0919
  144MPD2    C1 2193   3.646   1.307   0.698 -0.1094  0.3993 -0.6495
  144MPD2    C2 2194   3.771   1.300   0.757  0.1926 -0.1968  0.6094
  144MPD2    C3 2195   3.830   1.412   0.812 -0.0060  0.1400  0.0871
  144MPD2    C4 2196   3.773   1.533   0.805  0.2739  0.9638 -0.5824
  144MPD2    C5 2197   3.651   1.539   0.750 -0.3067  0.3406 -0.0867
  144MPD2     H 2198   3.821   1.205   0.761  1.0356  0.3820  3.8877
  144MPD2    H1 2199   3.826   1.621   0.841  0.4518  1.6020 -2.3960
  144MPD2    H2 2200   3.483   1.444   0.661 -0.5227 -0.1191  0.6897
  144MPD2    H3 2201   3.601   1.635   0.757  0.3777  0.7535 -0.8801
  144MPD2     N 2202   3.963   1.411   0.850 -0.8770  0.3805  0.9454
  144MPD2    H5 2203   3.994   1.493   0.900  0.9618 -0.6650  1.4978
  144MPD2    N1 2204   3.583   1.183   0.667 -0.1692 -0.2020  0.0129
  144MPD2    H7 2205   3.628   1.098   0.700  1.5905  0.5696 -0.3628
  145TCq2    C1 2206   4.053   1.309   0.830 -0.2307  0.9030  0.0534
  145TCq2    O2 2207   4.049   1.215   0.751  1.1548  0.3298 -0.1501
  145TCq2    C2 2208   4.177   1.334   0.890 -0.3797 -0.1497 -0.2083
  145TCq2    C3 2209   4.281   1.254   0.848 -0.0781  0.3303  0.1999
  145TCq2    C4 2210   4.379   1.219   0.943 -0.1413 -0.4514 -0.3039
  145TCq2    C5 2211   4.372   1.271   1.071  0.2537 -0.5797 -0.1352
  145TCq2    C6 2212   4.267   1.357   1.102 -0.5900  0.3691  0.2015
  145TCq2    C7 2213   4.172   1.396   1.016  0.4998 -0.5265  0.0137
  145TCq2    C8 2214   4.276   1.403   1.247 -0.5574  0.3348  0.5290
  145TCq2    O4 2215   4.384   1.383   1.296  0.7694 -0.0656 -0.5561
  145TCq2    C9 2216   4.468   1.103   0.917 -0.1780 -0.0900  0.3582
  145TCq2    O5 2217   4.547   1.080   1.015  0.6089  0.4360 -0.4411
  145TCq2    O6 2218   4.449   1.027   0.816 -0.3114 -0.3630 -0.0346
  145TCq2    H2 2219   4.285   1.195   0.757 -0.8103  0.6779 -0.0542
  145TCq2    H3 2220   4.446   1.238   1.143 -0.7214  2.1109  2.1155
  145TCq2    H4 2221   4.089   1.459   1.047  0.4031  0.3690 -2.0647
  146TMC2    C1 2222   0.822   4.176  12.044 -0.0954 -0.8676  0.1379
  146TMC2    C2 2223   0.793   4.183  11.916 -0.7650  0.0123 -0.4467
  146TMC2    C3 2224   0.896   4.150  11.833 -0.3499  0.3391 -0.2021
  146TMC2    C4 2225   0.946   4.162  12.100 -0.2050 -0.0083 -0.0976
  146TMC2    C5 2226   1.050   4.136  12.010  0.4542 -0.5071  0.0127
  146TMC2    C6 2227   1.026   4.137  11.878 -0.5990 -0.8287 -0.0343
  146TMC2     C 2228   0.708   4.195  12.126 -0.6518 -0.2742 -0.3413
  146TMC2     O 2229   0.605   4.242  12.073 -0.0090  0.0720  0.2164
  146TMC2     H 2230   0.691   4.192  11.880 -0.7732  1.3819 -0.0568
  146TMC2    H1 2231   0.981   4.182  12.201 -0.7449 -1.1310  0.3038
  146TMC2    H2 2232   1.108   4.119  11.810 -0.9508  2.4512 -1.3368
  146TMC2    C7 2233   1.184   4.137  12.059  0.2628 -0.3949  0.5659
  146TMC2    C8 2234   0.878   4.173  11.688 -0.3398 -0.3060  0.3430
  146TMC2    O1 2235   1.271   4.144  11.971 -0.7770 -0.8497 -0.0680
  146TMC2    O2 2236   0.974   4.202  11.621 -0.2103  0.1811 -0.2322
  146TMC2    O5 2237   0.767   4.112  11.645  0.4180  0.2629 -0.0807
  146TMC2    H5 2238   0.722   4.067  11.720 -1.9297  1.2234 -0.9176
  147MPD2     C 2239   1.566   4.129  12.391  0.3584  0.0195 -0.4582
  147MPD2    C1 2240   1.458   4.077  12.460 -0.1567  0.6010  0.0581
  147MPD2    C2 2241   1.339   4.062  12.386  0.1810  0.3754  0.8484
  147MPD2    C3 2242   1.328   4.107  12.256  0.2939 -0.1103  0.2288
  147MPD2    C4 2243   1.435   4.172  12.193 -0.4579 -0.1057  0.0628
  147MPD2    C5 2244   1.550   4.177  12.267 -0.0644  0.0542 -0.8073
  147MPD2     H 2245   1.250   4.013  12.424  0.0368 -0.7505 -0.9154
  147MPD2    H1 2246   1.433   4.224  12.098 -1.0064  0.8219  0.5761
  147MPD2    H2 2247   1.659   4.138  12.445 -0.1333  0.7045  0.2802
  147MPD2    H3 2248   1.637   4.228  12.226 -1.4939  0.7686 -2.9792
  147MPD2     N 2249   1.201   4.097  12.188 -0.1581 -0.5390  0.3687
  147MPD2    H5 2250   1.121   4.065  12.242 -2.1463  2.3205 -0.9213
  147MPD2    N1 2251   1.487   4.012  12.583  0.5778 -0.1533  0.0915
  147MPD2    H7 2252   1.576   4.041  12.623  0.2746  2.5399 -1.2441
  148MPD2     C 2253   0.423   3.130  10.307  0.0805 -0.1403  0.1634
  148MPD2    C1 2254   0.492   3.019  10.280 -0.5083  0.3895  0.0423
  148MPD2    C2 2255   0.425   2.906  10.225 -0.4855  0.1343  0.0786
  148MPD2    C3 2256   0.286   2.903  10.219 -0.6548  0.3187 -0.1937
  148MPD2    C4 2257   0.219   3.019  10.259  0.3217  0.4193  0.4220
  148MPD2    C5 2258   0.285   3.138  10.281  0.5044 -0.7988  0.7187
  148MPD2     H 2259   0.485   2.819  10.203  0.6755  0.2913  2.6522
  148MPD2    H1 2260   0.110   3.018  10.263  0.2496  0.1005 -1.4048
  148MPD2    H2 2261   0.470   3.220  10.346 -1.4837  1.4479 -1.6105
  148MPD2    H3 2262   0.222   3.224  10.293 -0.7605 -1.5787 -0.3269
  148MPD2     N 2263   0.211   2.791  10.174 -0.0267 -0.7277  0.0524
  148MPD2    H5 2264   0.111   2.803  10.178 -0.1316 -1.0169 -1.6478
  148MPD2    N1 2265   0.634   3.012  10.298  0.4732 -0.1738  0.2330
  148MPD2    H7 2266   0.676   2.923  10.272  0.3018  0.5537 -2.4504
  149TCq2    C1 2267   0.721   3.116  10.340 -0.1490  0.5162  1.0727
  149TCq2    O2 2268   0.692   3.224  10.385  0.0214 -0.0840 -0.9301
  149TCq2    C2 2269   0.858   3.082  10.360  0.7896  0.0824  0.1711
  149TCq2    C3 2270   0.905   3.129  10.480 -0.3509  0.1852  0.1239
  149TCq2    C4 2271   1.029   3.077  10.531 -0.1883 -0.2791 -0.0226
  149TCq2    C5 2272   1.085   2.972  10.467  0.6021  0.5615  0.4161
  149TCq2    C6 2273   1.033   2.925  10.349 -0.0236  0.2518  0.3714
  149TCq2    C7 2274   0.924   2.986  10.289 -0.4222  0.2499 -0.2199
  149TCq2    C8 2275   1.026   2.778  10.346 -0.3152  0.1860  0.3548
  149TCq2    O4 2276   1.023   2.715  10.451  0.4788  0.2633  0.4784
  149TCq2    C9 2277   1.046   3.078  10.672  0.4655 -0.0093 -0.4753
  149TCq2    O5 2278   1.163   3.079  10.714 -0.1009  0.0689 -0.5965
  149TCq2    O6 2279   0.940   3.083  10.743  0.1161 -0.2397 -0.0916
  149TCq2    H2 2280   0.852   3.201  10.541 -1.0830 -0.6982  0.5291
  149TCq2    H3 2281   1.157   2.911  10.520 -1.1428 -0.6199  1.4400
  149TCq2    H4 2282   0.867   2.935  10.213  0.6073 -0.8166 -0.2948
  150MPD2     C 2283   2.284   1.978  12.130  0.4004 -0.4908  0.4755
  150MPD2    C1 2284   2.276   2.068  12.028  0.3676 -0.3754 -0.5256
  150MPD2    C2 2285   2.346   2.188  12.036 -0.7846 -0.3089  0.5905
  150MPD2    C3 2286   2.436   2.214  12.138  0.5561 -0.1914 -0.5295
  150MPD2    C4 2287   2.439   2.124  12.245 -0.1343  0.2884  0.2004
  150MPD2    C5 2288   2.357   2.014  12.243 -0.1343  0.1882  0.8961
  150MPD2     H 2289   2.347   2.261  11.956 -1.2891  0.6148  1.4165
  150MPD2    H1 2290   2.517   2.128  12.320 -0.1648  0.7216  0.2117
  150MPD2    H2 2291   2.229   1.885  12.124 -1.1389  0.5881 -2.0085
  150MPD2    H3 2292   2.379   1.950  12.327  1.6508 -0.6159 -0.1713
  150MPD2     N 2293   2.517   2.326  12.135  0.2668 -0.2358  0.4201
  150MPD2    H5 2294   2.494   2.392  12.061  0.2540 -0.7598 -0.0458
  150MPD2    N1 2295   2.196   2.033  11.916  0.0690 -0.0804  0.3841
  150MPD2    H7 2296   2.160   1.938  11.915 -2.2755  0.8077 -0.3088
  151TCq2    C1 2297   2.631   2.349  12.210  0.2227  0.2069 -0.3045
  151TCq2    O2 2298   2.678   2.289  12.307 -0.4330  0.1636  0.0167
  151TCq2    C2 2299   2.706   2.469  12.155 -0.3768  0.6143 -0.3285
  151TCq2    C3 2300   2.661   2.545  12.051  0.2061 -0.0440 -0.1586
  151TCq2    C4 2301   2.737   2.643  11.998  0.2427 -0.3719 -0.4712
  151TCq2    C5 2302   2.847   2.677  12.071 -0.6241  0.0303  0.1752
  151TCq2    C6 2303   2.881   2.614  12.185  0.5445 -0.6478 -0.0619
  151TCq2    C7 2304   2.813   2.504  12.231  0.1280  0.2442 -0.2687
  151TCq2    C8 2305   2.978   2.674  12.270 -0.0579  0.0167  0.4599
  151TCq2    O4 2306   3.008   2.789  12.238  0.2874 -0.1121 -0.0973
  151TCq2    C9 2307   2.712   2.703  11.870 -0.1027  0.0251 -0.3256
  151TCq2    O5 2308   2.606   2.669  11.820  0.5822 -0.2566  0.0287
  151TCq2    O6 2309   2.794   2.789  11.825 -0.2616  0.0977 -0.6226
  151TCq2    H2 2310   2.589   2.502  11.982 -1.8333 -1.3303  2.7798
  151TCq2    H3 2311   2.910   2.761  12.043  0.3289  0.4284  3.4948
  151TCq2    H4 2312   2.836   2.445  12.319 -1.0154  2.0893  1.2600
  152MPD2     C 2313   2.041   1.830  12.817  0.2033  0.0637  0.5253
  152MPD2    C1 2314   2.040   1.922  12.707  0.3652  0.6809 -0.3178
  152MPD2    C2 2315   1.925   1.932  12.632 -0.9487 -0.3177  0.1916
  152MPD2    C3 2316   1.808   1.865  12.667  0.5074 -0.4466  0.2843
  152MPD2    C4 2317   1.807   1.778  12.776  0.0029 -0.3970  0.0299
  152MPD2    C5 2318   1.923   1.766  12.848  0.8534 -0.2863  0.2783
  152MPD2     H 2319   1.934   1.984  12.537 -1.3033  1.0301  0.9089
  152MPD2    H1 2320   1.717   1.725  12.806  1.6412 -0.7724  4.2045
  152MPD2    H2 2321   2.123   1.812  12.885 -0.3377  0.2749  1.2335
  152MPD2    H3 2322   1.914   1.707  12.938  0.1591 -1.3772 -0.5012
  152MPD2     N 2323   1.694   1.889  12.582  0.1188 -0.0355  0.8947
  152MPD2    H5 2324   1.711   1.950  12.503  0.3027 -0.2299  0.7835
  152MPD2    N1 2325   2.155   2.002  12.687  0.6989 -0.3992 -1.7321
  152MPD2    H7 2326   2.225   1.970  12.753 -1.1316 -0.9226 -0.0527
  153TCq2    C1 2327   2.174   2.100  12.592 -0.0668 -0.6085  1.1576
  153TCq2    O2 2328   2.094   2.157  12.515 -0.1242  0.1173  0.0755
  153TCq2    C2 2329   2.313   2.135  12.571  0.4008 -0.3877  0.0697
  153TCq2    C3 2330   2.397   2.045  12.619  0.1909  0.7532  0.2844
  153TCq2    C4 2331   2.526   2.085  12.639  0.2122  0.5538  0.2197
  153TCq2    C5 2332   2.570   2.211  12.608 -0.2959 -0.7690  0.0425
  153TCq2    C6 2333   2.479   2.297  12.559  0.0407  0.1728 -0.2868
  153TCq2    C7 2334   2.353   2.261  12.545 -0.4334  0.0223 -0.1301
  153TCq2    C8 2335   2.522   2.434  12.527  0.7117 -0.0786 -0.5385
  153TCq2    O4 2336   2.453   2.501  12.452  0.3779 -0.1686  0.3853
  153TCq2    C9 2337   2.620   1.991  12.692 -0.7340 -0.5423  0.2094
  153TCq2    O5 2338   2.741   2.020  12.697  0.5255  0.3401  0.2451
  153TCq2    O6 2339   2.585   1.871  12.720  0.3360 -0.1256 -0.6090
  153TCq2    H2 2340   2.380   1.941  12.643 -1.6522  1.1908  0.8661
  153TCq2    H3 2341   2.676   2.233  12.621 -0.1836 -0.8453 -0.8003
  153TCq2    H4 2342   2.278   2.326  12.499 -1.3312 -1.3743 -0.6481
  154MPD2     C 2343   2.627   2.549   1.121 -0.2991 -0.0055 -0.0203
  154MPD2    C1 2344   2.748   2.552   1.053 -0.6887 -0.0084 -0.5034
  154MPD2    C2 2345   2.869   2.548   1.124  0.5513  0.9275  0.1754
  154MPD2    C3 2346   2.871   2.532   1.267  0.0207 -0.9704 -0.0864
  154MPD2    C4 2347   2.747   2.532   1.333  0.0873  0.1842 -0.3182
  154MPD2    C5 2348   2.634   2.541   1.258  0.1565  0.9666  0.6090
  154MPD2     H 2349   2.963   2.540   1.071  0.4104 -1.8703  0.3724
  154MPD2    H1 2350   2.739   2.505   1.438 -0.0792 -0.3308 -0.4647
  154MPD2    H2 2351   2.526   2.557   1.082  0.1465  1.2545 -0.9189
  154MPD2    H3 2352   2.541   2.536   1.314 -0.7132 -1.5099 -1.0412
  154MPD2     N 2353   2.992   2.521   1.344 -0.0536 -0.3855  0.1659
  154MPD2    H5 2354   3.080   2.507   1.297  0.4989 -0.9929  1.3880
  154MPD2    N1 2355   2.746   2.560   0.915 -0.1344 -0.0531  0.3596
  154MPD2    H7 2356   2.656   2.531   0.877  0.0267 -0.7160  0.4981
  155TCq2    C1 2357   2.842   2.596   0.829 -0.3386 -0.0974 -0.0680
  155TCq2    O2 2358   2.959   2.609   0.844 -0.0997 -0.0720  0.4278
  155TCq2    C2 2359   2.785   2.629   0.695 -0.3523  0.0454  0.4828
  155TCq2    C3 2360   2.863   2.634   0.584  0.0261 -0.6258  0.7451
  155TCq2    C4 2361   2.803   2.641   0.460 -0.4268 -0.4110  1.0165
  155TCq2    C5 2362   2.665   2.661   0.450 -0.3535 -0.6546 -0.7845
  155TCq2    C6 2363   2.594   2.654   0.565 -0.0874 -0.2615  0.1694
  155TCq2    C7 2364   2.651   2.646   0.689  0.3825  0.1852  0.6387
  155TCq2    C8 2365   2.457   2.598   0.547 -0.3262 -0.6905 -0.4218
  155TCq2    O4 2366   2.397   2.572   0.652  0.5785  0.1811  0.4510
  155TCq2    C9 2367   2.887   2.657   0.341  0.5103 -0.3247  0.2101
  155TCq2    O5 2368   2.839   2.615   0.230 -0.2097  0.0788 -0.0562
  155TCq2    O6 2369   3.014   2.675   0.363 -0.1894  0.0266 -0.1455
  155TCq2    H2 2370   2.967   2.611   0.601  0.1440 -0.2159  0.5636
  155TCq2    H3 2371   2.625   2.670   0.349  1.3418 -1.5374 -1.5487
  155TCq2    H4 2372   2.589   2.629   0.776  0.0820  2.0605  0.7829
  156MPD2     C 2373   2.753   4.299  12.532  0.5793  0.3241 -0.0718
  156MPD2    C1 2374   2.662   4.384  12.483 -0.0556  0.4040 -0.5109
  156MPD2    C2 2375   2.679   4.521  12.517 -0.2913  0.1465 -0.0466
  156MPD2    C3 2376   2.773   4.564  12.604 -0.4558  0.3840 -0.4967
  156MPD2    C4 2377   2.856   4.467  12.674  0.1121 -1.0809 -0.1992
  156MPD2    C5 2378   2.839   4.339  12.623  0.5399  0.4308  0.0600
  156MPD2     H 2379   2.615   4.597  12.474  0.5409 -0.3089 -2.0685
  156MPD2    H1 2380   2.931   4.497  12.746 -2.0830 -1.5197  2.2840
  156MPD2    H2 2381   2.755   4.194  12.503  1.0565  0.5347 -0.8236
  156MPD2    H3 2382   2.903   4.260  12.660  0.0077  0.5084  1.1363
  156MPD2     N 2383   2.796   4.705  12.626  0.3960  0.1154  0.6865
  156MPD2    H5 2384   2.746   0.047  12.572 -0.0489  0.3019  1.3336
  156MPD2    N1 2385   2.560   4.334  12.390 -0.0640 -0.1677 -0.2752
  156MPD2    H7 2386   2.560   4.235  12.367  1.4738 -0.3748  0.6262
  157TCq2    C1 2387   2.462   4.409  12.341 -0.2181 -0.5628 -0.3623
  157TCq2    O2 2388   2.447   4.528  12.339  0.0841  0.0225 -0.2619
  157TCq2    C2 2389   2.373   4.334  12.250  0.1286 -0.3982  0.0412
  157TCq2    C3 2390   2.359   4.198  12.284 -0.1045 -0.3443 -0.1922
  157TCq2    C4 2391   2.289   4.123  12.193 -0.6605 -0.3110  0.6511
  157TCq2    C5 2392   2.237   4.179  12.082 -0.1889  0.2357 -0.5879
  157TCq2    C6 2393   2.252   4.312  12.057 -1.1146  0.5903  0.3963
  157TCq2    C7 2394   2.326   4.396  12.139  0.4804  0.1777  0.1920
  157TCq2    C8 2395   2.196   4.362  11.931  0.0367 -0.5955 -0.1426
  157TCq2    O4 2396   2.099   4.307  11.883  0.4438  0.0766 -0.0518
  157TCq2    C9 2397   2.287   3.984  12.215  0.8265 -0.4087  0.2531
  157TCq2    O5 2398   2.188   3.935  12.159  0.5654  0.9466 -0.5369
  157TCq2    O6 2399   2.366   3.936  12.295  0.1493 -0.4314  0.4296
  157TCq2    H2 2400   2.376   4.154  12.381 -0.0321 -2.7861 -1.3032
  157TCq2    H3 2401   2.187   4.123  12.004 -1.5716  2.9876 -1.6997
  157TCq2    H4 2402   2.346   4.501  12.120 -2.5552  0.7414  0.1382
  158TMC2    C1 2403   2.285   3.383  13.321 -0.7606 -0.6127 -0.5964
  158TMC2    C2 2404   2.346   3.477  13.241  1.0306 -0.2294  0.4383
  158TMC2    C3 2405   2.268   3.550  13.162  0.1650  0.3601 -0.8232
  158TMC2    C4 2406   2.147   3.380  13.330 -0.1774 -0.4188  0.2601
  158TMC2    C5 2407   2.073   3.469  13.249  0.1892 -0.0952 -0.4522
  158TMC2    C6 2408   2.134   3.552  13.160 -0.6487  0.0107  0.2478
  158TMC2     C 2409   2.373   3.279  13.380 -0.5826  0.3739  0.4232
  158TMC2     O 2410   2.472   3.257  13.316  0.0274  0.2329  0.3894
  158TMC2     H 2411   2.454   3.478  13.237  0.9513  0.1175 -1.4081
  158TMC2    H1 2412   2.095   3.300  13.381  0.1875 -1.2681 -0.7143
  158TMC2    H2 2413   2.085   3.628  13.101  0.1706  0.1339 -0.2720
  158TMC2    C7 2414   1.931   3.454  13.244  0.0678  0.2389 -0.0543
  158TMC2    C8 2415   2.328   3.655  13.096  0.9616  0.6775  0.2453
  158TMC2    O1 2416   1.882   3.497  13.141 -0.0556  0.3734 -0.3206
  158TMC2    O2 2417   2.412   3.716  13.156 -0.3410  0.3206  0.1200
  158TMC2    O5 2418   2.339   3.609  12.970 -0.3401  0.1015  0.2671
  158TMC2    H5 2419   2.268   3.542  12.957  1.0811 -0.9690 -1.9971
  159MPD2     C 2420   2.525   2.947  13.733  0.4352 -0.3147  0.5725
  159MPD2    C1 2421   2.444   3.042  13.794 -0.1630  0.6096  0.1902
  159MPD2    C2 2422   2.390   3.135  13.707 -0.3799  0.2472 -0.4827
  159MPD2    C3 2423   2.401   3.130  13.572  0.0832  0.3545  0.1548
  159MPD2    C4 2424   2.471   3.028  13.514 -0.5860 -0.0572  0.2217
  159MPD2    C5 2425   2.543   2.944  13.600 -0.2682 -0.1407  0.3503
  159MPD2     H 2426   2.338   3.220  13.750 -0.8926  0.0827 -0.7870
  159MPD2    H1 2427   2.492   3.026  13.407 -1.6223 -0.3395  0.0280
  159MPD2    H2 2428   2.571   2.868  13.791  2.1644 -0.6161 -1.2105
  159MPD2    H3 2429   2.611   2.870  13.558  0.7784  0.7165  0.5490
  159MPD2     N 2430   2.332   3.231  13.500  0.7688  0.2592  0.2343
  159MPD2    H5 2431   2.261   3.287  13.547  0.0387  0.5040 -1.1419
  159MPD2    N1 2432   2.442   3.048  13.933  0.6134  0.6423  0.0891
  159MPD2    H7 2433   2.497   2.981  13.986  2.2061  2.4217  0.6925
  160TMC2    C1 2434   3.137   1.348   1.257 -0.0614  0.0409 -0.1650
  160TMC2    C2 2435   3.206   1.242   1.215 -0.2603  0.5001 -0.2177
  160TMC2    C3 2436   3.294   1.258   1.113 -0.0242  0.1170 -0.0256
  160TMC2    C4 2437   3.143   1.472   1.198  0.2318  0.9748 -0.1939
  160TMC2    C5 2438   3.232   1.482   1.091 -0.9394  0.1196 -0.3019
  160TMC2    C6 2439   3.315   1.379   1.050 -0.6797 -0.0997 -0.3365
  160TMC2     C 2440   3.048   1.334   1.373 -0.6856 -0.2831  0.5385
  160TMC2     O 2441   3.073   1.239   1.449 -0.0784  0.2478 -0.1255
  160TMC2     H 2442   3.189   1.145   1.260  1.0710 -0.0343 -0.8693
  160TMC2    H1 2443   3.105   1.564   1.242 -2.0133  0.2133 -0.5378
  160TMC2    H2 2444   3.403   1.387   0.986  0.3514  3.7597  1.5874
  160TMC2    C7 2445   3.258   1.612   1.033  0.1576  0.2097 -0.0242
  160TMC2    C8 2446   3.361   1.142   1.065 -0.1325 -0.3991 -0.3049
  160TMC2    O1 2447   3.362   1.625   0.973  0.0794 -0.7432 -0.4048
  160TMC2    O2 2448   3.424   1.069   1.137 -0.4945  0.0352  0.5701
  160TMC2    O5 2449   3.334   1.143   0.934  0.6660 -0.3047 -0.0837
  160TMC2    H5 2450   3.277   1.220   0.912  2.1944  0.6804 -0.5788
  161MPD2     C 2451   2.888   1.399   1.619 -0.7237  0.1039 -0.6833
  161MPD2    C1 2452   2.877   1.468   1.499  0.2660 -0.2086 -1.1083
  161MPD2    C2 2453   2.780   1.564   1.485  0.1196  0.4903  0.2416
  161MPD2    C3 2454   2.693   1.586   1.596  0.5878 -0.0560 -0.2607
  161MPD2    C4 2455   2.710   1.528   1.721 -0.4999 -0.6010 -0.0708
  161MPD2    C5 2456   2.807   1.434   1.724 -0.4460  0.0146  0.5297
  161MPD2     H 2457   2.756   1.618   1.394  0.3745 -0.6631 -0.5129
  161MPD2    H1 2458   2.652   1.540   1.811 -1.7326  0.0282 -0.9419
  161MPD2    H2 2459   2.953   1.314   1.636  0.2449  1.0497  0.3340
  161MPD2    H3 2460   2.803   1.371   1.812 -0.4345  1.4060  1.5048
  161MPD2     N 2461   2.575   1.664   1.594 -0.0305 -0.2066  0.1796
  161MPD2    H5 2462   2.506   1.657   1.668 -0.0275 -1.4882  0.0740
  161MPD2    N1 2463   2.953   1.436   1.383  0.3020 -0.1109  0.9433
  161MPD2    H7 2464   2.937   1.490   1.299  2.3960  1.1585  1.3712
  162TMC2    C1 2465   0.540   3.507   1.443 -0.0618  0.6533 -0.0057
  162TMC2    C2 2466   0.454   3.606   1.393 -0.4765 -0.0775 -0.7356
  162TMC2    C3 2467   0.431   3.712   1.474 -0.2812  0.4935  0.1639
  162TMC2    C4 2468   0.593   3.521   1.569  0.0659 -1.1461 -0.2465
  162TMC2    C5 2469   0.558   3.622   1.655  0.1032 -0.9683  0.0426
  162TMC2    C6 2470   0.470   3.716   1.601 -0.1758 -0.1915 -0.1643
  162TMC2     C 2471   0.605   3.415   1.346 -1.0627  0.0704 -0.2969
  162TMC2     O 2472   0.548   3.404   1.235 -0.4695  0.4345  0.0748
  162TMC2     H 2473   0.424   3.608   1.289  0.5125  1.8976 -0.9858
  162TMC2    H1 2474   0.635   3.430   1.611  3.3103 -0.3977 -1.8115
  162TMC2    H2 2475   0.447   3.807   1.655  1.7872 -0.6669  1.5017
  162TMC2    C7 2476   0.539   3.602   1.792 -0.8786  0.4389  0.1936
  162TMC2    C8 2477   0.353   3.819   1.427  0.0729 -0.2196  0.4385
  162TMC2    O1 2478   0.453   3.668   1.849  0.0603  0.3265 -0.1637
  162TMC2    O2 2479   0.284   3.886   1.503  0.7183 -0.7193  0.3041
  162TMC2    O5 2480   0.412   3.854   1.306 -0.7922  0.1554 -0.0482
  162TMC2    H5 2481   0.473   3.789   1.265 -1.9941 -2.1133  1.7890
  163MPD2     C 2482   1.018   3.183   1.172  0.6658 -0.1929 -0.5543
  163MPD2    C1 2483   0.892   3.196   1.112  0.3656 -0.4883  0.8419
  163MPD2    C2 2484   0.788   3.239   1.191 -0.1469 -0.1071  0.3698
  163MPD2    C3 2485   0.808   3.275   1.322  0.6661 -0.8349 -0.4480
  163MPD2    C4 2486   0.933   3.253   1.380 -0.7064 -0.7825  0.1862
  163MPD2    C5 2487   1.041   3.212   1.302 -0.5183  0.0526 -0.3996
  163MPD2     H 2488   0.691   3.248   1.143 -0.9692  0.5003  2.1474
  163MPD2    H1 2489   0.959   3.273   1.483  0.5011  0.2427 -0.3171
  163MPD2    H2 2490   1.106   3.165   1.111  0.5489 -1.3086 -0.3834
  163MPD2    H3 2491   1.141   3.214   1.343 -0.1720  1.9561 -1.2926
  163MPD2     N 2492   0.720   3.359   1.396 -0.1718  0.0684 -0.0715
  163MPD2    H5 2493   0.753   3.389   1.487  1.1083 -0.1090 -0.4704
  163MPD2    N1 2494   0.879   3.157   0.980 -0.1444 -0.3348  0.5993
  163MPD2    H7 2495   0.959   3.119   0.931 -0.5411  0.9554 -1.0350
  164TCq2    C1 2496   1.125   2.634  11.251  0.0372 -0.0593  0.0580
  164TCq2    O2 2497   1.081   2.558  11.336 -0.6373  0.2468  0.0587
  164TCq2    C2 2498   1.137   2.782  11.273  0.3488 -0.3329  0.3758
  164TCq2    C3 2499   1.215   2.871  11.204 -0.4434 -0.1688 -0.4883
  164TCq2    C4 2500   1.187   3.003  11.213 -0.4202 -0.8393  0.1760
  164TCq2    C5 2501   1.092   3.056  11.292 -0.1511  0.3399  0.1293
  164TCq2    C6 2502   1.012   2.960  11.350 -0.6992  0.2379  0.3329
  164TCq2    C7 2503   1.027   2.827  11.343 -0.1129 -0.4223 -0.1437
  164TCq2    C8 2504   0.888   3.026  11.398  0.0680 -0.4069 -0.2817
  164TCq2    O4 2505   0.849   3.137  11.363 -0.3086  0.0993  0.1220
  164TCq2    C9 2506   1.257   3.097  11.131 -0.9249  0.8841  0.0357
  164TCq2    O5 2507   1.227   3.215  11.147  0.2681  0.9843 -0.6093
  164TCq2    O6 2508   1.322   3.048  11.035  0.1869  0.7081  0.0447
  164TCq2    H2 2509   1.294   2.848  11.134 -1.5857  1.0674 -2.1751
  164TCq2    H3 2510   1.074   3.162  11.299  0.0255  0.2667  1.6526
  164TCq2    H4 2511   0.959   2.754  11.385 -3.1950  2.3381 -0.3159
  165MPD2     C 2512   1.184   0.161   1.243 -0.2157  0.1024  0.2773
  165MPD2    C1 2513   1.248   0.202   1.358 -0.1679  0.0111 -0.3856
  165MPD2    C2 2514   1.309   0.330   1.361 -0.1263 -0.3942 -0.0495
  165MPD2    C3 2515   1.328   0.399   1.246 -0.3161 -0.0438 -0.4110
  165MPD2    C4 2516   1.274   0.356   1.130 -0.5084 -0.5328 -0.2530
  165MPD2    C5 2517   1.212   0.237   1.126  0.1838 -0.4956 -0.2359
  165MPD2     H 2518   1.336   0.368   1.459 -2.0449  4.0935 -1.2532
  165MPD2    H1 2519   1.290   0.418   1.043 -1.8467  0.1992  0.0255
  165MPD2    H2 2520   1.135   0.065   1.237 -1.1334  0.5037  1.2971
  165MPD2    H3 2521   1.184   0.193   1.031  0.7586 -1.1602 -0.0960
  165MPD2     N 2522   1.404   0.517   1.235  0.1955 -0.9108  0.4567
  165MPD2    H5 2523   1.395   0.565   1.146 -0.0049 -0.5168  0.6915
  165MPD2    N1 2524   1.261   0.103   1.458 -0.1668 -0.1296  0.3396
  165MPD2    H7 2525   1.238   0.006   1.440 -0.6845  0.5454 -2.5712
  166TCq2    C1 2526   1.485   0.566   1.334  0.6486  0.2716 -0.1225
  166TCq2    O2 2527   1.522   0.515   1.435 -0.2824 -0.1141 -0.0440
  166TCq2    C2 2528   1.526   0.703   1.316  0.5679 -0.5442 -0.3420
  166TCq2    C3 2529   1.454   0.776   1.228  0.2486  0.5889 -0.1107
  166TCq2    C4 2530   1.487   0.905   1.203  0.3283 -0.2110  0.5767
  166TCq2    C5 2531   1.589   0.968   1.269  0.4543  0.0534  0.6388
  166TCq2    C6 2532   1.668   0.891   1.355  1.0007  0.1124  0.1160
  166TCq2    C7 2533   1.639   0.757   1.375 -0.0004  0.1874 -0.3262
  166TCq2    C8 2534   1.775   0.952   1.438  0.7778 -0.3796 -0.4897
  166TCq2    O4 2535   1.867   0.878   1.466 -0.1115 -0.0049  0.6708
  166TCq2    C9 2536   1.396   0.985   1.127 -0.0420  0.2319 -0.3640
  166TCq2    O5 2537   1.389   1.109   1.149 -0.0567 -0.2461  0.3988
  166TCq2    O6 2538   1.360   0.930   1.016  0.4208 -0.1739  0.0526
  166TCq2    H2 2539   1.363   0.741   1.181 -0.7721  1.0954  1.4899
  166TCq2    H3 2540   1.622   1.067   1.239 -0.1306 -0.2384 -0.9517
  166TCq2    H4 2541   1.680   0.706   1.461 -0.3892 -1.0169 -0.8592
  167TMC2    C1 2542   0.103   2.707  12.731 -0.1871 -0.4556  0.2195
  167TMC2    C2 2543   4.710   2.716  12.790 -0.1253 -0.4697  0.2789
  167TMC2    C3 2544   4.678   2.602  12.865  0.0407  0.7363  0.5166
  167TMC2    C4 2545   0.187   2.595  12.738 -0.3908  0.1591 -0.3364
  167TMC2    C5 2546   0.140   2.480  12.811 -0.5027 -0.3153  0.1421
  167TMC2    C6 2547   0.022   2.487  12.881  0.2777  0.2449 -0.1712
  167TMC2     C 2548   0.156   2.826  12.681 -0.7257 -0.3571 -0.7853
  167TMC2     O 2549   0.101   2.931  12.717  0.7033  0.1656 -0.4965
  167TMC2     H 2550   4.641   2.795  12.765 -1.9783 -1.6125  1.7605
  167TMC2    H1 2551   0.293   2.597  12.718 -0.5047  2.7064 -0.5893
  167TMC2    H2 2552   4.707   2.397  12.925  0.3635  1.1847  1.8271
  167TMC2    C7 2553   0.224   2.366  12.815 -0.2663 -0.0930  0.4564
  167TMC2    C8 2554   4.545   2.586  12.915  0.3227 -0.4084  0.3187
  167TMC2    O1 2555   0.195   2.286  12.902  0.1798  0.7550 -0.6848
  167TMC2    O2 2556   4.487   2.482  12.892  0.1219 -0.3888  0.2864
  167TMC2    O5 2557   4.483   2.702  12.937 -0.0456  0.1301 -0.0837
  167TMC2    H5 2558   4.545   2.775  12.959  0.2543  0.1509 -1.0073
  168MPD2     C 2559   0.327   3.044  12.578  0.6680  0.4868  0.0226
  168MPD2    C1 2560   0.325   2.917  12.522  0.4232 -0.3004  0.4663
  168MPD2    C2 2561   0.414   2.885  12.417  0.7612  0.3586  0.3710
  168MPD2    C3 2562   0.485   2.984  12.357  0.4920 -0.1043  0.6272
  168MPD2    C4 2563   0.486   3.111  12.412  0.2095 -0.1911  0.1942
  168MPD2    C5 2564   0.415   3.138  12.529  0.2766  0.7069  1.1302
  168MPD2     H 2565   0.418   2.782  12.383  0.8816 -0.0523  1.6386
  168MPD2    H1 2566   0.546   3.192  12.373  1.7707 -0.1076  2.7840
  168MPD2    H2 2567   0.267   3.084  12.658  1.0119  0.2925  0.3830
  168MPD2    H3 2568   0.425   3.235  12.576  2.4275 -0.5018  3.1822
  168MPD2     N 2569   0.569   2.968  12.242 -0.0425 -1.2251 -0.7168
  168MPD2    H5 2570   0.636   3.044  12.231 -0.6097 -0.7240 -0.7603
  168MPD2    N1 2571   0.254   2.811  12.585  0.4639  0.3594  0.3265
  168MPD2    H7 2572   0.291   2.718  12.566 -0.0293 -0.2459  2.3140
  169MPD1     C 2573   2.899   2.505   8.608  0.4958 -0.0999 -0.0444
  169MPD1    C1 2574   2.871   2.376   8.647  0.4907 -0.3489 -0.2033
  169MPD1    C2 2575   2.938   2.319   8.757 -0.0387 -0.3104 -0.6227
  169MPD1    C3 2576   2.996   2.404   8.856  0.3853 -0.1798  0.8422
  169MPD1    C4 2577   3.014   2.533   8.816  0.3894  0.2716  0.7468
  169MPD1    C5 2578   2.962   2.584   8.699  0.4964 -0.2224  0.5212
  169MPD1     H 2579   2.933   2.213   8.781  0.0259 -0.7276 -2.4641
  169MPD1    H1 2580   3.069   2.605   8.876 -0.4308  1.3330  0.2177
  169MPD1    H2 2581   2.852   2.550   8.522 -1.4296  0.3458  1.2295
  169MPD1    H3 2582   2.978   2.686   8.669  0.5244 -0.4656 -0.2779
  169MPD1     N 2583   3.036   2.348   8.984  0.6803 -0.0439  0.7789
  169MPD1    H5 2584   3.039   2.249   9.004  1.4498 -0.2781 -0.4699
  169MPD1    N1 2585   2.826   2.287   8.543 -0.0514  0.1814  0.0643
  169MPD1    H6 2586   2.907   2.251   8.495  0.2241  1.9066 -0.7482
  169MPD1    H7 2587   2.785   2.341   8.467 -3.9533 -2.4254  0.2772
  170MPD1     C 2588   1.048   4.709  13.146 -0.1437 -0.6484 -0.4203
  170MPD1    C1 2589   1.081   4.702  13.279 -0.0985  0.3924 -0.4801
  170MPD1    C2 2590   1.070   0.093  13.351  0.6340  0.4636 -0.5976
  170MPD1    C3 2591   1.024   0.216  13.296 -0.6273 -0.1403 -0.0041
  170MPD1    C4 2592   0.986   0.209  13.167  0.2487 -0.1618 -0.2205
  170MPD1    C5 2593   1.005   0.096  13.091  0.8833  0.0122 -0.1110
  170MPD1     H 2594   1.095   0.103  13.455  0.7364  1.3836 -0.7102
  170MPD1    H1 2595   0.950   0.298  13.117  1.6459 -0.8473 -2.4297
  170MPD1    H2 2596   1.054   4.614  13.094  1.1476 -0.5769 -0.3990
  170MPD1    H3 2597   0.982   0.094  12.985  0.2712 -2.5793  0.0685
  170MPD1     N 2598   1.011   0.327  13.384  0.4215  1.0996 -0.1367
  170MPD1    H5 2599   1.030   0.313  13.483  2.2732  2.1532 -0.3350
  170MPD1    N1 2600   1.155   4.593  13.333  0.4151  0.0181  0.2571
  170MPD1    H6 2601   1.126   4.508  13.286 -0.5538  0.7432 -0.4849
  170MPD1    H7 2602   1.124   4.588  13.430 -0.9188  0.0387 -0.1596
  171MPD1     C 2603   4.424   2.115  15.582  0.0513  0.0986 -0.9008
  171MPD1    C1 2604   4.383   1.999  15.530 -0.2466 -0.4566 -0.4489
  171MPD1    C2 2605   4.439   1.881  15.585 -0.2082  0.0129 -0.2069
  171MPD1    C3 2606   4.520   1.886  15.700 -0.5227  0.7927  0.0076
  171MPD1    C4 2607   4.554   2.012  15.747  0.3290 -0.0684 -0.0082
  171MPD1    C5 2608   4.509   2.121  15.682  0.1575  0.1386  0.5417
  171MPD1     H 2609   4.397   1.786  15.554  2.5530 -0.8527 -1.3082
  171MPD1    H1 2610   4.634   2.030  15.818 -0.2569  0.6993  0.4641
  171MPD1    H2 2611   4.392   2.203  15.527  1.1033  0.1770 -1.3677
  171MPD1    H3 2612   4.544   2.219  15.711  2.4627 -0.4896 -0.0572
  171MPD1     N 2613   4.554   1.781  15.782 -0.4959 -0.0521  0.9441
  171MPD1    H5 2614   4.616   1.800  15.860 -0.5476  0.4542  0.8659
  171MPD1    N1 2615   4.269   1.997  15.446 -0.1282  0.5155  0.1566
  171MPD1    H6 2616   4.250   2.077  15.386  1.3550  1.4731  0.9704
  171MPD1    H7 2617   4.250   1.911  15.395 -0.6026  0.2935  0.7080
  172MPD1     C 2618   3.617   0.514   0.542 -0.2663 -0.6658 -0.0774
  172MPD1    C1 2619   3.708   0.585   0.616 -0.5378 -0.7713  0.0933
  172MPD1    C2 2620   3.772   0.696   0.561  0.7066  0.0426  0.4459
  172MPD1    C3 2621   3.752   0.734   0.427 -0.0979  0.5200  0.1512
  172MPD1    C4 2622   3.666   0.665   0.347  0.2198  0.4768  0.6413
  172MPD1    C5 2623   3.603   0.559   0.412 -0.3630  0.2247  0.6084
  172MPD1     H 2624   3.850   0.749   0.615  0.8199 -0.9880  1.2771
  172MPD1    H1 2625   3.658   0.683   0.241  1.2625  1.5671  0.7478
  172MPD1    H2 2626   3.564   0.427   0.579  0.3004 -1.6303 -1.5143
  172MPD1    H3 2627   3.531   0.504   0.353  0.6248 -0.9798  0.5272
  172MPD1     N 2628   3.832   0.837   0.370  0.1125  0.1058  0.1394
  172MPD1    H5 2629   3.819   0.855   0.271  0.1464 -1.5999 -0.1713
  172MPD1    N1 2630   3.758   0.528   0.735 -0.6023  0.2542  0.0754
  172MPD1    H6 2631   3.795   0.599   0.798  0.5647  1.1527 -1.6164
  172MPD1    H7 2632   3.672   0.497   0.780  0.3416  0.9122  2.3233
  173MPD1     C 2633   0.360   1.218  14.845 -0.5377 -0.1856 -0.3235
  173MPD1    C1 2634   0.364   1.113  14.753 -0.0846  0.0080 -0.7108
  173MPD1    C2 2635   0.264   1.019  14.763 -0.2149 -0.1270 -0.7557
  173MPD1    C3 2636   0.157   1.035  14.864  0.4351  0.3905  0.7411
  173MPD1    C4 2637   0.162   1.139  14.955 -0.5740  0.3448 -0.4508
  173MPD1    C5 2638   0.265   1.227  14.939 -0.1923 -0.2889 -0.0963
  173MPD1     H 2639   0.268   0.935  14.694 -1.8148 -0.0318 -0.9687
  173MPD1    H1 2640   0.093   1.159  15.036 -0.9332  0.6657 -0.8347
  173MPD1    H2 2641   0.442   1.288  14.854  0.3293 -1.1701 -0.6062
  173MPD1    H3 2642   0.262   1.314  15.004 -1.5309  0.6159 -1.3317
  173MPD1     N 2643   0.064   0.931  14.875  0.0078 -0.5542 -0.8003
  173MPD1    H5 2644   0.081   0.853  14.812 -3.1455 -1.2241 -0.8093
  173MPD1    N1 2645   0.466   1.115  14.657  0.2186  0.2767  0.1112
  173MPD1    H6 2646   0.541   1.183  14.672  1.1991 -1.0644  1.3455
  173MPD1    H7 2647   0.501   1.024  14.628 -0.7391 -0.3574  0.9479
  174MPD1     C 2648   0.009   0.491  14.203 -0.3610  0.3066  0.0437
  174MPD1    C1 2649   0.012   0.399  14.304  0.7286 -0.8635  0.1818
  174MPD1    C2 2650   4.701   0.429  14.434  0.0595 -0.1603  0.7014
  174MPD1    C3 2651   4.653   0.555  14.471 -0.1209  0.1837  0.3090
  174MPD1    C4 2652   4.640   0.647  14.364  0.5914 -0.2868  0.4585
  174MPD1    C5 2653   4.686   0.613  14.238 -0.3448 -0.0275 -0.1939
  174MPD1     H 2654   4.718   0.363  14.518 -1.6751 -1.2926  0.1455
  174MPD1    H1 2655   4.599   0.746  14.383  0.0707 -0.2176 -1.0365
  174MPD1    H2 2656   0.037   0.467  14.101  2.3939  0.1689  0.8437
  174MPD1    H3 2657   4.669   0.691  14.164  2.3846  2.4433  1.7269
  174MPD1     N 2658   4.617   0.591  14.603 -0.3227 -0.1526 -0.6310
  174MPD1    H5 2659   4.586   0.687  14.613 -1.5794 -0.5957 -0.2934
  174MPD1    N1 2660   0.068   0.275  14.275  0.0830 -0.1406  0.2757
  174MPD1    H6 2661   0.027   0.201  14.333 -0.3576  1.4058  1.9518
  174MPD1    H7 2662   0.067   0.257  14.175  3.6426 -2.7944  0.7342
  175MPD1     C 2663   3.453   1.406  15.544  0.1022  0.7741  0.1892
  175MPD1    C1 2664   3.364   1.509  15.581  0.7651  0.4613 -0.4692
  175MPD1    C2 2665   3.313   1.506  15.713 -0.0371 -0.3527 -0.6948
  175MPD1    C3 2666   3.357   1.420  15.811  0.4172 -0.0328 -0.7137
  175MPD1    C4 2667   3.446   1.319  15.777 -0.6850 -0.7207 -0.3232
  175MPD1    C5 2668   3.484   1.315  15.646  0.4695  0.7402 -0.1139
  175MPD1     H 2669   3.248   1.586  15.748  1.2249 -0.2274  1.3477
  175MPD1    H1 2670   3.494   1.248  15.843  0.4966 -0.2299 -0.6500
  175MPD1    H2 2671   3.501   1.396  15.447 -1.9969 -0.2388 -0.7500
  175MPD1    H3 2672   3.560   1.242  15.620 -0.3456  0.0616 -0.6207
  175MPD1     N 2673   3.314   1.411  15.949  0.3446  0.2708  0.3140
  175MPD1    H5 2674   3.358   1.335  16.001 -1.3301 -0.9507 -0.0670
  175MPD1    N1 2675   3.347   1.620  15.496  0.1092  0.2098  0.1159
  175MPD1    H6 2676   3.265   1.679  15.510  1.2807  2.1717 -1.2489
  175MPD1    H7 2677   3.352   1.598  15.397 -1.1844 -1.4012  0.4101
  176MPD1     C 2678   0.080   3.296  17.356  0.0491 -0.1303  0.0067
  176MPD1    C1 2679   0.082   3.354  17.479  0.4250  0.4987  0.1168
  176MPD1    C2 2680   0.145   3.480  17.482  0.3581  0.5122  0.3146
  176MPD1    C3 2681   0.167   3.554  17.364  0.3079  0.1717  0.5600
  176MPD1    C4 2682   0.140   3.495  17.246  0.0090  0.0510 -0.5388
  176MPD1    C5 2683   0.111   3.363  17.241  0.6782 -0.5829 -0.1609
  176MPD1     H 2684   0.171   3.529  17.576  2.2077  2.5676 -1.2659
  176MPD1    H1 2685   0.138   3.545  17.150 -0.6428 -0.7746 -0.9574
  176MPD1    H2 2686   0.053   3.192  17.344  0.1809 -0.1005 -0.5640
  176MPD1    H3 2687   0.122   3.320  17.142  0.1421  1.3020 -1.0333
  176MPD1     N 2688   0.213   3.685  17.350 -0.0906 -0.0962 -0.1648
  176MPD1    H5 2689   0.240   3.710  17.255 -1.4487 -1.1856 -0.8295
  176MPD1    N1 2690   0.073   3.275  17.591  0.1799  0.0253 -0.0749
  176MPD1    H6 2691   0.013   3.194  17.575 -1.1481  0.6805  1.5960
  176MPD1    H7 2692   0.059   3.317  17.683  1.3057 -0.6519  0.4028
  177MPD1     C 2693   3.485   2.863   9.832 -0.5781  0.7105 -0.4506
  177MPD1    C1 2694   3.419   2.979   9.809  0.0431  0.3342 -0.3964
  177MPD1    C2 2695   3.299   2.967   9.735 -0.3450 -0.3662 -0.3154
  177MPD1    C3 2696   3.264   2.845   9.677 -0.6680  0.0348 -0.8622
  177MPD1    C4 2697   3.338   2.734   9.700 -0.0047 -0.1453  0.2346
  177MPD1    C5 2698   3.458   2.742   9.767 -0.0425  0.3541  0.4927
  177MPD1     H 2699   3.236   3.054   9.721  0.5335  0.5414  1.2278
  177MPD1    H1 2700   3.320   2.636   9.658 -2.3706  0.4192 -0.0722
  177MPD1    H2 2701   3.575   2.867   9.893 -0.2651  1.7106 -0.9733
  177MPD1    H3 2702   3.522   2.656   9.782 -1.6081 -0.9740 -0.4245
  177MPD1     N 2703   3.149   2.837   9.596  0.2347  0.7380 -0.1380
  177MPD1    H5 2704   3.115   2.927   9.562 -1.6007  0.5348  1.2026
  177MPD1    N1 2705   3.446   3.089   9.890  0.3218  0.4112 -0.0390
  177MPD1    H6 2706   3.413   3.174   9.845  0.0705  1.3013  1.8191
  177MPD1    H7 2707   3.548   3.095   9.897  0.3095 -0.7438  1.2727
  178MPD1     C 2708   0.529   3.994   0.682 -0.0065 -0.0454  0.0949
  178MPD1    C1 2709   0.476   3.921   0.579  0.6647 -0.0747 -0.5436
  178MPD1    C2 2710   0.546   3.925   0.466  0.7641 -0.2914  0.1320
  178MPD1    C3 2711   0.661   3.992   0.435  0.1905  0.2325 -0.1018
  178MPD1    C4 2712   0.714   4.057   0.541  0.0114  0.2267 -0.2589
  178MPD1    C5 2713   0.640   4.066   0.655  0.1731 -0.0585 -0.3809
  178MPD1     H 2714   0.515   3.851   0.392  2.7307 -0.3387 -0.6353
  178MPD1    H1 2715   0.807   4.114   0.542  1.4779 -2.1805 -0.3449
  178MPD1    H2 2716   0.474   4.015   0.773  0.6277  2.0123 -0.0120
  178MPD1    H3 2717   0.679   4.128   0.735  1.6980 -1.2850 -0.1753
  178MPD1     N 2718   0.727   3.995   0.313  0.1928 -0.4753  0.0760
  178MPD1    H5 2719   0.810   4.053   0.308  0.9544 -1.4883  1.0313
  178MPD1    N1 2720   0.350   3.862   0.593  0.1079  0.4671 -0.2079
  178MPD1    H6 2721   0.330   3.786   0.529  0.3134  1.2964 -1.2633
  178MPD1    H7 2722   0.333   3.843   0.691  1.6092 -0.6243 -0.1665
  179MPD1     C 2723   1.063   2.993  15.683  0.7751 -0.0072 -0.0337
  179MPD1    C1 2724   0.925   2.985  15.661  0.2638 -0.5889  0.0624
  179MPD1    C2 2725   0.866   2.896  15.737 -0.4734  0.6854 -0.5680
  179MPD1    C3 2726   0.929   2.802  15.819  0.3859 -0.2615  0.5310
  179MPD1    C4 2727   1.063   2.802  15.825  0.3826 -0.0214 -0.1489
  179MPD1    C5 2728   1.127   2.903  15.758  1.0643 -0.0790 -0.4472
  179MPD1     H 2729   0.764   2.865  15.721  0.4400 -2.8177  0.2979
  179MPD1    H1 2730   1.108   2.728  15.891 -2.2670 -0.3967  1.2346
  179MPD1    H2 2731   1.124   3.069  15.634  0.5485 -2.3724 -3.9636
  179MPD1    H3 2732   1.234   2.918  15.772  1.2566 -1.5348 -0.3302
  179MPD1     N 2733   0.864   2.706  15.897  0.3712 -0.2377  0.0139
  179MPD1    H5 2734   0.926   2.640  15.943  0.1946 -0.5712 -0.2195
  179MPD1    N1 2735   0.853   3.089  15.599 -0.4266 -0.5985 -0.5652
  179MPD1    H6 2736   0.901   3.127  15.518  1.6739  0.3232  1.1052
  179MPD1    H7 2737   0.758   3.068  15.567 -0.9901 -0.1567  0.8139
  180MPD1     C 2738   4.687   4.176  14.939 -0.2013  0.2222 -0.0826
  180MPD1    C1 2739   0.094   4.185  14.915  0.2243  0.1860 -0.4575
  180MPD1    C2 2740   0.145   4.222  14.798  0.2979  0.6123  0.6772
  180MPD1    C3 2741   0.064   4.252  14.688  0.5119  0.2689  0.1690
  180MPD1    C4 2742   4.654   4.255  14.715  0.5149  0.2767 -0.4849
  180MPD1    C5 2743   4.605   4.214  14.839  0.1430 -1.3532  0.1332
  180MPD1     H 2744   0.252   4.214  14.784 -0.2428 -2.5197 -1.6628
  180MPD1    H1 2745   4.581   4.298  14.648 -0.4942 -1.2243 -0.3739
  180MPD1    H2 2746   4.655   4.143  15.037  0.4561  0.2228  0.1322
  180MPD1    H3 2747   4.501   4.204  14.869  0.0637  0.6973  0.5173
  180MPD1     N 2748   0.126   4.278  14.563 -0.4299 -0.2075 -0.5095
  180MPD1    H5 2749   0.226   4.260  14.554 -0.3657 -0.5656  0.9333
  180MPD1    N1 2750   0.182   4.135  15.007 -0.0955 -0.5808  0.5927
  180MPD1    H6 2751   0.276   4.169  14.992 -0.2490  0.4291  1.8831
  180MPD1    H7 2752   0.161   4.143  15.107  0.4363  0.8362  0.5863
  181MPD1     C 2753   4.159   1.009   9.207  0.3017  0.8232  0.1540
  181MPD1    C1 2754   4.038   1.004   9.275  0.4281 -0.5540 -0.2995
  181MPD1    C2 2755   3.997   0.886   9.329 -0.8340 -0.4562  0.0033
  181MPD1    C3 2756   4.064   0.766   9.313 -0.3035  0.2138 -0.2037
  181MPD1    C4 2757   4.170   0.773   9.235  0.3141  0.0288  0.1779
  181MPD1    C5 2758   4.223   0.888   9.185  0.1300 -0.2550  0.0817
  181MPD1     H 2759   3.912   0.885   9.396  0.3814  1.4703  1.5601
  181MPD1    H1 2760   4.222   0.679   9.219 -0.0620 -0.1706  0.1300
  181MPD1    H2 2761   4.212   1.088   9.156  0.7678  1.6532  1.9320
  181MPD1    H3 2762   4.322   0.878   9.143 -0.2403 -0.4050 -0.7502
  181MPD1     N 2763   4.033   0.644   9.376  0.5744 -0.2982  0.1998
  181MPD1    H5 2764   4.099   0.572   9.348  1.4858  0.6484 -0.0915
  181MPD1    N1 2765   3.972   1.127   9.310 -0.2111 -0.3632 -0.0067
  181MPD1    H6 2766   3.874   1.124   9.337  0.5965 -0.9158  2.9184
  181MPD1    H7 2767   3.977   1.208   9.249 -1.8738 -0.4137 -0.2063
  182MPD1     C 2768   3.631   0.699   1.738 -1.0116 -0.1390 -0.5238
  182MPD1    C1 2769   3.680   0.624   1.637 -0.2210 -0.5392 -0.8456
  182MPD1    C2 2770   3.588   0.584   1.542 -0.5035  0.2273 -0.2736
  182MPD1    C3 2771   3.449   0.605   1.562  0.3492 -0.9114  0.9027
  182MPD1    C4 2772   3.404   0.661   1.677  0.2704  0.1727 -0.6384
  182MPD1    C5 2773   3.495   0.716   1.763 -0.7690 -0.3490 -0.1791
  182MPD1     H 2774   3.632   0.551   1.449 -0.6856  2.7723 -1.2358
  182MPD1    H1 2775   3.299   0.666   1.705  1.1403 -1.3484  2.8262
  182MPD1    H2 2776   3.697   0.751   1.806 -1.4881  0.1720 -0.2980
  182MPD1    H3 2777   3.468   0.764   1.856  0.0627 -0.2746  0.0244
  182MPD1     N 2778   3.362   0.570   1.458  0.3979  0.4340 -0.2099
  182MPD1    H5 2779   3.268   0.609   1.464  0.3068 -0.0009  1.1953
  182MPD1    N1 2780   3.813   0.618   1.611 -0.0025  0.3104  0.3282
  182MPD1    H6 2781   3.878   0.621   1.690 -0.3200  1.7551  0.5414
  182MPD1    H7 2782   3.844   0.543   1.549  1.3070  0.8878  0.2793
  183MPD1     C 2783   4.529   1.309   9.366 -0.0141  0.1292 -0.1471
  183MPD1    C1 2784   4.400   1.328   9.318  0.3951 -0.7806  0.1207
  183MPD1    C2 2785   4.298   1.285   9.393 -0.0619  0.4438  0.7603
  183MPD1    C3 2786   4.317   1.197   9.495  0.0314 -0.1142 -0.6351
  183MPD1    C4 2787   4.452   1.165   9.531  1.0146  0.8316  0.1997
  183MPD1    C5 2788   4.554   1.232   9.471 -0.7287  0.1374 -0.1762
  183MPD1     H 2789   4.193   1.307   9.375 -0.1148 -0.0295  0.4893
  183MPD1    H1 2790   4.482   1.096   9.608 -2.7409 -0.8680  0.1212
  183MPD1    H2 2791   4.618   1.351   9.320 -1.6179  2.3286 -1.2447
  183MPD1    H3 2792   4.657   1.204   9.492 -0.4916  2.4134  1.7340
  183MPD1     N 2793   4.204   1.138   9.552 -0.2916  0.2563  0.3390
  183MPD1    H5 2794   4.116   1.172   9.515 -0.1555  1.3947  1.0680
  183MPD1    N1 2795   4.381   1.417   9.211  0.1878  0.4592 -0.2137
  183MPD1    H6 2796   4.305   1.399   9.145  1.5706  2.4097 -2.3501
  183MPD1    H7 2797   4.466   1.414   9.154 -0.1535 -1.5628 -0.6128
  184MPD1     C 2798   2.659   2.332   9.637 -0.7556  0.5863  0.3325
  184MPD1    C1 2799   2.784   2.390   9.657  0.0373  0.5707 -0.8325
  184MPD1    C2 2800   2.790   2.518   9.709  0.5317 -0.3452  0.2123
  184MPD1    C3 2801   2.678   2.588   9.752  0.7256 -1.3972  0.6509
  184MPD1    C4 2802   2.555   2.529   9.730 -0.4991 -0.3302  0.0374
  184MPD1    C5 2803   2.548   2.401   9.675  0.0915 -0.2521 -0.4095
  184MPD1     H 2804   2.886   2.567   9.719  0.0835  0.1950  1.7434
  184MPD1    H1 2805   2.463   2.581   9.755  0.8041  1.7219  0.5699
  184MPD1    H2 2806   2.646   2.229   9.604  1.0439  0.5994 -0.4054
  184MPD1    H3 2807   2.449   2.358   9.663 -0.1784  0.3009 -0.1471
  184MPD1     N 2808   2.672   2.715   9.806 -0.1079  0.5243 -0.6596
  184MPD1    H5 2809   2.583   2.762   9.818  0.3350  1.3979 -0.8007
  184MPD1    N1 2810   2.899   2.332   9.603  0.5493  0.3143 -0.1194
  184MPD1    H6 2811   2.971   2.359   9.670  0.0021 -0.0197  0.6043
  184MPD1    H7 2812   2.905   2.231   9.610 -0.0005  0.2776 -0.2037
  185MPD1     C 2813   2.141   3.529   9.774  0.0993 -0.1390 -0.1738
  185MPD1    C1 2814   2.142   3.398   9.720 -0.2639  0.6850  0.9736
  185MPD1    C2 2815   2.255   3.324   9.719 -0.3331  0.6732 -0.0822
  185MPD1    C3 2816   2.367   3.380   9.783  0.3772  0.5074  0.6231
  185MPD1    C4 2817   2.365   3.507   9.833  0.1462  0.8869 -0.3271
  185MPD1    C5 2818   2.254   3.588   9.821  0.2214  0.0861 -0.5279
  185MPD1     H 2819   2.262   3.231   9.665  1.8676 -0.2767  1.8148
  185MPD1    H1 2820   2.455   3.549   9.876  1.1259 -2.7129  1.1041
  185MPD1    H2 2821   2.054   3.592   9.759 -0.3927 -0.7072  0.3062
  185MPD1    H3 2822   2.253   3.686   9.866  0.5930 -0.7966  1.4128
  185MPD1     N 2823   2.489   3.306   9.785 -0.9893 -0.1739  0.6062
  185MPD1    H5 2824   2.570   3.355   9.821  0.1775  0.2549 -2.6355
  185MPD1    N1 2825   2.027   3.351   9.656  0.3596 -0.2254  0.1747
  185MPD1    H6 2826   1.950   3.379   9.716 -1.1873 -0.3134 -1.7544
  185MPD1    H7 2827   2.013   3.250   9.653 -1.8641  0.0903 -0.1934
  186MPD1     C 2828   0.462   3.110  16.165 -0.5695  0.5454 -0.5394
  186MPD1    C1 2829   0.559   3.057  16.081  0.6093  0.2956 -0.3327
  186MPD1    C2 2830   0.643   2.960  16.129  0.0851 -0.0187 -0.6837
  186MPD1    C3 2831   0.665   2.949  16.268  0.2351  0.5683 -0.3059
  186MPD1    C4 2832   0.576   3.015  16.353 -0.6979 -0.2497 -0.5041
  186MPD1    C5 2833   0.476   3.090  16.298  0.3982 -1.0791 -0.0200
  186MPD1     H 2834   0.709   2.900  16.068 -1.3128 -1.1322 -1.0816
  186MPD1    H1 2835   0.586   3.018  16.461  0.0349  2.0930 -0.6308
  186MPD1    H2 2836   0.386   3.175  16.124  0.7985  2.3426 -0.2270
  186MPD1    H3 2837   0.404   3.136  16.365  0.0323  0.1526 -1.2314
  186MPD1     N 2838   0.759   2.870  16.334 -0.0949  0.3486  0.4519
  186MPD1    H5 2839   0.742   2.866  16.434 -0.1284 -4.6975  0.2025
  186MPD1    N1 2840   0.553   3.073  15.946  0.2376  0.0188  0.2385
  186MPD1    H6 2841   0.651   3.074  15.918 -0.1147 -1.1848 -0.9908
  186MPD1    H7 2842   0.512   3.162  15.918  0.4136  0.0300  0.0229
  187MPD1     C 2843   4.389   0.007   0.393  0.1769 -0.0438  0.0455
  187MPD1    C1 2844   4.305   0.089   0.327 -0.1382 -0.4052  0.8409
  187MPD1    C2 2845   4.335   0.119   0.195 -0.2254  0.4322  0.5664
  187MPD1    C3 2846   4.435   0.059   0.126  0.3561 -0.9431 -0.2723
  187MPD1    C4 2847   4.512   4.691   0.193  0.4571 -0.1252 -0.1905
  187MPD1    C5 2848   4.487   4.671   0.325  0.2665 -0.0997  0.4397
  187MPD1     H 2849   4.276   0.200   0.153 -1.6349 -0.4363  0.8627
  187MPD1    H1 2850   4.606   4.652   0.155  0.2245 -0.5293 -0.3577
  187MPD1    H2 2851   4.389   0.003   0.501 -0.7834  2.7998  0.1667
  187MPD1    H3 2852   4.550   4.608   0.387  0.4810  0.0527  0.3777
  187MPD1     N 2853   4.464   0.083  17.696 -0.2298 -0.3281 -0.8247
  187MPD1    H5 2854   4.530   0.024  17.647 -2.0368 -1.7933 -1.5045
  187MPD1    N1 2855   4.212   0.167   0.396  0.4855 -0.1770  0.3020
  187MPD1    H6 2856   4.197   0.133   0.491 -1.9053  0.3562  0.1241
  187MPD1    H7 2857   4.126   0.199   0.351  1.0650 -0.9437 -1.3319
  188MPD1     C 2858   0.534   4.172  10.488 -0.3612  0.2873  0.0902
  188MPD1    C1 2859   0.597   4.156  10.366 -0.0939  1.3708 -0.2468
  188MPD1    C2 2860   0.602   4.029  10.310  0.0694 -0.1106 -0.0011
  188MPD1    C3 2861   0.548   3.917  10.365 -0.1617 -0.4570 -0.4539
  188MPD1    C4 2862   0.486   3.938  10.486 -0.4064  0.3797 -0.2136
  188MPD1    C5 2863   0.489   4.059  10.549 -0.3132  0.3396  0.1459
  188MPD1     H 2864   0.644   4.034  10.210  1.9821 -1.9454  0.7073
  188MPD1    H1 2865   0.473   3.847  10.543 -0.4614 -0.1842 -1.1260
  188MPD1    H2 2866   0.552   4.262  10.546 -1.3988  1.4082 -1.3328
  188MPD1    H3 2867   0.449   4.068  10.649 -2.8457  1.0610 -0.9347
  188MPD1     N 2868   0.540   3.795  10.295  0.1720 -0.3118 -0.8198
  188MPD1    H5 2869   0.473   3.731  10.336 -0.6973  1.3265  0.3331
  188MPD1    N1 2870   0.639   4.269  10.299 -0.3359 -0.4993  0.5341
  188MPD1    H6 2871   0.718   4.245  10.238 -0.2118 -0.1297  0.5478
  188MPD1    H7 2872   0.666   4.348  10.358  0.2000  1.3183 -2.1439
  189MPD1     C 2873   2.212   4.548   0.581 -0.4790  0.2780  0.4468
  189MPD1    C1 2874   2.112   4.508   0.665  0.1335  0.6875 -0.0278
  189MPD1    C2 2875   2.002   4.587   0.674 -0.0236 -0.1819  0.1304
  189MPD1    C3 2876   1.968   4.687   0.582  0.1115 -0.2142  0.2760
  189MPD1    C4 2877   2.067   4.719   0.491  0.3615 -0.1365 -0.2599
  189MPD1    C5 2878   2.190   4.647   0.491 -0.7608 -0.9526  0.1646
  189MPD1     H 2879   1.929   4.556   0.748  0.5834  0.0290  0.8136
  189MPD1    H1 2880   2.050   0.071   0.418 -3.1450 -0.5078  0.1270
  189MPD1    H2 2881   2.309   4.500   0.587 -0.7826 -0.0650  2.5420
  189MPD1    H3 2882   2.273   4.676   0.428 -0.8392  0.6030  0.7750
  189MPD1     N 2883   1.839   0.010   0.577 -0.6591 -0.0419 -0.2108
  189MPD1    H5 2884   1.774   4.694   0.642  1.9613 -0.8529  1.8757
  189MPD1    N1 2885   2.141   4.418   0.766 -0.2198 -0.8781  0.0709
  189MPD1    H6 2886   2.060   4.384   0.817 -0.9208  2.0219  0.8703
  189MPD1    H7 2887   2.203   4.340   0.742  0.5733 -1.0239  2.5531
  190MPD1     C 2888   0.129   3.497  15.982 -0.2649  0.3432  0.4570
  190MPD1    C1 2889   0.183   3.524  16.105  0.5449  1.0616 -0.1363
  190MPD1    C2 2890   0.320   3.552  16.103 -0.3298 -0.3051  0.2990
  190MPD1    C3 2891   0.396   3.570  15.994  0.2473  0.2036 -0.3831
  190MPD1    C4 2892   0.336   3.547  15.876  0.2997  0.3360  0.2617
  190MPD1    C5 2893   0.206   3.516  15.872  0.1061  0.4882  0.1543
  190MPD1     H 2894   0.369   3.567  16.198 -1.3687 -0.4727  0.8657
  190MPD1    H1 2895   0.390   3.571  15.785  2.3464  0.4969  1.5185
  190MPD1    H2 2896   0.029   3.462  15.960  0.2392 -0.5290 -0.4720
  190MPD1    H3 2897   0.158   3.490  15.779  2.7589 -3.7336 -0.0505
  190MPD1     N 2898   0.534   3.609  16.001  0.3893 -0.0533 -0.1796
  190MPD1    H5 2899   0.556   3.651  16.091 -3.4268  0.0882  0.6740
  190MPD1    N1 2900   0.111   3.498  16.222 -0.4329 -0.4792 -0.1474
  190MPD1    H6 2901   0.011   3.514  16.214 -0.3796 -0.3991 -0.6471
  190MPD1    H7 2902   0.148   3.546  16.304 -0.9929  0.2857 -0.3391
  191MPD1     C 2903   0.579   0.049  11.332 -0.7239 -0.2176  0.8713
  191MPD1    C1 2904   0.709   0.097  11.330 -0.5012 -0.6521  0.3525
  191MPD1    C2 2905   0.754   0.155  11.449  0.5509 -0.0153 -0.1624
  191MPD1    C3 2906   0.670   0.169  11.560  0.2121  0.7626 -0.4097
  191MPD1    C4 2907   0.542   0.122  11.555  0.6732 -0.1850  0.1777
  191MPD1    C5 2908   0.499   0.063  11.442 -0.0484 -0.8114 -0.2574
  191MPD1     H 2909   0.854   0.193  11.463  1.0954 -1.1801 -0.8450
  191MPD1    H1 2910   0.480   0.103  11.642  4.1891  1.5390  3.1028
  191MPD1    H2 2911   0.540   0.000  11.242  0.1914 -0.4698  0.6121
  191MPD1    H3 2912   0.405   0.009  11.437 -0.6976  0.0836  2.2697
  191MPD1     N 2913   0.718   0.244  11.672 -0.2849  0.8287  0.2528
  191MPD1    H5 2914   0.800   0.303  11.661  1.5289 -1.7789 -0.2062
  191MPD1    N1 2915   0.778   0.108  11.207 -0.1034 -0.2896 -0.1810
  191MPD1    H6 2916   0.878   0.111  11.228 -0.0713  2.4059 -0.7434
  191MPD1    H7 2917   0.748   0.031  11.147  1.3309  0.8929 -2.4235
  192MPD1     C 2918   0.275   0.721  12.455  0.3093 -0.1949  0.6915
  192MPD1    C1 2919   0.409   0.737  12.447  0.0859 -0.3581 -0.6959
  192MPD1    C2 2920   0.470   0.693  12.332  0.6693 -0.8646 -0.0934
  192MPD1    C3 2921   0.399   0.629  12.229  0.4902  0.0638  0.4448
  192MPD1    C4 2922   0.264   0.608  12.242 -0.2192  0.0455 -0.0596
  192MPD1    C5 2923   0.203   0.650  12.358  0.0772 -0.2638 -0.3595
  192MPD1     H 2924   0.577   0.709  12.325  0.4662  1.6819  2.6489
  192MPD1    H1 2925   0.205   0.569  12.160  2.1655 -1.4002 -1.0728
  192MPD1    H2 2926   0.224   0.757  12.543 -1.1434  0.7155 -0.5074
  192MPD1    H3 2927   0.099   0.624  12.370  0.2925 -1.2466 -0.6990
  192MPD1     N 2928   0.453   0.589  12.110  0.2687  0.5679  0.0478
  192MPD1    H5 2929   0.403   0.528  12.045  0.0838  0.3637  0.3809
  192MPD1    N1 2930   0.469   0.819  12.537  0.3884 -0.8594  0.2815
  192MPD1    H6 2931   0.563   0.787  12.558  0.7527  0.9611  1.4445
  192MPD1    H7 2932   0.420   0.816  12.626  1.0538 -0.9841  0.6383
  193MPD1     C 2933   4.389   1.069  16.236  0.0826 -0.2534 -0.0736
  193MPD1    C1 2934   4.384   1.205  16.212 -0.0626 -0.7966 -0.5119
  193MPD1    C2 2935   4.459   1.290  16.293 -0.3978 -0.1804  0.0766
  193MPD1    C3 2936   4.532   1.231  16.395  0.1512  0.2688  0.5878
  193MPD1    C4 2937   4.527   1.098  16.419  0.8125  0.2901 -0.5579
  193MPD1    C5 2938   4.464   1.015  16.332  0.0156 -0.2875  0.3961
  193MPD1     H 2939   4.458   1.396  16.271 -1.8445 -0.6694 -2.1964
  193MPD1    H1 2940   4.573   1.053  16.507 -0.9281 -1.6141 -0.6189
  193MPD1    H2 2941   4.339   0.996  16.174  2.3333 -1.8532  0.0228
  193MPD1    H3 2942   4.465   0.908  16.353  0.9686 -0.3080  0.2195
  193MPD1     N 2943   4.618   1.296  16.488  0.0297 -0.1238  0.3882
  193MPD1    H5 2944   4.684   1.242  16.541 -0.2731 -1.2457 -0.3891
  193MPD1    N1 2945   4.289   1.255  16.129 -0.2778  0.4161  0.0128
  193MPD1    H6 2946   4.332   1.331  16.076 -0.6715  0.0351 -0.8515
  193MPD1    H7 2947   4.266   1.178  16.066  0.8718 -1.6678  2.1087
  194MPD1     C 2948   1.641   3.520  17.510  0.3801 -0.2872  0.5178
  194MPD1    C1 2949   1.704   3.465  17.613 -0.3576  0.5078 -0.8778
  194MPD1    C2 2950   1.805   3.372  17.583  0.0177 -0.3455  0.6263
  194MPD1    C3 2951   1.854   3.363  17.449 -0.4440 -0.5829 -0.0885
  194MPD1    C4 2952   1.787   3.428  17.352 -0.1212  1.1874 -0.8076
  194MPD1    C5 2953   1.687   3.514  17.385  0.0153 -0.5410 -0.0914
  194MPD1     H 2954   1.854   3.329  17.670  0.4162 -1.1790 -0.0067
  194MPD1    H1 2955   1.830   3.419  17.252 -1.3606  0.8923 -1.3055
  194MPD1    H2 2956   1.555   3.586  17.521  1.1782  1.1959 -2.2841
  194MPD1    H3 2957   1.635   3.571  17.309 -0.4143 -0.9551 -0.1083
  194MPD1     N 2958   1.963   3.276  17.427  0.5361  0.4525 -0.1747
  194MPD1    H5 2959   2.004   3.226  17.505  0.3891  0.0964 -0.3260
  194MPD1    N1 2960   1.648   3.484   0.039  0.0831 -0.3463 -0.3207
  194MPD1    H6 2961   1.589   3.567   0.045 -1.5146 -1.4696 -0.6965
  194MPD1    H7 2962   1.717   3.493   0.113  1.9274  0.8588 -2.1485
  195MPD1     C 2963   4.705   0.008   1.369 -0.0896  1.7538 -0.3912
  195MPD1    C1 2964   0.097   0.031   1.303  0.2242  0.0108  0.3888
  195MPD1    C2 2965   0.115   4.691   1.183 -0.0990  0.6124  0.2722
  195MPD1    C3 2966   0.027   4.590   1.138 -0.0351 -0.9407  0.2866
  195MPD1    C4 2967   4.638   4.572   1.214  0.1185 -0.2558 -0.7593
  195MPD1    C5 2968   4.619   4.637   1.332 -0.1216 -0.1699  0.1700
  195MPD1     H 2969   0.206   4.714   1.128  0.1221  0.4947  0.5889
  195MPD1    H1 2970   4.568   4.494   1.187 -2.6146  1.2379  1.9875
  195MPD1    H2 2971   4.668   0.068   1.451  1.4234 -0.1492  1.6706
  195MPD1    H3 2972   4.523   4.623   1.380  1.2403  1.9325  3.5369
  195MPD1     N 2973   0.051   4.510   1.032  0.3860  0.1799 -0.3496
  195MPD1    H5 2974   4.700   4.445   1.022 -0.9393  1.2885  2.6079
  195MPD1    N1 2975   0.184   0.137   1.340  0.4354 -0.5700 -0.8104
  195MPD1    H6 2976   0.275   0.123   1.297  0.8658 -3.3641  1.0248
  195MPD1    H7 2977   0.195   0.136   1.441  0.0499 -2.6760 -0.7817
  196MPD1     C 2978   4.441   1.134   0.264  0.1460 -0.6765  0.5683
  196MPD1    C1 2979   4.371   1.015   0.241  0.0249  0.5030  0.2941
  196MPD1    C2 2980   4.302   0.960   0.353  0.0731  0.8617  0.0274
  196MPD1    C3 2981   4.307   1.017   0.479  0.0710  0.5699  0.5962
  196MPD1    C4 2982   4.391   1.126   0.499  0.0953 -0.1851  0.5067
  196MPD1    C5 2983   4.449   1.187   0.393 -0.3802  0.5857 -0.0279
  196MPD1     H 2984   4.258   0.862   0.348 -2.6231  2.1103 -0.6226
  196MPD1    H1 2985   4.423   1.154   0.599 -1.4904 -0.9220  1.2178
  196MPD1    H2 2986   4.496   1.179   0.182  0.7204 -0.1739  1.2339
  196MPD1    H3 2987   4.513   1.273   0.411 -2.4371  1.5804  2.4133
  196MPD1     N 2988   4.255   0.957   0.600 -0.0455 -0.1487 -0.1836
  196MPD1    H5 2989   4.266   1.008   0.687  0.2012  0.3962 -0.5350
  196MPD1    N1 2990   4.395   0.955   0.115  0.1359  0.3296 -0.2275
  196MPD1    H6 2991   4.337   0.873   0.099 -0.5184  0.5943  0.7967
  196MPD1    H7 2992   4.409   1.021   0.038 -0.6562 -0.5294 -1.1135
  197MPD1     C 2993   3.840   1.972  17.682  0.2461  0.0640 -0.1998
  197MPD1    C1 2994   3.804   2.107  17.674 -0.7150 -0.0573  0.5771
  197MPD1    C2 2995   3.707   2.138  17.578 -0.5741 -0.1690 -0.7695
  197MPD1    C3 2996   3.643   2.040  17.508  0.1129  0.0978  0.0750
  197MPD1    C4 2997   3.675   1.905  17.522  0.4104 -0.9380  0.7691
  197MPD1    C5 2998   3.776   1.870  17.609  0.4620 -0.4955  0.6461
  197MPD1     H 2999   3.672   2.240  17.571 -0.8452 -0.0424  2.4465
  197MPD1    H1 3000   3.620   1.831  17.465  1.3880 -0.2748 -1.0328
  197MPD1    H2 3001   3.920   1.938   0.041 -0.3274 -1.1306 -0.1119
  197MPD1    H3 3002   3.805   1.766  17.619  0.0295 -0.4669  2.1477
  197MPD1     N 3003   3.539   2.071  17.420  0.2593 -0.0711 -0.1093
  197MPD1    H5 3004   3.484   1.992  17.388  1.3880 -1.1961  0.7636
  197MPD1    N1 3005   3.886   2.207   0.015 -0.3565 -0.7773 -0.0202
  197MPD1    H6 3006   3.825   2.284   0.042 -1.1979 -0.3972 -3.0679
  197MPD1    H7 3007   3.928   2.190   0.106 -0.8602  3.0467  0.9234
  198MPD1     C 3008   0.955   0.970  15.665  0.8062 -0.5916  0.1119
  198MPD1    C1 3009   0.970   0.835  15.654  0.3136  0.3552 -0.5352
  198MPD1    C2 3010   1.043   0.773  15.741  0.3042 -0.0847 -0.4896
  198MPD1    C3 3011   1.120   0.838  15.835 -0.4347 -0.2401  0.1706
  198MPD1    C4 3012   1.115   0.979  15.843 -0.3517  0.6273  0.8893
  198MPD1    C5 3013   1.038   1.044  15.746 -0.4516  0.7048  0.0142
  198MPD1     H 3014   1.045   0.665  15.749 -0.4523 -0.1784 -1.5543
  198MPD1    H1 3015   1.179   1.031  15.913 -0.5010 -0.2450  1.6845
  198MPD1    H2 3016   0.888   1.024  15.598  1.8030 -1.6239 -1.7085
  198MPD1    H3 3017   1.035   1.152  15.746 -2.2688  0.6459  0.6142
  198MPD1     N 3018   1.200   0.757  15.917  0.3142 -0.7161 -0.4303
  198MPD1    H5 3019   1.219   0.664  15.884  0.3214 -0.4278 -1.2295
  198MPD1    N1 3020   0.874   0.765  15.581  0.7451 -0.0835  0.4037
  198MPD1    H6 3021   0.851   0.817  15.497 -0.6761 -1.2395  0.0784
  198MPD1    H7 3022   0.903   0.669  15.561 -1.2530 -0.0791 -2.5346
  199MPD1     C 3023   3.239   1.564  10.595  0.5924 -0.1383 -0.5825
  199MPD1    C1 3024   3.131   1.486  10.600  0.0363 -0.7106  0.5717
  199MPD1    C2 3025   3.083   1.445  10.475  0.6331  0.9676  0.2479
  199MPD1    C3 3026   3.135   1.494  10.353  0.0818 -0.5352 -0.5073
  199MPD1    C4 3027   3.233   1.591  10.362  0.4306 -0.4595  0.6819
  199MPD1    C5 3028   3.283   1.624  10.486 -0.1322  0.1374  0.1024
  199MPD1     H 3029   3.002   1.373  10.474  2.2232 -0.8407  4.0140
  199MPD1    H1 3030   3.282   1.646  10.283  0.2052 -0.8375  0.2794
  199MPD1    H2 3031   3.290   1.595  10.685  1.8197  1.0972 -1.7086
  199MPD1    H3 3032   3.359   1.699  10.504 -0.1314  0.7395 -2.4670
  199MPD1     N 3033   3.084   1.462  10.225  0.2642  0.1179 -0.1534
  199MPD1    H5 3034   3.135   1.501  10.146  0.7481  1.3311  0.7612
  199MPD1    N1 3035   3.077   1.443  10.724  0.1827  1.0337  0.6451
  199MPD1    H6 3036   3.104   1.502  10.803  0.6751  1.3454  0.2414
  199MPD1    H7 3037   2.975   1.441  10.724  0.2174 -1.1981  0.8316
  200MPD1     C 3038   1.203   1.694  15.239 -0.4201 -0.4856  0.7515
  200MPD1    C1 3039   1.161   1.774  15.138  0.4486 -0.3117  0.1099
  200MPD1    C2 3040   1.238   1.773  15.024 -0.0584  0.1933  0.4948
  200MPD1    C3 3041   1.348   1.688  15.014 -0.7550  0.0860  0.5970
  200MPD1    C4 3042   1.383   1.597  15.117 -0.0399  0.1195 -0.0741
  200MPD1    C5 3043   1.307   1.600  15.227 -0.0376 -0.3475 -0.2668
  200MPD1     H 3044   1.217   1.835  14.938 -2.0027  0.3337  1.0804
  200MPD1    H1 3045   1.473   1.538  15.113 -0.8298 -1.0471 -0.5665
  200MPD1    H2 3046   1.161   1.699  15.339  0.0858 -0.2363  0.9551
  200MPD1    H3 3047   1.327   1.536  15.312  1.3381  1.9261  1.1216
  200MPD1     N 3048   1.415   1.691  14.891 -0.6975  0.2059  0.2685
  200MPD1    H5 3049   1.376   1.758  14.825  0.6487 -1.2434 -2.0066
  200MPD1    N1 3050   1.053   1.864  15.152  0.3021 -0.0132 -0.7218
  200MPD1    H6 3051   1.023   1.911  15.066  0.1121  2.2776  0.6077
  200MPD1    H7 3052   0.976   1.839  15.213 -0.6175  3.2623 -0.5891
  201MPD1     C 3053   0.306   4.694  12.904 -0.0233  0.6692  0.1235
  201MPD1    C1 3054   0.364   4.570  12.922  0.6913 -0.9104  0.0284
  201MPD1    C2 3055   0.368   4.525  13.057 -0.2618 -0.7072 -0.1228
  201MPD1    C3 3056   0.297   4.589  13.162  0.3289 -1.1060 -0.4119
  201MPD1    C4 3057   0.230   4.702  13.132 -0.1403 -0.1501  0.1079
  201MPD1    C5 3058   0.233   0.030  13.001 -0.6039 -0.2577  0.0222
  201MPD1     H 3059   0.428   4.437  13.080 -0.4797 -1.0865 -1.0057
  201MPD1    H1 3060   0.184   0.034  13.212  1.5224 -0.2159  1.1068
  201MPD1    H2 3061   0.312   0.016  12.807  0.6020 -1.4499 -0.9056
  201MPD1    H3 3062   0.185   0.126  12.986  0.9452  0.5123  0.0500
  201MPD1     N 3063   0.315   4.537  13.290 -0.4949 -1.0790  0.4354
  201MPD1    H5 3064   0.370   4.452  13.302  0.3905 -0.2769  2.0900
  201MPD1    N1 3065   0.454   4.518  12.828 -0.3388 -0.4396 -0.2491
  201MPD1    H6 3066   0.433   4.534  12.730  3.6932 -0.1846 -1.0667
  201MPD1    H7 3067   0.459   4.418  12.843  0.8603 -0.4276 -0.6238
  202MPD1     C 3068   0.450   0.313   9.978 -0.1847  0.5655  0.5294
  202MPD1    C1 3069   0.343   0.390   9.944  0.2519 -0.4212 -0.5848
  202MPD1    C2 3070   0.225   0.317   9.958  0.9877 -0.4213 -0.3783
  202MPD1    C3 3071   0.214   0.215  10.055 -0.4297  0.7681 -0.0455
  202MPD1    C4 3072   0.327   0.165  10.119  0.0430  0.3693 -0.1211
  202MPD1    C5 3073   0.446   0.212  10.071 -0.0349 -0.1915 -0.0486
  202MPD1     H 3074   0.139   0.356   9.906 -0.1291 -0.1325  1.6855
  202MPD1    H1 3075   0.314   0.089  10.195 -1.1148  2.1864  1.4928
  202MPD1    H2 3076   0.547   0.345   9.943  0.7918  0.2049  2.8785
  202MPD1    H3 3077   0.533   0.157  10.105  0.2832  0.8861  0.8929
  202MPD1     N 3078   0.087   0.151  10.080  0.3406 -0.5237 -0.3174
  202MPD1    H5 3079   0.089   0.061  10.127 -1.5256 -1.2844 -1.6854
  202MPD1    N1 3080   0.353   0.492   9.843  0.0987  0.1980 -0.0704
  202MPD1    H6 3081   0.436   0.548   9.863 -0.1414  1.1447 -1.7645
  202MPD1    H7 3082   0.270   0.550   9.832  1.1258  1.9044  1.2553
  203MPD1     C 3083   2.997   1.220  12.810  0.9082  0.8003 -0.2373
  203MPD1    C1 3084   3.050   1.191  12.933 -0.1332 -0.0198  0.4236
  203MPD1    C2 3085   3.102   1.068  12.950  0.3257 -0.2309  1.3567
  203MPD1    C3 3086   3.140   0.987  12.845 -0.4015 -0.8310  0.4568
  203MPD1    C4 3087   3.113   1.040  12.717 -0.2819 -0.2338 -0.2441
  203MPD1    C5 3088   3.035   1.149  12.706  0.2077 -0.0824  0.6134
  203MPD1     H 3089   3.146   1.055  13.048  0.6644 -0.5915  1.1598
  203MPD1    H1 3090   3.149   0.986  12.631 -0.7668 -1.4890  0.3527
  203MPD1    H2 3091   2.943   1.312  12.791  0.4928  1.2553  3.2021
  203MPD1    H3 3092   3.016   1.187  12.606 -0.2520  1.1676  1.1657
  203MPD1     N 3093   3.221   0.879  12.872 -0.2983  0.5081 -0.0472
  203MPD1    H5 3094   3.236   0.872  12.973 -0.5014  1.4209  0.0452
  203MPD1    N1 3095   3.023   1.269  13.050  0.6669 -0.0104  0.0234
  203MPD1    H6 3096   3.105   1.265  13.111  2.1506 -0.1755 -1.9675
  203MPD1    H7 3097   3.022   1.366  13.017 -0.4082 -0.7192 -2.0141
  204MPD1     C 3098   1.774   1.649   0.233 -0.8843  0.5455  0.1316
  204MPD1    C1 3099   1.881   1.644   0.148 -0.3297  0.4492  0.2134
  204MPD1    C2 3100   1.877   1.550   0.043  0.0289 -0.0659  0.0879
  204MPD1    C3 3101   1.750   1.485   0.015  0.1525  0.5902  0.4431
  204MPD1    C4 3102   1.644   1.510   0.095  0.0231 -0.1933  0.3106
  204MPD1    C5 3103   1.663   1.572   0.210 -0.2191  0.5884  0.3377
  204MPD1     H 3104   1.962   1.526  17.686 -1.2091  0.3802 -1.7613
  204MPD1    H1 3105   1.544   1.472   0.077  0.2636 -1.8245  2.3944
  204MPD1    H2 3106   1.780   1.708   0.324  1.3206  0.4936  0.0267
  204MPD1    H3 3107   1.580   1.577   0.280  0.4514  2.8995  0.9826
  204MPD1     N 3108   1.742   1.409  17.601  0.1318  0.0543 -0.3842
  204MPD1    H5 3109   1.818   1.411  17.534  0.9669  1.4725  0.6038
  204MPD1    N1 3110   2.007   1.712   0.173 -0.0740  0.2570  0.1539
  204MPD1    H6 3111   2.057   1.728   0.085  2.0482 -0.9503  1.1156
  204MPD1    H7 3112   1.993   1.802   0.217  2.2021  1.0456 -0.7287
  205MPD1     C 3113   2.715   4.653  16.944  0.7134  0.3910  0.0955
  205MPD1    C1 3114   2.581   4.661  16.922 -0.5924 -0.1976 -0.2138
  205MPD1    C2 3115   2.505   4.718  17.013 -0.6953 -0.6639 -0.1279
  205MPD1    C3 3116   2.557   0.020  17.138  1.0282 -0.0587 -0.1171
  205MPD1    C4 3117   2.685   4.713  17.174  0.2552  0.7881 -0.3793
  205MPD1    C5 3118   2.770   4.668  17.068  0.2626  0.6546 -0.2078
  205MPD1     H 3119   2.401   0.007  16.985 -0.2056  1.0792 -1.0337
  205MPD1    H1 3120   2.731   4.717  17.272 -0.1205  2.1364 -0.2604
  205MPD1    H2 3121   2.777   4.610  16.866  1.5886  2.2860 -0.2609
  205MPD1    H3 3122   2.868   4.629  17.093  0.0716  0.9210  0.9492
  205MPD1     N 3123   2.488   0.072  17.241  0.2663 -0.1488 -0.4197
  205MPD1    H5 3124   2.538   0.070  17.330 -1.1327 -0.8107  0.3511
  205MPD1    N1 3125   2.532   4.632  16.793 -0.2508 -0.2705  0.2190
  205MPD1    H6 3126   2.438   4.594  16.802 -0.1336 -0.6692 -0.2701
  205MPD1    H7 3127   2.581   4.561  16.740  2.2830  2.4205 -1.0555
  206MPD1     C 3128   2.647   3.645  15.594 -0.6507 -0.8527 -0.4591
  206MPD1    C1 3129   2.510   3.661  15.581 -0.1846 -0.1096  0.1083
  206MPD1    C2 3130   2.438   3.602  15.681  0.1114 -0.3284  0.7242
  206MPD1    C3 3131   2.488   3.539  15.792  0.7661 -0.4131 -0.4878
  206MPD1    C4 3132   2.623   3.532  15.807  0.3385 -0.0611 -0.0690
  206MPD1    C5 3133   2.701   3.585  15.709 -0.3987 -0.1703 -0.0777
  206MPD1     H 3134   2.331   3.614  15.672  0.2076  0.6222  0.8403
  206MPD1    H1 3135   2.663   3.473  15.888 -1.2811  0.3000  0.9942
  206MPD1    H2 3136   2.713   3.687  15.519  0.7561  0.5354  1.5292
  206MPD1    H3 3137   2.805   3.556  15.720  0.1658  2.8723  2.4802
  206MPD1     N 3138   2.413   3.493  15.906 -0.3314  0.7010  0.1689
  206MPD1    H5 3139   2.465   3.482  15.992  0.2326  0.2720 -0.2231
  206MPD1    N1 3140   2.448   3.713  15.464  0.0456  0.2361  0.3585
  206MPD1    H6 3141   2.495   3.794  15.424 -0.3896  1.0607  1.5415
  206MPD1    H7 3142   2.352   3.741  15.486 -0.5913 -1.6508  0.0643
  207MPD1     C 3143   4.659   1.016   9.896  0.3989 -0.3448 -0.1063
  207MPD1    C1 3144   4.575   0.936   9.967  0.0686  0.3829  0.4269
  207MPD1    C2 3145   4.617   0.887  10.089  0.1943  0.1412 -0.2464
  207MPD1    C3 3146   0.019   0.908  10.135  0.1193  0.4610 -0.1322
  207MPD1    C4 3147   0.104   0.994  10.063 -0.3253  0.1049 -0.2348
  207MPD1    C5 3148   0.057   1.048   9.945  0.1118 -0.0421  0.6468
  207MPD1     H 3149   4.541   0.844  10.152 -0.1420  0.6222 -0.3181
  207MPD1    H1 3150   0.205   1.010  10.097  0.4700 -1.7570 -1.7089
  207MPD1    H2 3151   4.621   1.059   9.804 -0.8130  0.4886  0.7651
  207MPD1    H3 3152   0.124   1.112   9.888  0.3666 -1.4352 -0.6236
  207MPD1     N 3153   0.062   0.856  10.261 -0.0892  0.0553  1.0287
  207MPD1    H5 3154   0.154   0.883  10.294 -0.4314 -1.6068  3.3242
  207MPD1    N1 3155   4.438   0.938   9.932 -0.5289 -0.2249  0.0372
  207MPD1    H6 3156   4.397   0.853   9.971 -2.4052 -0.1823 -1.7969
  207MPD1    H7 3157   4.416   0.923   9.833 -3.7805 -0.2520  0.7457
  208MPD1     C 3158   3.435   4.598  17.351  0.1945  0.0130  0.1558
  208MPD1    C1 3159   3.394   4.475  17.387 -0.1888  0.1450  0.0127
  208MPD1    C2 3160   3.323   4.472  17.504  0.7388  0.2512  0.8191
  208MPD1    C3 3161   3.306   4.586  17.581  0.4930  0.0324 -1.0186
  208MPD1    C4 3162   3.344   4.712  17.542  0.4820 -0.0513 -0.0587
  208MPD1    C5 3163   3.424   4.714  17.426  0.6364  0.5948  0.1947
  208MPD1     H 3164   3.289   4.379  17.547 -0.8876  1.2313  1.6605
  208MPD1    H1 3165   3.365   0.067  17.611 -0.0111  0.0403 -0.0122
  208MPD1    H2 3166   3.509   4.591  17.272 -0.6659  2.3950 -0.8458
  208MPD1    H3 3167   3.483   0.071  17.388 -1.2367  1.6037 -0.5567
  208MPD1     N 3168   3.260   4.549   0.001  0.3057  1.0511  0.1176
  208MPD1    H5 3169   3.226   4.454   0.011  1.9640  0.2893 -1.4924
  208MPD1    N1 3170   3.390   4.365  17.301  0.0891 -0.1561  0.1752
  208MPD1    H6 3171   3.406   4.277  17.351  2.6474 -0.7947 -1.7203
  208MPD1    H7 3172   3.442   4.373  17.214  0.4149  0.2240  0.4042
  209MPD1     C 3173   0.050   4.366  11.507  0.4324 -0.4488  0.5769
  209MPD1    C1 3174   0.020   4.431  11.390 -0.0585 -0.1514 -0.0712
  209MPD1    C2 3175   0.053   4.559  11.377  0.7117  0.1087  0.0322
  209MPD1    C3 3176   0.098   4.636  11.487  0.5008  0.5243 -0.4935
  209MPD1    C4 3177   0.128   4.571  11.601 -0.2784  0.4832 -0.5525
  209MPD1    C5 3178   0.109   4.435  11.611 -0.1220 -0.1637 -0.0068
  209MPD1     H 3179   0.046   4.606  11.279  1.7559  1.6795  0.7195
  209MPD1    H1 3180   0.160   4.621  11.692  0.6945 -2.9978  1.0180
  209MPD1    H2 3181   0.039   4.259  11.514  1.2318 -0.5167  0.8020
  209MPD1    H3 3182   0.124   4.386  11.707  0.2994 -0.3172 -0.1485
  209MPD1     N 3183   0.125   0.049  11.465 -0.3965 -0.2330 -0.3611
  209MPD1    H5 3184   0.110   0.083  11.370 -1.6923  1.4767  0.4517
  209MPD1    N1 3185   4.722   4.348  11.279  0.1640 -0.1598 -0.3281
  209MPD1    H6 3186   4.659   4.270  11.295  0.7172 -0.5119  0.1230
  209MPD1    H7 3187   4.685   4.403  11.202 -0.6148 -1.2487 -0.7366
  210MPD1     C 3188   0.654   0.985  11.585  0.5610  0.6299  0.5546
  210MPD1    C1 3189   0.697   0.860  11.618  0.3223  0.3817  0.0009
  210MPD1    C2 3190   0.602   0.757  11.607 -0.2984 -0.0140  0.0067
  210MPD1    C3 3191   0.474   0.785  11.560 -0.3096 -0.5913 -0.1584
  210MPD1    C4 3192   0.441   0.907  11.512 -0.5544 -0.1471  0.3995
  210MPD1    C5 3193   0.534   1.006  11.522 -0.0616 -0.8774  0.1613
  210MPD1     H 3194   0.634   0.662  11.647  0.1558 -0.3539 -1.1477
  210MPD1    H1 3195   0.343   0.927  11.472 -0.9527  1.2641  2.0672
  210MPD1    H2 3196   0.722   1.069  11.595  1.1507  0.0355  1.5688
  210MPD1    H3 3197   0.511   1.104  11.481  1.5699 -1.3720 -1.9400
  210MPD1     N 3198   0.378   0.683  11.549  0.0244 -0.2162  0.4699
  210MPD1    H5 3199   0.288   0.710  11.509  0.7538  0.7819 -0.5075
  210MPD1    N1 3200   0.815   0.832  11.681 -0.2340  0.1050  0.1077
  210MPD1    H6 3201   0.853   0.749  11.637  0.3406  1.0524 -1.1752
  210MPD1    H7 3202   0.887   0.902  11.669 -0.9820  0.8616  0.0231
  211MPD1     C 3203   3.194   0.343  15.609 -0.2734 -0.1985 -0.3316
  211MPD1    C1 3204   3.175   0.478  15.635 -0.0494  0.2350 -0.9441
  211MPD1    C2 3205   3.084   0.513  15.735 -0.0804 -0.5560 -0.3075
  211MPD1    C3 3206   3.015   0.419  15.813 -0.2374 -0.2985 -0.0089
  211MPD1    C4 3207   3.049   0.288  15.794 -0.2592 -0.1351 -0.0143
  211MPD1    C5 3208   3.137   0.255  15.693 -0.9018  0.4751  0.5136
  211MPD1     H 3209   3.075   0.621  15.745  0.7579 -0.4276 -0.9668
  211MPD1    H1 3210   3.008   0.208  15.855  0.3558 -0.1420  0.3880
  211MPD1    H2 3211   3.258   0.305  15.531  0.0776  1.4114 -0.8437
  211MPD1    H3 3212   3.152   0.149  15.674  0.5281  0.6278  0.8136
  211MPD1     N 3213   2.933   0.464  15.922 -0.6144 -0.4738 -0.6400
  211MPD1    H5 3214   2.916   0.564  15.925 -0.0170 -0.3677 -0.6543
  211MPD1    N1 3215   3.243   0.567  15.551 -0.4369 -0.1818  0.1278
  211MPD1    H6 3216   3.323   0.527  15.503 -0.3420 -0.4612  0.5145
  211MPD1    H7 3217   3.282   0.648  15.600  1.4029 -1.4084  0.6781
  212MPD1     C 3218   1.863   3.544  16.547  0.4343 -0.3442 -0.6001
  212MPD1    C1 3219   1.755   3.589  16.618 -0.0683 -0.4041 -0.3986
  212MPD1    C2 3220   1.709   3.506  16.721  0.6569  0.2326  1.1819
  212MPD1    C3 3221   1.748   3.374  16.745 -0.3429  0.7453 -0.0356
  212MPD1    C4 3222   1.848   3.323  16.660  0.0320 -0.0258  0.4585
  212MPD1    C5 3223   1.901   3.416  16.571 -0.5179 -0.0273 -0.6065
  212MPD1     H 3224   1.634   3.542  16.790 -1.1516 -3.0433  0.9346
  212MPD1    H1 3225   1.883   3.223  16.682 -1.0652 -0.4572  0.2264
  212MPD1    H2 3226   1.910   3.616  16.481 -0.5210  0.7208 -0.0982
  212MPD1    H3 3227   1.988   3.369  16.526 -1.7439 -0.0477 -2.9622
  212MPD1     N 3228   1.701   3.284  16.841 -0.8372 -0.2298  0.0628
  212MPD1    H5 3229   1.744   3.192  16.839 -2.0018 -0.7930  0.4924
  212MPD1    N1 3230   1.714   3.726  16.604  0.2817 -0.0154 -0.0911
  212MPD1    H6 3231   1.742   3.761  16.513 -0.1320  0.9033  0.1358
  212MPD1    H7 3232   1.613   3.729  16.622  0.3996 -2.3149  0.9407
  213MPD1     C 3233   0.688   4.456  15.818 -0.0210 -0.2723  0.0129
  213MPD1    C1 3234   0.663   4.517  15.701  0.2300  0.4988 -0.2575
  213MPD1    C2 3235   0.529   4.547  15.672  0.3376  0.1995 -0.7157
  213MPD1    C3 3236   0.427   4.480  15.732 -0.8056 -0.3569  0.7698
  213MPD1    C4 3237   0.455   4.392  15.837  0.4404 -0.3870  0.0889
  213MPD1    C5 3238   0.584   4.379  15.875  1.0999  0.0600  0.3160
  213MPD1     H 3239   0.498   4.617  15.595 -1.9639 -1.1177 -0.9754
  213MPD1    H1 3240   0.384   4.329  15.890  0.0120  0.5938  0.6850
  213MPD1    H2 3241   0.792   4.445  15.846 -0.5135  0.7994  2.2101
  213MPD1    H3 3242   0.606   4.313  15.958  2.2301  1.4430  1.1134
  213MPD1     N 3243   0.304   4.516  15.693 -0.6261 -0.4256 -0.2115
  213MPD1    H5 3244   0.300   4.593  15.627  1.2243  0.5376  0.7853
  213MPD1    N1 3245   0.764   4.597  15.651 -0.0158 -0.2207  0.0462
  213MPD1    H6 3246   0.761   4.607  15.549  0.9245  0.3727  0.0730
  213MPD1    H7 3247   0.856   4.563  15.678 -0.4966  0.5374  2.5686
  214MPD1     C 3248   4.059   4.079  15.576  0.2047 -0.3863 -0.3175
  214MPD1    C1 3249   4.149   4.077  15.678  0.2537  0.2555  0.0572
  214MPD1    C2 3250   4.253   4.169  15.676  0.3357 -0.2108 -0.2833
  214MPD1    C3 3251   4.265   4.271  15.580 -0.2230  0.4047 -0.0071
  214MPD1    C4 3252   4.171   4.263  15.472  0.7654  0.0484 -0.3194
  214MPD1    C5 3253   4.071   4.171  15.475 -0.6161  0.6084 -0.2020
  214MPD1     H 3254   4.328   4.156  15.752 -0.1602 -0.5837  0.1359
  214MPD1    H1 3255   4.171   4.324  15.382 -2.4931 -0.8941 -0.9493
  214MPD1    H2 3256   3.968   4.021  15.567  0.0353  0.0191 -1.1881
  214MPD1    H3 3257   4.001   4.164  15.393  0.7163 -1.9435 -1.1231
  214MPD1     N 3258   4.370   4.364  15.572 -0.4293  0.1212 -0.2475
  214MPD1    H5 3259   4.389   4.410  15.484  0.2694 -0.6375 -0.4957
  214MPD1    N1 3260   4.152   3.960  15.765  0.1277 -0.7760  0.0671
  214MPD1    H6 3261   4.055   3.943  15.789 -0.0592  0.3725  0.1283
  214MPD1    H7 3262   4.195   3.987  15.854 -1.5137 -0.8776  0.8889
  215MPD1     C 3263   3.592   0.564  11.036  0.3044 -0.0665  0.9387
  215MPD1    C1 3264   3.694   0.582  10.943 -0.0895  0.2567  0.0897
  215MPD1    C2 3265   3.824   0.603  10.983 -0.6589 -0.1934  0.0678
  215MPD1    C3 3266   3.855   0.601  11.113 -0.5985 -0.1136 -0.5004
  215MPD1    C4 3267   3.757   0.575  11.210 -0.3889 -0.0630 -0.1318
  215MPD1    C5 3268   3.619   0.564  11.173 -0.1116  0.4559 -0.2042
  215MPD1     H 3269   3.904   0.618  10.911  0.6019  0.3117  1.5911
  215MPD1    H1 3270   3.773   0.562  11.317  1.9564  1.1903 -0.3409
  215MPD1    H2 3271   3.498   0.533  10.991  1.9567 -0.8616 -1.9282
  215MPD1    H3 3272   3.535   0.537  11.236 -1.2979  0.5465 -1.7257
  215MPD1     N 3273   3.989   0.626  11.152 -0.2669  0.3281 -0.3403
  215MPD1    H5 3274   4.064   0.626  11.083 -0.7226  0.8601 -0.8389
  215MPD1    N1 3275   3.673   0.572  10.808 -0.3084 -0.1372 -0.1761
  215MPD1    H6 3276   3.578   0.557  10.774 -0.9211  1.4965  0.8562
  215MPD1    H7 3277   3.717   0.643  10.749 -0.7490 -0.7874 -1.2879
  216MPD1     C 3278   1.199   3.652  17.497  0.3347 -0.7651 -0.2871
  216MPD1    C1 3279   1.293   3.573  17.428  0.4251  0.1848 -0.6221
  216MPD1    C2 3280   1.322   3.450  17.474  0.1784 -1.0945  0.4240
  216MPD1    C3 3281   1.244   3.387  17.571 -0.1966 -0.0178  0.5038
  216MPD1    C4 3282   1.154   3.465  17.637 -0.2699  0.1405  0.0211
  216MPD1    C5 3283   1.132   3.591  17.604 -0.0286 -0.7266 -0.8566
  216MPD1     H 3284   1.405   3.394  17.432  0.1794 -0.6864 -0.1224
  216MPD1    H1 3285   1.082   3.423   0.002  0.4066  1.6958  1.6141
  216MPD1    H2 3286   1.174   3.753  17.465  1.2033 -0.8766 -1.2845
  216MPD1    H3 3287   1.054   3.655  17.644  1.2834 -0.7800  1.8101
  216MPD1     N 3288   1.270   3.252  17.609 -0.0532 -0.2525 -0.1186
  216MPD1    H5 3289   1.328   3.193  17.550  1.6196  0.3538  0.9370
  216MPD1    N1 3290   1.366   3.636  17.328  0.3727 -0.1594 -0.5066
  216MPD1    H6 3291   1.323   3.718  17.286  2.0610  0.1755 -1.5716
  216MPD1    H7 3292   1.414   3.584  17.255  2.7834  0.0750  0.9190
  217MPD1     C 3293   3.963   2.662   9.065  0.0650 -0.3864  0.4522
  217MPD1    C1 3294   3.852   2.585   9.023 -0.6557  0.2536  0.3307
  217MPD1    C2 3295   3.727   2.628   9.064 -0.4311  0.8980  0.3203
  217MPD1    C3 3296   3.712   2.722   9.167 -0.4330  0.5391 -0.0689
  217MPD1    C4 3297   3.824   2.796   9.212  0.5027 -0.1585 -0.4177
  217MPD1    C5 3298   3.949   2.767   9.158  0.2562  0.1012 -0.4887
  217MPD1     H 3299   3.638   2.583   9.022  0.1719 -2.5942  2.7005
  217MPD1    H1 3300   3.814   2.879   9.281 -0.7723 -0.6360 -0.0285
  217MPD1    H2 3301   4.058   2.620   9.034  0.8699  2.2348 -0.6709
  217MPD1    H3 3302   4.038   2.814   9.200  0.6404 -0.2841 -0.8736
  217MPD1     N 3303   3.583   2.765   9.207  0.3753 -0.1539 -0.0429
  217MPD1    H5 3304   3.591   2.843   9.271  2.1005  0.6581 -1.2501
  217MPD1    N1 3305   3.863   2.484   8.923 -0.3305 -0.0093  0.1926
  217MPD1    H6 3306   3.799   2.406   8.935 -2.4349  2.0261  2.2779
  217MPD1    H7 3307   3.960   2.460   8.906 -0.4049  0.1805 -0.4950
  218MPD1     C 3308   4.238   0.748  13.410  0.3406 -0.9931 -0.4438
  218MPD1    C1 3309   4.295   0.631  13.385 -0.3787 -0.0634  0.4381
  218MPD1    C2 3310   4.382   0.628  13.282  0.5950  0.0783 -0.3522
  218MPD1    C3 3311   4.428   0.743  13.216  0.3580 -0.8759 -0.4914
  218MPD1    C4 3312   4.364   0.865  13.247  0.1606 -0.8893  0.3695
  218MPD1    C5 3313   4.275   0.868  13.351  0.2605 -0.3760 -0.1097
  218MPD1     H 3314   4.416   0.529  13.257 -1.1706 -0.6815  0.2393
  218MPD1    H1 3315   4.399   0.959  13.206  0.8419 -2.2540 -2.2331
  218MPD1    H2 3316   4.163   0.747  13.488 -0.5720 -0.0948 -1.3111
  218MPD1    H3 3317   4.228   0.958  13.389  0.6102  0.3811 -1.4607
  218MPD1     N 3318   4.513   0.720  13.106  0.7943  0.0203 -0.3355
  218MPD1    H5 3319   4.531   0.623  13.085  2.3689  0.1682  0.3358
  218MPD1    N1 3320   4.246   0.510  13.442 -0.0373 -0.3023  0.5911
  218MPD1    H6 3321   4.198   0.521  13.531  2.7307  0.9555  1.9346
  218MPD1    H7 3322   4.322   0.448  13.470  1.4979  1.2105 -0.1791
  219MPD1     C 3323   4.574   0.706  12.031  0.3380 -0.0542 -0.4230
  219MPD1    C1 3324   4.664   0.785  12.097  0.0235  0.0950  0.0165
  219MPD1    C2 3325   4.638   0.790  12.239 -0.6007  0.0518  0.5960
  219MPD1    C3 3326   4.554   0.699  12.298  0.1944 -0.3978 -0.2893
  219MPD1    C4 3327   4.481   0.608  12.229 -0.2421  0.4847  0.0007
  219MPD1    C5 3328   4.486   0.620  12.090 -0.6181 -0.2510 -0.2865
  219MPD1     H 3329   4.699   0.861  12.294  1.0873  0.0207 -1.1960
  219MPD1    H1 3330   4.412   0.546  12.283 -2.6804  2.4688 -0.8303
  219MPD1    H2 3331   4.563   0.721  11.924  3.0304 -0.0451 -0.7107
  219MPD1    H3 3332   4.420   0.562  12.028 -1.6485  0.9271 -0.2809
  219MPD1     N 3333   4.550   0.686  12.443  0.3484  0.2582 -0.4231
  219MPD1    H5 3334   4.508   0.600  12.475  1.3852  0.3285  1.1173
  219MPD1    N1 3335   0.022   0.876  12.030  0.6736  0.5171  0.5447
  219MPD1    H6 3336   0.100   0.909  12.086 -0.1221  0.3161  1.7635
  219MPD1    H7 3337   0.062   0.834  11.947 -0.4849 -0.3400  0.4226
  220MPD1     C 3338   4.094   1.504   9.757 -0.3553 -1.2906 -0.0951
  220MPD1    C1 3339   4.218   1.445   9.777  0.8033 -0.0430  0.4001
  220MPD1    C2 3340   4.233   1.326   9.848  0.0646 -0.1654 -0.4697
  220MPD1    C3 3341   4.122   1.275   9.910  0.3805  0.0896  0.4434
  220MPD1    C4 3342   3.998   1.333   9.889  0.1150  0.0242  0.6650
  220MPD1    C5 3343   3.988   1.442   9.810 -0.5588  0.0897 -0.2297
  220MPD1     H 3344   4.331   1.283   9.866 -1.4534 -3.3568  0.2990
  220MPD1    H1 3345   3.905   1.302   9.935  0.1988  0.5431  1.1892
  220MPD1    H2 3346   4.083   1.591   9.693  2.2056  0.0403  1.2718
  220MPD1    H3 3347   3.891   1.479   9.779 -1.2179  0.1458  1.9255
  220MPD1     N 3348   4.139   1.170  10.002 -0.7976 -0.2950  0.2780
  220MPD1    H5 3349   4.237   1.151  10.024 -0.8382 -1.4917 -0.5995
  220MPD1    N1 3350   4.337   1.505   9.728  0.3534 -0.3203 -0.0294
  220MPD1    H6 3351   4.322   1.567   9.649 -0.0436 -0.1385  0.1917
  220MPD1    H7 3352   4.408   1.436   9.702  2.1458  0.7708  1.9002
  221MPD1     C 3353   1.554   4.238   0.098  0.6215  0.0711  0.1866
  221MPD1    C1 3354   1.669   4.168   0.134  0.3394  0.4676  0.3435
  221MPD1    C2 3355   1.769   4.177   0.038  0.5159 -0.3789 -0.3377
  221MPD1    C3 3356   1.747   4.231  17.616  0.3784  0.3633  0.0705
  221MPD1    C4 3357   1.626   4.287  17.587 -0.1352 -0.0355 -0.3524
  221MPD1    C5 3358   1.529   4.290  17.679 -0.3504  0.4892  0.1180
  221MPD1     H 3359   1.871   4.144   0.059  0.7903  1.3949  1.1389
  221MPD1    H1 3360   1.610   4.339  17.494 -2.1741 -0.8052 -0.4450
  221MPD1    H2 3361   1.474   4.248   0.170 -0.2476 -1.7135 -0.5184
  221MPD1    H3 3362   1.434   4.341  17.664 -0.4144  0.5356  0.6783
  221MPD1     N 3363   1.852   4.240  17.518  0.0425  0.2162 -0.2189
  221MPD1    H5 3364   1.825   4.278  17.428 -2.5332  1.7171  1.1952
  221MPD1    N1 3365   1.684   4.122   0.264  0.0632  0.3693 -0.1259
  221MPD1    H6 3366   1.604   4.075   0.306  0.1343  1.4400  1.2319
  221MPD1    H7 3367   1.747   4.042   0.255 -1.1521 -0.4345 -1.4422
  222MPD1     C 3368   1.590   3.137   0.574 -0.1747 -0.1461  0.4813
  222MPD1    C1 3369   1.674   3.152   0.679 -0.2631  0.1039  0.4049
  222MPD1    C2 3370   1.809   3.151   0.650  0.4254  0.1493  0.2322
  222MPD1    C3 3371   1.857   3.183   0.524 -0.4414  0.7026 -0.6237
  222MPD1    C4 3372   1.767   3.180   0.418  0.1368 -0.2928  0.0055
  222MPD1    C5 3373   1.634   3.149   0.446  0.5212 -0.0971 -0.2230
  222MPD1     H 3374   1.878   3.150   0.733 -1.3448 -1.5692  1.7038
  222MPD1    H1 3375   1.796   3.203   0.317 -0.6179 -1.2251 -0.4246
  222MPD1    H2 3376   1.484   3.119   0.590 -0.1119  0.4850  1.6063
  222MPD1    H3 3377   1.564   3.137   0.365 -0.5391  1.7664  0.4035
  222MPD1     N 3378   1.992   3.221   0.497  0.3167 -0.0396 -0.5133
  222MPD1    H5 3379   2.019   3.235   0.400  0.3110 -2.6475 -0.8851
  222MPD1    N1 3380   1.622   3.132   0.810  1.3284  0.0613 -0.0376
  222MPD1    H6 3381   1.668   3.193   0.877 -0.5915  1.2513  0.1787
  222MPD1    H7 3382   1.522   3.147   0.822  1.3022 -0.3982  0.3105
  223MPD1     C 3383   2.813   2.930   0.934  0.8052 -0.1587 -0.0036
  223MPD1    C1 3384   2.683   2.905   0.943 -0.1722 -0.0214 -0.0309
  223MPD1    C2 3385   2.598   2.950   0.849 -0.4126  0.6017 -0.7370
  223MPD1    C3 3386   2.649   3.020   0.741  0.7915  0.7076 -0.4326
  223MPD1    C4 3387   2.781   3.037   0.725 -0.1537  1.0628 -0.0554
  223MPD1    C5 3388   2.865   2.992   0.818  0.0906 -0.4831 -0.1243
  223MPD1     H 3389   2.491   2.930   0.856 -0.0944 -0.9045 -0.1746
  223MPD1    H1 3390   2.821   3.074   0.631  2.4600 -1.4226  0.0981
  223MPD1    H2 3391   2.876   2.903   1.018 -0.3547  0.7446  1.1499
  223MPD1    H3 3392   2.971   3.009   0.806 -0.4835  4.1484  1.2808
  223MPD1     N 3393   2.548   3.070   0.657  0.2525  0.0764  0.2499
  223MPD1    H5 3394   2.457   3.026   0.663 -0.4421  1.5588  0.6166
  223MPD1    N1 3395   2.633   2.858   1.064 -0.3768 -0.6350 -0.1967
  223MPD1    H6 3396   2.694   2.800   1.122  1.2235  1.7852  0.5357
  223MPD1    H7 3397   2.549   2.805   1.044  0.2113 -2.4514  2.1039
  224MPD1     C 3398   0.656   4.390   9.529 -0.9181  0.4635 -0.8779
  224MPD1    C1 3399   0.594   4.270   9.547 -0.3252  0.1934  0.1985
  224MPD1    C2 3400   0.473   4.269   9.606  0.7668  0.4385  0.2321
  224MPD1    C3 3401   0.412   4.386   9.654  0.2187  1.1962 -0.0962
  224MPD1    C4 3402   0.473   4.508   9.627  0.2246  1.1832  0.4118
  224MPD1    C5 3403   0.588   4.502   9.555  0.3747  0.6224 -0.0650
  224MPD1     H 3404   0.433   4.169   9.613 -0.3860  0.9137  0.3738
  224MPD1    H1 3405   0.421   4.599   9.653  1.2695  2.3554 -1.5773
  224MPD1    H2 3406   0.750   4.394   9.475  0.0557 -0.2844  0.7889
  224MPD1    H3 3407   0.626   4.598   9.521 -2.3115  1.5902 -0.3210
  224MPD1     N 3408   0.294   4.391   9.728 -0.2035  0.6913 -0.1870
  224MPD1    H5 3409   0.270   4.482   9.768 -0.6388  0.4402  0.1204
  224MPD1    N1 3410   0.657   4.155   9.502 -0.5690 -0.1380 -0.5585
  224MPD1    H6 3411   0.758   4.147   9.513 -0.7591 -2.6213 -0.5738
  224MPD1    H7 3412   0.618   4.071   9.545  0.8833 -0.3511  0.3425
  225MPD1     C 3413   0.133   1.932  12.779 -0.3849  0.5973  0.0880
  225MPD1    C1 3414   0.122   1.796  12.744  0.1200  0.0586 -0.3358
  225MPD1    C2 3415   0.015   1.760  12.665  0.1840  0.3857  0.6947
  225MPD1    C3 3416   4.637   1.852  12.643  0.0915  0.2381 -0.2370
  225MPD1    C4 3417   4.649   1.980  12.682  0.0459 -0.3720  0.0480
  225MPD1    C5 3418   0.034   2.015  12.751 -0.2392  0.4537  0.6077
  225MPD1     H 3419   0.004   1.659  12.627  0.0067  0.4998  0.4463
  225MPD1    H1 3420   4.575   2.058  12.666  0.2702  0.1419  1.5276
  225MPD1    H2 3421   0.209   1.973  12.845  0.1765  1.1119 -0.8622
  225MPD1    H3 3422   0.051   2.121  12.768  0.9951  0.0465  1.8764
  225MPD1     N 3423   4.526   1.823  12.563  0.9051  0.1041 -0.5396
  225MPD1    H5 3424   4.461   1.900  12.551  0.5365 -0.0536  0.4871
  225MPD1    N1 3425   0.227   1.711  12.791  0.1294 -0.3395 -0.7354
  225MPD1    H6 3426   0.212   1.613  12.768 -0.4385 -0.6901  1.1901
  225MPD1    H7 3427   0.312   1.728  12.737  0.7396  0.0514  0.3571
  226MPD1     C 3428   4.017   2.169  10.353 -0.3209 -0.5665  0.2670
  226MPD1    C1 3429   4.028   2.182  10.215  0.2419 -0.3256 -0.5998
  226MPD1    C2 3430   3.917   2.157  10.137  0.1067 -0.4280  1.2220
  226MPD1    C3 3431   3.802   2.103  10.185  0.0430  0.1524  0.6793
  226MPD1    C4 3432   3.791   2.085  10.317 -0.6093 -0.2757  0.0438
  226MPD1    C5 3433   3.900   2.118  10.401  0.2871  0.2173 -0.3515
  226MPD1     H 3434   3.913   2.189  10.034  1.1567 -2.2637  0.6219
  226MPD1    H1 3435   3.695   2.054  10.355 -1.0462  0.3448 -0.5663
  226MPD1    H2 3436   4.097   2.177  10.425  0.6585  1.1970 -1.0208
  226MPD1    H3 3437   3.893   2.098  10.507  1.8371 -0.5560 -0.3959
  226MPD1     N 3438   3.700   2.068  10.088 -0.1714 -0.5791 -0.6981
  226MPD1    H5 3439   3.722   2.080   9.990 -2.4015 -1.4432 -1.3057
  226MPD1    N1 3440   4.149   2.217  10.159  0.6130 -0.2005 -0.4341
  226MPD1    H6 3441   4.162   2.176  10.067  1.2647  0.2868 -0.5580
  226MPD1    H7 3442   4.232   2.200  10.215  0.9098  0.1615 -0.7634
  227MPD1     C 3443   3.654   2.206   9.205 -0.3203  0.0975  0.4803
  227MPD1    C1 3444   3.742   2.239   9.305  0.4592  0.3204  0.9307
  227MPD1    C2 3445   3.735   2.177   9.432 -0.4518  0.3378 -0.9926
  227MPD1    C3 3446   3.629   2.091   9.459 -0.5112 -0.4926 -0.5072
  227MPD1    C4 3447   3.533   2.063   9.358 -0.5902 -0.2283 -0.2604
  227MPD1    C5 3448   3.552   2.113   9.235 -0.7160  0.4495  0.1256
  227MPD1     H 3449   3.825   2.197   9.489 -1.1248 -0.3393  0.3092
  227MPD1    H1 3450   3.450   1.996   9.374 -0.6658  0.1342  0.8260
  227MPD1    H2 3451   3.658   2.258   9.110 -2.1489 -0.4675  0.0856
  227MPD1    H3 3452   3.487   2.085   9.152 -0.9605 -0.4426  0.6124
  227MPD1     N 3453   3.620   2.036   9.591 -0.1491 -0.2769  0.1700
  227MPD1    H5 3454   3.690   2.062   9.660  0.1564  0.7724 -0.5470
  227MPD1    N1 3455   3.858   2.306   9.259  0.4488 -0.4909  0.2783
  227MPD1    H6 3456   3.829   2.389   9.208 -0.4159 -0.1936  1.2451
  227MPD1    H7 3457   3.908   2.341   9.341  0.4011 -0.0832  0.1326
  228MPD1     C 3458   2.217   3.390  12.743 -0.2066 -1.0535 -0.4401
  228MPD1    C1 3459   2.141   3.352  12.848  0.0718  0.1962 -0.1282
  228MPD1    C2 3460   2.041   3.437  12.885 -0.0777 -0.2701 -0.5449
  228MPD1    C3 3461   2.002   3.554  12.817  0.2889  0.4802  0.1386
  228MPD1    C4 3462   2.079   3.583  12.708  0.0540  0.1496 -0.2335
  228MPD1    C5 3463   2.190   3.511  12.682 -0.0932 -0.3130  0.4036
  228MPD1     H 3464   1.979   3.414  12.970 -1.1061  0.1907 -1.1670
  228MPD1    H1 3465   2.064   3.673  12.649  0.1952 -1.1944 -2.3471
  228MPD1    H2 3466   2.309   3.338  12.719  0.2254 -1.2833  1.6590
  228MPD1    H3 3467   2.261   3.558  12.614 -0.6640 -1.0320 -0.6864
  228MPD1     N 3468   1.880   3.625  12.851  0.0144  0.7564  0.3235
  228MPD1    H5 3469   1.828   3.581  12.926  1.9834  0.0696  1.2771
  228MPD1    N1 3470   2.185   3.255  12.933  0.4628 -1.0994  0.2866
  228MPD1    H6 3471   2.220   3.173  12.883  0.8299  0.2765 -1.7474
  228MPD1    H7 3472   2.111   3.222  12.994 -0.7374  1.7726  0.3616
  229MPD1     C 3473   0.361   2.850  15.209  0.3437 -0.1878  0.5594
  229MPD1    C1 3474   0.473   2.883  15.129 -0.2858 -0.8237  0.7542
  229MPD1    C2 3475   0.573   2.795  15.126 -0.2965 -0.5468  0.9255
  229MPD1    C3 3476   0.556   2.666  15.181  1.0239 -0.1141  0.3353
  229MPD1    C4 3477   0.443   2.637  15.244 -0.1640 -0.7088  0.3550
  229MPD1    C5 3478   0.347   2.731  15.271 -0.5238 -0.4091  0.4691
  229MPD1     H 3479   0.665   2.820  15.074  1.4109 -2.5308  2.9742
  229MPD1    H1 3480   0.431   2.535  15.276  0.6845 -0.8169  0.3200
  229MPD1    H2 3481   0.272   2.912  15.211  0.5304  0.0233  3.2437
  229MPD1    H3 3482   0.260   2.702  15.329 -0.2855 -1.4223  0.3276
  229MPD1     N 3483   0.653   2.558  15.172  0.1183  0.5690  0.5618
  229MPD1    H5 3484   0.624   2.465  15.201 -0.8343  1.2850  1.9031
  229MPD1    N1 3485   0.492   3.016  15.083 -0.0819  0.0813 -0.0080
  229MPD1    H6 3486   0.407   3.073  15.087 -0.2430 -0.0892 -1.0559
  229MPD1    H7 3487   0.521   3.011  14.986  2.0936  2.2205  0.5381
  230MPD1     C 3488   0.845   1.650  15.403  0.0427  0.5632  0.7249
  230MPD1    C1 3489   0.948   1.706  15.474 -0.4478  0.9055 -0.7605
  230MPD1    C2 3490   0.959   1.845  15.471  0.7390  0.5432  0.5198
  230MPD1    C3 3491   0.875   1.925  15.397 -0.7716  0.0251  0.0774
  230MPD1    C4 3492   0.777   1.864  15.324  0.1183  0.3412  0.1481
  230MPD1    C5 3493   0.768   1.725  15.329  0.2469 -0.4165  0.1314
  230MPD1     H 3494   1.035   1.887  15.536 -0.4927  0.8674  1.7517
  230MPD1    H1 3495   0.702   1.906  15.258 -0.4649 -0.4435  0.3120
  230MPD1    H2 3496   0.824   1.544  15.402 -0.9391  0.7563  0.6558
  230MPD1    H3 3497   0.697   1.674  15.265  0.1599  0.7940 -0.7381
  230MPD1     N 3498   0.898   2.059  15.387 -0.8665 -0.1582 -0.0528
  230MPD1    H5 3499   0.986   2.098  15.422 -0.9105  1.0696 -1.3010
  230MPD1    N1 3500   1.027   1.636  15.569 -0.0514  0.2355  0.4579
  230MPD1    H6 3501   1.117   1.682  15.576  1.0345 -1.6887 -0.8437
  230MPD1    H7 3502   1.044   1.543  15.531  1.2662  0.1443  1.2678
  231MPD1     C 3503   3.218   4.613  15.635 -0.2396  0.5760  0.5807
  231MPD1    C1 3504   3.241   4.650  15.505  0.9930 -0.7498  0.2333
  231MPD1    C2 3505   3.373   4.653  15.460 -1.1132  0.3798 -0.1646
  231MPD1    C3 3506   3.478   4.621  15.549  0.0473  0.4055  0.2499
  231MPD1    C4 3507   3.447   4.574  15.670  0.6440  0.4296  0.7176
  231MPD1    C5 3508   3.316   4.563  15.714  0.6784 -0.3204  0.2266
  231MPD1     H 3509   3.390   4.700  15.364  1.1983 -0.6344 -0.2522
  231MPD1    H1 3510   3.530   4.547  15.735 -0.2098  1.1570  2.1150
  231MPD1    H2 3511   3.120   4.610  15.681 -0.1089  1.8412  0.9257
  231MPD1    H3 3512   3.296   4.521  15.812 -3.3880  2.2236  0.5290
  231MPD1     N 3513   3.609   4.631  15.491 -0.7224  0.2289 -0.0969
  231MPD1    H5 3514   3.607   4.662  15.394  0.0859 -0.0327 -0.1988
  231MPD1    N1 3515   3.140   4.721  15.436  0.3321 -0.3931 -0.3297
  231MPD1    H6 3516   3.166   0.090  15.413  0.0910 -0.2771 -0.1296
  231MPD1    H7 3517   3.050   4.719  15.484  2.0231 -0.4253  2.8235
  232MPD1     C 3518   1.305   1.900  17.074  0.1931  0.3034 -0.6810
  232MPD1    C1 3519   1.335   1.906  17.210 -0.1476 -0.6060 -0.1339
  232MPD1    C2 3520   1.244   1.850  17.300  0.4285  0.2291  1.3140
  232MPD1    C3 3521   1.138   1.776  17.253  0.0064 -0.6725 -0.2464
  232MPD1    C4 3522   1.114   1.769  17.119 -0.2096 -0.3087 -0.9959
  232MPD1    C5 3523   1.196   1.832  17.034  0.4701  0.9330 -0.3930
  232MPD1     H 3524   1.247   1.850  17.408 -1.1587  1.1008  1.3661
  232MPD1    H1 3525   1.038   1.705  17.075  0.3894 -1.4682 -0.3237
  232MPD1    H2 3526   1.370   1.937  16.995  1.6600 -1.4917 -0.3002
  232MPD1    H3 3527   1.174   1.836  16.927  1.4168 -1.6885 -0.6835
  232MPD1     N 3528   1.067   1.699  17.349  0.0765  0.1819 -0.7923
  232MPD1    H5 3529   1.101   1.707  17.444 -1.0169  0.8955 -0.4652
  232MPD1    N1 3530   1.442   1.983  17.256  0.3948 -0.4091  0.3029
  232MPD1    H6 3531   1.510   1.991  17.180  1.4524  3.4939  1.6682
  232MPD1    H7 3532   1.493   1.938  17.331 -0.0240 -0.7380  0.3847
  233MPD1     C 3533   1.921   1.250   2.102  0.0863  0.2268  0.1864
  233MPD1    C1 3534   1.926   1.230   1.968  0.2737 -0.2879 -0.8235
  233MPD1    C2 3535   2.018   1.140   1.925 -0.2040  0.1812  0.4602
  233MPD1    C3 3536   2.094   1.061   2.010  0.3368  0.8341 -0.5255
  233MPD1    C4 3537   2.079   1.078   2.144  0.6152  0.5903  0.3577
  233MPD1    C5 3538   1.990   1.173   2.185 -0.6597 -0.3642  0.0500
  233MPD1     H 3539   2.033   1.141   1.817  0.2089 -0.4632  0.5101
  233MPD1    H1 3540   2.139   1.023   2.216 -0.0241  1.0371  1.2257
  233MPD1    H2 3541   1.848   1.313   2.152  1.1297  1.8783 -0.3628
  233MPD1    H3 3542   1.974   1.178   2.292 -1.0932 -2.2178  0.0644
  233MPD1     N 3543   2.204   0.986   1.965  0.3525  0.1201 -0.3202
  233MPD1    H5 3544   2.254   0.934   2.037  0.0866 -0.8504 -0.8305
  233MPD1    N1 3545   1.825   1.284   1.883 -0.3949  0.2286  0.3467
  233MPD1    H6 3546   1.853   1.303   1.787 -2.2681 -1.4168 -0.5137
  233MPD1    H7 3547   1.753   1.348   1.916 -0.0928  0.5524  0.3849
  234MPD1     C 3548   4.655   3.629   9.319  0.4246  0.5612 -0.6962
  234MPD1    C1 3549   4.626   3.715   9.423 -0.4908  0.6943  1.2928
  234MPD1    C2 3550   4.513   3.695   9.498  0.0458  0.5710 -0.2680
  234MPD1    C3 3551   4.438   3.584   9.485 -0.3837 -0.6158  0.1641
  234MPD1    C4 3552   4.460   3.500   9.382  0.2927  0.3428 -0.3904
  234MPD1    C5 3553   4.568   3.528   9.301 -0.9592  0.3122 -0.2455
  234MPD1     H 3554   4.485   3.763   9.578 -0.2876 -1.0576  1.0092
  234MPD1    H1 3555   4.401   3.411   9.365 -1.1273  0.6838  2.7449
  234MPD1    H2 3556   0.005   3.644   9.244 -0.3529  0.4076 -1.5162
  234MPD1    H3 3557   4.594   3.450   9.231 -1.3290 -0.3513  0.3495
  234MPD1     N 3558   4.324   3.577   9.573  0.1130  0.2643  0.2701
  234MPD1    H5 3559   4.317   3.653   9.640  0.6156  0.0354  0.5899
  234MPD1    N1 3560   4.691   3.836   9.444  0.3756  0.3309  0.3712
  234MPD1    H6 3561   0.066   3.823   9.436  0.2628 -0.8066  0.7683
  234MPD1    H7 3562   4.662   3.882   9.530 -3.4563  1.3269 -1.4459
  235MPD1     C 3563   3.794   2.910   9.624  0.3330 -0.8827 -0.1587
  235MPD1    C1 3564   3.926   2.930   9.649  0.3193  0.3810  0.1900
  235MPD1    C2 3565   4.012   2.834   9.600  1.1537 -0.1150  0.8818
  235MPD1    C3 3566   3.967   2.723   9.540 -0.1254  0.0298 -0.4950
  235MPD1    C4 3567   3.836   2.695   9.521  0.5647 -0.3254  0.4634
  235MPD1    C5 3568   3.750   2.794   9.557  0.0685  0.6476  0.2414
  235MPD1     H 3569   4.119   2.842   9.612  1.2335  0.8236 -0.4726
  235MPD1    H1 3570   3.797   2.604   9.477 -0.4678  0.6077 -0.5664
  235MPD1    H2 3571   3.708   2.963   9.665  1.7122  1.2349 -0.0202
  235MPD1    H3 3572   3.642   2.788   9.561 -0.0429  0.7959 -2.2700
  235MPD1     N 3573   4.062   2.633   9.493 -0.3361 -0.2804  0.4805
  235MPD1    H5 3574   4.156   2.670   9.483 -1.2714  2.7039  2.8209
  235MPD1    N1 3575   3.968   3.028   9.739  0.1994 -0.1058  0.3551
  235MPD1    H6 3576   4.065   3.054   9.727 -0.3350  1.6694 -0.1531
  235MPD1    H7 3577   3.902   3.105   9.745 -1.8460 -1.6869 -1.9351
  236MPD1     C 3578   4.101   2.666   9.896  0.2970  0.6957  0.1355
  236MPD1    C1 3579   4.129   2.560   9.986 -0.4368  0.0970 -0.9856
  236MPD1    C2 3580   4.263   2.544  10.025  0.2620  0.3167 -0.0083
  236MPD1    C3 3581   4.365   2.632   9.992 -0.3752 -0.2875  0.0668
  236MPD1    C4 3582   4.332   2.743   9.913 -1.1141  0.5576 -0.6073
  236MPD1    C5 3583   4.206   2.752   9.863 -0.2737  0.3090 -0.6185
  236MPD1     H 3584   4.296   2.453  10.074 -1.9935 -0.4268  0.1134
  236MPD1    H1 3585   4.406   2.816   9.883  2.5600 -2.0801  2.0652
  236MPD1    H2 3586   4.004   2.683   9.852  0.3272  1.0305  0.1908
  236MPD1    H3 3587   4.189   2.835   9.795  0.8644  1.8586  0.9690
  236MPD1     N 3588   4.496   2.623  10.032 -0.5519  0.2484  0.0524
  236MPD1    H5 3589   4.561   2.688   9.989  0.7620 -0.6771  0.6499
  236MPD1    N1 3590   4.035   2.457  10.011 -0.2905 -0.5754  0.5254
  236MPD1    H6 3591   4.062   2.397  10.089  3.1102 -0.5853 -0.6472
  236MPD1    H7 3592   3.938   2.485  10.027 -0.4304 -0.9735  0.3737
  237MPD1     C 3593   3.987   0.609  15.703  0.2952 -0.1132  0.2307
  237MPD1    C1 3594   3.848   0.606  15.726  0.3651  0.6954  0.6782
  237MPD1    C2 3595   3.756   0.643  15.633  0.2803  0.6163  0.7674
  237MPD1    C3 3596   3.806   0.677  15.504  0.1095  0.2703 -0.4776
  237MPD1    C4 3597   3.941   0.674  15.481  0.2739  0.3717  0.0608
  237MPD1    C5 3598   4.030   0.641  15.576  0.1392 -0.4438  0.6507
  237MPD1     H 3599   3.653   0.664  15.657 -0.5946 -0.4915 -1.9607
  237MPD1    H1 3600   3.986   0.709  15.389 -1.6385  0.7032 -0.7602
  237MPD1    H2 3601   4.063   0.588  15.777  1.8433  0.5572 -1.1482
  237MPD1    H3 3602   4.135   0.655  15.554  0.1460  0.1883  1.0677
  237MPD1     N 3603   3.724   0.740  15.404  0.2503  0.5262 -0.3093
  237MPD1    H5 3604   3.775   0.770  15.321  1.4836  0.4503  0.4250
  237MPD1    N1 3605   3.792   0.568  15.853  0.5469  0.6945  0.0654
  237MPD1    H6 3606   3.855   0.518  15.916  0.5713  0.1779 -0.3610
  237MPD1    H7 3607   3.713   0.510  15.824  3.0702 -2.2666 -0.9587
  238MPD1     C 3608   1.294   0.555  15.683  0.0446  0.0860 -0.6560
  238MPD1    C1 3609   1.222   0.455  15.736  0.2923 -0.4053  0.0910
  238MPD1    C2 3610   1.116   0.400  15.669 -0.0095  0.4394 -0.1086
  238MPD1    C3 3611   1.083   0.441  15.540  0.4920 -0.1596 -0.1047
  238MPD1    C4 3612   1.166   0.541  15.486 -0.1136 -0.5563 -0.2333
  238MPD1    C5 3613   1.274   0.589  15.556  0.1447 -0.3686 -0.3184
  238MPD1     H 3614   1.063   0.314  15.707 -0.0673  0.9995  1.1112
  238MPD1    H1 3615   1.152   0.578  15.385  0.6476 -1.1553 -0.5530
  238MPD1    H2 3616   1.369   0.607  15.742 -0.1522 -0.4405  0.0513
  238MPD1    H3 3617   1.347   0.661  15.521 -0.0902 -1.8932 -3.9365
  238MPD1     N 3618   0.986   0.379  15.454 -0.4407  0.3886 -0.6364
  238MPD1    H5 3619   0.980   0.419  15.361 -0.9635 -0.4088 -0.9485
  238MPD1    N1 3620   1.263   0.405  15.859  0.4865 -0.0241  0.5018
  238MPD1    H6 3621   1.189   0.397  15.929  1.7800  2.6518  2.1810
  238MPD1    H7 3622   1.306   0.313  15.853  0.4963  0.0007  0.1922
  239MPD1     C 3623   1.455   0.335  15.241  0.4565  0.2442  0.0160
  239MPD1    C1 3624   1.536   0.300  15.135  0.4999 -0.4040 -0.5031
  239MPD1    C2 3625   1.490   0.318  15.005  0.3672 -0.5233 -0.1679
  239MPD1    C3 3626   1.360   0.357  14.977 -0.5185  0.8250  0.5102
  239MPD1    C4 3627   1.277   0.374  15.090 -0.8325 -0.1536  0.2722
  239MPD1    C5 3628   1.324   0.377  15.216 -0.3031 -0.0150  0.1928
  239MPD1     H 3629   1.548   0.299  14.915  3.1916  1.8966  1.1591
  239MPD1    H1 3630   1.172   0.399  15.080 -0.5961  1.4314  1.8390
  239MPD1    H2 3631   1.482   0.320  15.344 -0.9439  0.4569  0.4061
  239MPD1    H3 3632   1.249   0.390  15.294 -0.1463  0.4558  0.2650
  239MPD1     N 3633   1.303   0.392  14.853  0.5657 -0.1668 -0.0797
  239MPD1    H5 3634   1.213   0.440  14.855  0.4059 -0.5945  3.0640
  239MPD1    N1 3635   1.670   0.269  15.169 -0.2913 -0.1447 -0.5670
  239MPD1    H6 3636   1.693   0.235  15.263 -1.5328  1.1274  0.1959
  239MPD1    H7 3637   1.701   0.195  15.107  0.8280 -0.1304 -0.0280
  240MPD1     C 3638   0.443   0.738  13.921 -0.3514 -0.0657  0.3052
  240MPD1    C1 3639   0.354   0.672  13.996 -0.3721  0.2693 -0.7709
  240MPD1    C2 3640   0.394   0.616  14.109 -0.0720  0.2501  0.6744
  240MPD1    C3 3641   0.520   0.610  14.155 -0.0894  0.5066 -0.0269
  240MPD1    C4 3642   0.613   0.673  14.075 -0.1744  0.3636  0.2512
  240MPD1    C5 3643   0.574   0.741  13.961 -0.6856 -0.0808 -0.4198
  240MPD1     H 3644   0.319   0.565  14.168 -0.1798  1.7038  1.7846
  240MPD1    H1 3645   0.720   0.683  14.092  0.0439 -0.5806 -0.5648
  240MPD1    H2 3646   0.419   0.805  13.840 -1.4334 -0.9938 -0.1270
  240MPD1    H3 3647   0.657   0.784  13.907  0.7274 -0.6241  1.3115
  240MPD1     N 3648   0.559   0.532  14.262  0.0654 -0.5318  0.1390
  240MPD1    H5 3649   0.480   0.477  14.294  0.6458 -1.1421  0.5119
  240MPD1    N1 3650   0.216   0.691  13.969  0.1443 -0.2931  0.0553
  240MPD1    H6 3651   0.153   0.613  13.990  1.1168 -0.7252  1.3367
  240MPD1    H7 3652   0.192   0.716  13.874  0.4706  0.2679  0.1220
  241MPD1     C 3653   0.718   0.563  15.257  0.0785  0.5477 -0.0001
  241MPD1    C1 3654   0.834   0.565  15.184  0.4306 -0.1296  0.1080
  241MPD1    C2 3655   0.826   0.509  15.059 -0.6426  0.4544 -0.3532
  241MPD1    C3 3656   0.715   0.461  14.996  0.2845 -0.0655  0.6525
  241MPD1    C4 3657   0.606   0.445  15.086  0.5439  0.8085 -0.1766
  241MPD1    C5 3658   0.605   0.510  15.206  0.5920 -0.0308 -0.0229
  241MPD1     H 3659   0.915   0.510  14.997 -1.1895 -0.4426 -1.1558
  241MPD1    H1 3660   0.515   0.399  15.049  0.1883  0.4880  1.0881
  241MPD1    H2 3661   0.707   0.593  15.360 -1.5145  1.8946 -0.5622
  241MPD1    H3 3662   0.521   0.502  15.273  0.0789  1.1665 -0.5211
  241MPD1     N 3663   0.702   0.409  14.869 -0.2055 -0.1537  0.5406
  241MPD1    H5 3664   0.612   0.369  14.844  0.7882 -0.8808 -1.9181
  241MPD1    N1 3665   0.959   0.602  15.238  0.1566  0.0982 -0.8562
  241MPD1    H6 3666   0.946   0.675  15.308  0.8043  0.3069 -0.9532
  241MPD1    H7 3667   1.022   0.646  15.172 -1.9256  2.8924 -1.0079
  242MPD1     C 3668   4.617   2.960  16.151  0.2890 -0.0417 -0.6321
  242MPD1    C1 3669   4.649   3.087  16.111  0.4625  0.4142  0.9093
  242MPD1    C2 3670   4.719   3.099  15.995  0.1995  0.4919 -0.2954
  242MPD1    C3 3671   0.026   2.992  15.912 -0.1604 -0.0172 -0.0249
  242MPD1    C4 3672   4.724   2.864  15.960 -0.2308 -0.4513 -1.0253
  242MPD1    C5 3673   4.661   2.853  16.077 -0.4219 -0.1624 -0.2957
  242MPD1     H 3674   0.017   3.201  15.970 -1.3070  0.8652 -0.2037
  242MPD1    H1 3675   0.044   2.778  15.912 -3.8254 -2.2043 -1.3184
  242MPD1    H2 3676   4.567   2.936  16.244  1.2201  0.0285 -0.1146
  242MPD1    H3 3677   4.664   2.756  16.126 -2.5896  0.6086  1.3610
  242MPD1     N 3678   0.101   3.012  15.786  0.2801  0.4042 -0.6106
  242MPD1    H5 3679   0.143   2.929  15.744 -1.8158 -1.3346  0.7487
  242MPD1    N1 3680   4.617   3.196  16.187  0.1225  0.2762 -0.5363
  242MPD1    H6 3681   4.588   3.279  16.136 -1.3475  1.4939  2.2398
  242MPD1    H7 3682   4.543   3.171  16.252  1.4374  1.2344  1.3201
  243MPD1     C 3683   2.423   1.069   0.120 -0.5641 -1.1043  0.2833
  243MPD1    C1 3684   2.557   1.036   0.099  0.3956 -0.4352  0.4856
  243MPD1    C2 3685   2.626   1.126   0.019  0.3248  0.0698  0.0376
  243MPD1    C3 3686   2.567   1.243  17.674 -0.8509 -0.0876 -0.4117
  243MPD1    C4 3687   2.439   1.278   0.010  0.4999 -0.1408  0.7952
  243MPD1    C5 3688   2.371   1.191   0.093  0.0136 -0.4137 -0.1211
  243MPD1     H 3689   2.726   1.102  17.691  0.7672 -1.1319  2.2811
  243MPD1    H1 3690   2.387   1.372  17.701  2.4131  0.5482 -1.6892
  243MPD1    H2 3691   2.359   0.998   0.171 -1.2245 -0.9529 -0.3350
  243MPD1    H3 3692   2.267   1.215   0.112  0.6681  0.3475  2.4804
  243MPD1     N 3693   2.645   1.332  17.598 -0.1789 -0.3045  0.4538
  243MPD1    H5 3694   2.745   1.316  17.591 -0.5148 -1.1420 -2.4436
  243MPD1    N1 3695   2.599   0.899   0.121 -0.1735  0.6778  0.4461
  243MPD1    H6 3696   2.555   0.868   0.207 -1.5022  1.3181 -0.0075
  243MPD1    H7 3697   2.699   0.902   0.139 -0.3119 -0.4100  1.4015
  244MPD1     C 3698   3.486   1.493  17.695 -0.0519  0.4315 -0.2225
  244MPD1    C1 3699   3.384   1.400   0.025  0.1731  0.3200  0.0538
  244MPD1    C2 3700   3.250   1.435   0.000  0.3900 -0.4638 -0.2379
  244MPD1    C3 3701   3.220   1.538  17.617  0.6632 -0.2122 -0.7745
  244MPD1    C4 3702   3.323   1.617  17.566 -0.2806 -0.7344 -0.5197
  244MPD1    C5 3703   3.450   1.601  17.616 -0.7484  0.1740 -0.4692
  244MPD1     H 3704   3.174   1.387   0.061  0.0951  0.2270 -0.0636
  244MPD1    H1 3705   3.311   1.692  17.490  1.0795 -2.0433 -2.0133
  244MPD1    H2 3706   3.586   1.498   0.031 -1.3189 -2.1677  3.1863
  244MPD1    H3 3707   3.529   1.667  17.581 -0.9887  0.3628 -0.6561
  244MPD1     N 3708   3.083   1.565  17.591 -0.0669 -0.2054 -0.1534
  244MPD1    H5 3709   3.013   1.504  17.634 -1.8115  1.2780 -0.8906
  244MPD1    N1 3710   3.419   1.307   0.123 -0.3879  0.2535  0.2818
  244MPD1    H6 3711   3.517   1.278   0.123 -0.4613  0.0089  0.2320
  244MPD1    H7 3712   3.350   1.233   0.132 -0.3304 -0.0078 -1.3905
  245MPD1     C 3713   4.129   2.969  13.225  0.3290  0.1209  0.0064
  245MPD1    C1 3714   4.131   3.096  13.278  0.2911 -0.0500 -0.5172
  245MPD1    C2 3715   4.253   3.145  13.315  0.2217 -0.7266  0.0048
  245MPD1    C3 3716   4.366   3.072  13.285 -0.3547 -0.3793  0.1916
  245MPD1    C4 3717   4.357   2.945  13.231 -0.1209 -0.0471  0.0639
  245MPD1    C5 3718   4.239   2.898  13.208  0.3436  0.1929 -0.5280
  245MPD1     H 3719   4.247   3.241  13.364 -3.2625 -1.2576  0.6070
  245MPD1    H1 3720   4.438   2.887  13.190 -0.0042 -0.2488  0.5806
  245MPD1    H2 3721   4.035   2.925  13.192  1.2758 -1.4908 -0.5411
  245MPD1    H3 3722   4.228   2.802  13.158 -1.4481  2.0844 -3.8180
  245MPD1     N 3723   4.488   3.120  13.346 -0.2652  0.4590  0.0679
  245MPD1    H5 3724   4.485   3.197  13.412  1.3862  0.9208 -0.4155
  245MPD1    N1 3725   4.009   3.153  13.323  0.0265  0.2364  0.6828
  245MPD1    H6 3726   3.933   3.134  13.257 -0.2224 -1.5068  1.4731
  245MPD1    H7 3727   4.010   3.253  13.340 -0.3553  0.6159 -1.4384
  246MPD1     C 3728   1.314   4.364   9.462 -0.0692  0.0876  0.1276
  246MPD1    C1 3729   1.315   4.441   9.580  0.4122  0.7841 -0.5394
  246MPD1    C2 3730   1.221   4.406   9.673  0.0122 -0.1678  1.3133
  246MPD1    C3 3731   1.142   4.293   9.647  0.3356 -0.2061  0.4456
  246MPD1    C4 3732   1.164   4.207   9.545  0.2501 -0.2124 -1.2712
  246MPD1    C5 3733   1.248   4.250   9.445 -0.1669 -0.0943 -0.7024
  246MPD1     H 3734   1.201   4.474   9.755  2.4918  0.6567  1.2258
  246MPD1    H1 3735   1.108   4.120   9.515  1.1178 -0.8565 -1.0139
  246MPD1    H2 3736   1.377   4.390   9.378  1.4130 -1.4866  0.7557
  246MPD1    H3 3737   1.249   4.196   9.351  0.1869  0.7418 -1.1774
  246MPD1     N 3738   1.035   4.276   9.736  0.1326  0.0531 -0.1694
  246MPD1    H5 3739   1.029   4.329   9.822 -2.0598 -0.2538 -0.1302
  246MPD1    N1 3740   1.364   4.572   9.577 -0.2865 -0.3816 -0.3425
  246MPD1    H6 3741   1.439   4.584   9.509  0.5248  0.7956  0.7733
  246MPD1    H7 3742   1.404   4.595   9.668  1.0313  0.8635 -1.2487
  247MPD1     C 3743   2.766   2.542  16.784 -0.3301  0.8327  0.2274
  247MPD1    C1 3744   2.877   2.466  16.828  0.2109 -0.7500 -0.5673
  247MPD1    C2 3745   2.951   2.391  16.739  0.2540  0.2359  0.0769
  247MPD1    C3 3746   2.932   2.404  16.605 -0.0680 -0.5684 -0.1463
  247MPD1    C4 3747   2.833   2.487  16.559 -0.5091  0.4246 -0.4386
  247MPD1    C5 3748   2.743   2.547  16.649  0.8974 -0.1794  0.2203
  247MPD1     H 3749   3.024   2.318  16.773  3.0258  2.6257 -0.7172
  247MPD1    H1 3750   2.806   2.494  16.454  0.8265  1.7769 -0.6783
  247MPD1    H2 3751   2.708   2.602  16.854 -2.0315  1.2780 -1.5686
  247MPD1    H3 3752   2.660   2.603  16.607  0.0280 -0.2377  1.8878
  247MPD1     N 3753   2.995   2.328  16.504  0.4583 -0.0824  0.0692
  247MPD1    H5 3754   2.985   2.362  16.409 -0.8801 -0.4475  0.0795
  247MPD1    N1 3755   2.890   2.444  16.966 -0.2333 -0.8082 -0.2628
  247MPD1    H6 3756   2.987   2.417  16.979  0.0545  1.0021  1.3280
  247MPD1    H7 3757   2.879   2.534  17.013  1.6581 -0.6611 -0.1010
  248MPD1     C 3758   2.011   2.518   0.307  0.2988 -0.9073  0.0027
  248MPD1    C1 3759   2.097   2.573   0.214  0.3777 -0.8926  0.2618
  248MPD1    C2 3760   2.226   2.611   0.254  0.0758 -0.3068  0.1135
  248MPD1    C3 3761   2.272   2.588   0.385 -0.6901  0.0656  0.3780
  248MPD1    C4 3762   2.182   2.530   0.472  0.5753  0.1347  0.2261
  248MPD1    C5 3763   2.054   2.486   0.437 -0.6281 -0.7197  0.2640
  248MPD1     H 3764   2.294   2.666   0.190 -0.9355 -1.6896 -2.1565
  248MPD1    H1 3765   2.199   2.518   0.579  1.4389 -3.0524 -0.2854
  248MPD1    H2 3766   1.907   2.502   0.282  0.5817 -1.3173 -0.9305
  248MPD1    H3 3767   1.988   2.446   0.514 -1.7399  0.7343  0.0643
  248MPD1     N 3768   2.406   2.599   0.421  0.2886 -0.0242  0.0173
  248MPD1    H5 3769   2.467   2.608   0.340  2.7827  0.5801  1.9707
  248MPD1    N1 3770   2.045   2.626   0.092  0.0232  0.6122 -0.9191
  248MPD1    H6 3771   2.117   2.629   0.020  1.0419  1.0583  0.1176
  248MPD1    H7 3772   1.963   2.581   0.052  0.3806  0.1493 -1.1384
  249MPD1     C 3773   0.518   0.526  11.234 -0.2111  0.6965  0.4555
  249MPD1    C1 3774   0.456   0.587  11.125 -1.0023  0.3043  0.1969
  249MPD1    C2 3775   0.342   0.524  11.073  0.5489 -0.3667 -0.4714
  249MPD1    C3 3776   0.305   0.396  11.118  1.1397  0.1747 -0.2053
  249MPD1    C4 3777   0.375   0.336  11.221 -0.0219 -0.3265  0.6660
  249MPD1    C5 3778   0.474   0.402  11.275  0.3413 -0.7479  0.1500
  249MPD1     H 3779   0.288   0.580  10.998 -0.5889 -0.5625  0.1928
  249MPD1    H1 3780   0.348   0.242  11.268 -0.1205 -1.0517 -0.8693
  249MPD1    H2 3781   0.603   0.571  11.283  0.6778  0.1492 -0.5963
  249MPD1    H3 3782   0.531   0.360  11.357 -0.6380 -0.4653  0.9803
  249MPD1     N 3783   0.206   0.334  11.045 -0.4713 -0.7169 -0.4968
  249MPD1    H5 3784   0.163   0.385  10.968 -1.5212  1.4978  1.5483
  249MPD1    N1 3785   0.514   0.692  11.055  0.0589  0.3009 -0.5202
  249MPD1    H6 3786   0.558   0.760  11.116 -1.5944  0.0906  0.9355
  249MPD1    H7 3787   0.450   0.752  11.003  1.1099  0.9276 -1.0853
  250MPD2     C 3788   1.571   0.716  13.094 -0.2555  0.6894  0.3504
  250MPD2    C1 3789   1.644   0.760  12.980 -0.4333 -0.4648  0.0480
  250MPD2    C2 3790   1.639   0.685  12.862  0.0741 -0.0484  0.5464
  250MPD2    C3 3791   1.565   0.566  12.872  0.1425  0.0795 -0.3199
  250MPD2    C4 3792   1.494   0.530  12.987  0.1288 -0.1052  0.0350
  250MPD2    C5 3793   1.501   0.601  13.102 -0.6334  0.7300 -0.0629
  250MPD2     H 3794   1.683   0.722  12.771 -0.4036 -0.0568  0.3154
  250MPD2    H1 3795   1.429   0.443  12.977  1.4829 -1.3307  1.9181
  250MPD2    H2 3796   1.578   0.765  13.191 -1.4705  0.9406  0.3055
  250MPD2    H3 3797   1.454   0.567  13.194 -2.4728 -0.3951 -1.4265
  250MPD2     N 3798   1.573   0.476  12.764  0.8023  0.3489  0.5952
  250MPD2    H5 3799   1.526   0.386  12.774  0.3463  0.4781 -0.4552
  250MPD2    N1 3800   1.720   0.873  12.998  1.0558  0.0285  0.6226
  250MPD2    H7 3801   1.727   0.917  13.090  0.0086 -0.0686  0.7428
  251TMC3    C1 3802   1.860   1.056  12.954 -0.2150  0.1441  0.8097
  251TMC3    C2 3803   1.806   1.120  13.058 -0.0346  0.3539 -0.4530
  251TMC3    C3 3804   1.895   1.176  13.153 -0.3503 -0.0122 -0.4730
  251TMC3    C4 3805   1.996   1.066  12.918 -0.2727 -0.4884  0.0965
  251TMC3    C5 3806   2.073   1.125  13.015  0.1335 -0.5032 -0.7793
  251TMC3    C6 3807   2.029   1.172  13.135  0.3879  0.6425  0.7486
  251TMC3     C 3808   1.782   0.946  12.898 -0.5935  0.0832  0.0672
  251TMC3     O 3809   1.771   0.927  12.778 -0.0914 -0.1491  0.6592
  251TMC3     H 3810   1.700   1.114  13.081 -0.3718  1.6458 -1.7287
  251TMC3    H1 3811   2.040   1.035  12.824 -1.1105 -2.6423  0.4233
  251TMC3    H2 3812   2.096   1.213  13.211  0.6415  1.4801  0.0797
  251TMC3    C7 3813   2.208   1.158  12.984  0.2134 -0.4264 -0.4277
  251TMC3    C8 3814   1.847   1.293  13.225 -0.7920  0.3281 -0.5371
  251TMC3    O1 3815   2.247   1.273  13.005 -0.6170  0.6366 -0.1648
  251TMC3    O2 3816   1.927   1.358  13.292 -0.6912  0.8734 -0.3758
  252TMC3    C1 3817   3.125   2.348   9.205  0.1521 -0.4837  0.3784
  252TMC3    C2 3818   3.196   2.413   9.301 -0.4469  0.2101 -0.1811
  252TMC3    C3 3819   3.240   2.335   9.407 -0.0003 -0.8774 -0.0808
  252TMC3    C4 3820   3.108   2.215   9.204  0.8248  0.5923  0.1054
  252TMC3    C5 3821   3.160   2.144   9.303  0.0453 -0.3580  0.1916
  252TMC3    C6 3822   3.224   2.196   9.414  0.0090 -0.3731 -0.1883
  252TMC3     C 3823   3.074   2.425   9.092  0.5607 -0.2821  0.1417
  252TMC3     O 3824   3.082   2.548   9.096 -0.1485  0.0590 -0.1735
  252TMC3     H 3825   3.214   2.520   9.291  0.8504  0.0538  0.3882
  252TMC3    H1 3826   3.031   2.168   9.144  0.8791 -1.1526  1.4121
  252TMC3    H2 3827   3.284   2.136   9.483  0.0834  0.7159  0.7028
  252TMC3    C7 3828   3.169   2.000   9.280 -0.3194 -0.2243  0.1221
  252TMC3    C8 3829   3.362   2.385   9.460 -0.6276  0.1212 -0.0235
  252TMC3    O1 3830   3.198   1.965   9.168  0.2565  0.0310  0.1747
  252TMC3    O2 3831   3.423   2.457   9.381 -0.0835 -0.4004 -0.0584
  253MPD2     C 3832   3.443   0.956  15.708 -0.1919  0.1493  0.6213
  253MPD2    C1 3833   3.304   0.933  15.703  0.3420 -0.1246 -0.0872
  253MPD2    C2 3834   3.231   0.871  15.806  0.2009  0.0596 -0.6162
  253MPD2    C3 3835   3.294   0.828  15.917 -0.6133  0.8083 -0.3593
  253MPD2    C4 3836   3.433   0.849  15.929 -0.2351  0.2381  0.2973
  253MPD2    C5 3837   3.500   0.918  15.827 -0.0663  0.1034  0.8083
  253MPD2     H 3838   3.123   0.860  15.802  0.5677 -3.2878 -0.5403
  253MPD2    H1 3839   3.491   0.834  16.019  3.4668  2.3786 -1.6868
  253MPD2    H2 3840   3.493   1.025  15.641  0.2364 -0.5831  0.1890
  253MPD2    H3 3841   3.606   0.936  15.841 -0.7451  1.1081  4.6140
  253MPD2     N 3842   3.229   0.774  16.029  0.9314  0.2974 -0.2246
  253MPD2    H5 3843   3.280   0.765  16.117 -0.9796 -0.3078  0.8237
  253MPD2    N1 3844   3.230   0.948  15.580  0.3712  0.3384  0.1114
  253MPD2    H7 3845   3.128   0.945  15.585  0.5100 -0.6748  2.4394
  254TMC3    C1 3846   3.047   0.785  16.164 -0.0694  0.1394 -0.0989
  254TMC3    C2 3847   3.004   0.915  16.154  1.3372  0.3751 -0.7873
  254TMC3    C3 3848   3.028   0.995  16.267  0.3385 -0.1655 -0.4640
  254TMC3    C4 3849   3.096   0.730  16.277 -0.8645  0.5624  0.3673
  254TMC3    C5 3850   3.102   0.808  16.388 -0.2837 -0.1024  0.5151
  254TMC3    C6 3851   3.073   0.946  16.388 -0.0334 -0.9809  0.3849
  254TMC3     C 3852   3.096   0.740  16.038 -0.6241  0.1966 -0.7735
  254TMC3     O 3853   3.015   0.737  15.945  0.3281 -0.1542 -0.0740
  254TMC3     H 3854   2.969   0.950  16.057 -1.4698 -2.3285 -0.7380
  254TMC3    H1 3855   3.148   0.635  16.275 -1.4987  0.2177  0.1697
  254TMC3    H2 3856   3.062   1.005  16.478 -1.0881 -1.2904  0.4476
  254TMC3    C7 3857   3.149   0.763  16.511  0.7793 -0.1518 -0.2983
  254TMC3    C8 3858   2.976   1.137  16.268 -0.3845  0.0256 -0.3570
  254TMC3    O1 3859   3.184   0.856  16.586 -0.0595 -0.8898  0.1021
  254TMC3    O2 3860   2.983   1.195  16.377 -0.2452 -0.1287 -0.6108
  255MPD2     C 3861   1.963   3.499  10.042  0.3457  0.4157  0.0510
  255MPD2    C1 3862   2.046   3.598  10.095 -0.3738  0.1300  0.2068
  255MPD2    C2 3863   2.155   3.565  10.169 -0.2574 -0.4540 -0.0386
  255MPD2    C3 3864   2.198   3.435  10.185  0.1780 -0.6450 -0.2398
  255MPD2    C4 3865   2.126   3.342  10.121  0.0880 -0.6038 -0.3279
  255MPD2    C5 3866   2.006   3.372  10.056  0.6216  0.0116 -0.3234
  255MPD2     H 3867   2.206   3.638  10.230 -0.0648 -1.4916  1.0353
  255MPD2    H1 3868   2.161   3.240  10.110  1.2193 -0.2614  0.1709
  255MPD2    H2 3869   1.871   3.511   9.987  0.8269  1.1086 -0.6027
  255MPD2    H3 3870   1.938   3.297  10.015  0.4173  0.2273 -0.3769
  255MPD2     N 3871   2.319   3.420  10.250 -0.4223  0.6527  0.2107
  255MPD2    H5 3872   2.374   3.503  10.271 -1.3057  1.3703 -0.3102
  255MPD2    N1 3873   2.029   3.731  10.062 -0.4120  0.1289  0.0044
  255MPD2    H7 3874   1.939   3.744  10.017 -0.0303 -1.6819 -1.2688
  256TMC3    C1 3875   2.074   3.948  10.007  0.1681  0.1338 -0.6700
  256TMC3    C2 3876   2.185   3.985   9.932  0.4391 -0.2536 -0.8440
  256TMC3    C3 3877   2.171   3.969   9.795 -0.4360 -0.5706 -0.0096
  256TMC3    C4 3878   1.950   3.946   9.939 -0.6765  0.2119 -0.5875
  256TMC3    C5 3879   1.941   3.943   9.798 -0.5645 -0.5134 -0.0665
  256TMC3    C6 3880   2.054   3.944   9.722 -0.3543 -0.5824 -0.7554
  256TMC3     C 3881   2.096   3.843  10.102  0.6831 -0.7727 -0.2348
  256TMC3     O 3882   2.189   3.859  10.185  0.0150  0.1148 -0.8410
  256TMC3     H 3883   2.287   3.982   9.969 -0.3374  0.7180  1.3732
  256TMC3    H1 3884   1.865   3.919  10.001 -0.6765 -1.1795 -1.1739
  256TMC3    H2 3885   2.048   3.931   9.614  2.2010  0.6877 -1.0530
  256TMC3    C7 3886   1.863   3.832   9.748 -1.1238 -0.3928 -0.0561
  256TMC3    C8 3887   2.297   3.975   9.727 -0.7178  0.2157  0.5140
  256TMC3    O1 3888   1.794   3.769   9.830 -0.3489 -0.3092  0.3763
  256TMC3    O2 3889   2.384   4.045   9.778 -0.2394  0.4219 -0.1717
  257MPD2     C 3890   1.069   1.306  13.182  0.4868 -0.5270  0.5245
  257MPD2    C1 3891   1.016   1.203  13.101  0.1836 -0.0074  0.2334
  257MPD2    C2 3892   0.961   1.089  13.160  0.6996 -0.0857  0.2786
  257MPD2    C3 3893   0.975   1.070  13.299  0.2674  0.3507 -0.7892
  257MPD2    C4 3894   1.023   1.176  13.375 -0.4730 -0.1362 -1.0367
  257MPD2    C5 3895   1.065   1.287  13.318  0.1553 -0.6034 -0.1132
  257MPD2     H 3896   0.912   1.013  13.100  0.2512  0.3003  0.1546
  257MPD2    H1 3897   1.024   1.177  13.484 -0.7835  0.6453 -1.0449
  257MPD2    H2 3898   1.112   1.400  13.150 -0.0624 -0.2400  0.6309
  257MPD2    H3 3899   1.099   1.368  13.381 -3.4866 -1.1328  2.5193
  257MPD2     N 3900   0.922   0.948  13.352 -0.0229 -0.3173  0.0966
  257MPD2    H5 3901   0.877   0.880  13.291 -0.2608 -0.7451  0.7446
  257MPD2    N1 3902   1.012   1.220  12.958  0.4903 -0.2569 -0.4525
  257MPD2    H7 3903   1.051   1.312  12.938 -0.1958  0.2315  0.4145
  258TMC3    C1 3904   0.913   0.769  13.514 -0.6053  0.7970 -0.1741
  258TMC3    C2 3905   0.931   0.680  13.413  0.2537  0.5660  0.2893
  258TMC3    C3 3906   0.939   0.543  13.448 -0.7133  0.7491  0.0625
  258TMC3    C4 3907   0.930   0.737  13.641  0.2531  0.1387  0.2554
  258TMC3    C5 3908   0.945   0.605  13.675  0.2176  0.6272  0.0266
  258TMC3    C6 3909   0.951   0.507  13.579  0.5699  0.0561 -0.9919
  258TMC3     C 3910   0.953   0.907  13.487  0.5945 -0.2381  0.4398
  258TMC3     O 3911   0.991   0.974  13.578  0.1789  0.3667 -0.3464
  258TMC3     H 3912   0.912   0.706  13.309  2.4853 -0.8452 -0.4615
  258TMC3    H1 3913   0.920   0.811  13.720 -1.2513  1.5954 -1.3106
  258TMC3    H2 3914   0.942   0.403  13.611  1.1457  0.4100  0.3594
  258TMC3    C7 3915   0.959   0.579  13.816  0.3933  0.0074 -0.1707
  258TMC3    C8 3916   0.960   0.445  13.340 -0.5042  0.0293 -0.0846
  258TMC3    O1 3917   0.913   0.665  13.887 -0.0872  0.3304 -0.3509
  258TMC3    O2 3918   0.942   0.490  13.227  0.2366 -0.2384  0.1236
  259MPD2     C 3919   0.793   2.015   1.436 -0.9208 -0.3199 -0.1787
  259MPD2    C1 3920   0.707   2.006   1.336 -0.5913 -0.2861  0.1003
  259MPD2    C2 3921   0.746   1.963   1.209 -0.6594  0.5386 -0.7722
  259MPD2    C3 3922   0.881   1.945   1.185 -0.2644 -1.1385  0.2436
  259MPD2    C4 3923   0.968   1.971   1.284  0.3371 -0.2549  0.4005
  259MPD2    C5 3924   0.925   1.984   1.415  0.3322  0.0257  0.6836
  259MPD2     H 3925   0.675   1.952   1.128  0.7987 -2.2834 -1.6557
  259MPD2    H1 3926   1.075   1.979   1.268 -0.0905  2.1292 -1.0860
  259MPD2    H2 3927   0.772   2.041   1.540 -0.4638 -0.6705  0.0016
  259MPD2    H3 3928   1.000   1.991   1.493  0.4159 -0.7975  0.6778
  259MPD2     N 3929   0.925   1.917   1.052  0.6882  0.1718  0.1713
  259MPD2    H5 3930   0.852   1.905   0.982 -0.8642 -2.1319  2.1790
  259MPD2    N1 3931   0.576   2.046   1.377 -0.3842  0.0362 -0.0296
  259MPD2    H7 3932   0.565   2.079   1.473 -1.3633  0.2109 -0.2040
  260TMC3    C1 3933   1.064   1.900   0.866 -0.6038 -0.2675 -0.6671
  260TMC3    C2 3934   1.168   1.841   0.808  0.1057  0.6649 -0.7074
  260TMC3    C3 3935   1.166   1.824   0.673  0.0067  0.4369 -0.0409
  260TMC3    C4 3936   0.961   1.958   0.793 -0.4328 -0.2052  0.0444
  260TMC3    C5 3937   0.977   1.958   0.652 -0.2110 -0.2226 -0.7461
  260TMC3    C6 3938   1.072   1.881   0.591  0.0838  0.1911  0.0601
  260TMC3     C 3939   1.054   1.897   1.013 -0.2200  0.1949  0.5037
  260TMC3     O 3940   1.160   1.885   1.070 -0.3362  0.1018  0.3568
  260TMC3     H 3941   1.244   1.801   0.875  1.6179  3.7680 -0.5984
  260TMC3    H1 3942   0.891   2.021   0.847 -0.3308  0.0858 -0.1599
  260TMC3    H2 3943   1.081   1.858   0.486  0.9265  0.3636  0.0910
  260TMC3    C7 3944   0.856   1.990   0.574  0.6478  1.0846  0.5192
  260TMC3    C8 3945   1.235   1.704   0.618 -0.0133 -0.3994  0.0345
  260TMC3    O1 3946   0.877   1.966   0.451  0.2662 -0.8949 -0.2694
  260TMC3    O2 3947   1.345   1.676   0.663 -0.4270 -0.3870  0.5286
  261MPD2     C 3948   2.033   0.464  12.082 -1.0620 -0.5164  0.1925
  261MPD2    C1 3949   1.963   0.535  12.176 -0.4210 -0.5819  0.2693
  261MPD2    C2 3950   1.984   0.673  12.197  0.1140  0.8647  0.6747
  261MPD2    C3 3951   2.072   0.736  12.118  0.0481  0.3687 -0.5660
  261MPD2    C4 3952   2.128   0.671  12.011  0.5106  0.0134  0.6181
  261MPD2    C5 3953   2.111   0.535  12.000 -0.7611 -0.8021  0.2510
  261MPD2     H 3954   1.942   0.739  12.272 -1.3246 -1.0691  1.5711
  261MPD2    H1 3955   2.197   0.713  11.938 -1.8906  2.5086 -0.2310
  261MPD2    H2 3956   2.029   0.357  12.068  1.6710 -0.4774 -0.8267
  261MPD2    H3 3957   2.163   0.486  11.918 -1.9334 -0.6646 -0.5699
  261MPD2     N 3958   2.093   0.875  12.129 -0.1550 -0.7795  0.3606
  261MPD2    H5 3959   2.031   0.909  12.202  0.3262  1.3081 -0.1851
  261MPD2    N1 3960   1.872   0.477  12.261 -0.3191 -0.1692 -0.3451
  261MPD2    H7 3961   1.836   0.541  12.331 -1.0475  0.2656 -1.1114
  262TMC3    C1 3962   2.206   1.085  12.112 -0.0526  0.0863  0.3397
  262TMC3    C2 3963   2.095   1.158  12.118  1.2497  0.0087 -0.0206
  262TMC3    C3 3964   2.111   1.293  12.151 -0.8653 -0.3877 -0.2708
  262TMC3    C4 3965   2.338   1.132  12.126  0.1392 -0.4181  0.4232
  262TMC3    C5 3966   2.347   1.268  12.137  0.7359 -0.1870  0.5288
  262TMC3    C6 3967   2.233   1.348  12.149 -0.3334  0.5491 -1.1569
  262TMC3     C 3968   2.205   0.944  12.073  0.6731 -1.1269  0.3345
  262TMC3     O 3969   2.305   0.899  12.015  0.3151 -0.5320 -0.4483
  262TMC3     H 3970   1.997   1.114  12.104  0.4041  2.0357 -0.5065
  262TMC3    H1 3971   2.424   1.067  12.116  0.9320  0.6105  0.5238
  262TMC3    H2 3972   2.249   1.455  12.159 -0.8256  0.4513  0.6299
  262TMC3    C7 3973   2.455   1.321  12.056 -0.3230 -0.1649  0.2552
  262TMC3    C8 3974   1.999   1.385  12.134 -0.2910 -0.6725 -1.0315
  262TMC3    O1 3975   2.555   1.249  12.051 -0.2484  0.3419 -0.0279
  262TMC3    O2 3976   2.024   1.498  12.170 -0.6368 -0.8101  0.5205
  263MPD2     C 3977   2.829   4.480  11.771 -0.1421 -0.0949  0.1069
  263MPD2    C1 3978   2.937   4.563  11.787  1.0669 -0.1018 -0.3937
  263MPD2    C2 3979   2.956   4.664  11.694 -0.3948 -0.0722 -0.0452
  263MPD2    C3 3980   2.868   4.684  11.590  0.3557  0.1250 -0.0449
  263MPD2    C4 3981   2.762   4.600  11.574  0.7807 -0.1293 -0.0847
  263MPD2    C5 3982   2.738   4.509  11.671  0.8445 -1.1515  0.8317
  263MPD2     H 3983   3.048   4.721  11.693  0.7598 -1.9121  1.3944
  263MPD2    H1 3984   2.699   4.596  11.486  0.9232 -0.3465 -0.1762
  263MPD2    H2 3985   2.795   4.396  11.830 -0.6015 -2.1458 -3.0583
  263MPD2    H3 3986   2.658   4.440  11.649  0.5236 -1.2341  2.2388
  263MPD2     N 3987   2.908   0.055  11.498 -0.0144 -0.6293 -0.4720
  263MPD2    H5 3988   2.986   0.111  11.531 -2.1815  0.2982  3.0516
  263MPD2    N1 3989   3.026   4.553  11.895 -0.3243  0.1405  0.3138
  263MPD2    H7 3990   3.022   4.469  11.951  0.0930 -1.3878 -1.9145
  264TMC3    C1 3991   2.958   0.148  11.294  0.5082  0.7239 -0.3375
  264TMC3    C2 3992   2.996   0.277  11.331  0.6922  0.2345  0.4540
  264TMC3    C3 3993   3.049   0.360  11.240 -0.1847 -0.3626  0.9082
  264TMC3    C4 3994   2.960   0.112  11.164  1.1072  0.2663  0.3095
  264TMC3    C5 3995   3.021   0.196  11.075  0.1116  0.5087  0.5078
  264TMC3    C6 3996   3.059   0.319  11.109 -0.1072  0.2191  0.3098
  264TMC3     C 3997   2.871   0.063  11.370  0.1485 -0.0165 -0.0875
  264TMC3     O 3998   2.797   4.717  11.304  0.0064  0.0773  0.2916
  264TMC3     H 3999   2.995   0.304  11.436 -1.5982 -0.3452  0.5755
  264TMC3    H1 4000   2.947   0.006  11.146  2.5457  0.2146 -0.4461
  264TMC3    H2 4001   3.110   0.385  11.040  0.3982  0.9068  1.3319
  264TMC3    C7 4002   3.048   0.151  10.936 -0.1287  0.7232 -0.4127
  264TMC3    C8 4003   3.078   0.499  11.277 -0.2081 -0.3696  0.5594
  264TMC3    O1 4004   3.130   0.211  10.868  0.2294  0.0789 -0.6648
  264TMC3    O2 4005   3.148   0.560  11.199 -0.6166 -0.8553 -0.0724
  265MPD2     C 4006   4.619   0.923  15.773 -1.0130 -0.2615 -1.0431
  265MPD2    C1 4007   4.675   1.028  15.695 -0.7227  0.3941 -0.3745
  265MPD2    C2 4008   0.023   1.004  15.579  0.2686  0.2195 -0.5825
  265MPD2    C3 4009   0.051   0.872  15.543 -0.0114 -0.5546  0.0705
  265MPD2    C4 4010   0.009   0.772  15.622  0.3217 -0.0572  0.0302
  265MPD2    C5 4011   4.665   0.798  15.735 -0.6747  0.6002 -0.2844
  265MPD2     H 4012   0.063   1.089  15.525  2.5007  0.7748  1.9537
  265MPD2    H1 4013   0.045   0.671  15.609  2.1816  0.4527  1.2705
  265MPD2    H2 4014   4.553   0.931  15.858  0.0505  3.2815 -0.5518
  265MPD2    H3 4015   4.631   0.713  15.794  0.6656  0.7210  0.6648
  265MPD2     N 4016   0.126   0.834  15.435  0.3195 -0.1329 -0.2596
  265MPD2    H5 4017   0.122   0.735  15.414  1.6181  0.2876 -2.4957
  265MPD2    N1 4018   4.650   1.166  15.739 -0.1663 -0.6809 -0.2363
  265MPD2    H7 4019   4.679   1.237  15.672 -0.0387  1.1622  1.7783
  266TMC3    C1 4020   4.641   1.329  15.906  0.0363  0.6186  0.1755
  266TMC3    C2 4021   4.657   1.365  16.034 -0.0518  0.1936  0.3871
  266TMC3    C3 4022   4.647   1.496  16.076 -0.3172  0.1431 -0.2960
  266TMC3    C4 4023   4.613   1.425  15.810  0.2203 -1.0685  0.0328
  266TMC3    C5 4024   4.590   1.558  15.854  0.4090  0.2256 -0.0929
  266TMC3    C6 4025   4.606   1.591  15.988 -0.4256  0.3721 -0.2169
  266TMC3     C 4026   4.631   1.191  15.877 -0.1289 -0.6211 -0.0230
  266TMC3     O 4027   4.623   1.116  15.973  0.8050 -0.3511 -0.0294
  266TMC3     H 4028   4.659   1.290  16.113 -0.4940 -0.4057 -0.1720
  266TMC3    H1 4029   4.601   1.397  15.706 -0.4707 -0.8372  0.0531
  266TMC3    H2 4030   4.594   1.693  16.022  1.6132  0.3319  0.6160
  266TMC3    C7 4031   4.528   1.650  15.753  0.9544  0.0579 -0.0786
  266TMC3    C8 4032   0.008   1.530  16.189 -0.4606 -0.6178 -0.5111
  266TMC3    O1 4033   4.458   1.601  15.666 -0.1925  0.0397 -0.5470
  266TMC3    O2 4034   0.101   1.452  16.204  0.1701 -0.4964  0.4656
  267MPD2     C 4035   1.422   2.783   0.759 -0.0826 -0.1197  0.1852
  267MPD2    C1 4036   1.496   2.763   0.645  0.2921  0.0011  0.0308
  267MPD2    C2 4037   1.439   2.777   0.520 -0.4478 -0.2502 -0.2561
  267MPD2    C3 4038   1.308   2.814   0.510  0.0508  0.4019  0.2130
  267MPD2    C4 4039   1.236   2.839   0.621  0.8815 -0.4059  0.2828
  267MPD2    C5 4040   1.293   2.818   0.748  0.0851  0.2518  0.2716
  267MPD2     H 4041   1.490   2.755   0.427 -0.4907  0.4673 -0.4534
  267MPD2    H1 4042   1.131   2.865   0.613  1.1548  1.2167  2.0450
  267MPD2    H2 4043   1.468   2.789   0.857  1.2627 -1.0136 -0.3784
  267MPD2    H3 4044   1.237   2.855   0.833  1.0458 -1.8659  1.8376
  267MPD2     N 4045   1.250   2.833   0.383  0.4677 -0.4517  0.5359
  267MPD2    H5 4046   1.150   2.852   0.388  0.5334  0.0939 -0.2334
  267MPD2    N1 4047   1.639   2.743   0.668 -0.3982 -0.1189  0.3556
  267MPD2    H7 4048   1.667   2.729   0.764  0.1469 -1.3549  0.0138
  268TMC3    C1 4049   1.871   2.741   0.623  0.2274 -0.2235  0.1180
  268TMC3    C2 4050   1.964   2.814   0.567  0.4624 -0.1682 -0.0563
  268TMC3    C3 4051   2.090   2.819   0.624  0.2228 -1.2453  0.2715
  268TMC3    C4 4052   1.893   2.670   0.736 -0.3909  0.5130 -0.1624
  268TMC3    C5 4053   2.021   2.669   0.791  0.2094  0.0030  0.4677
  268TMC3    C6 4054   2.127   2.744   0.733 -0.3580  0.3768  0.3703
  268TMC3     C 4055   1.738   2.759   0.568 -0.6662 -0.2779 -0.1660
  268TMC3     O 4056   1.722   2.781   0.448 -0.0508  0.2484  0.5196
  268TMC3     H 4057   1.950   2.870   0.475 -2.3211 -0.5117  0.1636
  268TMC3    H1 4058   1.819   2.611   0.789  1.3135 -0.9893  0.5271
  268TMC3    H2 4059   2.234   2.742   0.755 -0.4089  1.1311  0.6949
  268TMC3    C7 4060   2.077   2.561   0.874 -0.0723  0.2787  0.3134
  268TMC3    C8 4061   2.197   2.888   0.560  0.2855  0.0587  0.4031
  268TMC3    O1 4062   2.196   2.578   0.905 -0.2213 -0.8050 -0.3630
  268TMC3    O2 4063   2.292   2.927   0.627  0.6036 -0.5235 -0.2448
  269MPD2     C 4064   2.452   1.128  15.844 -0.1259 -0.2559 -0.1736
  269MPD2    C1 4065   2.326   1.178  15.867 -0.4294  0.2292 -0.0965
  269MPD2    C2 4066   2.299   1.310  15.829  0.9111 -0.5256  0.0519
  269MPD2    C3 4067   2.395   1.384  15.760  0.3612 -0.3707 -0.5438
  269MPD2    C4 4068   2.522   1.326  15.736 -0.1332  0.4542  0.2480
  269MPD2    C5 4069   2.548   1.203  15.780 -0.1895 -0.5652 -0.1875
  269MPD2     H 4070   2.206   1.357  15.860  0.1469 -0.6921 -2.0369
  269MPD2    H1 4071   2.605   1.383  15.696 -0.5978  1.2879  0.4594
  269MPD2    H2 4072   2.472   1.026  15.873 -1.9819 -0.4025  0.5542
  269MPD2    H3 4073   2.649   1.166  15.766  0.9449  2.9073 -1.1459
  269MPD2     N 4074   2.368   1.521  15.734  0.4371 -0.0315  0.2050
  269MPD2    H5 4075   2.279   1.555  15.769  0.8113  2.3512 -1.1922
  269MPD2    N1 4076   2.236   1.092  15.933 -0.0953 -0.4915 -0.1928
  269MPD2    H7 4077   2.272   1.003  15.965 -0.1977 -1.7599 -3.5704
  270TMC3    C1 4078   2.033   1.002  15.981 -1.5070 -1.0183  0.1280
  270TMC3    C2 4079   1.906   0.989  15.931  0.1034 -0.0392  0.4512
  270TMC3    C3 4080   1.837   0.877  15.978 -0.0017  0.0782 -0.5843
  270TMC3    C4 4081   2.085   0.921  16.081 -0.2268  0.3148 -0.0448
  270TMC3    C5 4082   2.013   0.805  16.111 -0.6240 -0.5162 -0.0901
  270TMC3    C6 4083   1.888   0.780  16.054 -1.0029 -0.0182 -0.7188
  270TMC3     C 4084   2.104   1.115  15.939 -0.8312 -0.3915 -0.5440
  270TMC3     O 4085   2.035   1.199  15.886  0.2220 -0.3382 -0.5075
  270TMC3     H 4086   1.869   1.056  15.853  1.7716  1.3898  0.8855
  270TMC3    H1 4087   2.185   0.944  16.118  0.3576 -3.1771  0.5372
  270TMC3    H2 4088   1.820   0.706  16.095 -0.7623  0.1182 -0.0804
  270TMC3    C7 4089   2.099   0.695  16.131  0.4206  0.0169  0.6988
  270TMC3    C8 4090   1.740   0.832  15.894 -0.0981  0.5219 -0.6198
  270TMC3    O1 4091   2.221   0.717  16.122  0.0994 -0.1925  0.7032
  270TMC3    O2 4092   1.645   0.771  15.946 -0.1187  0.4550  0.5823
  271MPD2     C 4093   1.279   1.326  14.702  0.5461  1.0319  0.6753
  271MPD2    C1 4094   1.252   1.215  14.637 -0.3162  0.3355 -0.1405
  271MPD2    C2 4095   1.197   1.228  14.509  0.0869 -1.0428  0.1155
  271MPD2    C3 4096   1.175   1.351  14.453  0.1036 -0.7504 -0.2387
  271MPD2    C4 4097   1.202   1.467  14.526 -0.7790  0.0485  0.4746
  271MPD2    C5 4098   1.258   1.456  14.654 -0.4052 -0.3720  0.1523
  271MPD2     H 4099   1.163   1.134  14.467  2.1299 -1.5970 -0.2850
  271MPD2    H1 4100   1.187   1.566  14.484 -0.2334 -0.2066 -0.3387
  271MPD2    H2 4101   1.322   1.333  14.801 -0.3373  3.0437  0.9084
  271MPD2    H3 4102   1.266   1.544  14.718  1.9132 -1.3156  1.1665
  271MPD2     N 4103   1.112   1.373  14.323 -0.1781  0.1089 -0.7534
  271MPD2    H5 4104   1.087   1.467  14.294  0.2350 -0.1493 -1.9366
  271MPD2    N1 4105   1.272   1.084  14.686  0.1274 -0.6236  0.2376
  271MPD2    H7 4106   1.252   1.006  14.624  1.4647 -2.1599  1.7272
  272TMC3    C1 4107   1.311   0.913  14.814  0.1213  0.3873  0.1282
  272TMC3    C2 4108   1.426   0.855  14.767 -0.2595  0.9341 -0.0229
  272TMC3    C3 4109   1.480   0.747  14.832  0.2340 -0.0880  0.0441
  272TMC3    C4 4110   1.253   0.863  14.924  0.1209 -0.1502  0.1062
  272TMC3    C5 4111   1.306   0.758  14.984  0.8421  0.0293 -0.7927
  272TMC3    C6 4112   1.418   0.698  14.939  0.9140 -0.0071 -0.1778
  272TMC3     C 4113   1.317   1.050  14.805  1.6689 -0.9089 -0.4905
  272TMC3     O 4114   1.342   1.114  14.908  0.5536  0.0855  0.2402
  272TMC3     H 4115   1.479   0.901  14.685  0.2482  0.0031 -0.2157
  272TMC3    H1 4116   1.169   0.922  14.960 -0.4445 -0.9801  0.1421
  272TMC3    H2 4117   1.462   0.617  14.997  1.9324 -0.0196 -0.9788
  272TMC3    C7 4118   1.294   0.775  15.126 -0.6796 -0.4521  0.3911
  272TMC3    C8 4119   1.576   0.673  14.746  0.1366  0.1045  0.3231
  272TMC3    O1 4120   1.185   0.746  15.172 -0.1995 -0.1111 -0.2343
  272TMC3    O2 4121   1.593   0.703  14.626  0.0738 -0.5011 -0.2958
  273MPD2     C 4122   3.243   3.965  11.924  0.1657 -0.4105  0.1058
  273MPD2    C1 4123   3.379   3.967  11.950  0.0828  0.2037  0.0857
  273MPD2    C2 4124   3.455   3.908  11.848  0.3725  0.8340 -0.0482
  273MPD2    C3 4125   3.407   3.858  11.725  0.0204 -0.2778  0.3244
  273MPD2    C4 4126   3.273   3.854  11.709  1.0952 -0.0446 -0.8016
  273MPD2    C5 4127   3.195   3.905  11.811  0.1389 -0.4081 -0.3229
  273MPD2     H 4128   3.562   3.915  11.863  0.6681 -1.5989 -0.9903
  273MPD2    H1 4129   3.227   3.813  11.619  0.2792 -0.1691 -0.3352
  273MPD2    H2 4130   3.174   4.001  12.000 -0.0108 -0.7059  0.0855
  273MPD2    H3 4131   3.088   3.892  11.803  0.1928 -1.1461  0.1251
  273MPD2     N 4132   3.494   3.815  11.620  0.3816 -0.0286 -0.4537
  273MPD2    H5 4133   3.451   3.788  11.533 -0.7184 -1.6336  0.5808
  273MPD2    N1 4134   3.428   4.043  12.062 -0.0704  0.0935 -0.2185
  273MPD2    H7 4135   3.355   4.094  12.110  0.4425 -0.2633  0.9491
  274TMC3    C1 4136   3.696   3.839  11.514  1.3630 -0.5777 -0.0226
  274TMC3    C2 4137   3.612   3.858  11.409 -0.0415  0.3257 -0.1786
  274TMC3    C3 4138   3.641   3.955  11.321  0.5271  0.2365  0.4487
  274TMC3    C4 4139   3.794   3.930  11.551 -0.3676  0.0397 -0.2020
  274TMC3    C5 4140   3.789   4.043  11.474  0.0991  0.4061 -0.2805
  274TMC3    C6 4141   3.718   4.057  11.353 -0.0432 -0.0575  0.2772
  274TMC3     C 4142   3.629   3.798  11.638  0.2772  1.3021 -1.1201
  274TMC3     O 4143   3.688   3.778  11.742  0.1318  0.4230  0.2845
  274TMC3     H 4144   3.541   3.784  11.374  1.2462 -1.0282  0.0632
  274TMC3    H1 4145   3.827   3.935  11.654 -0.7777  1.5675 -0.1391
  274TMC3    H2 4146   3.709   4.156  11.308 -0.6549  0.2140  0.9925
  274TMC3    C7 4147   3.764   4.159  11.557 -0.6392  0.2078  0.1851
  274TMC3    C8 4148   3.543   3.977  11.204 -0.0596  0.2828  0.3269
  274TMC3    O1 4149   3.665   4.231  11.540 -0.6264 -0.4242 -0.1156
  274TMC3    O2 4150   3.443   3.905  11.213  0.2198  0.6553 -0.0731
  275MPD2     C 4151   3.007   1.878  14.386  0.4018 -0.7049 -0.0803
  275MPD2    C1 4152   2.955   1.893  14.512  0.0927 -0.3734 -0.1111
  275MPD2    C2 4153   2.842   1.823  14.538  0.1690 -0.6309 -0.2590
  275MPD2    C3 4154   2.788   1.732  14.453 -0.1478  1.4568  0.2534
  275MPD2    C4 4155   2.839   1.726  14.329  0.7689  0.0588  0.4548
  275MPD2    C5 4156   2.948   1.792  14.295 -0.6691  0.0701 -0.1817
  275MPD2     H 4157   2.799   1.843  14.636 -0.2087  0.1026 -0.5754
  275MPD2    H1 4158   2.811   1.654  14.254  0.6135 -1.3260  1.8446
  275MPD2    H2 4159   3.096   1.928  14.348 -1.6596  1.8221 -1.5745
  275MPD2    H3 4160   2.994   1.780  14.198  0.7694  1.2084  0.3532
  275MPD2     N 4161   2.668   1.664  14.493  0.0501  0.2079  0.3676
  275MPD2    H5 4162   2.624   1.607  14.421 -0.1830 -0.1165  0.7653
  275MPD2    N1 4163   3.011   1.976  14.615 -0.1881  0.0686  0.3626
  275MPD2    H7 4164   2.952   1.976  14.698  0.1008 -0.3360  0.5727
  276TMC3    C1 4165   3.150   2.098  14.750 -0.0947 -1.2845 -0.1751
  276TMC3    C2 4166   3.065   2.051  14.850 -0.0382  0.3579  0.0717
  276TMC3    C3 4167   3.125   2.018  14.969 -0.5983 -0.1048  0.5485
  276TMC3    C4 4168   3.287   2.112  14.772  0.1091  0.2618 -0.2201
  276TMC3    C5 4169   3.340   2.063  14.893 -0.1335  0.1731 -0.4782
  276TMC3    C6 4170   3.263   2.010  14.991  0.7910 -0.4165 -0.2516
  276TMC3     C 4171   3.126   2.044  14.616  0.2307 -0.4776  0.2855
  276TMC3     O 4172   3.203   2.059  14.523  0.1266  0.3014 -0.3694
  276TMC3     H 4173   2.958   2.064  14.834 -0.4757  0.2630  2.9218
  276TMC3    H1 4174   3.354   2.135  14.690  1.5560  0.1076  0.9078
  276TMC3    H2 4175   3.300   1.972  15.086 -1.2485 -0.9044  0.3423
  276TMC3    C7 4176   3.447   2.138  14.950  0.3594 -0.3820 -0.0723
  276TMC3    C8 4177   3.035   1.985  15.080  0.0636 -0.0951 -0.2241
  276TMC3    O1 4178   3.485   2.099  15.059  0.1265 -0.1227  0.2359
  276TMC3    O2 4179   2.949   2.064  15.119  0.1847  0.4850 -0.1506
  277MPD2     C 4180   0.187   0.788  13.199  0.1694 -0.6779 -0.5147
  277MPD2    C1 4181   0.093   0.881  13.244  0.6508  0.3765 -0.2035
  277MPD2    C2 4182   4.726   0.847  13.341  0.2873  0.6710  0.5711
  277MPD2    C3 4183   4.724   0.724  13.398 -0.7047 -0.5310 -0.4761
  277MPD2    C4 4184   0.099   0.636  13.359 -0.6133 -0.4301 -0.0417
  277MPD2    C5 4185   0.191   0.666  13.264 -0.4488 -0.0754  0.3057
  277MPD2     H 4186   4.648   0.918  13.365 -0.7461  0.1515 -1.2427
  277MPD2    H1 4187   0.110   0.535  13.395  2.1940  0.0914  0.5593
  277MPD2    H2 4188   0.265   0.796  13.124 -0.9225 -0.8444 -1.6575
  277MPD2    H3 4189   0.254   0.586  13.225  3.9074  1.6155  3.8918
  277MPD2     N 4190   4.645   0.695  13.509 -0.2081 -0.1094 -0.1253
  277MPD2    H5 4191   4.594   0.775  13.545 -0.0747 -0.3675  0.6418
  277MPD2    N1 4192   0.100   1.005  13.175  0.0986 -0.3843 -0.1450
  277MPD2    H7 4193   0.141   1.005  13.082  1.0999 -1.7405  0.2807
  278TMC3    C1 4194   4.569   0.595  13.706 -0.3181  0.4100  0.2719
  278TMC3    C2 4195   4.616   0.523  13.809  0.3271 -0.1282  0.8232
  278TMC3    C3 4196   4.532   0.512  13.919 -0.3696  0.3585  0.0795
  278TMC3    C4 4197   4.454   0.664  13.708  0.0936  0.9393  0.2269
  278TMC3    C5 4198   4.384   0.666  13.829 -0.2594 -0.9448 -0.5647
  278TMC3    C6 4199   4.415   0.578  13.931  0.4729  0.2548 -0.5498
  278TMC3     C 4200   4.644   0.577  13.588 -0.7608 -0.0482 -0.0998
  278TMC3     O 4201   4.722   0.484  13.581  0.6990  0.2878 -0.4291
  278TMC3     H 4202   4.703   0.459  13.802 -0.0516 -0.1409 -3.3446
  278TMC3    H1 4203   4.413   0.712  13.620  0.6168  0.8258 -0.0827
  278TMC3    H2 4204   4.343   0.571  14.012 -0.9943 -0.1761 -1.8896
  278TMC3    C7 4205   4.262   0.741  13.846 -0.9465 -0.1522  0.1387
  278TMC3    C8 4206   4.512   0.382  13.987  0.1549  0.1727 -0.4200
  278TMC3    O1 4207   4.191   0.711  13.938 -0.0054  0.3501  0.2189
  278TMC3    O2 4208   4.399   0.353  14.025 -0.2291 -0.3076  0.2725
  279MPD2     C 4209   4.203   0.885  17.520 -0.1792 -0.4298 -0.8865
  279MPD2    C1 4210   4.189   1.013  17.575 -0.8341 -0.8300 -0.0610
  279MPD2    C2 4211   4.234   1.117  17.492 -0.5915 -0.0247 -0.2404
  279MPD2    C3 4212   4.296   1.094  17.368  0.0580 -0.1127 -0.7397
  279MPD2    C4 4213   4.305   0.965  17.314 -0.0576  0.0044  0.5093
  279MPD2    C5 4214   4.261   0.856  17.395  0.1018  0.0795  0.3377
  279MPD2     H 4215   4.210   1.221  17.515 -1.9005 -0.2170 -0.7422
  279MPD2    H1 4216   4.354   0.949  17.219 -2.8724 -3.4331 -0.3508
  279MPD2    H2 4217   4.187   0.796  17.581  0.8986 -0.6838 -0.9582
  279MPD2    H3 4218   4.272   0.754  17.358 -1.0801  0.5452 -1.2825
  279MPD2     N 4219   4.328   1.206  17.286 -0.2781 -0.0444 -0.0680
  279MPD2    H5 4220   4.345   1.191  17.187 -2.7952 -2.5281 -0.1487
  279MPD2    N1 4221   4.109   1.032  17.700 -0.2379  0.3506  0.1961
  279MPD2    H7 4222   4.086   0.947   0.045 -0.7230  1.7401  2.3092
  280TMC3    C1 4223   4.034   1.150   0.174 -0.2233  0.5074  0.8472
  280TMC3    C2 4224   3.963   1.040   0.228  0.0197 -0.1767  1.2751
  280TMC3    C3 4225   3.939   1.051   0.365  0.1479  0.0947  0.0552
  280TMC3    C4 4226   4.058   1.267   0.252  0.2698  0.5461  0.2557
  280TMC3    C5 4227   4.021   1.267   0.376  0.1943  0.1410  0.4688
  280TMC3    C6 4228   3.963   1.165   0.438 -0.0793 -0.0054 -0.0050
  280TMC3     C 4229   4.080   1.156   0.041  0.2680 -0.3336  0.6271
  280TMC3     O 4230   4.110   1.267  17.703  0.0392 -0.0879 -0.6208
  280TMC3     H 4231   3.933   0.946   0.183 -0.3086  0.1145  0.8890
  280TMC3    H1 4232   4.106   1.350   0.201  0.1860  0.7800  0.5550
  280TMC3    H2 4233   3.951   1.172   0.545 -0.1092  0.2927 -0.0267
  280TMC3    C7 4234   4.020   1.396   0.443 -0.6753  0.0251 -0.4556
  280TMC3    C8 4235   3.879   0.943   0.441 -0.2548 -0.0616  0.3603
  280TMC3    O1 4236   4.126   1.457   0.460 -0.0903  0.4700 -0.1767
  280TMC3    O2 4237   3.852   0.973   0.560  0.2813  0.6843 -0.1536
  281TMC3    C1 4238   2.770   1.414  13.453  0.1852  0.4654 -0.2532
  281TMC3    C2 4239   2.736   1.425  13.324  0.7213  1.0012  0.3016
  281TMC3    C3 4240   2.767   1.314  13.250  0.4842 -0.6794 -0.3746
  281TMC3    C4 4241   2.836   1.303  13.510  0.0131  0.1328 -0.2629
  281TMC3    C5 4242   2.854   1.195  13.440  0.4531  0.1015 -0.1623
  281TMC3    C6 4243   2.826   1.194  13.301  0.4530 -0.3258 -0.2986
  281TMC3     C 4244   2.773   1.531  13.535 -0.1117  0.2782 -0.4475
  281TMC3     O 4245   2.838   1.536  13.637  0.1879 -0.1943 -0.2867
  281TMC3     H 4246   2.678   1.507  13.282 -0.7280  0.0849  0.4825
  281TMC3    H1 4247   2.854   1.302  13.617  0.2696 -2.0984 -0.3317
  281TMC3    H2 4248   2.843   1.105  13.241 -1.9257 -1.0481  0.0865
  281TMC3    C7 4249   2.880   1.065  13.495  0.4009  0.4320 -0.3505
  281TMC3    C8 4250   2.682   1.307  13.130  0.1776 -0.8367  0.6253
  281TMC3    O1 4251   2.944   0.988  13.427 -1.1213 -0.1302  0.1389
  281TMC3    O2 4252   2.588   1.378  13.128  0.1805 -0.1525 -0.0376
  282MPD2     C 4253   4.670   2.858  15.222 -0.2182 -0.3168 -0.0177
  282MPD2    C1 4254   4.596   2.965  15.268 -0.1316  0.0041 -0.4343
  282MPD2    C2 4255   4.514   3.031  15.172 -0.5497 -0.2495  0.0676
  282MPD2    C3 4256   4.521   2.999  15.037 -0.3705 -0.1280  0.7001
  282MPD2    C4 4257   4.601   2.899  14.992  0.3951 -0.8961  0.2943
  282MPD2    C5 4258   4.670   2.826  15.087  0.4126 -0.7203 -0.7191
  282MPD2     H 4259   4.443   3.107  15.204  1.3184  0.5460  2.3190
  282MPD2    H1 4260   4.589   2.851  14.895  0.8587  1.0322 -0.7133
  282MPD2    H2 4261   4.711   2.780  15.286  1.0041  0.8924  0.6778
  282MPD2    H3 4262   0.001   2.742  15.049  0.2004 -0.8650 -0.7208
  282MPD2     N 4263   4.427   3.070  14.955  0.3741 -0.2078  0.1598
  282MPD2    H5 4264   4.367   3.137  15.002  0.5649  2.1137 -2.8582
  282MPD2    N1 4265   4.564   2.994  15.405  0.3705 -0.2367 -0.8118
  282MPD2    H7 4266   4.492   3.066  15.412 -0.5518 -1.2095 -0.3535
  283TMC3    C1 4267   4.521   2.937  15.632  1.0807  0.1125 -0.5780
  283TMC3    C2 4268   4.495   3.069  15.662  0.0003 -0.2347 -0.0503
  283TMC3    C3 4269   4.416   3.100  15.766  0.5936 -0.0750 -0.4357
  283TMC3    C4 4270   4.472   2.835  15.708 -0.0868  0.6571  0.4238
  283TMC3    C5 4271   4.384   2.875  15.807  0.3529  0.3888  0.4520
  283TMC3    C6 4272   4.348   3.007  15.833  0.2998  1.5736 -0.2180
  283TMC3     C 4273   4.603   2.914  15.516  0.2167  0.5468 -0.2721
  283TMC3     O 4274   4.671   2.814  15.521 -0.2157  0.6838 -0.1424
  283TMC3     H 4275   4.551   3.146  15.611  0.5706  0.6893  2.0111
  283TMC3    H1 4276   4.487   2.730  15.685  0.4779  0.3767  2.0155
  283TMC3    H2 4277   4.283   3.025  15.918  0.6404  1.2725  0.1058
  283TMC3    C7 4278   4.302   2.777  15.878  0.4534 -0.0502  0.5614
  283TMC3    C8 4279   4.383   3.236  15.795  0.3974 -0.0791  0.5407
  283TMC3    O1 4280   4.214   2.823  15.951  0.3753 -1.0445 -0.2803
  283TMC3    O2 4281   4.269   3.254  15.830 -0.8312  0.1253  0.4595
  284MPD2     C 4282   2.709   2.098  11.731  0.5730  0.5855 -0.2681
  284MPD2    C1 4283   2.821   2.022  11.720  0.5938 -0.8301  0.7251
  284MPD2    C2 4284   2.858   1.950  11.829  0.2531  0.3322  0.1435
  284MPD2    C3 4285   2.797   1.973  11.954 -0.6605 -0.4398 -0.5362
  284MPD2    C4 4286   2.693   2.060  11.962 -0.4921  0.2072 -0.6303
  284MPD2    C5 4287   2.642   2.111  11.850 -1.1358  0.5426  0.5338
  284MPD2     H 4288   2.946   1.888  11.817  0.0677  0.1433 -0.2383
  284MPD2    H1 4289   2.651   2.089  12.058 -2.1845 -1.3821 -0.8947
  284MPD2    H2 4290   2.673   2.153  11.645  0.7070  0.9417 -0.0940
  284MPD2    H3 4291   2.553   2.172  11.843 -1.1783  0.2885 -1.1553
  284MPD2     N 4292   2.845   1.921  12.068 -0.0915  0.1955 -0.5106
  284MPD2    H5 4293   2.816   1.961  12.156 -1.8897 -1.0375 -0.5387
  284MPD2    N1 4294   2.904   2.032  11.608 -0.2899 -0.3922 -0.1157
  284MPD2    H7 4295   2.965   1.951  11.601  2.1496  1.4136  0.1401
  285TMC3    C1 4296   3.016   2.110  11.411  0.2263  0.1700  0.3619
  285TMC3    C2 4297   3.084   1.994  11.414 -0.4105 -0.2830 -0.2562
  285TMC3    C3 4298   3.212   2.001  11.371  0.0259  0.3762 -0.1037
  285TMC3    C4 4299   3.070   2.222  11.352  0.5892  0.1038  0.3915
  285TMC3    C5 4300   3.204   2.220  11.320  0.1153 -0.0018 -0.0086
  285TMC3    C6 4301   3.283   2.111  11.331  0.8904 -1.1117 -0.4225
  285TMC3     C 4302   2.904   2.126  11.507 -0.2666  0.4251  0.2835
  285TMC3     O 4303   2.838   2.229  11.496 -0.0752 -0.0371  0.2430
  285TMC3     H 4304   3.039   1.902  11.450  1.0965 -1.0123 -0.2528
  285TMC3    H1 4305   3.005   2.308  11.344  1.5066  0.7760  0.0509
  285TMC3    H2 4306   3.388   2.106  11.308  1.0127 -0.0995 -0.0966
  285TMC3    C7 4307   3.261   2.328  11.248 -0.4034 -0.2816  0.1333
  285TMC3    C8 4308   3.280   1.882  11.407 -0.7980  0.2249 -0.1422
  285TMC3    O1 4309   3.382   2.332  11.238 -0.8237 -0.1865 -0.0876
  285TMC3    O2 4310   3.219   1.778  11.378  0.4711 -0.3877  0.2902
  286MPD2     C 4311   2.937   1.004   1.915 -0.7524  0.1368  0.4363
  286MPD2    C1 4312   2.946   1.038   1.783  0.1641 -0.4163  0.5410
  286MPD2    C2 4313   3.062   1.026   1.717 -0.6994 -0.2797  0.0236
  286MPD2    C3 4314   3.179   0.985   1.780  0.3909  0.6830  0.7232
  286MPD2    C4 4315   3.170   0.958   1.916  0.0025  0.3331  0.3945
  286MPD2    C5 4316   3.049   0.963   1.980 -0.5226 -0.2389 -0.3655
  286MPD2     H 4317   3.065   1.048   1.611  1.2334  1.2362  0.3960
  286MPD2    H1 4318   3.259   0.929   1.969 -1.0026 -1.4513  1.1133
  286MPD2    H2 4319   2.844   1.018   1.969 -0.2038 -3.7390  2.3584
  286MPD2    H3 4320   3.040   0.932   2.083 -0.7692 -2.4388 -1.0330
  286MPD2     N 4321   3.296   0.972   1.702 -0.2622 -0.8192  0.6534
  286MPD2    H5 4322   3.381   0.971   1.757  0.9517  1.9197 -1.1650
  286MPD2    N1 4323   2.835   1.061   1.697 -0.3454  0.3598 -0.1787
  286MPD2    H7 4324   2.853   1.053   1.597  3.8228 -0.1673  0.5891
  287TMC3    C1 4325   3.441   0.996   1.508 -0.3613  0.2528  0.3778
  287TMC3    C2 4326   3.480   0.919   1.405  0.2803  0.2303 -0.0188
  287TMC3    C3 4327   3.615   0.908   1.374  0.1308 -0.0462  0.2182
  287TMC3    C4 4328   3.533   1.055   1.592  0.3157 -0.3008 -0.2396
  287TMC3    C5 4329   3.665   1.037   1.573  0.7218 -0.3150 -0.0171
  287TMC3    C6 4330   3.712   0.961   1.464 -0.1378 -0.1533 -0.0115
  287TMC3     C 4331   3.306   0.981   1.566  0.0636 -0.5373 -0.4229
  287TMC3     O 4332   3.218   0.936   1.493 -0.4534 -0.4594  0.4242
  287TMC3     H 4333   3.407   0.856   1.356  1.0726  1.3636 -2.6171
  287TMC3    H1 4334   3.503   1.120   1.673 -0.1985  0.3130 -0.9249
  287TMC3    H2 4335   3.816   0.952   1.436 -0.4968 -1.5002 -0.9119
  287TMC3    C7 4336   3.745   1.051   1.691  0.0094  0.0288  0.3303
  287TMC3    C8 4337   3.647   0.818   1.257  0.6283  0.6207  0.0745
  287TMC3    O1 4338   3.721   1.154   1.752 -0.2676  0.5533  0.2165
  287TMC3    O2 4339   3.748   0.749   1.258  0.2429  0.2724  0.2802
  288TMC3    C1 4340   4.620   0.593  14.840  0.1021  0.9485  0.0461
  288TMC3    C2 4341   4.614   0.523  14.964 -0.3099 -0.1996 -0.3061
  288TMC3    C3 4342   4.586   0.599  15.073  0.3268  0.4050  0.1875
  288TMC3    C4 4343   4.622   0.731  14.826  0.5587  0.1794  0.0070
  288TMC3    C5 4344   4.616   0.792  14.950  0.5258  0.2064 -1.0288
  288TMC3    C6 4345   4.594   0.736  15.069 -0.2208 -0.2541 -0.1179
  288TMC3     C 4346   4.633   0.517  14.722 -0.3375  0.4439 -0.0645
  288TMC3     O 4347   4.668   0.404  14.739  0.1325  0.0408 -0.0072
  288TMC3     H 4348   4.623   0.415  14.959 -1.0729 -0.2870  0.2909
  288TMC3    H1 4349   4.637   0.782  14.731 -3.3423  2.0280  0.3989
  288TMC3    H2 4350   4.590   0.789  15.164  0.3538  0.4108 -0.4645
  288TMC3    C7 4351   4.672   0.927  14.949 -0.2397  0.0972  0.7427
  288TMC3    C8 4352   4.583   0.530  15.203 -0.2083  0.1013  0.4573
  288TMC3    O1 4353   4.634   1.004  15.039  0.1946 -0.1492 -0.0671
  288TMC3    O2 4354   4.632   0.591  15.299  0.5224 -0.5500 -0.2955
  289MPD2     C 4355   0.406   4.616  14.758  0.4084  0.4559 -0.2725
  289MPD2    C1 4356   0.383   4.696  14.652 -0.7362 -0.1192 -0.3207
  289MPD2    C2 4357   0.261   4.698  14.598 -0.2927 -0.1857  1.2589
  289MPD2    C3 4358   0.150   4.631  14.663  0.1749 -0.8096  0.5985
  289MPD2    C4 4359   0.175   4.557  14.773  0.2470  0.9177  0.2510
  289MPD2    C5 4360   0.307   4.542  14.816 -0.0683  0.0944  0.1918
  289MPD2     H 4361   0.245   0.029  14.507  2.5418  0.7971  1.3714
  289MPD2    H1 4362   0.095   4.497  14.817 -0.1801  1.5780  0.3715
  289MPD2    H2 4363   0.503   4.624  14.807 -0.8826  0.0028  2.3815
  289MPD2    H3 4364   0.336   4.474  14.895  0.6697  1.8331  1.4446
  289MPD2     N 4365   0.015   4.631  14.623 -0.0434 -0.1360  0.1451
  289MPD2    H5 4366   4.677   4.578  14.682  1.1943 -1.3640  0.3720
  289MPD2    N1 4367   0.492   0.058  14.623 -0.2179 -0.7233  0.3534
  289MPD2    H7 4368   0.555   0.068  14.701 -0.2857 -0.6539  0.4000
  290TMC3    C1 4369   4.547   4.696  14.498  0.0725  0.8234 -0.6160
  290TMC3    C2 4370   4.492   0.072  14.422 -0.1564 -0.0867  0.1783
  290TMC3    C3 4371   4.379   0.050  14.352  0.0015  0.4491 -0.5217
  290TMC3    C4 4372   4.494   4.571  14.510  0.6414  0.7223 -0.2494
  290TMC3    C5 4373   4.383   4.551  14.430 -0.5993  0.9309  0.0905
  290TMC3    C6 4374   4.324   4.646  14.355  0.7137 -0.2167 -0.1944
  290TMC3     C 4375   4.690   4.705  14.518  0.0349  0.7847  0.0757
  290TMC3     O 4376   0.020   0.068  14.454  0.3061  0.2341  0.1175
  290TMC3     H 4377   4.547   0.162  14.401  0.4340 -0.1353  1.5814
  290TMC3    H1 4378   4.547   4.495  14.566 -0.3553  0.8404  0.8616
  290TMC3    H2 4379   4.222   4.636  14.320  0.1692  0.2203  1.2704
  290TMC3    C7 4380   4.305   4.427  14.435 -0.4907  1.1885  0.1492
  290TMC3    C8 4381   4.296   0.166  14.317  0.4300  1.1018 -0.2290
  290TMC3    O1 4382   4.186   4.423  14.410 -0.0522  0.2086 -0.1121
  290TMC3    O2 4383   4.212   0.143  14.231  0.2039  0.2083 -0.0749
  291MPD2     C 4384   4.213   4.333   0.560  0.1258  0.3571  0.0242
  291MPD2    C1 4385   4.268   4.210   0.577 -0.0569 -0.8749 -0.4251
  291MPD2    C2 4386   4.402   4.205   0.609  0.6244 -0.1328 -0.3216
  291MPD2    C3 4387   4.483   4.314   0.625 -0.3958 -0.3239  0.7822
  291MPD2    C4 4388   4.430   4.436   0.606 -0.5406  0.1154  0.3219
  291MPD2    C5 4389   4.294   4.446   0.570  0.0031  0.6563  0.1598
  291MPD2     H 4390   4.445   4.108   0.632 -1.3075 -1.2466 -1.3980
  291MPD2    H1 4391   4.480   4.530   0.627 -0.2106 -0.3694  1.7218
  291MPD2    H2 4392   4.110   4.357   0.539 -0.9368 -2.9921  1.5428
  291MPD2    H3 4393   4.250   4.545   0.561  2.1884  1.3891 -2.6003
  291MPD2     N 4394   4.620   4.306   0.664 -0.4980 -0.4492 -0.0187
  291MPD2    H5 4395   4.661   4.396   0.685 -2.6534  0.6242 -0.4698
  291MPD2    N1 4396   4.193   4.084   0.582  0.1473  0.4755  0.4010
  291MPD2    H7 4397   4.241   3.998   0.609 -1.8722 -0.7838 -0.0033
  292TMC3    C1 4398   4.002   3.954   0.613 -0.1930  0.5552 -0.9073
  292TMC3    C2 4399   3.917   3.961   0.721  0.5894  0.2582  0.8681
  292TMC3    C3 4400   3.859   3.849   0.767 -0.4108  0.0920  0.1302
  292TMC3    C4 4401   4.039   3.841   0.556 -0.0521  0.2592  0.3059
  292TMC3    C5 4402   3.972   3.727   0.604  0.7415  0.1314  0.0929
  292TMC3    C6 4403   3.879   3.729   0.707 -0.8680  0.1654 -0.5138
  292TMC3     C 4404   4.056   4.085   0.579  1.0673  0.6242 -0.1968
  292TMC3     O 4405   3.974   4.177   0.575 -0.2696  0.1989  0.3654
  292TMC3     H 4406   3.889   4.060   0.755  0.1339  0.1471  0.8161
  292TMC3    H1 4407   4.090   3.834   0.460 -2.9674  0.4345 -1.2728
  292TMC3    H2 4408   3.833   3.641   0.751  0.1690  0.3835  0.9783
  292TMC3    C7 4409   3.968   3.616   0.507 -0.4845  0.3679  0.4440
  292TMC3    C8 4410   3.760   3.870   0.866  0.3158  0.9344  0.3546
  292TMC3    O1 4411   4.058   3.608   0.425  0.1470  0.2838  0.4002
  292TMC3    O2 4412   3.721   3.988   0.869 -0.6304 -0.2071 -0.7849
  293MPD2     C 4413   1.413   1.131  12.782  0.3177  0.6293 -0.4250
  293MPD2    C1 4414   1.379   1.006  12.821  0.8161 -0.0605  0.1645
  293MPD2    C2 4415   1.371   0.982  12.954  0.7829  0.6938  0.2243
  293MPD2    C3 4416   1.377   1.086  13.047  0.4976  0.2674 -0.4331
  293MPD2    C4 4417   1.389   1.217  13.002  0.3237  0.3574  0.2679
  293MPD2    C5 4418   1.413   1.241  12.867  0.1614 -0.3937  0.0951
  293MPD2     H 4419   1.356   0.881  12.991  0.9186  1.0115  1.1253
  293MPD2    H1 4420   1.389   1.300  13.072  0.5595 -1.0536  1.9588
  293MPD2    H2 4421   1.410   1.157  12.677  0.2331 -0.0805 -0.5982
  293MPD2    H3 4422   1.422   1.340  12.822 -0.3745 -0.1752  0.4700
  293MPD2     N 4423   1.363   1.051  13.185 -0.1592 -0.0178 -0.2323
  293MPD2    H5 4424   1.351   0.954  13.212  1.0867 -0.5467 -1.5594
  293MPD2    N1 4425   1.354   0.906  12.720 -0.0552  0.4843  0.4905
  293MPD2    H7 4426   1.381   0.926  12.624  1.4431 -3.2112  0.1306
  294TMC3    C1 4427   1.299   0.707  12.622  0.3734 -0.0465 -0.1421
  294TMC3    C2 4428   1.187   0.629  12.592  0.0826  0.0039 -0.9392
  294TMC3    C3 4429   1.164   0.580  12.468  0.2392  0.9119  0.2842
  294TMC3    C4 4430   1.391   0.728  12.525  0.2700 -0.6047 -0.6781
  294TMC3    C5 4431   1.380   0.656  12.407  0.0154 -0.4732 -0.8880
  294TMC3    C6 4432   1.261   0.593  12.364 -0.4211  0.7627  0.6401
  294TMC3     C 4433   1.301   0.779  12.749 -0.8345  0.2304  0.7414
  294TMC3     O 4434   1.239   0.734  12.849  0.1885 -0.3816 -0.3255
  294TMC3     H 4435   1.105   0.630  12.663  0.1209 -2.7813 -0.8829
  294TMC3    H1 4436   1.479   0.787  12.548  0.1175 -0.5091 -0.3452
  294TMC3    H2 4437   1.256   0.559  12.262 -0.4690  1.0115  0.5585
  294TMC3    C7 4438   1.472   0.705  12.303 -0.1342 -0.5599  0.6274
  294TMC3    C8 4439   1.026   0.545  12.434 -0.5512  0.5004 -0.4563
  294TMC3    O1 4440   1.524   0.811  12.335 -0.2362  0.5911 -0.2618
  294TMC3    O2 4441   0.941   0.564  12.517  0.2719 -0.2154  1.2686
  295MPD2     C 4442   1.574   4.313   0.764  0.6602  0.0359 -0.3614
  295MPD2    C1 4443   1.683   4.227   0.751  0.4902 -0.3424 -0.5815
  295MPD2    C2 4444   1.690   4.130   0.845 -0.0749 -0.2750 -0.7272
  295MPD2    C3 4445   1.597   4.107   0.938 -0.0991  0.6012 -0.1823
  295MPD2    C4 4446   1.482   4.187   0.947 -0.2737  0.0709  0.2056
  295MPD2    C5 4447   1.467   4.286   0.857  0.2629 -0.0145  0.2457
  295MPD2     H 4448   1.774   4.064   0.829 -0.1346 -0.3180 -0.8605
  295MPD2    H1 4449   1.401   4.160   1.013 -1.1213  2.3855  0.1189
  295MPD2    H2 4450   1.547   4.397   0.701  0.2769 -0.1132 -0.3963
  295MPD2    H3 4451   1.382   4.353   0.851  1.2732  1.3312  0.8949
  295MPD2     N 4452   1.610   4.006   1.039  0.3566  0.2081  0.8113
  295MPD2    H5 4453   1.526   3.979   1.088  1.0273  0.3256  2.0148
  295MPD2    N1 4454   1.785   4.241   0.654  0.7595  0.2375  0.0801
  295MPD2    H7 4455   1.867   4.181   0.653  1.0071  0.5537  1.0161
  296TMC3    C1 4456   1.698   3.835   1.175 -0.0916 -0.2732 -0.0233
  296TMC3    C2 4457   1.592   3.852   1.270 -0.0146 -0.0997  0.1169
  296TMC3    C3 4458   1.585   3.773   1.380  0.0208  0.4049 -0.6138
  296TMC3    C4 4459   1.786   3.732   1.198 -0.1905 -0.1635  0.7445
  296TMC3    C5 4460   1.774   3.652   1.309 -0.7774  0.4073 -0.2463
  296TMC3    C6 4461   1.671   3.666   1.399 -0.1315 -0.0376 -0.4506
  296TMC3     C 4462   1.724   3.925   1.064  0.1250 -0.3840  0.0538
  296TMC3     O 4463   1.831   3.916   1.004 -0.2784 -0.9806  0.4278
  296TMC3     H 4464   1.521   3.932   1.255 -1.0816 -1.1526 -0.4945
  296TMC3    H1 4465   1.869   3.709   1.131  0.7743  1.6167  1.3373
  296TMC3    H2 4466   1.668   3.612   1.492 -2.6986  0.3815 -0.2804
  296TMC3    C7 4467   1.884   3.557   1.326  0.3917  0.7417 -0.3500
  296TMC3    C8 4468   1.475   3.782   1.481 -0.1016 -1.0370 -0.4658
  296TMC3    O1 4469   1.976   3.573   1.247  0.2396 -0.4663  0.6669
  296TMC3    O2 4470   1.463   3.688   1.557  0.7310  0.5772 -0.2990
  297MPD2     C 4471   3.687   1.486  16.511 -0.8247  0.2374 -0.7264
  297MPD2    C1 4472   3.611   1.572  16.435  0.2955  0.1167 -0.2630
  297MPD2    C2 4473   3.675   1.683  16.380  0.1201  0.0890  0.4675
  297MPD2    C3 4474   3.805   1.717  16.412 -0.9061 -0.1193  0.1943
  297MPD2    C4 4475   3.877   1.635  16.494 -0.4541 -0.8714  0.3577
  297MPD2    C5 4476   3.817   1.522  16.545  0.2531 -0.4727  0.9747
  297MPD2     H 4477   3.623   1.754  16.316  0.6538  0.1375  0.0832
  297MPD2    H1 4478   3.977   1.665  16.525 -0.1634 -0.3042 -1.1511
  297MPD2    H2 4479   3.650   1.395  16.557  1.4512 -1.1966 -1.7604
  297MPD2    H3 4480   3.871   1.468  16.623  0.9248 -1.0225  0.1333
  297MPD2     N 4481   3.855   1.838  16.355  0.6399  0.1659  0.2193
  297MPD2    H5 4482   3.791   1.901  16.308  2.1923  0.2225 -1.8085
  297MPD2    N1 4483   3.489   1.533  16.389  0.1530 -0.7220 -0.7038
  297MPD2    H7 4484   3.464   1.581  16.304 -0.0105  2.8131  1.3449
  298TMC3    C1 4485   3.292   1.417  16.361 -0.2236 -0.0098  0.1603
  298TMC3    C2 4486   3.312   1.425  16.220  0.0317 -0.4652 -0.1389
  298TMC3    C3 4487   3.202   1.467  16.149 -0.6817 -0.1516  0.2449
  298TMC3    C4 4488   3.180   1.465  16.424  0.6035 -0.0849 -0.0962
  298TMC3    C5 4489   3.075   1.511  16.352  0.6176  0.4817  0.2877
  298TMC3    C6 4490   3.088   1.513  16.212  0.3104  0.2930 -0.9193
  298TMC3     C 4491   3.413   1.431  16.439 -0.3522  0.6685 -0.0292
  298TMC3     O 4492   3.403   1.389  16.553  0.3901  0.1972 -0.3246
  298TMC3     H 4493   3.406   1.391  16.179 -0.6534 -1.8488 -0.5556
  298TMC3    H1 4494   3.180   1.496  16.528 -1.9835 -2.6533  0.6546
  298TMC3    H2 4495   3.012   1.538  16.139 -1.4140  0.6132  0.9799
  298TMC3    C7 4496   2.984   1.607  16.411  0.9805 -0.4806  0.3412
  298TMC3    C8 4497   3.219   1.491  16.002 -0.4317 -0.1718 -0.1983
  298TMC3    O1 4498   2.993   1.624  16.535  0.2161 -0.0385 -0.3723
  298TMC3    O2 4499   3.143   1.563  15.948 -0.0273 -0.5022 -0.2981
  299MPD2     C 4500   0.184   1.249  10.488 -0.4276 -1.0609  0.4873
  299MPD2    C1 4501   0.100   1.286  10.588 -0.3741  0.4625 -0.4502
  299MPD2    C2 4502   4.691   1.301  10.559 -0.6829  0.1927  0.2673
  299MPD2    C3 4503   4.639   1.270  10.432  0.3031  0.0840  0.5918
  299MPD2    C4 4504   0.003   1.237  10.333 -0.4455  0.0815  0.1300
  299MPD2    C5 4505   0.144   1.225  10.360 -0.0625  0.6442  0.8060
  299MPD2     H 4506   4.623   1.351  10.627 -1.6258  0.0216 -0.5452
  299MPD2    H1 4507   4.694   1.219  10.232  1.6066 -0.8393 -0.4126
  299MPD2    H2 4508   0.286   1.232  10.521  0.6284  0.2136 -2.1713
  299MPD2    H3 4509   0.208   1.184  10.283 -1.2448 -3.3531  1.9569
  299MPD2     N 4510   4.500   1.283  10.403 -0.5104  0.2891 -0.1855
  299MPD2    H5 4511   4.475   1.269  10.305 -1.5323  1.1978 -0.0456
  299MPD2    N1 4512   0.158   1.307  10.717  0.1969  0.5209 -0.1925
  299MPD2    H7 4513   0.259   1.312  10.723  0.4642 -1.8758 -2.7088
  300TMC3    C1 4514   4.264   1.276  10.425 -0.6412 -0.0752  0.0022
  300TMC3    C2 4515   4.246   1.359  10.319 -0.0928  0.0871  0.4981
  300TMC3    C3 4516   4.122   1.363  10.263  0.0632 -0.3229  1.7704
  300TMC3    C4 4517   4.160   1.201  10.485 -0.2769  0.0919  0.6193
  300TMC3    C5 4518   4.042   1.212  10.431  0.1099 -0.6421  0.2738
  300TMC3    C6 4519   4.017   1.288  10.316  0.0649 -0.8983  0.3669
  300TMC3     C 4520   4.393   1.277  10.490 -0.6789  0.4448  0.0705
  300TMC3     O 4521   4.393   1.259  10.609  0.0858 -0.4343  0.0422
  300TMC3     H 4522   4.326   1.427  10.292 -0.5712  0.6884  0.6077
  300TMC3    H1 4523   4.178   1.129  10.564 -0.4527 -2.4893 -1.7131
  300TMC3    H2 4524   3.921   1.278  10.265  0.3080 -1.1674 -0.0446
  300TMC3    C7 4525   3.939   1.112  10.468  0.7802 -0.2044 -0.0889
  300TMC3    C8 4526   4.087   1.472  10.176  0.4415 -0.6235 -0.3268
  300TMC3    O1 4527   3.896   1.038  10.379  0.3947 -0.0263 -0.0385
  300TMC3    O2 4528   4.169   1.560  10.151  0.2907 -0.0541  0.3732
  301MPD2     C 4529   2.410   2.665   1.586 -0.0577  0.0123  0.9387
  301MPD2    C1 4530   2.285   2.606   1.574 -0.5523  0.0423 -0.0126
  301MPD2    C2 4531   2.271   2.469   1.569  0.5107 -0.7164 -0.8909
  301MPD2    C3 4532   2.388   2.387   1.575  0.0680 -0.0993  0.3565
  301MPD2    C4 4533   2.512   2.450   1.586  0.9267 -0.2351 -0.3207
  301MPD2    C5 4534   2.520   2.588   1.594 -0.6509  0.0095  0.3800
  301MPD2     H 4535   2.173   2.424   1.552  0.2413 -0.1705 -0.7829
  301MPD2    H1 4536   2.602   2.389   1.590 -0.1231 -1.7112  0.8907
  301MPD2    H2 4537   2.438   2.770   1.586 -0.9624  0.2478  0.6897
  301MPD2    H3 4538   2.613   2.640   1.613 -0.8065 -0.0940  1.4225
  301MPD2     N 4539   2.381   2.241   1.583  0.1296  0.6040  0.4396
  301MPD2    H5 4540   2.463   2.190   1.613  1.6931  0.9439 -3.1924
  301MPD2    N1 4541   2.161   2.679   1.574 -0.2825  0.4728 -0.0428
  301MPD2    H7 4542   2.075   2.626   1.562  1.2992 -2.4151  1.2150
  302TMC3    C1 4543   2.288   2.017   1.584  0.1988  0.6001 -0.1265
  302TMC3    C2 4544   2.408   1.961   1.569  0.2168  0.7181  0.0326
  302TMC3    C3 4545   2.422   1.822   1.550 -0.1216  0.2591 -0.5886
  302TMC3    C4 4546   2.176   1.935   1.572  0.6153  0.0875 -1.1196
  302TMC3    C5 4547   2.196   1.803   1.547 -0.8979 -0.4828  0.1615
  302TMC3    C6 4548   2.315   1.738   1.543 -0.3429  0.4321 -0.2612
  302TMC3     C 4549   2.265   2.164   1.562 -0.0238 -0.1182 -0.4656
  302TMC3     O 4550   2.151   2.190   1.531 -0.2968 -0.2868  0.2484
  302TMC3     H 4551   2.498   2.022   1.565  0.1816  0.7835  0.2878
  302TMC3    H1 4552   2.078   1.979   1.590  0.7593  0.6412 -1.6833
  302TMC3    H2 4553   2.323   1.630   1.535 -0.5003  0.5500 -1.9895
  302TMC3    C7 4554   2.115   1.759   1.439  0.1289  0.1373  0.7871
  302TMC3    C8 4555   2.558   1.772   1.520 -0.1114  0.2528  0.8020
  302TMC3    O1 4556   2.136   1.641   1.416 -0.0789 -0.2301 -0.2598
  302TMC3    O2 4557   2.643   1.846   1.474 -0.1236  0.4189  0.5539
  303MPD2     C 4558   2.458   0.590  10.915  0.4427  0.0592 -0.2728
  303MPD2    C1 4559   2.358   0.515  10.862 -0.2567  0.3560  0.0707
  303MPD2    C2 4560   2.361   0.473  10.732  0.1883  0.0806  0.0594
  303MPD2    C3 4561   2.468   0.508  10.651  0.1965 -0.4399  0.2180
  303MPD2    C4 4562   2.569   0.587  10.706  0.4155  0.3110  0.0982
  303MPD2    C5 4563   2.559   0.628  10.834 -0.0982  0.0559  0.4895
  303MPD2     H 4564   2.287   0.402  10.696  0.4910  0.3545 -1.0996
  303MPD2    H1 4565   2.655   0.623  10.651  0.1206  0.1676 -0.4528
  303MPD2    H2 4566   2.453   0.634  11.014 -1.7202 -2.7797  0.8979
  303MPD2    H3 4567   2.636   0.698  10.865  1.5207 -1.7405  0.4937
  303MPD2     N 4568   2.490   0.464  10.514  0.0240 -0.2384  0.1017
  303MPD2    H5 4569   2.561   0.509  10.457 -1.6221  0.0334 -1.7038
  303MPD2    N1 4570   2.260   0.463  10.955  0.2354  0.2417  0.0596
  303MPD2    H7 4571   2.277   0.484  11.053 -0.5604  0.9632  0.0398
  304TMC3    C1 4572   2.062   0.369  11.041 -0.7008  0.1181 -0.1338
  304TMC3    C2 4573   1.924   0.371  11.032 -0.4723 -0.0845 -0.1967
  304TMC3    C3 4574   1.851   0.270  11.084 -0.3267 -0.7890  0.1955
  304TMC3    C4 4575   2.123   0.265  11.106 -0.2910 -0.1422  0.2475
  304TMC3    C5 4576   2.045   0.164  11.160 -0.9811  0.1513  0.4290
  304TMC3    C6 4577   1.907   0.180  11.159  0.8931 -0.5482  0.1610
  304TMC3     C 4578   2.130   0.432  10.926 -0.4520  0.4583 -0.0560
  304TMC3     O 4579   2.080   0.418  10.815  1.0263  0.2630  0.7198
  304TMC3     H 4580   1.879   0.436  10.958  0.1707 -0.8222 -1.2433
  304TMC3    H1 4581   2.231   0.262  11.100 -0.3382  1.5004 -1.4755
  304TMC3    H2 4582   1.843   0.101  11.196 -1.1070  0.2752 -1.5791
  304TMC3    C7 4583   2.089   0.034  11.135  0.3823 -1.4134  0.7530
  304TMC3    C8 4584   1.753   0.218  10.992  0.0864 -0.0884  0.4238
  304TMC3    O1 4585   2.002   4.683  11.100  0.2466  0.2384  0.2679
  304TMC3    O2 4586   1.686   0.298  10.922 -0.1549 -0.3155  0.2106
  305MPD2     C 4587   4.360   2.840  14.206 -0.2538  0.1205 -0.0715
  305MPD2    C1 4588   4.478   2.880  14.149 -0.3519 -0.4884 -0.7764
  305MPD2    C2 4589   4.507   2.841  14.018 -0.0484 -0.2181 -0.0222
  305MPD2    C3 4590   4.423   2.755  13.949  0.0069 -0.5166 -0.4702
  305MPD2    C4 4591   4.310   2.706  14.010  0.8781  0.5000 -0.2124
  305MPD2    C5 4592   4.278   2.754  14.137 -0.9276  0.3498  0.0467
  305MPD2     H 4593   4.603   2.874  13.979 -0.0697 -2.0982 -1.6651
  305MPD2    H1 4594   4.242   2.639  13.959  1.2832 -1.2169  1.4657
  305MPD2    H2 4595   4.324   2.883  14.299 -1.4639 -3.1276  0.9632
  305MPD2    H3 4596   4.193   2.717  14.194  1.0306 -1.9327  1.4986
  305MPD2     N 4597   4.451   2.707  13.816 -0.4098 -0.0539 -0.3386
  305MPD2    H5 4598   4.396   2.628  13.783  0.5908 -0.3892 -1.1953
  305MPD2    N1 4599   4.557   2.967  14.227  0.1410  0.1234  0.4139
  305MPD2    H7 4600   4.518   3.001  14.314  2.0737  1.7967  0.6229
  306TMC3    C1 4601   0.022   3.086  14.311  0.3205 -0.1260 -0.8434
  306TMC3    C2 4602   0.155   3.062  14.314  0.1810 -0.2220 -0.1168
  306TMC3    C3 4603   0.222   3.076  14.432 -0.3760 -1.3928  0.0057
  306TMC3    C4 4604   4.679   3.144  14.418 -0.5582 -0.0610 -0.1972
  306TMC3    C5 4605   0.026   3.165  14.534 -0.1534  0.6859  0.0410
  306TMC3    C6 4606   0.158   3.123  14.543  0.4138  0.0617 -0.0063
  306TMC3     C 4607   4.684   3.006  14.203  0.6603 -0.3998 -0.2891
  306TMC3     O 4608   0.026   2.988  14.104 -0.1390  0.0157  0.0768
  306TMC3     H 4609   0.204   3.019  14.228 -1.4264 -2.4409  0.1026
  306TMC3    H1 4610   4.572   3.163  14.412 -0.9171 -2.0944 -0.1131
  306TMC3    H2 4611   0.206   3.130  14.640 -1.1800 -1.4831  0.9124
  306TMC3    C7 4612   4.682   3.239  14.639 -0.9047 -1.0391 -0.2805
  306TMC3    C8 4613   0.335   2.983  14.456  0.1591 -0.3405 -0.1549
  306TMC3    O1 4614   4.586   3.311  14.606  0.0408 -0.5503  0.1311
  306TMC3    O2 4615   0.402   2.966  14.356 -0.4407  0.1411 -0.0448
  307MPD2     C 4616   2.387   0.247   0.558 -0.3215  0.3272  0.0059
  307MPD2    C1 4617   2.264   0.279   0.502  0.4586 -0.0759  0.6630
  307MPD2    C2 4618   2.148   0.285   0.581 -0.4003 -0.2497 -0.1004
  307MPD2    C3 4619   2.153   0.243   0.711  0.5604 -0.2957  0.1379
  307MPD2    C4 4620   2.278   0.203   0.764  0.9053 -0.0168 -0.6294
  307MPD2    C5 4621   2.397   0.204   0.688  0.3406  0.6981  0.4788
  307MPD2     H 4622   2.058   0.327   0.539  1.0360  1.1723 -1.7822
  307MPD2    H1 4623   2.286   0.170   0.867 -0.6290 -0.6674 -0.7334
  307MPD2    H2 4624   2.479   0.255   0.501  0.1528  2.0904  1.0086
  307MPD2    H3 4625   2.496   0.182   0.726 -0.4145 -2.0657  0.7995
  307MPD2     N 4626   2.039   0.250   0.783 -0.1622  0.0421 -0.3861
  307MPD2    H5 4627   1.956   0.279   0.732 -0.8374 -3.7964 -1.5106
  307MPD2    N1 4628   2.256   0.324   0.368  0.6223 -0.0813  0.0352
  307MPD2    H7 4629   2.162   0.344   0.336  0.4801 -1.0337 -0.1447
  308TMC3    C1 4630   1.699   0.376   0.879  0.0869 -0.7164 -0.0698
  308TMC3    C2 4631   1.696   0.492   0.945  0.0132  0.0735 -0.2944
  308TMC3    C3 4632   1.791   0.510   1.036 -0.2754 -0.4011  0.4061
  308TMC3    C4 4633   1.800   0.287   0.882  0.3366  0.1064 -0.1020
  308TMC3    C5 4634   1.903   0.313   0.965 -0.1916 -0.8343 -0.2046
  308TMC3    C6 4635   1.902   0.429   1.044 -0.4981  0.1013 -0.5702
  308TMC3     C 4636   1.574   0.337   0.801  0.2951 -0.8248  0.1352
  308TMC3     O 4637   1.539   0.223   0.785 -0.1758  0.1249 -0.1718
  308TMC3     H 4638   1.607   0.554   0.948  1.8180  2.6395  0.3408
  308TMC3    H1 4639   1.786   0.195   0.827 -3.4635  1.5145 -1.4688
  308TMC3    H2 4640   1.972   0.445   1.124 -1.6745  2.8164 -0.0898
  308TMC3    C7 4641   2.033   0.258   0.920 -0.2183  0.7582  0.1457
  308TMC3    C8 4642   1.819   0.645   1.084 -0.8808 -1.0015 -0.8863
  308TMC3    O1 4643   2.123   0.255   0.999 -0.5677 -0.2792  0.2126
  308TMC3    O2 4644   1.906   0.660   1.167  0.1769  0.2630 -1.0784
  309MPD2     C 4645   1.641   0.986  17.046 -0.1275 -0.2956  0.5626
  309MPD2    C1 4646   1.604   1.086  16.962 -0.1408 -0.0072  0.4842
  309MPD2    C2 4647   1.484   1.153  16.972  0.3725  0.0924 -0.7872
  309MPD2    C3 4648   1.408   1.141  17.087 -0.3517  0.3370 -0.2484
  309MPD2    C4 4649   1.447   1.041  17.169 -0.0817 -0.2201  0.1054
  309MPD2    C5 4650   1.553   0.961  17.151  0.3015  0.0691  0.0473
  309MPD2     H 4651   1.453   1.210  16.885 -1.6011  1.1681  0.6280
  309MPD2    H1 4652   1.387   1.024  17.258 -0.5237 -1.4874 -0.4424
  309MPD2    H2 4653   1.729   0.924  17.029  0.7632  0.5268  2.1975
  309MPD2    H3 4654   1.570   0.876  17.216  0.7762  0.2543  0.1632
  309MPD2     N 4655   1.285   1.200  17.111  0.2359  0.0659 -0.3386
  309MPD2    H5 4656   1.228   1.166  17.188 -0.8124  1.9629 -0.2633
  309MPD2    N1 4657   1.685   1.113  16.845 -0.4405 -0.1361 -0.1159
  309MPD2    H7 4658   1.649   1.187  16.785 -0.2552 -0.0156 -0.0786
  310TMC3    C1 4659   1.863   1.134  16.689 -0.3689 -0.1914 -0.5278
  310TMC3    C2 4660   1.790   1.222  16.616  0.5206  0.0367  0.8434
  310TMC3    C3 4661   1.852   1.291  16.517  0.2164 -0.6907  0.0382
  310TMC3    C4 4662   1.989   1.097  16.654  0.5530 -0.0358  0.5400
  310TMC3    C5 4663   2.050   1.164  16.555  0.0220  0.3998  0.4564
  310TMC3    C6 4664   1.986   1.270  16.494 -0.1109 -0.9751  1.1400
  310TMC3     C 4665   1.802   1.061  16.802 -0.3734 -0.3939 -0.3100
  310TMC3     O 4666   1.868   0.965  16.840  1.1361 -0.6068 -0.7576
  310TMC3     H 4667   1.690   1.254  16.645  0.4649  0.4312  0.2018
  310TMC3    H1 4668   2.041   1.020  16.709 -0.2375  1.1389  2.9580
  310TMC3    H2 4669   2.034   1.314  16.408 -1.0325  1.6568  1.9586
  310TMC3    C7 4670   2.191   1.117  16.523 -0.4948 -0.4147 -0.2882
  310TMC3    C8 4671   1.785   1.413  16.473 -0.1949 -0.3764  0.1735
  310TMC3    O1 4672   2.221   1.013  16.580  1.0561  0.4017 -0.5068
  310TMC3    O2 4673   1.663   1.423  16.475  0.2932  0.3333  0.7092
  311MPD2     C 4674   3.837   2.322  13.012 -0.8461 -0.7200  0.2898
  311MPD2    C1 4675   3.816   2.451  12.974 -0.4242  0.1412  0.4833
  311MPD2    C2 4676   3.690   2.505  13.010  0.7989 -0.1482 -0.2556
  311MPD2    C3 4677   3.600   2.445  13.092 -0.0003 -0.1215  0.3084
  311MPD2    C4 4678   3.620   2.313  13.132  0.2223 -0.4723 -0.3131
  311MPD2    C5 4679   3.743   2.263  13.091 -0.2637  0.6771 -0.2474
  311MPD2     H 4680   3.680   2.612  12.994  0.8058  0.0136  0.8140
  311MPD2    H1 4681   3.545   2.256  13.187 -0.0092 -0.1314 -0.2749
  311MPD2    H2 4682   3.926   2.272  12.976  0.5830  1.3262  0.9929
  311MPD2    H3 4683   3.770   2.161  13.117  0.1790  0.5941 -1.0217
  311MPD2     N 4684   3.471   2.496  13.103  0.3726  0.6874 -0.5794
  311MPD2    H5 4685   3.465   2.585  13.055  4.0211  0.0732 -2.2120
  311MPD2    N1 4686   3.904   2.532  12.903 -0.7358 -0.2695 -0.1355
  311MPD2    H7 4687   3.882   2.630  12.893  2.5929  0.6408  1.2882
  312TMC3    C1 4688   3.249   2.541  13.157  0.6006  0.4509 -0.4895
  312TMC3    C2 4689   3.203   2.582  13.036 -0.1578  0.2009  0.4011
  312TMC3    C3 4690   3.098   2.671  13.030  0.3060 -0.2068 -0.0565
  312TMC3    C4 4691   3.187   2.579  13.279 -0.1128 -0.5817 -0.1782
  312TMC3    C5 4692   3.077   2.659  13.264  0.2834  0.5080  0.1276
  312TMC3    C6 4693   3.032   2.706  13.145  0.0625 -1.0118  0.4039
  312TMC3     C 4694   3.358   2.445  13.158  0.1698  0.8285  0.0305
  312TMC3     O 4695   3.340   2.344  13.225  0.0703  0.4144 -0.3597
  312TMC3     H 4696   3.235   2.528  12.947  0.3208 -0.8100  1.1886
  312TMC3    H1 4697   3.216   2.529  13.371 -0.3201  0.1587  0.2900
  312TMC3    H2 4698   2.939   2.758  13.125  0.9659  1.0798  1.7238
  312TMC3    C7 4699   2.980   2.655  13.368  0.2422 -0.7196  0.0711
  312TMC3    C8 4700   3.006   2.631  12.936  0.4709 -0.0918  0.1784
  312TMC3    O1 4701   2.862   2.633  13.334 -0.4621 -0.2404  0.3114
  312TMC3    O2 4702   2.974   2.513  12.937  0.0980 -0.1292  0.1120
  313MPD2     C 4703   3.659   1.392  10.620  0.5147  0.6576 -0.0029
  313MPD2    C1 4704   3.550   1.350  10.695  0.7507 -0.3873 -0.6239
  313MPD2    C2 4705   3.473   1.251  10.643  0.7376 -0.0415 -0.2781
  313MPD2    C3 4706   3.485   1.215  10.510  0.0371  0.7631 -0.1987
  313MPD2    C4 4707   3.592   1.262  10.437 -0.0074  0.3628 -0.3944
  313MPD2    C5 4708   3.680   1.352  10.489 -0.0803 -0.3766 -0.2204
  313MPD2     H 4709   3.390   1.202  10.693 -2.6482  3.3147 -2.5716
  313MPD2    H1 4710   3.607   1.231  10.334 -0.2391  1.6624 -0.8206
  313MPD2    H2 4711   3.732   1.454  10.671 -0.3513  0.2805  1.6885
  313MPD2    H3 4712   3.768   1.379  10.430 -1.7890 -1.8609 -3.4531
  313MPD2     N 4713   3.389   1.132  10.448 -0.3130  0.0439 -0.5792
  313MPD2    H5 4714   3.325   1.090  10.515 -2.4903  4.3074  0.0024
  313MPD2    N1 4715   3.526   1.384  10.830  0.0779 -0.0232 -0.4221
  313MPD2    H7 4716   3.461   1.329  10.886  1.1103 -0.4553  0.3598
  314TMC3    C1 4717   3.538   1.521  11.016  0.6992 -0.4977 -0.0031
  314TMC3    C2 4718   3.634   1.602  11.080  0.4203  1.0676 -0.2453
  314TMC3    C3 4719   3.585   1.725  11.122 -0.2273 -0.1371  0.0665
  314TMC3    C4 4720   3.406   1.560  11.006  0.1050 -0.1915  0.5824
  314TMC3    C5 4721   3.364   1.674  11.069 -0.2656  0.0651  0.7385
  314TMC3    C6 4722   3.452   1.762  11.121 -0.0119  0.3560 -0.6490
  314TMC3     C 4723   3.594   1.483  10.894 -0.5587 -0.0179  0.6740
  314TMC3     O 4724   3.670   1.570  10.850 -0.0594 -0.5608 -0.5974
  314TMC3     H 4725   3.740   1.585  11.070  0.3017 -1.2019  2.4273
  314TMC3    H1 4726   3.334   1.496  10.956 -0.4555  0.0191  1.1215
  314TMC3    H2 4727   3.420   1.855  11.164  1.2694  1.1247 -1.3460
  314TMC3    C7 4728   3.256   1.734  10.994  0.4536  0.0898  0.3049
  314TMC3    C8 4729   3.675   1.837  11.158 -0.0037 -0.0707 -0.2090
  314TMC3    O1 4730   3.155   1.669  10.965 -0.2358  0.2195  0.1120
  314TMC3    O2 4731   3.617   1.939  11.196  0.2897 -0.1540  0.5209
  315MPD2     C 4732   2.913   1.274   0.400  0.0020  0.4184 -0.2197
  315MPD2    C1 4733   3.051   1.280   0.433 -0.1827  0.3332 -0.1184
  315MPD2    C2 4734   3.114   1.397   0.395 -0.4414  0.0913  0.0059
  315MPD2    C3 4735   3.054   1.492   0.315  0.6263 -0.2253  0.2880
  315MPD2    C4 4736   2.924   1.478   0.279  0.3817  0.1437 -0.4572
  315MPD2    C5 4737   2.853   1.368   0.326  0.3068  0.5803  0.6427
  315MPD2     H 4738   3.217   1.423   0.419  0.0001 -0.8770 -0.8086
  315MPD2    H1 4739   2.867   1.547   0.217  2.1885  3.0126  1.0901
  315MPD2    H2 4740   2.852   1.190   0.430  0.7352  0.5109  1.4901
  315MPD2    H3 4741   2.745   1.370   0.318  0.1933  1.4560  2.3222
  315MPD2     N 4742   3.138   1.594   0.269 -0.3043 -0.6789 -0.1213
  315MPD2    H5 4743   3.235   1.582   0.295  0.7410  2.7608 -2.4418
  315MPD2    N1 4744   3.115   1.185   0.508 -0.5141  1.1696  0.2661
  315MPD2    H7 4745   3.208   1.202   0.545 -0.4854  0.4215  0.5472
  316TMC3    C1 4746   3.202   1.792   0.153 -0.4644  0.2575  0.3794
  316TMC3    C2 4747   3.319   1.799   0.220  0.6804  0.5384 -0.3843
  316TMC3    C3 4748   3.416   1.875   0.166  0.5378 -1.1479 -0.6171
  316TMC3    C4 4749   3.181   1.858   0.034  0.0383 -0.3923 -0.5294
  316TMC3    C5 4750   3.283   1.943  17.692 -0.1270  0.3855 -0.1401
  316TMC3    C6 4751   3.398   1.958   0.060  0.2341 -0.1235  0.1111
  316TMC3     C 4752   3.094   1.708   0.198 -0.1822 -0.3101  0.0400
  316TMC3     O 4753   2.982   1.734   0.161  0.2051 -0.1424  0.0044
  316TMC3     H 4754   3.327   1.739   0.310  0.8370  2.8527  1.1403
  316TMC3    H1 4755   3.083   1.848  17.695  1.5549 -1.7000 -3.6034
  316TMC3    H2 4756   3.477   2.029   0.038 -0.9054  1.4486  1.1136
  316TMC3    C7 4757   3.237   2.059  17.619 -0.1956 -0.8457 -0.5085
  316TMC3    C8 4758   3.533   1.893   0.248  0.3316  0.1000  0.1629
  316TMC3    O1 4759   3.296   2.161  17.650  0.0179 -0.4732 -0.8165
  316TMC3    O2 4760   3.582   2.008   0.253 -0.5631  0.0182  0.0677
  317MPD2     C 4761   0.514   4.242  12.338 -0.2794  0.2790 -0.3910
  317MPD2    C1 4762   0.640   4.197  12.367 -0.8388 -0.7782  0.4828
  317MPD2    C2 4763   0.671   4.184  12.501 -0.2339  0.0492  0.0058
  317MPD2    C3 4764   0.587   4.198  12.605 -0.2150  0.1403 -0.3894
  317MPD2    C4 4765   0.462   4.229  12.567  0.0975  0.3172 -0.1615
  317MPD2    C5 4766   0.423   4.244  12.434 -0.5249 -0.0613 -0.2467
  317MPD2     H 4767   0.773   4.151  12.516 -0.0393  0.7785  0.3042
  317MPD2    H1 4768   0.393   4.242  12.650  2.0312  0.1693  1.4663
  317MPD2    H2 4769   0.469   4.251  12.240  0.6464 -1.4593 -0.9833
  317MPD2    H3 4770   0.319   4.258  12.406 -0.0662 -1.4078 -2.6459
  317MPD2     N 4771   0.624   4.169  12.739 -0.0353 -0.0860  0.0275
  317MPD2    H5 4772   0.718   4.132  12.746 -0.2570 -0.5475  0.5802
  317MPD2    N1 4773   0.738   4.183  12.262 -0.6224  0.1246  0.0357
  317MPD2    H7 4774   0.833   4.158  12.287 -0.5235  1.1380  0.7248
  318TMC3    C1 4775   0.608   4.115  12.968  0.1640 -0.3580 -0.0942
  318TMC3    C2 4776   0.551   3.996  13.002  0.6273 -0.8314 -0.3956
  318TMC3    C3 4777   0.627   3.899  13.061 -0.4648 -0.8668  0.0167
  318TMC3    C4 4778   0.747   4.127  12.981  0.6852  0.0111 -0.2580
  318TMC3    C5 4779   0.824   4.021  13.024 -0.2509  0.5851  0.0592
  318TMC3    C6 4780   0.763   3.898  13.049 -0.6159 -0.3616  0.3235
  318TMC3     C 4781   0.553   4.186  12.856 -0.1310  0.1304 -0.0575
  318TMC3     O 4782   0.450   4.255  12.877  0.6178 -0.3525 -0.5982
  318TMC3     H 4783   0.444   3.983  12.994  0.3421  2.0068 -1.0949
  318TMC3    H1 4784   0.797   4.214  12.940  2.3179 -0.7730  0.0769
  318TMC3    H2 4785   0.823   3.812  13.079  1.5028  0.4426 -1.6215
  318TMC3    C7 4786   0.950   4.006  12.957  0.5740 -0.4982 -0.4624
  318TMC3    C8 4787   0.567   3.771  13.053 -0.2280  0.1291 -0.4066
  318TMC3    O1 4788   0.965   4.054  12.848  0.2817  0.5022  0.5670
  318TMC3    O2 4789   0.625   3.691  12.981 -0.6856  0.1833  0.1044
  319MPD2     C 4790   1.140   0.992  16.860  0.8320 -0.2501 -0.3610
  319MPD2    C1 4791   1.013   0.948  16.836  0.6531 -0.0519 -0.2871
  319MPD2    C2 4792   0.980   0.926  16.698  0.0056 -0.3983  0.0228
  319MPD2    C3 4793   1.057   0.974  16.588  0.5510  0.2083 -0.1380
  319MPD2    C4 4794   1.181   1.016  16.623 -0.8163  0.0480  0.0517
  319MPD2    C5 4795   1.225   1.021  16.757  0.1054  0.1621  0.5030
  319MPD2     H 4796   0.877   0.897  16.682  0.2212 -0.9565 -0.3487
  319MPD2    H1 4797   1.250   1.040  16.543 -1.6981 -1.8397 -1.2710
  319MPD2    H2 4798   1.183   1.003  16.959  1.7684 -1.7255 -0.6003
  319MPD2    H3 4799   1.332   1.030  16.772  0.3587 -1.5789 -0.3202
  319MPD2     N 4800   1.015   0.966  16.456 -0.5476 -0.4192  0.1225
  319MPD2    H5 4801   1.079   1.003  16.385 -0.7642 -2.0483 -0.9148
  319MPD2    N1 4802   0.921   0.898  16.933 -0.6162 -0.2652  0.0330
  319MPD2    H7 4803   0.838   0.852  16.898  0.3924 -1.2555 -1.0168
  320TMC3    C1 4804   0.922   0.877  16.267  0.5561 -0.2030  0.1653
  320TMC3    C2 4805   0.886   0.989  16.192 -0.0299  0.3309  0.2039
  320TMC3    C3 4806   0.824   0.963  16.070  0.0518 -0.0449 -0.4192
  320TMC3    C4 4807   0.895   0.751  16.228 -0.4378 -0.3745 -0.1270
  320TMC3    C5 4808   0.855   0.734  16.098 -0.1571  0.0520  1.0303
  320TMC3    C6 4809   0.822   0.838  16.017  0.2646  0.6634 -0.8429
  320TMC3     C 4810   0.912   0.895  16.412 -0.3747 -0.2390  0.1009
  320TMC3     O 4811   0.834   0.822  16.469 -0.0329  0.0351  0.8327
  320TMC3     H 4812   0.891   1.087  16.238  1.3788  0.3425  0.0374
  320TMC3    H1 4813   0.909   0.665  16.294  0.4238 -0.0705  0.0806
  320TMC3    H2 4814   0.787   0.828  15.914  1.7381  0.3485 -1.3033
  320TMC3    C7 4815   0.858   0.597  16.047 -0.3152  1.3490 -0.3513
  320TMC3    C8 4816   0.738   1.069  16.019 -0.3130  0.1753  0.0855
  320TMC3    O1 4817   0.896   0.506  16.119 -0.2435  0.2113 -0.1679
  320TMC3    O2 4818   0.763   1.187  16.046  0.0251  0.0217  0.1651
  321TMC3    C1 4819   0.843   0.811  17.129 -0.2580 -0.5551 -0.5564
  321TMC3    C2 4820   0.808   0.698  17.053 -0.1809  0.1564 -0.6490
  321TMC3    C3 4821   0.797   0.577  17.126  0.2197 -0.2338  0.1097
  321TMC3    C4 4822   0.858   0.802  17.262 -0.3456  0.1804  0.5092
  321TMC3    C5 4823   0.830   0.690  17.333 -0.0869  0.1167 -0.0738
  321TMC3    C6 4824   0.796   0.575  17.261 -0.1358 -0.6899 -0.8389
  321TMC3     C 4825   0.935   0.907  17.071  0.0452 -0.2404  0.3436
  321TMC3     O 4826   1.015   0.963  17.139 -0.3016  0.0844 -0.6750
  321TMC3     H 4827   0.796   0.696  16.945 -1.6067  1.3815 -0.5129
  321TMC3    H1 4828   0.882   0.891  17.320 -0.9394  0.2929  0.5781
  321TMC3    H2 4829   0.773   0.483  17.314  1.9085  0.2355  1.7057
  321TMC3    C7 4830   0.932   0.666  17.440 -0.1937 -0.1309  0.9393
  321TMC3    C8 4831   0.908   0.484  17.098  0.1112 -0.4522  0.0820
  321TMC3    O1 4832   1.032   0.731  17.421 -0.1344  0.1809  0.2395
  321TMC3    O2 4833   0.949   0.409  17.185 -0.3047 -0.2832  0.6841
  322MPD2     C 4834   4.587   2.245  13.718 -0.6976  0.5440 -0.0269
  322MPD2    C1 4835   4.565   2.246  13.857  0.7302  0.4907  0.6194
  322MPD2    C2 4836   4.515   2.142  13.925 -0.5301 -0.7591 -0.0797
  322MPD2    C3 4837   4.488   2.023  13.861 -0.3517 -0.3730  0.0009
  322MPD2    C4 4838   4.539   2.012  13.730 -0.3244  0.3027 -0.6090
  322MPD2    C5 4839   4.575   2.122  13.659  0.1745  0.4281  0.3422
  322MPD2     H 4840   4.496   2.143  14.031 -0.0806 -1.6836  0.0084
  322MPD2    H1 4841   4.539   1.923  13.668 -2.9301 -0.7038  0.8391
  322MPD2    H2 4842   4.614   2.336  13.664  0.7225  0.7579  1.0450
  322MPD2    H3 4843   4.589   2.111  13.552 -0.4962 -1.0731  0.4083
  322MPD2     N 4844   4.454   1.910  13.932  0.2829  0.4538  0.7696
  322MPD2    H5 4845   4.448   1.922  14.033 -0.5555  0.4495  0.7165
  322MPD2    N1 4846   4.621   2.362  13.912 -0.2785  0.2537  0.3729
  322MPD2    H7 4847   4.684   2.410  13.849  0.0047  1.4580  1.5827
  323TMC3    C1 4848   4.672   2.516  14.098  0.3570  0.3598 -0.1499
  323TMC3    C2 4849   0.024   2.602  14.028  0.1864 -0.0450  0.5382
  323TMC3    C3 4850   0.109   2.689  14.095 -0.3861  0.3958 -0.3183
  323TMC3    C4 4851   4.688   2.500  14.237  0.0436 -0.0812  0.1686
  323TMC3    C5 4852   0.053   2.583  14.297  0.1256 -0.8452 -0.4167
  323TMC3    C6 4853   0.132   2.675  14.230  0.0898  0.2358  0.3731
  323TMC3     C 4854   4.593   2.404  14.043 -0.1914  0.2914  0.4595
  323TMC3     O 4855   4.516   2.345  14.111 -0.0597 -0.2203 -0.1035
  323TMC3     H 4856   0.022   2.596  13.920  0.5980  1.9172  0.4209
  323TMC3    H1 4857   4.627   2.435  14.298 -1.1638  1.0991  0.2011
  323TMC3    H2 4858   0.201   2.737  14.286  1.3775 -1.6573  0.9041
  323TMC3    C7 4859   0.097   2.528  14.426 -0.7682  0.1717 -0.1701
  323TMC3    C8 4860   0.225   2.737  14.018  0.6687 -0.2266  0.0559
  323TMC3    O1 4861   0.011   2.484  14.499  1.0385 -0.0714 -0.3442
  323TMC3    O2 4862   0.340   2.725  14.064  0.4656  0.5740 -0.4750
  324MPD2     C 4863   1.776   3.690  14.875 -0.4967  0.2998  0.0088
  324MPD2    C1 4864   1.805   3.702  14.739 -0.7424 -0.2782  0.4473
  324MPD2    C2 4865   1.697   3.755  14.667 -0.0529 -0.7871 -0.5020
  324MPD2    C3 4866   1.576   3.795  14.729 -0.0802  0.4692  0.0684
  324MPD2    C4 4867   1.561   3.794  14.859 -0.1557  0.9481 -0.0903
  324MPD2    C5 4868   1.667   3.744  14.927  0.0437 -0.0699 -0.2597
  324MPD2     H 4869   1.714   3.774  14.561  2.3747  0.0819  0.0184
  324MPD2    H1 4870   1.473   3.823  14.916  0.6852  0.2866  1.5594
  324MPD2    H2 4871   1.835   3.622  14.935  0.1513 -0.4701 -1.4875
  324MPD2    H3 4872   1.653   3.723  15.033 -0.3548  1.8777  0.0661
  324MPD2     N 4873   1.462   3.849  14.655 -0.0567 -0.0060  0.4262
  324MPD2    H5 4874   1.390   3.898  14.707 -1.7956  0.1041 -2.0710
  324MPD2    N1 4875   1.925   3.658  14.675 -0.3431  0.4278  0.2233
  324MPD2    H7 4876   1.916   3.665  14.574  0.1569  2.2459  0.3132
  325TMC3    C1 4877   1.330   3.925  14.469  1.0164 -0.4589  0.0168
  325TMC3    C2 4878   1.274   3.852  14.363  0.1817  0.3073  0.3030
  325TMC3    C3 4879   1.146   3.897  14.328  0.2536  0.0635 -0.3669
  325TMC3    C4 4880   1.266   4.026  14.533  0.1067  0.0479  0.2678
  325TMC3    C5 4881   1.149   4.070  14.484 -0.3465 -0.6384 -0.0637
  325TMC3    C6 4882   1.088   4.011  14.379 -0.8302 -0.2820 -0.1250
  325TMC3     C 4883   1.454   3.856  14.517 -0.6806 -0.3035 -0.1032
  325TMC3     O 4884   1.511   3.780  14.433 -0.1431 -0.7854 -0.3005
  325TMC3     H 4885   1.327   3.767  14.321  1.4248  0.5002  1.4628
  325TMC3    H1 4886   1.313   4.069  14.621 -0.3323 -1.8960  1.4329
  325TMC3    H2 4887   1.001   4.055  14.332  0.0821  1.3771 -0.2546
  325TMC3    C7 4888   1.084   4.186  14.555  0.6176 -0.1813  0.7278
  325TMC3    C8 4889   1.078   3.804  14.234 -0.2169 -0.0458  0.2866
  325TMC3    O1 4890   1.166   4.246  14.631  0.1444  0.0512 -0.1740
  325TMC3    O2 4891   1.144   3.720  14.170 -0.2406 -0.1899  0.2383
  326MPD2     C 4892   2.989   4.438  11.219 -0.2710  0.1612 -0.0768
  326MPD2    C1 4893   3.046   4.392  11.103 -0.5880  0.5992 -0.7319
  326MPD2    C2 4894   3.170   4.427  11.056  0.1631  0.3239 -0.3375
  326MPD2    C3 4895   3.246   4.511  11.136 -0.0024  0.0889 -0.2716
  326MPD2    C4 4896   3.194   4.563  11.250  0.1088 -0.6345  0.1729
  326MPD2    C5 4897   3.069   4.527  11.291 -0.4389  0.3542 -0.2224
  326MPD2     H 4898   3.218   4.388  10.967 -0.8898 -0.5480 -0.5234
  326MPD2    H1 4899   3.257   4.626  11.312 -2.7295  0.6999  1.7086
  326MPD2    H2 4900   2.894   4.412  11.265 -1.1910  1.7044 -1.1044
  326MPD2    H3 4901   3.026   4.575  11.378  0.0537 -1.2718  0.9191
  326MPD2     N 4902   3.375   4.564  11.110 -0.6702 -0.1227 -0.1910
  326MPD2    H5 4903   3.416   4.606  11.193 -0.9804 -1.1587  0.4783
  326MPD2    N1 4904   2.979   4.288  11.029  0.2256  0.6155 -0.4700
  326MPD2    H7 4905   3.015   4.250  10.941 -1.0721 -0.4097 -0.5536
  327TMC3    C1 4906   2.817   4.130  10.963  0.0394 -0.3957  0.5455
  327TMC3    C2 4907   2.731   4.177  10.873 -0.3485 -0.5468  0.3763
  327TMC3    C3 4908   2.752   4.148  10.741  0.0385  0.0818  0.1629
  327TMC3    C4 4909   2.925   4.059  10.928 -0.2190 -0.6546  0.2244
  327TMC3    C5 4910   2.949   4.026  10.796  0.2877 -0.0369  0.5371
  327TMC3    C6 4911   2.856   4.072  10.703  0.9182  0.1698  0.5208
  327TMC3     C 4912   2.849   4.241  11.053  0.2991 -0.1477  0.2227
  327TMC3     O 4913   2.751   4.287  11.110 -0.0019 -0.1539 -0.3632
  327TMC3     H 4914   2.655   4.243  10.915 -0.2956  0.0168 -0.4242
  327TMC3    H1 4915   2.997   4.039  11.006 -2.1049 -0.1715  2.0928
  327TMC3    H2 4916   2.886   4.055  10.600  0.7314  1.1019  0.3122
  327TMC3    C7 4917   3.085   4.056  10.747 -0.5054 -0.1638  0.0272
  327TMC3    C8 4918   2.697   4.239  10.644 -0.2231  0.2514 -0.7539
  327TMC3    O1 4919   3.097   4.122  10.646  0.2844  0.0686  0.1780
  327TMC3    O2 4920   2.758   4.256  10.539 -0.1222 -0.2117 -0.5135
  328MPD2     C 4921   0.173   4.473  17.219 -0.4577 -0.0964  0.6252
  328MPD2    C1 4922   0.148   4.354  17.159  1.2801  0.3954  0.5273
  328MPD2    C2 4923   0.049   4.329  17.068  0.0775  0.0174 -0.1224
  328MPD2    C3 4924   4.691   4.435  17.033 -0.9948  0.2905 -0.1264
  328MPD2    C4 4925   4.715   4.562  17.082  0.3724 -0.6315 -1.0047
  328MPD2    C5 4926   0.084   4.570  17.191  0.0361 -1.2189 -0.2287
  328MPD2     H 4927   0.031   4.230  17.026  2.0547  0.0340 -0.9980
  328MPD2    H1 4928   4.646   4.645  17.069 -0.7054 -1.2704  0.5971
  328MPD2    H2 4929   0.245   4.490  17.299  0.6506 -1.7632 -0.0119
  328MPD2    H3 4930   0.100   4.665  17.240 -1.2675 -1.2273  0.2128
  328MPD2     N 4931   4.573   4.413  16.953 -0.0946  0.5474 -0.6209
  328MPD2    H5 4932   4.533   4.492  16.903 -1.9941  1.1280  1.8172
  328MPD2    N1 4933   0.236   4.253  17.202  0.3952 -0.3712  0.1076
  328MPD2    H7 4934   0.308   4.281  17.269  0.0460  2.0778 -0.5301
  329TMC3    C1 4935   0.329   4.063  17.251  0.1428  0.0439 -0.2660
  329TMC3    C2 4936   0.387   4.148  17.347  0.7538 -0.4860  0.6949
  329TMC3    C3 4937   0.391   4.101  17.475 -0.4490  0.3796  0.4630
  329TMC3    C4 4938   0.279   3.937  17.281 -0.2447  0.4512  0.1550
  329TMC3    C5 4939   0.283   3.903  17.417 -0.2759 -0.0430  0.1119
  329TMC3    C6 4940   0.341   3.982  17.513  0.5855  0.4906 -0.0204
  329TMC3     C 4941   0.245   4.129  17.161  0.7333 -0.1092 -0.4330
  329TMC3     O 4942   0.165   4.059  17.102 -0.0670 -0.3826  0.8008
  329TMC3     H 4943   0.453   4.229  17.318  0.8717  0.1770  2.8107
  329TMC3    H1 4944   0.242   3.874  17.201  0.1816  0.0006  0.3192
  329TMC3    H2 4945   0.345   3.942  17.614 -0.1731 -0.4108 -0.3461
  329TMC3    C7 4946   0.232   3.771  17.457  0.0623 -0.3875  0.5014
  329TMC3    C8 4947   0.460   4.179  17.571  0.5038 -0.0977 -0.3439
  329TMC3    O1 4948   0.210   3.750  17.575  0.2294 -0.1995  0.3542
  329TMC3    O2 4949   0.557   4.238  17.529  0.2050  0.9390 -0.1567
  330TMC3    C1 4950   2.771   2.886   9.425  0.8382 -0.0953 -0.9266
  330TMC3    C2 4951   2.717   2.783   9.361  0.8008  0.2583  0.3636
  330TMC3    C3 4952   2.787   2.663   9.364  0.0174 -0.3716 -0.0803
  330TMC3    C4 4953   2.894   2.872   9.489 -0.1271  0.4240 -0.1966
  330TMC3    C5 4954   2.961   2.747   9.489 -0.6518 -0.0925 -0.0402
  330TMC3    C6 4955   2.906   2.644   9.424 -0.0648  0.4174 -0.0112
  330TMC3     C 4956   2.720   3.018   9.426  0.8118 -0.3705  0.7829
  330TMC3     O 4957   2.797   3.108   9.454 -0.0282 -0.0965 -0.2425
  330TMC3     H 4958   2.627   2.787   9.301  2.0904 -0.5966 -1.6769
  330TMC3    H1 4959   2.927   2.953   9.553  0.3915  0.0513  0.0008
  330TMC3    H2 4960   2.968   2.556   9.413  1.6726  1.6386  0.0459
  330TMC3    C7 4961   3.086   2.719   9.558  0.0928 -0.1959  0.3561
  330TMC3    C8 4962   2.748   2.562   9.265 -0.3419 -0.0923  0.5897
  330TMC3    O1 4963   3.106   2.609   9.602  0.4839  0.5361  0.4649
  330TMC3    O2 4964   2.671   2.590   9.174  0.7886 -0.0790  0.0958
  331MPD2     C 4965   0.940   2.405  12.676 -0.0465  0.1327 -0.0007
  331MPD2    C1 4966   1.053   2.421  12.601  0.1708 -0.7955 -0.2455
  331MPD2    C2 4967   1.111   2.310  12.546 -0.0054  0.3094 -0.1156
  331MPD2    C3 4968   1.060   2.187  12.567 -0.6225  1.1502 -0.2609
  331MPD2    C4 4969   0.947   2.173  12.648 -0.4384  0.5027  0.0779
  331MPD2    C5 4970   0.885   2.281  12.702  0.4671  0.0759  0.0779
  331MPD2     H 4971   1.198   2.323  12.482  0.2805  0.9872  0.4142
  331MPD2    H1 4972   0.900   2.076  12.656 -0.6912  0.5279 -0.9783
  331MPD2    H2 4973   0.896   2.492  12.723 -2.8145 -2.5673  2.3793
  331MPD2    H3 4974   0.795   2.262  12.758  1.0933  0.1523  1.1150
  331MPD2     N 4975   1.141   2.076  12.534  0.1925  0.4082  0.6933
  331MPD2    H5 4976   1.114   1.986  12.574 -0.0418  0.6889  1.1750
  331MPD2    N1 4977   1.120   2.543  12.601  0.1465 -0.1101 -0.3303
  331MPD2    H7 4978   1.070   2.625  12.633  0.5574 -0.0492  0.1589
  332TMC3    C1 4979   1.278   1.934  12.391 -0.2109 -0.3547 -1.0948
  332TMC3    C2 4980   1.344   1.945  12.267 -0.6939  0.4186  0.5975
  332TMC3    C3 4981   1.473   1.924  12.252  0.4109 -0.1460  0.6872
  332TMC3    C4 4982   1.348   1.897  12.504  0.3351  0.0218  0.0501
  332TMC3    C5 4983   1.482   1.874  12.484 -1.0490  0.3623  0.2401
  332TMC3    C6 4984   1.545   1.888  12.362 -0.0737 -1.1342 -0.4997
  332TMC3     C 4985   1.199   2.062  12.414  0.1009 -0.5392 -0.6098
  332TMC3     O 4986   1.198   2.134  12.317 -0.0606  0.3361 -0.6515
  332TMC3     H 4987   1.285   1.972  12.180  3.3293 -1.3610 -2.6239
  332TMC3    H1 4988   1.304   1.898  12.604  1.2227 -0.4765  0.4434
  332TMC3    H2 4989   1.652   1.869  12.354  0.1969 -0.2556  1.0972
  332TMC3    C7 4990   1.567   1.846  12.604  0.8382  0.4600  0.4368
  332TMC3    C8 4991   1.549   1.986  12.147  0.3518 -0.0945  0.0258
  332TMC3    O1 4992   1.518   1.807  12.710  0.1788  0.4226  0.4876
  332TMC3    O2 4993   1.646   2.048  12.175  0.1678  0.1363  0.0252
  333MPD2     C 4994   1.598   2.536  10.855 -0.7552  0.3825  0.6268
  333MPD2    C1 4995   1.604   2.413  10.788 -0.6376 -0.0614  0.2010
  333MPD2    C2 4996   1.564   2.300  10.849 -0.4278 -0.5581  0.3316
  333MPD2    C3 4997   1.541   2.301  10.979 -0.3220  0.0441  0.4817
  333MPD2    C4 4998   1.530   2.419  11.047 -0.4758 -0.6610 -0.1567
  333MPD2    C5 4999   1.546   2.538  10.982 -0.1515  0.1410 -0.4320
  333MPD2     H 5000   1.565   2.208  10.791  0.2026 -0.6632  0.5131
  333MPD2    H1 5001   1.489   2.423  11.147  0.8658 -0.6630  0.3939
  333MPD2    H2 5002   1.613   2.629  10.802  0.1795 -0.8344 -1.2460
  333MPD2    H3 5003   1.520   2.620  11.048  0.8824 -0.6939  1.0191
  333MPD2     N 5004   1.502   2.176  11.038 -0.0017 -0.0469  0.2346
  333MPD2    H5 5005   1.480   2.100  10.975  0.6460 -0.4652  0.5141
  333MPD2    N1 5006   1.648   2.423  10.651  0.5674 -0.5701 -0.6590
  333MPD2    H7 5007   1.695   2.511  10.636 -0.3640 -0.1604 -1.1990
  334TMC3    C1 5008   1.747   2.365  10.438  0.5313  0.0464 -0.1969
  334TMC3    C2 5009   1.863   2.296  10.426  0.4006 -0.2108  0.2512
  334TMC3    C3 5010   1.965   2.357  10.353 -0.3471 -0.7266 -0.3936
  334TMC3    C4 5011   1.738   2.495  10.396  0.2353 -0.0453  0.5695
  334TMC3    C5 5012   1.835   2.546  10.319 -0.8835 -0.0677 -0.3712
  334TMC3    C6 5013   1.949   2.478  10.298 -0.2085 -0.5054 -0.0274
  334TMC3     C 5014   1.665   2.323  10.558 -0.4517 -0.1953  0.1315
  334TMC3     O 5015   1.658   2.203  10.575 -0.1493  0.3044 -0.3123
  334TMC3     H 5016   1.866   2.202  10.480  0.5285  0.0311  0.6572
  334TMC3    H1 5017   1.646   2.547  10.422  0.4565  1.2069 -1.1132
  334TMC3    H2 5018   2.039   2.518  10.252  0.5574  0.1387  2.0363
  334TMC3    C7 5019   1.842   2.683  10.271 -0.4543  0.0479  0.3475
  334TMC3    C8 5020   2.094   2.288  10.355  0.1918 -0.4342  0.3415
  334TMC3    O1 5021   1.950   2.724  10.223  0.3838  0.1058  0.7374
  334TMC3    O2 5022   2.087   2.169  10.383  0.2204 -0.5347 -0.0760
  335TMC3    C1 5023   0.774   3.982   0.092 -0.3414 -0.7196  0.1012
  335TMC3    C2 5024   0.718   3.975  17.672 -0.0217 -0.0004 -0.5780
  335TMC3    C3 5025   0.805   3.988  17.567  0.3810 -0.0438  0.0633
  335TMC3    C4 5026   0.910   3.980   0.115  0.1553  0.0801 -0.1484
  335TMC3    C5 5027   0.995   3.993   0.006  0.2631  0.7118 -1.0517
  335TMC3    C6 5028   0.942   4.007  17.583 -0.6565  0.0276 -0.2159
  335TMC3     C 5029   0.692   3.932   0.199 -0.2830  0.1264 -0.0412
  335TMC3     O 5030   0.579   3.886   0.176 -0.3197 -0.4410 -0.2810
  335TMC3     H 5031   0.612   3.957  17.658 -0.0109  0.4798 -1.2751
  335TMC3    H1 5032   0.953   3.984   0.214  1.0739 -0.1553 -0.5435
  335TMC3    H2 5033   1.008   4.006  17.496  2.6643 -0.3747  2.3181
  335TMC3    C7 5034   1.132   3.961   0.020 -0.1625  0.6929  0.7755
  335TMC3    C8 5035   0.761   3.955  17.437 -0.1933  0.0662 -0.3408
  335TMC3    O1 5036   1.201   3.984  17.625  0.0362 -0.3164 -0.2263
  335TMC3    O2 5037   0.813   4.004  17.337 -0.3899 -0.4245 -0.6288
  336MPD2     C 5038   1.028   2.145  16.373  0.1671 -0.4377  0.0835
  336MPD2    C1 5039   0.943   2.114  16.272 -0.5489  0.3449  0.2087
  336MPD2    C2 5040   0.922   1.986  16.225  0.4224 -0.2103  0.2913
  336MPD2    C3 5041   0.998   1.885  16.280 -0.1371 -0.4071  0.5842
  336MPD2    C4 5042   1.078   1.913  16.391  0.2225 -0.1815  0.0961
  336MPD2    C5 5043   1.085   2.036  16.440 -0.1817  0.4363 -0.1686
  336MPD2     H 5044   0.857   1.958  16.143  0.1341 -0.4861  0.6177
  336MPD2    H1 5045   1.133   1.833  16.440  2.5058  0.8012 -0.8710
  336MPD2    H2 5046   1.041   2.245  16.412 -1.7716 -0.6606  1.2670
  336MPD2    H3 5047   1.146   2.056  16.528  0.9195  0.1684 -0.8809
  336MPD2     N 5048   0.986   1.752  16.233  0.4815 -0.1350  0.2778
  336MPD2    H5 5049   1.028   1.683  16.294 -1.0372 -2.0506 -0.8377
  336MPD2    N1 5050   0.872   2.211  16.200  0.2734  0.4932  0.3379
  336MPD2    H7 5051   0.829   2.183  16.113  0.6198 -0.0302  0.3317
  337TMC3    C1 5052   0.761   2.398  16.134  0.0021  0.5076  0.7007
  337TMC3    C2 5053   0.661   2.317  16.092  0.0550  0.0701  0.1970
  337TMC3    C3 5054   0.573   2.367  16.006  0.3656  0.3772 -0.6299
  337TMC3    C4 5055   0.784   2.522  16.080  0.5796  0.3843 -0.4136
  337TMC3    C5 5056   0.705   2.555  15.971  0.1276  0.0627 -0.5556
  337TMC3    C6 5057   0.589   2.486  15.944 -0.4964 -0.2246 -0.4163
  337TMC3     C 5058   0.851   2.342  16.228  0.0067  0.3507  0.4930
  337TMC3     O 5059   0.908   2.418  16.302  0.4198  0.1362 -0.6750
  337TMC3     H 5060   0.635   2.221  16.135  1.1827 -0.2457  0.1760
  337TMC3    H1 5061   0.871   2.582  16.102  0.1877  0.9984 -0.5167
  337TMC3    H2 5062   0.520   2.533  15.875 -1.5093 -0.8897  0.1501
  337TMC3    C7 5063   0.727   2.682  15.907 -0.0982 -0.1209  0.1611
  337TMC3    C8 5064   0.468   2.276  15.952  0.2778 -0.1944  0.2780
  337TMC3    O1 5065   0.627   2.733  15.858  0.4969  0.1814 -0.2134
  337TMC3    O2 5066   0.466   2.163  15.999 -0.0641  0.3424 -0.0054
  338MPD2     C 5067   1.088   1.427   0.773  0.5325 -0.4629 -0.5331
  338MPD2    C1 5068   1.010   1.398   0.662 -0.6011  0.5128  0.0203
  338MPD2    C2 5069   0.889   1.460   0.642  0.8424 -0.7540  0.6710
  338MPD2    C3 5070   0.852   1.555   0.732 -0.2942 -0.6504 -0.0186
  338MPD2    C4 5071   0.936   1.591   0.842  0.4135 -0.3331  0.4590
  338MPD2    C5 5072   1.050   1.526   0.866  0.1388  0.6005 -0.4019
  338MPD2     H 5073   0.836   1.441   0.550  0.8728  1.1735  0.2403
  338MPD2    H1 5074   0.915   1.677   0.904 -1.2988  0.3829 -1.1296
  338MPD2    H2 5075   1.180   1.370   0.783  0.8857  0.3337  0.7641
  338MPD2    H3 5076   1.126   1.552   0.938  0.6318  0.9055 -1.0262
  338MPD2     N 5077   0.741   1.631   0.702 -0.4845 -0.2537  0.2299
  338MPD2    H5 5078   0.692   1.607   0.617  2.0108 -1.9569 -0.7046
  338MPD2    N1 5079   1.052   1.300   0.567 -0.8355 -0.4474 -0.1527
  338MPD2    H7 5080   0.983   1.280   0.496 -3.0026  0.4518  1.7223
  339TMC3    C1 5081   0.550   1.757   0.752  0.2732 -0.4143 -0.0211
  339TMC3    C2 5082   0.463   1.794   0.844  0.9345  0.5525  0.2261
  339TMC3    C3 5083   0.332   1.784   0.808 -0.0290  0.8782 -0.4557
  339TMC3    C4 5084   0.511   1.705   0.631 -0.5966  0.0374  0.1819
  339TMC3    C5 5085   0.374   1.695   0.602  0.3630  0.2032  0.1489
  339TMC3    C6 5086   0.282   1.738   0.690  0.3384 -0.2222 -0.1798
  339TMC3     C 5087   0.684   1.728   0.795 -0.0882  0.0302 -0.2036
  339TMC3     O 5088   0.733   1.800   0.884  0.4811 -0.0602  0.1802
  339TMC3     H 5089   0.500   1.833   0.938 -1.1811 -1.2532  1.8011
  339TMC3    H1 5090   0.576   1.665   0.554  0.6967  2.1462  0.1838
  339TMC3    H2 5091   0.176   1.734   0.665  0.4574 -2.6295 -0.2905
  339TMC3    C7 5092   0.354   1.626   0.474  0.0260 -0.8056  0.2565
  339TMC3    C8 5093   0.228   1.835   0.899  0.9471  0.0182  0.3337
  339TMC3    O1 5094   0.411   1.517   0.465  0.1094 -0.0047  0.2814
  339TMC3    O2 5095   0.126   1.876   0.844 -0.6051  0.0024 -0.0599
  340MPD2     C 5096   1.637   3.536   9.399 -0.4459 -0.3313 -0.1382
  340MPD2    C1 5097   1.687   3.504   9.527 -0.4171 -0.2572  0.2106
  340MPD2    C2 5098   1.751   3.597   9.600 -0.2044  0.7639 -0.2258
  340MPD2    C3 5099   1.777   3.723   9.543 -0.3899 -0.0341 -0.3948
  340MPD2    C4 5100   1.748   3.742   9.411  0.4715  0.3071  0.2221
  340MPD2    C5 5101   1.677   3.652   9.339  0.0709 -0.0301  0.0036
  340MPD2     H 5102   1.782   3.564   9.699  0.7642 -0.5809 -0.9741
  340MPD2    H1 5103   1.774   3.829   9.352  1.2084  0.4930  0.8213
  340MPD2    H2 5104   1.576   3.470   9.338 -2.0704 -1.0245  2.2431
  340MPD2    H3 5105   1.646   3.668   9.236  2.4234  1.9103 -0.4158
  340MPD2     N 5106   1.837   3.834   9.613  0.1211 -0.1612 -0.2795
  340MPD2    H5 5107   1.851   3.924   9.568 -1.2396 -0.0404 -0.4801
  340MPD2    N1 5108   1.642   3.381   9.575  0.4813  0.2993 -0.2659
  340MPD2    H7 5109   1.588   3.326   9.508 -1.2659  1.4598  0.1910
  341TMC3    C1 5110   1.625   3.196   9.711  0.2497  0.6854  0.8644
  341TMC3    C2 5111   1.496   3.165   9.648  0.0654 -1.0308 -0.0795
  341TMC3    C3 5112   1.442   3.042   9.675 -0.2427  0.2198 -1.0702
  341TMC3    C4 5113   1.689   3.103   9.792 -0.4262 -0.5137  0.5822
  341TMC3    C5 5114   1.625   2.982   9.802 -0.0358 -0.4233 -0.7294
  341TMC3    C6 5115   1.505   2.949   9.750 -0.0092 -0.2048 -0.7614
  341TMC3     C 5116   1.681   3.324   9.689 -0.2982  0.2633  0.4000
  341TMC3     O 5117   1.766   3.349   9.775 -0.1087 -0.1444  0.0072
  341TMC3     H 5118   1.440   3.242   9.597 -1.0195 -0.7033  1.6265
  341TMC3    H1 5119   1.786   3.113   9.838 -1.1408  1.0936  1.7651
  341TMC3    H2 5120   1.460   2.851   9.752 -0.9966  0.2789  1.3189
  341TMC3    C7 5121   1.711   2.867   9.833 -0.7477  0.0723 -0.2436
  341TMC3    C8 5122   1.311   3.020   9.633 -0.5997  0.5277  0.1314
  341TMC3    O1 5123   1.830   2.887   9.821 -0.0578 -0.0302  0.3280
  341TMC3    O2 5124   1.271   2.909   9.600  0.2951 -0.0428  0.1439
  342MPD2     C 5125   3.616   2.547  17.222 -0.8311  0.0240  0.3057
  342MPD2    C1 5126   3.754   2.531  17.224 -0.0278 -0.2447 -0.9185
  342MPD2    C2 5127   3.832   2.636  17.264  0.0638 -0.0499 -0.0051
  342MPD2    C3 5128   3.770   2.756  17.321  0.3895  0.5807  0.5563
  342MPD2    C4 5129   3.637   2.759  17.325 -0.1735 -0.3531  0.0292
  342MPD2    C5 5130   3.564   2.660  17.273  1.1176 -0.6717 -0.2515
  342MPD2     H 5131   3.940   2.626  17.256 -0.0848 -0.9986 -0.7613
  342MPD2    H1 5132   3.580   2.846  17.355  0.2508 -0.3861  0.9326
  342MPD2    H2 5133   3.542   2.482  17.177 -0.1244 -1.2554  0.9945
  342MPD2    H3 5134   3.458   2.679  17.269  1.1957 -0.4741 -1.5924
  342MPD2     N 5135   3.846   2.863  17.380  0.1533 -0.3740  0.6531
  342MPD2    H5 5136   3.791   2.938  17.420 -1.9004 -2.6992  2.1886
  342MPD2    N1 5137   3.820   2.418  17.172 -0.3540  0.1664  0.1411
  342MPD2    H7 5138   3.920   2.398  17.177 -0.4844 -0.3721  0.5022
  343TMC3    C1 5139   3.839   2.208  17.083  0.4497  0.4088  0.5864
  343TMC3    C2 5140   3.968   2.238  17.067 -0.3670  0.3599 -0.4351
  343TMC3    C3 5141   4.045   2.127  17.071  0.2627 -0.3513  0.3951
  343TMC3    C4 5142   3.789   2.091  17.121 -1.1834  0.1008 -0.6785
  343TMC3    C5 5143   3.880   1.991  17.138 -0.3205  0.7687 -0.0608
  343TMC3    C6 5144   4.012   2.002  17.109  0.2429 -0.0876  0.0896
  343TMC3     C 5145   3.753   2.315  17.105 -0.4713 -0.5299 -0.2226
  343TMC3     O 5146   3.638   2.299  17.071 -0.8381  0.2723  0.6234
  343TMC3     H 5147   3.998   2.336  17.033 -0.3476  0.9491  1.2477
  343TMC3    H1 5148   3.684   2.069  17.130 -0.4474 -2.3121  1.9320
  343TMC3    H2 5149   4.083   1.921  17.101  0.3900 -0.0702  1.2272
  343TMC3    C7 5150   3.821   1.869  17.180  0.4795 -0.5624  0.2791
  343TMC3    C8 5151   4.186   2.149  17.047  0.3735 -1.0597  0.3199
  343TMC3    O1 5152   3.700   1.849  17.159  0.1432  0.2707 -0.1119
  343TMC3    O2 5153   4.227   2.267  17.064  0.2936  1.0763  0.6010
  344MPD2     C 5154   0.728   1.620  10.945  0.0997 -0.3449  0.0655
  344MPD2    C1 5155   0.603   1.655  10.908 -0.5053 -0.0069  0.0499
  344MPD2    C2 5156   0.585   1.747  10.808 -0.2459 -0.0650  0.0273
  344MPD2    C3 5157   0.695   1.809  10.751  0.2978  0.7180 -0.6551
  344MPD2    C4 5158   0.824   1.781  10.797 -0.8120 -0.3960  0.1330
  344MPD2    C5 5159   0.843   1.683  10.889  0.1320  0.2415 -0.9535
  344MPD2     H 5160   0.483   1.775  10.786 -0.0755 -0.5684 -1.4189
  344MPD2    H1 5161   0.907   1.816  10.736 -2.7078  0.8813 -1.6855
  344MPD2    H2 5162   0.746   1.534  11.009  1.8243  0.8264  1.1501
  344MPD2    H3 5163   0.944   1.655  10.915  0.8935  1.8560 -2.2002
  344MPD2     N 5164   0.688   1.891  10.635  0.1405 -0.1291  0.0548
  344MPD2    H5 5165   0.777   1.930  10.605 -0.3172 -0.7781 -2.1649
  344MPD2    N1 5166   0.487   1.581  10.946  0.0815 -0.3789  0.4345
  344MPD2    H7 5167   0.405   1.598  10.888 -0.9419 -1.3641  1.5978
  345TMC3    C1 5168   0.620   2.002  10.442 -0.2833 -0.6393 -0.2588
  345TMC3    C2 5169   0.743   2.072  10.447 -0.5546 -0.2434  0.4100
  345TMC3    C3 5170   0.777   2.133  10.328  0.8541 -0.7810 -0.4131
  345TMC3    C4 5171   0.536   1.995  10.332 -0.1047 -0.4198  0.1676
  345TMC3    C5 5172   0.574   2.074  10.227  0.0359  0.1481 -0.3060
  345TMC3    C6 5173   0.691   2.137  10.222  0.1593 -0.2196  0.4125
  345TMC3     C 5174   0.585   1.915  10.547 -0.1183  0.6386 -0.1645
  345TMC3     O 5175   0.471   1.872  10.552  0.1491 -0.3143  0.3964
  345TMC3     H 5176   0.810   2.068  10.532 -0.1605  0.0882  0.1134
  345TMC3    H1 5177   0.446   1.934  10.332 -0.4183  0.0717 -2.2951
  345TMC3    H2 5178   0.717   2.193  10.133 -0.3117  0.9170  0.9922
  345TMC3    C7 5179   0.510   2.077  10.098 -0.6769 -0.5714 -0.1174
  345TMC3    C8 5180   0.869   2.242  10.335 -0.0023 -0.1486  0.1515
  345TMC3    O1 5181   0.565   2.120   9.999  0.6465  0.5853  1.0763
  345TMC3    O2 5182   0.882   2.296  10.443  0.1091  0.0113  0.7329
  346MPD2     C 5183   0.460   3.799  13.755 -0.0705  0.1353 -0.6475
  346MPD2    C1 5184   0.566   3.862  13.824 -0.3992  0.2491  0.6419
  346MPD2    C2 5185   0.527   3.968  13.913  0.6315 -0.1516 -0.6277
  346MPD2    C3 5186   0.393   4.009  13.926 -0.3313  0.1029  0.3209
  346MPD2    C4 5187   0.297   3.949  13.849 -1.0414 -0.4781 -0.9195
  346MPD2    C5 5188   0.331   3.836  13.773  0.2970 -0.9553  0.0115
  346MPD2     H 5189   0.602   4.020  13.972 -2.0648  1.9819  0.9394
  346MPD2    H1 5190   0.193   3.979  13.841 -0.8703  0.3704  0.1353
  346MPD2    H2 5191   0.476   3.715  13.689 -0.6179 -2.0542  1.9949
  346MPD2    H3 5192   0.262   3.786  13.706 -1.1266  0.5013  0.3932
  346MPD2     N 5193   0.363   4.111  14.012 -0.6397 -0.6575  0.4163
  346MPD2    H5 5194   0.443   4.139  14.069  1.3864 -1.1712 -2.1892
  346MPD2    N1 5195   0.702   3.821  13.809 -0.3146 -1.0939 -0.0217
  346MPD2    H7 5196   0.764   3.882  13.862 -2.5107  1.4442 -0.3808
  347TMC3    C1 5197   0.244   4.269  14.136  0.2577 -0.0104  0.3094
  347TMC3    C2 5198   0.354   4.348  14.147 -0.3638  0.2430  1.1434
  347TMC3    C3 5199   0.369   4.422  14.266  0.2159  0.8391  0.4771
  347TMC3    C4 5200   0.142   4.269  14.225  0.5419  0.1771 -0.2163
  347TMC3    C5 5201   0.167   4.342  14.343  0.0778  0.0729  0.3777
  347TMC3    C6 5202   0.276   4.419  14.365 -0.5352 -1.0846 -0.0725
  347TMC3     C 5203   0.236   4.167  14.036 -0.5244  0.3946 -0.1944
  347TMC3     O 5204   0.124   4.136  13.996  0.7245 -0.1212  0.1078
  347TMC3     H 5205   0.429   4.350  14.069  0.0870  2.2891  1.6261
  347TMC3    H1 5206   0.060   4.197  14.223  0.1990  0.5138  2.0325
  347TMC3    H2 5207   0.284   4.474  14.457  0.0981  1.8663 -1.8939
  347TMC3    C7 5208   0.064   4.327  14.447 -0.1470  0.8773 -0.1378
  347TMC3    C8 5209   0.496   4.379  14.316  0.0969 -0.2693  0.5816
  347TMC3    O1 5210   4.669   4.323  14.428 -0.1242  0.0204 -0.6962
  347TMC3    O2 5211   0.544   4.275  14.273 -0.6810  0.4274 -0.2707
  348MPD2     C 5212   3.596   3.181  12.342 -0.1948 -0.2141  0.6704
  348MPD2    C1 5213   3.566   3.110  12.231 -0.5524 -0.8119 -0.6308
  348MPD2    C2 5214   3.588   3.165  12.105  0.0103 -0.1911 -0.1810
  348MPD2    C3 5215   3.627   3.294  12.088  0.8066 -0.0907 -0.0549
  348MPD2    C4 5216   3.649   3.364  12.202 -0.5069 -0.7515  0.4913
  348MPD2    C5 5217   3.640   3.308  12.330  0.6911 -0.0016 -0.1954
  348MPD2     H 5218   3.582   3.096  12.021  2.4677  0.0339 -0.5384
  348MPD2    H1 5219   3.683   3.467  12.195 -2.4112 -0.3016 -1.8351
  348MPD2    H2 5220   3.581   3.139  12.441 -0.6816 -0.1815  0.6082
  348MPD2    H3 5221   3.652   3.366  12.421  1.9406  1.2348 -1.1496
  348MPD2     N 5222   3.650   3.340  11.956 -0.5029 -0.3769 -0.2813
  348MPD2    H5 5223   3.636   3.272  11.882 -1.1769 -0.7663  0.2000
  348MPD2    N1 5224   3.540   2.970  12.241 -0.3282 -0.0385  0.6683
  348MPD2    H7 5225   3.512   2.915  12.161 -0.8888  0.7102  0.3541
  349TMC3    C1 5226   3.593   2.757  12.304 -0.0954 -0.0860 -0.6443
  349TMC3    C2 5227   3.665   2.677  12.386  0.6210 -0.4104 -0.4105
  349TMC3    C3 5228   3.753   2.586  12.339  0.0405  0.0956  0.1285
  349TMC3    C4 5229   3.602   2.736  12.167  0.2668  0.5517 -0.9468
  349TMC3    C5 5230   3.690   2.646  12.120  0.0232  0.3830 -0.1047
  349TMC3    C6 5231   3.763   2.569  12.204 -0.2471 -0.3331 -0.6050
  349TMC3     C 5232   3.571   2.892  12.347 -0.1522 -0.3162  0.0185
  349TMC3     O 5233   3.610   2.915  12.466  0.4991  0.1891  0.7215
  349TMC3     H 5234   3.656   2.697  12.492  1.7037 -2.6848  0.1189
  349TMC3    H1 5235   3.549   2.784  12.086 -0.5009 -1.1937 -1.4669
  349TMC3    H2 5236   3.846   2.510  12.165 -1.1276 -1.8153 -0.2473
  349TMC3    C7 5237   3.753   2.688  12.005  0.3258  1.3107 -0.5032
  349TMC3    C8 5238   3.838   2.528  12.436  0.1924  0.0975 -0.7706
  349TMC3    O1 5239   3.755   2.620  11.907  0.7193  0.8696 -0.4381
  349TMC3    O2 5240   3.807   2.521  12.552 -0.1922  0.4443  0.5317
  350MPD2     C 5241   3.431   0.304   9.836 -0.7617 -0.5216 -0.6003
  350MPD2    C1 5242   3.520   0.414   9.839  0.2231  0.3760  0.2853
  350MPD2    C2 5243   3.480   0.532   9.897 -0.5330 -0.1457 -0.9479
  350MPD2    C3 5244   3.356   0.541   9.965  0.0799 -0.3260 -0.9416
  350MPD2    C4 5245   3.274   0.437   9.966  0.2761  0.7373  0.0772
  350MPD2    C5 5246   3.308   0.324   9.897 -0.1866 -0.2886 -0.1026
  350MPD2     H 5247   3.556   0.610   9.904 -0.6281 -0.1585  0.1051
  350MPD2    H1 5248   3.173   0.437  10.003  0.7950  1.2607  1.4935
  350MPD2    H2 5249   3.459   0.206   9.802  0.1890 -1.2665  2.3180
  350MPD2    H3 5250   3.248   0.234   9.899  1.4796 -1.3604  1.4358
  350MPD2     N 5251   3.324   0.667  10.030 -0.1400 -0.0144 -1.0316
  350MPD2    H5 5252   3.382   0.750  10.019 -1.7781  1.2575 -0.0239
  350MPD2    N1 5253   3.648   0.419   9.776 -0.0372  0.3496 -0.2151
  350MPD2    H7 5254   3.706   0.503   9.767 -0.2737  0.6595  1.2576
  351TMC3    C1 5255   3.831   0.336   9.670 -0.0262 -0.0222 -0.3782
  351TMC3    C2 5256   3.941   0.262   9.680 -0.7368 -0.0068  0.5742
  351TMC3    C3 5257   4.053   0.312   9.618 -0.9661  0.0625 -0.4811
  351TMC3    C4 5258   3.828   0.445   9.584  0.1593 -0.1081  0.3705
  351TMC3    C5 5259   3.943   0.491   9.530 -0.3654 -0.2259 -0.5454
  351TMC3    C6 5260   4.059   0.429   9.545 -0.4273 -0.3257 -0.3691
  351TMC3     C 5261   3.711   0.303   9.735  0.4264 -0.3912 -0.2197
  351TMC3     O 5262   3.680   0.187   9.754 -0.0207 -0.7888 -0.5860
  351TMC3     H 5263   3.953   0.179   9.749  1.5460  0.8005  1.1434
  351TMC3    H1 5264   3.731   0.489   9.566 -0.2244 -1.7802 -1.5932
  351TMC3    H2 5265   4.150   0.455   9.491 -0.4551 -0.9180 -0.7036
  351TMC3    C7 5266   3.925   0.617   9.461  1.1168 -0.2704 -0.0299
  351TMC3    C8 5267   4.176   0.239   9.650  0.0168  0.3398 -0.0836
  351TMC3    O1 5268   3.826   0.679   9.480  0.3393 -0.2578  0.1870
  351TMC3    O2 5269   4.169   0.121   9.686 -0.3787  0.5182  0.2939
  352MPD2     C 5270   1.730   3.395   1.015  0.5038 -0.9826  0.0281
  352MPD2    C1 5271   1.641   3.368   1.117  0.0902  0.3015  0.5343
  352MPD2    C2 5272   1.681   3.275   1.214 -0.1459  0.3731 -0.3200
  352MPD2    C3 5273   1.800   3.213   1.205 -0.0286 -0.3506 -1.0043
  352MPD2    C4 5274   1.890   3.240   1.096  0.0101  0.5276 -0.2498
  352MPD2    C5 5275   1.852   3.329   1.001  0.0298 -0.6604 -0.0072
  352MPD2     H 5276   1.625   3.247   1.303 -0.9132 -2.5333 -1.7145
  352MPD2    H1 5277   1.984   3.186   1.092  1.3769  2.9193 -0.5663
  352MPD2    H2 5278   1.699   3.467   0.940  0.7405  0.0866  0.9545
  352MPD2    H3 5279   1.917   3.344   0.916  0.2217  2.1408  0.6352
  352MPD2     N 5280   1.836   3.113   1.297 -0.6042 -0.6728  1.4895
  352MPD2    H5 5281   1.930   3.076   1.285 -0.3169  0.4011  0.5289
  352MPD2    N1 5282   1.509   3.421   1.119 -0.4691  0.1380 -0.1499
  352MPD2    H7 5283   1.479   3.477   1.039  0.8855  0.7150 -0.2531
  353TMC3    C1 5284   1.818   2.941   1.454  0.4949 -0.3323 -0.1527
  353TMC3    C2 5285   1.952   2.937   1.478 -0.0694  0.4027 -0.3988
  353TMC3    C3 5286   1.997   2.839   1.563 -0.8114 -1.0255 -1.0829
  353TMC3    C4 5287   1.729   2.858   1.515 -0.7237 -0.3754 -1.1042
  353TMC3    C5 5288   1.774   2.746   1.582 -0.3894  0.2413 -0.0887
  353TMC3    C6 5289   1.912   2.744   1.615  0.1063  0.5978 -0.0860
  353TMC3     C 5290   1.754   3.053   1.392 -0.0541  0.6268 -0.2656
  353TMC3     O 5291   1.635   3.068   1.415  0.5674  0.8857 -0.4431
  353TMC3     H 5292   2.022   3.016   1.453 -0.9125  2.3446  3.4319
  353TMC3    H1 5293   1.636   2.847   1.460 -1.1517 -0.4643 -0.3662
  353TMC3    H2 5294   1.953   2.662   1.673 -3.5157 -1.0420  0.1441
  353TMC3    C7 5295   1.687   2.628   1.599 -0.3939  0.3882  0.4430
  353TMC3    C8 5296   2.141   2.814   1.575  0.3177  0.1987 -0.4775
  353TMC3    O1 5297   1.735   2.524   1.630  0.1765 -0.4667  0.0488
  353TMC3    O2 5298   2.221   2.903   1.545 -0.3190 -0.5698  0.2662
  354TMC3    C1 5299   3.244   4.726  13.997  0.3553 -0.3055  1.1594
  354TMC3    C2 5300   3.174   0.088  13.919  0.6431 -0.0578  0.9945
  354TMC3    C3 5301   3.235   0.137  13.808 -0.0171 -0.0902  0.0385
  354TMC3    C4 5302   3.369   4.691  13.959 -0.0492 -0.0615 -0.3935
  354TMC3    C5 5303   3.417   4.723  13.839 -0.1550 -0.5934  0.1531
  354TMC3    C6 5304   3.347   0.081  13.758  0.4010 -0.7532 -0.0127
  354TMC3     C 5305   3.188   4.679  14.123  0.2910  0.5648 -0.0407
  354TMC3     O 5306   3.071   4.635  14.121  0.0415 -0.0296  0.2706
  354TMC3     H 5307   3.079   0.129  13.953 -0.1010 -0.2452 -0.8406
  354TMC3    H1 5308   3.429   4.624  14.020  0.7006 -0.9534 -2.0978
  354TMC3    H2 5309   3.396   0.140  13.681  0.7007 -0.6334  0.2673
  354TMC3    C7 5310   3.515   4.626  13.790 -0.3460 -0.3471  0.2413
  354TMC3    C8 5311   3.177   0.257  13.749 -0.7464  0.3458 -0.0342
  354TMC3    O1 5312   3.573   4.545  13.865  0.0674 -0.6383  0.2800
  354TMC3    O2 5313   3.085   0.302  13.819  0.6976 -0.0323 -0.0324
  355MPD2     C 5314   2.971   0.706  12.071  0.2312 -0.0804  0.3189
  355MPD2    C1 5315   3.061   0.636  11.989 -0.1651 -1.1595  0.2234
  355MPD2    C2 5316   3.192   0.617  12.033 -0.1715  0.1367  0.2011
  355MPD2    C3 5317   3.252   0.677  12.141  0.7722 -0.5427  0.5747
  355MPD2    C4 5318   3.168   0.749  12.216  0.1440  0.1944 -0.8504
  355MPD2    C5 5319   3.035   0.757  12.182 -0.5345  0.4527  0.0880
  355MPD2     H 5320   3.260   0.565  11.966 -2.0854  1.6128 -2.8520
  355MPD2    H1 5321   3.200   0.802  12.306 -0.8038 -1.6830  0.5958
  355MPD2    H2 5322   2.868   0.731  12.048  0.6804  0.4278 -1.1269
  355MPD2    H3 5323   2.974   0.811  12.255 -3.0053 -2.0235 -0.1462
  355MPD2     N 5324   3.389   0.663  12.172  0.4868 -0.2329 -0.2856
  355MPD2    H5 5325   3.413   0.710  12.259 -0.0429 -2.3525  1.0201
  355MPD2    N1 5326   3.014   0.590  11.865  0.7217  0.2512  0.0301
  355MPD2    H7 5327   2.913   0.586  11.864  0.6641  1.3137  2.9998
  356TMC3    C1 5328   3.618   0.658  12.113  0.2157 -0.7801 -0.5376
  356TMC3    C2 5329   3.670   0.693  11.987  0.2639 -0.4523 -0.3527
  356TMC3    C3 5330   3.759   0.791  11.972 -0.1420 -0.3039 -0.0644
  356TMC3    C4 5331   3.649   0.739  12.216 -0.2767 -0.0887  0.1131
  356TMC3    C5 5332   3.736   0.841  12.201 -0.4414  0.4324  0.2198
  356TMC3    C6 5333   3.804   0.860  12.085  0.0601 -0.1823  0.6067
  356TMC3     C 5334   3.490   0.592  12.105  0.2250  0.3972 -1.0098
  356TMC3     O 5335   3.479   0.504  12.022 -0.5156 -0.5759 -0.1684
  356TMC3     H 5336   3.637   0.632  11.904 -1.1426  1.0971 -0.9395
  356TMC3    H1 5337   3.590   0.723  12.305  0.8829  2.4582  1.3434
  356TMC3    H2 5338   3.884   0.933  12.084 -0.8143  0.7770 -0.8282
  356TMC3    C7 5339   3.776   0.898  12.326  0.8074 -0.2845 -0.3485
  356TMC3    C8 5340   3.815   0.810  11.836  0.3946 -0.0828  0.0517
  356TMC3    O1 5341   3.756   0.830  12.427 -0.1272  0.1163  0.3260
  356TMC3    O2 5342   3.793   0.728  11.750  0.0111  0.3060  0.1238
  357MPD2     C 5343   2.640   0.691   1.058 -0.2795  0.3451  0.2717
  357MPD2    C1 5344   2.735   0.686   1.161 -0.3505  0.2571 -0.2322
  357MPD2    C2 5345   2.702   0.729   1.288 -0.4243  0.2821  0.1648
  357MPD2    C3 5346   2.576   0.780   1.322 -0.0484 -0.4569  0.3737
  357MPD2    C4 5347   2.491   0.808   1.212 -0.5136 -0.1537 -0.8007
  357MPD2    C5 5348   2.515   0.747   1.089 -0.5894 -0.1234 -0.8046
  357MPD2     H 5349   2.768   0.701   1.369  0.1188 -2.4998 -1.2678
  357MPD2    H1 5350   2.387   0.837   1.219 -0.4129 -0.2228  0.8322
  357MPD2    H2 5351   2.650   0.644   0.961 -1.1541 -0.5217  0.5907
  357MPD2    H3 5352   2.435   0.758   1.017 -1.4198  2.3709  0.4851
  357MPD2     N 5353   2.522   0.804   1.457  0.3140 -0.2398  0.3900
  357MPD2    H5 5354   2.430   0.846   1.464  0.9881  1.2655  0.2868
  357MPD2    N1 5355   2.864   0.637   1.132 -0.0787  0.6322 -0.4706
  357MPD2    H7 5356   2.879   0.601   1.038  0.9606  0.3852 -0.2131
  358TMC3    C1 5357   3.094   0.580   1.153  0.1737  0.0586 -0.2467
  358TMC3    C2 5358   3.080   0.472   1.068  0.3419 -0.2319  0.2244
  358TMC3    C3 5359   3.185   0.382   1.065  0.5622  0.0365  0.3563
  358TMC3    C4 5360   3.215   0.599   1.229  0.6971 -0.1735 -0.1232
  358TMC3    C5 5361   3.305   0.491   1.233 -0.0138  0.0841 -0.5618
  358TMC3    C6 5362   3.284   0.377   1.161 -0.4796 -0.2770 -0.1253
  358TMC3     C 5363   2.979   0.654   1.201  0.9960  0.1987 -0.1719
  358TMC3     O 5364   2.993   0.732   1.300 -0.4450  0.0690 -0.7864
  358TMC3     H 5365   2.997   0.453   1.000 -0.8760 -0.4299  1.7816
  358TMC3    H1 5366   3.218   0.683   1.296  0.4000 -0.3419  0.0987
  358TMC3    H2 5367   3.371   0.312   1.158  0.1749  0.5508  0.9433
  358TMC3    C7 5368   3.397   0.490   1.350  0.0928  0.3072  0.5139
  358TMC3    C8 5369   3.182   0.264   0.980  0.2161 -0.3570  0.1897
  358TMC3    O1 5370   3.483   0.401   1.344  0.7704  0.2172  0.7689
  358TMC3    O2 5371   3.149   0.279   0.862  0.1606  0.2262 -0.2880
  359MPD2     C 5372   3.285   4.249  12.774 -0.5620 -0.1244 -0.5515
  359MPD2    C1 5373   3.281   4.155  12.671 -0.2825  0.2673  0.2724
  359MPD2    C2 5374   3.178   4.062  12.668 -0.5083  0.1182 -0.6820
  359MPD2    C3 5375   3.075   4.064  12.761 -0.6000 -0.6506  0.5775
  359MPD2    C4 5376   3.088   4.148  12.864 -0.1148  0.4399 -0.1314
  359MPD2    C5 5377   3.188   4.241  12.871 -0.3262 -0.9087  0.0523
  359MPD2     H 5378   3.185   3.990  12.588 -2.0289 -1.3150  0.4703
  359MPD2    H1 5379   3.013   4.149  12.943 -1.6190 -1.5323 -1.5258
  359MPD2    H2 5380   3.350   4.336  12.773  0.1794 -0.6700  0.0459
  359MPD2    H3 5381   3.203   4.321  12.943  1.4170 -0.0491 -1.2562
  359MPD2     N 5382   2.965   3.971  12.754  0.4971 -0.2342  0.0787
  359MPD2    H5 5383   2.893   3.979  12.825 -0.4282  0.3654 -0.9167
  359MPD2    N1 5384   3.390   4.140  12.580  0.4614  0.2655  0.7910
  359MPD2    H7 5385   3.398   4.051  12.531 -0.6928 -0.4056  1.8055
  360TMC3    C1 5386   3.577   4.200  12.437 -0.5233  0.0018  0.1828
  360TMC3    C2 5387   3.708   4.242  12.437 -0.6945 -0.5996 -0.3967
  360TMC3    C3 5388   3.796   4.189  12.338  0.4458 -0.2335  0.3184
  360TMC3    C4 5389   3.524   4.138  12.329  0.2875 -0.8527  0.3859
  360TMC3    C5 5390   3.606   4.106  12.224 -0.5534  0.3088 -0.5928
  360TMC3    C6 5391   3.746   4.128  12.234  0.0129  0.6414 -0.1404
  360TMC3     C 5392   3.496   4.230  12.554 -0.1779  0.0168  0.2826
  360TMC3     O 5393   3.526   4.333  12.617  0.3065  0.5283  0.1150
  360TMC3     H 5394   3.747   4.273  12.533  1.5878  0.9545 -1.8127
  360TMC3    H1 5395   3.418   4.112  12.330 -0.3837  1.8143 -1.1982
  360TMC3    H2 5396   3.801   4.120  12.140  0.9290 -2.5210  0.6774
  360TMC3    C7 5397   3.563   4.035  12.099 -0.4931  0.1268 -0.0082
  360TMC3    C8 5398   3.911   4.264  12.305 -1.0328  0.0399 -0.5432
  360TMC3    O1 5399   3.659   3.983  12.049 -0.2390 -0.3109  0.1813
  360TMC3    O2 5400   3.916   4.381  12.343  0.4365  0.3040  0.4574
  361MPD2     C 5401   0.160   2.862  16.685  0.4466 -0.7155 -0.0996
  361MPD2    C1 5402   0.108   2.827  16.809  0.0252 -0.0651  0.8121
  361MPD2    C2 5403   0.183   2.743  16.890 -0.9161 -0.1301  0.1160
  361MPD2    C3 5404   0.308   2.698  16.849 -0.0500  0.2620  0.2156
  361MPD2    C4 5405   0.359   2.733  16.731 -0.3829  0.5263  0.0001
  361MPD2    C5 5406   0.293   2.829  16.663 -0.4700  0.3935  0.2429
  361MPD2     H 5407   0.131   2.706  16.978 -0.7566 -1.1094 -0.2016
  361MPD2    H1 5408   0.455   2.699  16.694 -0.5836  1.3516 -1.2752
  361MPD2    H2 5409   0.114   2.931  16.614 -0.4012 -2.4201 -1.1968
  361MPD2    H3 5410   0.335   2.867  16.571 -1.3066  0.1950 -0.2254
  361MPD2     N 5411   0.382   2.606  16.921 -0.0609  0.2499 -0.7062
  361MPD2    H5 5412   0.471   2.574  16.882 -1.7125 -0.4419 -3.9572
  361MPD2    N1 5413   4.703   2.864  16.849 -0.0179 -0.0894  0.1308
  361MPD2    H7 5414   4.685   2.846  16.948 -1.1365  0.5176  0.0359
  362TMC3    C1 5415   4.496   2.971  16.820 -0.0141  0.0707 -0.3523
  362TMC3    C2 5416   4.516   3.040  16.935 -0.2658  0.0128  0.0411
  362TMC3    C3 5417   4.414   3.123  16.971  0.3322  0.1355  0.1307
  362TMC3    C4 5418   4.380   2.986  16.747 -0.2698 -0.0947  0.0172
  362TMC3    C5 5419   4.283   3.082  16.789 -0.1383 -0.3874  0.6877
  362TMC3    C6 5420   4.306   3.160  16.895  0.3727 -0.0863  0.2780
  362TMC3     C 5421   4.604   2.903  16.758  0.5827 -0.4308  1.1166
  362TMC3     O 5422   4.604   2.881  16.639 -0.2548 -0.4096  0.3892
  362TMC3     H 5423   4.595   3.031  17.008 -1.9769  0.1008  1.9175
  362TMC3    H1 5424   4.369   2.914  16.666 -0.3043 -1.3389  1.1389
  362TMC3    H2 5425   4.245   3.247  16.915  1.8482  1.0079  0.0569
  362TMC3    C7 5426   4.217   3.149  16.675 -0.1614 -0.1831 -0.4278
  362TMC3    C8 5427   4.432   3.170  17.104  0.4537 -0.0510 -0.2355
  362TMC3    O1 5428   4.154   3.248  16.704 -0.1498  0.2189 -0.2424
  362TMC3    O2 5429   4.544   3.210  17.130 -0.3520  0.0754 -0.1270
  363TMC3    C1 5430   4.069   0.995   9.677  0.2131  0.0706 -0.0627
  363TMC3    C2 5431   4.044   0.868   9.738 -0.0286 -0.3948 -0.4040
  363TMC3    C3 5432   3.912   0.829   9.748 -0.3094 -0.0196  0.4439
  363TMC3    C4 5433   3.965   1.076   9.655  0.2384 -0.0214 -0.3592
  363TMC3    C5 5434   3.835   1.033   9.668  0.6839  0.5294 -0.0603
  363TMC3    C6 5435   3.810   0.909   9.721  0.2331 -0.1711 -0.7325
  363TMC3     C 5436   4.203   1.031   9.639  0.2074 -0.2233  0.8448
  363TMC3     O 5437   4.299   0.969   9.684 -0.3181 -0.2438 -0.2243
  363TMC3     H 5438   4.128   0.807   9.770 -1.5322 -0.9493  2.5565
  363TMC3    H1 5439   3.979   1.182   9.637  0.5000  0.2355  1.3617
  363TMC3    H2 5440   3.709   0.873   9.706 -0.1918  0.3336  0.9590
  363TMC3    C7 5441   3.739   1.136   9.691 -0.9087 -0.2596  0.6649
  363TMC3    C8 5442   3.878   0.705   9.822  0.1761  0.3172  0.3460
  363TMC3    O1 5443   3.746   1.238   9.628  0.1282  0.6197 -0.1893
  363TMC3    O2 5444   3.769   0.714   9.879 -0.4617 -0.0492 -0.0004
  364MPD2     C 5445   2.474   4.685  10.590  0.2345 -0.1926  0.2099
  364MPD2    C1 5446   2.587   4.640  10.543  0.1815 -0.4869 -0.1948
  364MPD2    C2 5447   2.628   4.513  10.570  0.3090  0.4199 -0.1587
  364MPD2    C3 5448   2.548   4.430  10.644 -0.4908 -0.0472  0.1268
  364MPD2    C4 5449   2.429   4.480  10.697  0.0921  0.1522 -0.1889
  364MPD2    C5 5450   2.386   4.607  10.665  0.2010  0.0954  0.1182
  364MPD2     H 5451   2.724   4.475  10.536 -0.4304 -0.3867 -1.3739
  364MPD2    H1 5452   2.370   4.424  10.768  0.4659 -0.1366 -0.1056
  364MPD2    H2 5453   2.433   0.058  10.573 -1.1278 -0.5600  1.3698
  364MPD2    H3 5454   2.290   4.650  10.689  0.1870  0.3243 -0.3583
  364MPD2     N 5455   2.596   4.309  10.692 -0.8806 -0.5695 -0.5636
  364MPD2    H5 5456   2.543   4.263  10.766  1.3368 -0.6097  0.9976
  364MPD2    N1 5457   2.676   0.005  10.481  0.1585 -0.1368 -0.0448
  364MPD2    H7 5458   2.660   0.102  10.507 -1.4232 -0.8662  1.6417
  365TMC3    C1 5459   2.868   0.099  10.395  0.3474 -0.4660  0.6695
  365TMC3    C2 5460   2.969   0.088  10.299  0.2758 -0.1398  0.7144
  365TMC3    C3 5461   3.051   0.196  10.280 -0.2315 -0.0543 -0.2612
  365TMC3    C4 5462   2.857   0.212  10.481  0.4156  0.3656 -0.6533
  365TMC3    C5 5463   2.951   0.313  10.470 -0.0213 -0.0714  0.3328
  365TMC3    C6 5464   3.041   0.302  10.365  0.0349 -0.1039 -0.1624
  365TMC3     C 5465   2.790   4.707  10.410 -0.2627  0.2046 -0.9484
  365TMC3     O 5466   2.830   4.596  10.368 -0.2053 -0.1442 -0.2453
  365TMC3     H 5467   2.973   4.725  10.238  2.9507  0.1180  0.4754
  365TMC3    H1 5468   2.797   0.208  10.571  0.5401  3.1324 -0.4230
  365TMC3    H2 5469   3.117   0.378  10.355  1.8386 -1.8859 -0.0278
  365TMC3    C7 5470   2.980   0.405  10.574 -0.4266 -0.5524  0.3455
  365TMC3    C8 5471   3.182   0.168  10.228 -0.4237 -0.0278  0.2642
  365TMC3    O1 5472   3.076   0.472  10.567  0.3388  0.3739  0.0198
  365TMC3    O2 5473   3.272   0.225  10.290 -0.4216 -0.3002  0.4818
  366MPD2     C 5474   0.478   1.180  15.535  0.6773 -0.2589 -0.4791
  366MPD2    C1 5475   0.569   1.282  15.532 -0.0013 -0.1386 -0.4899
  366MPD2    C2 5476   0.698   1.262  15.477  0.0305 -0.0741 -0.6875
  366MPD2    C3 5477   0.727   1.143  15.421  0.4682 -0.0715  0.3223
  366MPD2    C4 5478   0.633   1.040  15.427 -0.9230  0.1494 -0.6609
  366MPD2    C5 5479   0.510   1.060  15.485  0.6962 -0.0210 -0.0224
  366MPD2     H 5480   0.768   1.344  15.485  0.3613 -0.4852  0.5217
  366MPD2    H1 5481   0.658   0.940  15.393  0.5492  0.4001 -0.3003
  366MPD2    H2 5482   0.376   1.196  15.566  0.7835 -1.4041  0.4493
  366MPD2    H3 5483   0.437   0.980  15.472 -0.1289  1.2154 -2.8094
  366MPD2     N 5484   0.847   1.132  15.347  1.0259  0.0688  0.1790
  366MPD2    H5 5485   0.887   1.223  15.326 -0.5745  0.4865 -1.0661
  366MPD2    N1 5486   0.543   1.416  15.565  0.3035  0.7963  0.0316
  366MPD2    H7 5487   0.624   1.477  15.556 -0.1873  1.5587  0.7423
  367TMC3    C1 5488   0.421   1.615  15.583 -0.1686 -0.7575  0.5945
  367TMC3    C2 5489   0.512   1.667  15.670 -0.2427  0.3916 -0.1573
  367TMC3    C3 5490   0.543   1.799  15.651 -0.7617  0.1392 -0.0607
  367TMC3    C4 5491   0.358   1.679  15.484 -0.3026 -0.2017  0.3312
  367TMC3    C5 5492   0.402   1.806  15.464  0.2953  0.6220  0.6851
  367TMC3    C6 5493   0.500   1.868  15.541 -0.3960 -0.0877  0.0971
  367TMC3     C 5494   0.418   1.469  15.580 -0.1152 -0.3372  0.4261
  367TMC3     O 5495   0.310   1.413  15.564  0.0815 -0.1530  0.0893
  367TMC3     H 5496   0.571   1.615  15.745 -1.6615 -1.6118 -0.4638
  367TMC3    H1 5497   0.311   1.628  15.400  2.4441 -2.9635  0.4597
  367TMC3    H2 5498   0.522   1.974  15.528 -1.6900  0.4115  1.9201
  367TMC3    C7 5499   0.312   1.897  15.393 -0.5067 -0.1254  0.1554
  367TMC3    C8 5500   0.643   1.869  15.735 -0.0648  0.6142  0.3951
  367TMC3    O1 5501   0.362   2.007  15.364 -0.3762 -0.6690  0.8390
  367TMC3    O2 5502   0.697   1.796  15.824  0.0766  0.7772 -0.0480
  368MPD2     C 5503   1.928   2.903  13.388 -0.3223  0.0598  0.0598
  368MPD2    C1 5504   1.949   2.969  13.268  0.5902 -0.0817 -0.5755
  368MPD2    C2 5505   2.077   2.971  13.210  0.0275  0.2788 -0.3880
  368MPD2    C3 5506   2.177   2.900  13.267  0.7221 -1.1285 -0.3098
  368MPD2    C4 5507   2.161   2.854  13.389  0.0210  0.1731  0.7008
  368MPD2    C5 5508   2.038   2.860  13.455 -0.0522 -0.3553  0.2953
  368MPD2     H 5509   2.093   3.014  13.112 -0.5349  0.2903 -0.4715
  368MPD2    H1 5510   2.232   2.786  13.435 -1.2148 -1.7820 -0.2925
  368MPD2    H2 5511   1.834   2.901  13.442 -0.6567 -0.3517 -0.5460
  368MPD2    H3 5512   2.024   2.813  13.551 -3.0269  0.3214  0.1664
  368MPD2     N 5513   2.292   2.886  13.186 -0.2918 -0.2420  0.3206
  368MPD2    H5 5514   2.293   2.918  13.090  1.2003  0.3561  0.5425
  368MPD2    N1 5515   1.842   3.026  13.193  0.1672  0.4969 -0.1293
  368MPD2    H7 5516   1.750   3.028  13.236 -0.5367 -1.4365 -1.5621
  369TMC3    C1 5517   1.716   3.149  13.043 -0.0204  0.3109  0.1600
  369TMC3    C2 5518   1.707   3.256  12.955 -0.0008 -0.0386 -0.1347
  369TMC3    C3 5519   1.582   3.313  12.929  1.8845 -0.2301  0.5962
  369TMC3    C4 5520   1.602   3.094  13.084  0.3338  0.4994 -0.3601
  369TMC3    C5 5521   1.479   3.147  13.044 -0.3660  1.2806 -0.3967
  369TMC3    C6 5522   1.469   3.257  12.967 -0.2163 -0.3655 -0.1615
  369TMC3     C 5523   1.849   3.103  13.085  0.6558  0.2097  0.3653
  369TMC3     O 5524   1.941   3.151  13.015  0.6881 -0.1476 -0.0593
  369TMC3     H 5525   1.798   3.313  12.937  0.9586 -1.6563 -0.4118
  369TMC3    H1 5526   1.600   3.008  13.150  1.8485 -0.2667 -1.2895
  369TMC3    H2 5527   1.375   3.306  12.942  0.1806  0.1379 -0.6702
  369TMC3    C7 5528   1.374   3.116  13.138 -0.0548 -0.7389  0.2569
  369TMC3    C8 5529   1.572   3.404  12.819  0.1464  0.2685  0.5725
  369TMC3    O1 5530   1.402   3.057  13.241 -0.1892 -0.2047 -0.3796
  369TMC3    O2 5531   1.463   3.463  12.804  0.1201 -0.6790  0.1969
  370TMC3    C1 5532   1.143   3.536  16.476 -0.3199  0.3553  0.2800
  370TMC3    C2 5533   1.081   3.440  16.554  0.1049  0.7982 -0.3574
  370TMC3    C3 5534   1.061   3.323  16.493  0.2362  0.0146 -0.1585
  370TMC3    C4 5535   1.162   3.530  16.337  0.2637  0.3100 -0.1131
  370TMC3    C5 5536   1.145   3.401  16.290  0.1038  0.6473  0.2332
  370TMC3    C6 5537   1.092   3.298  16.360  0.2744 -0.0468  0.3244
  370TMC3     C 5538   1.208   3.642  16.553  0.3680 -0.6870 -0.7616
  370TMC3     O 5539   1.200   3.618  16.672 -0.1011 -0.4712 -0.2127
  370TMC3     H 5540   1.072   3.446  16.662 -0.5085 -2.6831 -0.1919
  370TMC3    H1 5541   1.216   3.608  16.284  0.5131  0.1725 -0.0649
  370TMC3    H2 5542   1.073   3.197  16.327 -1.2606  0.8986 -1.6619
  370TMC3    C7 5543   1.197   3.372  16.159 -1.2400  0.0897 -0.6053
  370TMC3    C8 5544   1.006   3.220  16.576  0.2670  0.2956  0.3013
  370TMC3    O1 5545   1.250   3.467  16.101  0.2238 -0.0799 -0.2473
  370TMC3    O2 5546   1.017   3.103  16.547  0.8166 -0.1728  0.1764
  371TMC3    C1 5547   2.399   1.755  15.672 -0.0016  0.0687 -0.1685
  371TMC3    C2 5548   2.285   1.787  15.741 -0.1880 -0.2735 -0.2008
  371TMC3    C3 5549   2.224   1.903  15.722 -0.4035  0.2671 -0.0857
  371TMC3    C4 5550   2.458   1.845  15.591 -0.4376  0.3286 -0.3802
  371TMC3    C5 5551   2.395   1.966  15.575  0.0621  0.3504  0.0964
  371TMC3    C6 5552   2.276   1.988  15.630 -0.2715 -0.3367  0.4986
  371TMC3     C 5553   2.458   1.617  15.683  0.7792 -0.5514 -0.0523
  371TMC3     O 5554   2.570   1.610  15.630 -0.1110 -0.3052  0.0800
  371TMC3     H 5555   2.230   1.714  15.798 -1.1876  0.8108  0.2253
  371TMC3    H1 5556   2.555   1.819  15.551 -0.4721  1.8433 -1.4707
  371TMC3    H2 5557   2.233   2.086  15.615  0.3944  0.0155  0.8728
  371TMC3    C7 5558   2.450   2.063  15.475 -0.4605  0.4608 -0.1962
  371TMC3    C8 5559   2.079   1.893  15.740  0.0507  0.4581  0.3580
  371TMC3    O1 5560   2.395   2.169  15.468  0.0404  0.0714  0.4644
  371TMC3    O2 5561   2.031   1.783  15.727  0.6466 -0.0635  0.0708
  372MPD2     C 5562   1.644   3.404  13.307  0.1637 -0.0238 -0.1208
  372MPD2    C1 5563   1.754   3.349  13.367  0.5190 -0.2774 -0.2031
  372MPD2    C2 5564   1.729   3.257  13.466  0.9401  0.3970  0.6182
  372MPD2    C3 5565   1.605   3.217  13.511 -0.2982  0.2799 -0.3951
  372MPD2    C4 5566   1.495   3.276  13.448  0.2266 -0.2098 -0.5785
  372MPD2    C5 5567   1.518   3.366  13.349  0.5080  0.4119  0.0748
  372MPD2     H 5568   1.814   3.216  13.519  1.7182 -0.2666 -1.1355
  372MPD2    H1 5569   1.391   3.259  13.475  1.5199 -1.7936  3.5179
  372MPD2    H2 5570   1.651   3.483  13.233  1.3055 -0.1627 -0.1589
  372MPD2    H3 5571   1.431   3.405  13.296  0.7276 -1.1721 -1.4519
  372MPD2     N 5572   1.589   3.126  13.619 -0.1848  0.3319 -0.4176
  372MPD2    H5 5573   1.673   3.100  13.670  0.4068  2.4998 -0.3162
  372MPD2    N1 5574   1.886   3.378  13.348  0.3295  0.2770 -0.0747
  372MPD2    H7 5575   1.950   3.333  13.412 -0.0876  1.3330  1.0894
  373TMC3    C1 5576   1.498   2.962  13.759 -0.5876  0.5643  0.7888
  373TMC3    C2 5577   1.515   2.992  13.890  0.9332  0.7952  0.3066
  373TMC3    C3 5578   1.593   2.906  13.967 -1.0596  0.0767 -0.6213
  373TMC3    C4 5579   1.553   2.852  13.705  0.7517  0.4430 -0.1389
  373TMC3    C5 5580   1.634   2.768  13.784  0.0740 -0.5673 -0.2083
  373TMC3    C6 5581   1.656   2.798  13.915  0.3310  0.0574  0.0718
  373TMC3     C 5582   1.470   3.072  13.666  0.2784 -0.0642  0.1660
  373TMC3     O 5583   1.358   3.083  13.622 -0.5476 -0.0947 -0.4019
  373TMC3     H 5584   1.481   3.089  13.924 -0.4650 -0.4220  2.3814
  373TMC3    H1 5585   1.555   2.854  13.597 -1.3345  1.8553 -0.1432
  373TMC3    H2 5586   1.715   2.735  13.980  0.2833 -0.5140 -0.4389
  373TMC3    C7 5587   1.738   2.694  13.712  0.1205 -0.1339 -0.1042
  373TMC3    C8 5588   1.674   2.947  14.087  0.3337  0.2510  0.2279
  373TMC3    O1 5589   1.728   2.671  13.594 -0.0541 -0.0368 -0.3234
  373TMC3    O2 5590   1.785   2.899  14.090  0.2863  0.3024 -0.3382
  374TMC3    C1 5591   2.748   2.930   9.866 -0.3047  0.8354 -1.0007
  374TMC3    C2 5592   2.851   3.007   9.905  0.8385  0.2256  0.2819
  374TMC3    C3 5593   2.849   3.138   9.866 -0.0914 -0.6815 -0.4158
  374TMC3    C4 5594   2.639   2.982   9.802  0.3415 -0.2559 -0.9850
  374TMC3    C5 5595   2.637   3.117   9.773  0.0928  0.4332  1.1184
  374TMC3    C6 5596   2.748   3.194   9.794 -0.3192  0.1349 -0.2695
  374TMC3     C 5597   2.782   2.789   9.846  0.4708  0.0310 -0.4158
  374TMC3     O 5598   2.901   2.764   9.840  0.2493 -0.0772  0.0757
  374TMC3     H 5599   2.929   2.966   9.967  0.9073 -0.7207 -0.4331
  374TMC3    H1 5600   2.567   2.919   9.750 -1.8886  0.2895  1.4271
  374TMC3    H2 5601   2.749   3.295   9.754  1.2011  0.7915  1.4439
  374TMC3    C7 5602   2.504   3.170   9.749  0.4863 -0.4184 -0.3723
  374TMC3    C8 5603   2.974   3.209   9.870  0.2503  0.2012  0.1502
  374TMC3    O1 5604   2.415   3.085   9.747  0.0599  0.8483 -0.2131
  374TMC3    O2 5605   2.983   3.291   9.784 -0.1691  0.2845  0.6687
  375MPD2     C 5606   2.383   3.459  17.500 -0.1742 -0.5708  0.1444
  375MPD2    C1 5607   2.325   3.568  17.433 -0.0631 -0.0037 -0.3851
  375MPD2    C2 5608   2.384   3.621  17.319  0.0583  0.3520  0.2735
  375MPD2    C3 5609   2.489   3.552  17.255 -0.8045 -0.2913 -0.3797
  375MPD2    C4 5610   2.551   3.450  17.318 -0.2823  0.5777  0.7593
  375MPD2    C5 5611   2.495   3.413  17.440  0.3728 -0.2208 -0.5201
  375MPD2     H 5612   2.343   3.714  17.280  0.6932  1.4497  2.2215
  375MPD2    H1 5613   2.641   3.406  17.278 -1.8136 -1.4917 -0.3973
  375MPD2    H2 5614   2.342   3.419  17.592  0.5257  2.5280  1.8029
  375MPD2    H3 5615   2.541   3.330  17.494 -0.1355 -0.0303  0.2073
  375MPD2     N 5616   2.534   3.586  17.128 -0.2916 -0.4773  0.3901
  375MPD2    H5 5617   2.618   3.543  17.091 -2.4450 -2.8702 -1.7456
  375MPD2    N1 5618   2.201   3.619  17.467 -0.2288  0.1461  0.2258
  375MPD2    H7 5619   2.157   3.696  17.417 -0.3800  0.7886  1.3301
  376TMC3    C1 5620   2.545   3.709  16.925  0.9950 -0.6621 -0.4056
  376TMC3    C2 5621   2.677   3.720  16.929  0.5296 -0.3541 -0.6935
  376TMC3    C3 5622   2.740   3.779  16.819  0.3323  0.6507  0.1926
  376TMC3    C4 5623   2.465   3.747  16.821 -0.1659 -0.4368  0.6203
  376TMC3    C5 5624   2.534   3.800  16.710 -0.4641 -0.3149  0.3336
  376TMC3    C6 5625   2.667   3.809  16.710  0.0137 -0.3253 -0.2123
  376TMC3     C 5626   2.469   3.677  17.043 -0.3141 -0.0913  0.3927
  376TMC3     O 5627   2.359   3.729  17.055  0.2722  0.1988  0.1484
  376TMC3     H 5628   2.737   3.698  17.016  1.5898 -2.2469 -1.9069
  376TMC3    H1 5629   2.356   3.749  16.825 -0.1284 -0.1621  1.4349
  376TMC3    H2 5630   2.716   3.837  16.617  1.0743  1.0666  0.7711
  376TMC3    C7 5631   2.467   3.827  16.579  0.8472 -0.3401  0.5327
  376TMC3    C8 5632   2.884   3.785  16.827 -0.2396 -0.1039 -0.2876
  376TMC3    O1 5633   2.544   3.837  16.485 -0.5205  0.4288 -0.3977
  376TMC3    O2 5634   2.941   3.717  16.914 -0.2920 -0.5490  0.4730
  377MPD2     C 5635   1.096   3.655  12.692 -0.2185  0.8372 -0.3785
  377MPD2    C1 5636   1.094   3.522  12.708 -0.3949 -0.1071  0.3103
  377MPD2    C2 5637   0.980   3.463  12.766 -0.6566 -0.0734 -0.2059
  377MPD2    C3 5638   0.874   3.539  12.807  0.5461 -0.4091 -0.1900
  377MPD2    C4 5639   0.884   3.680  12.799  0.4137  0.5861  0.2810
  377MPD2    C5 5640   0.994   3.733  12.741 -0.1442  0.4667  0.3399
  377MPD2     H 5641   0.983   3.356  12.783  0.8033 -0.7723 -4.7384
  377MPD2    H1 5642   0.807   3.752  12.827  0.3488  0.3189  0.7981
  377MPD2    H2 5643   1.187   3.693  12.646  1.7330 -1.8249  1.2657
  377MPD2    H3 5644   1.007   3.841  12.733 -1.9013  0.6436 -0.0153
  377MPD2     N 5645   0.749   3.482  12.856 -0.6898 -0.1339 -0.7175
  377MPD2    H5 5646   0.686   3.545  12.904  1.6990  1.5703  0.2231
  377MPD2    N1 5647   1.193   3.454  12.641  0.1916  0.7552 -0.4937
  377MPD2    H7 5648   1.259   3.494  12.575  1.0911  0.1290  0.0303
  378TMC3    C1 5649   1.400   3.285  12.353 -0.6442 -0.0442  0.6198
  378TMC3    C2 5650   1.302   3.315  12.435  0.5153 -0.3838  0.4520
  378TMC3    C3 5651   1.301   3.267  12.561 -0.0488  0.3811 -0.2564
  378TMC3    C4 5652   1.503   3.197  12.383  0.8856  0.4968  0.1546
  378TMC3    C5 5653   1.494   3.143  12.506 -0.1760 -0.4937  0.2118
  378TMC3    C6 5654   1.401   3.185  12.599 -0.2764  0.1540 -0.1312
  378TMC3     C 5655   1.385   3.331  12.211 -0.4946  0.2478  0.1207
  378TMC3     O 5656   1.477   3.299  12.135 -0.5882  0.2736  0.3874
  378TMC3     H 5657   1.227   3.391  12.416  0.4086 -0.5589  0.1679
  378TMC3    H1 5658   1.565   3.160  12.302  0.8643  2.3008 -0.7040
  378TMC3    H2 5659   1.408   3.158  12.704  2.5484  0.8004 -0.1573
  378TMC3    C7 5660   1.608   3.082  12.570 -1.3984  0.9920  0.2896
  378TMC3    C8 5661   1.222   3.322  12.667  0.2781  0.2067 -0.5339
  378TMC3    O1 5662   1.589   3.041  12.685  0.2932  0.4659 -0.6263
  378TMC3    O2 5663   1.180   3.244  12.751 -0.3406 -0.3959 -0.5228
  379MPD2     C 5664   1.835   1.889  16.242 -0.4197  0.2691  0.5443
  379MPD2    C1 5665   1.723   1.828  16.290 -0.1169 -0.2616  0.0241
  379MPD2    C2 5666   1.734   1.696  16.342  0.0875 -0.6997  0.1850
  379MPD2    C3 5667   1.854   1.632  16.358  0.1206 -0.2576 -0.3867
  379MPD2    C4 5668   1.966   1.694  16.308  0.4099 -0.7273  0.0522
  379MPD2    C5 5669   1.955   1.825  16.256 -1.0072 -0.0890  0.5303
  379MPD2     H 5670   1.648   1.637  16.371 -1.1157  1.4853  1.0909
  379MPD2    H1 5671   2.060   1.640  16.308  1.2211  0.6889  0.8748
  379MPD2    H2 5672   1.831   1.977  16.178 -1.4711  1.3760  2.1351
  379MPD2    H3 5673   2.043   1.867  16.209 -1.3698 -0.3906 -0.4282
  379MPD2     N 5674   1.874   1.505  16.418  0.0406  0.2423  0.0227
  379MPD2    H5 5675   1.972   1.485  16.432 -0.2140 -0.2671  1.1048
  379MPD2    N1 5676   1.598   1.886  16.266 -0.1227  0.1370  0.0576
  379MPD2    H7 5677   1.585   1.974  16.217  0.6655  0.4438  0.4057
  380TMC3    C1 5678   1.382   1.844  16.220 -0.3629 -0.1158 -1.0396
  380TMC3    C2 5679   1.362   1.728  16.149 -0.1685 -0.6197 -0.2620
  380TMC3    C3 5680   1.318   1.732  16.025 -0.2097  0.0530  0.4207
  380TMC3    C4 5681   1.344   1.971  16.169  0.4170 -0.1671 -0.4317
  380TMC3    C5 5682   1.276   1.968  16.058  0.6000 -0.2635  0.0526
  380TMC3    C6 5683   1.261   1.854  15.987  0.3627  0.1373 -0.4938
  380TMC3     C 5684   1.482   1.833  16.323  0.0970  0.1949 -0.1946
  380TMC3     O 5685   1.462   1.765  16.423  0.0895  0.3512 -0.0639
  380TMC3     H 5686   1.383   1.636  16.201  0.1953 -1.9313 -2.7384
  380TMC3    H1 5687   1.348   2.063  16.226  1.7382 -0.2600 -0.3722
  380TMC3    H2 5688   1.224   1.860  15.885  0.3315  0.8861 -0.4393
  380TMC3    C7 5689   1.184   2.078  16.022  0.8549 -0.1058  1.0043
  380TMC3    C8 5690   1.402   1.662  15.919 -0.5843  0.1888 -0.1418
  380TMC3    O1 5691   1.203   2.189  16.059  0.1558 -0.2689  0.0391
  380TMC3    O2 5692   1.379   1.690  15.802 -0.9358  0.0036 -1.1697
  381TMC3    C1 5693   0.956   2.755  16.370 -0.5964  0.2303 -0.5040
  381TMC3    C2 5694   1.092   2.766  16.353  0.6038 -0.0716  0.7629
  381TMC3    C3 5695   1.184   2.752  16.451  0.3861  0.1855 -0.5612
  381TMC3    C4 5696   0.905   2.710  16.494 -0.1477 -0.2285  0.4081
  381TMC3    C5 5697   1.002   2.699  16.585 -0.4524  0.0905 -0.1108
  381TMC3    C6 5698   1.138   2.718  16.573 -1.3386 -0.3946  0.0342
  381TMC3     C 5699   0.870   2.819  16.276  0.4996 -0.5883 -0.4296
  381TMC3     O 5700   0.907   2.831  16.157  0.0115 -0.2949 -0.1054
  381TMC3     H 5701   1.129   2.807  16.260 -0.1747 -0.2162  0.3855
  381TMC3    H1 5702   0.801   2.699  16.522 -0.1195 -1.7402 -0.0732
  381TMC3    H2 5703   1.212   2.709  16.651 -1.3532  0.6862  0.1729
  381TMC3    C7 5704   0.972   2.637  16.707 -0.5154 -0.2575  1.0249
  381TMC3    C8 5705   1.303   2.828  16.431 -0.3771  0.7340  0.2445
  381TMC3    O1 5706   1.055   2.558  16.748  0.1932 -0.0641  0.2487
  381TMC3    O2 5707   1.352   2.815  16.321 -0.3446  0.3703  0.4207
  382MPD2     C 5708   4.602   0.850  17.034 -0.1197 -0.4165 -0.4365
  382MPD2    C1 5709   4.683   0.826  17.144  0.2942  0.9026  0.3720
  382MPD2    C2 5710   4.657   0.713  17.220  0.6696  0.2915 -0.0225
  382MPD2    C3 5711   4.552   0.630  17.185 -0.4262  0.0535  0.5400
  382MPD2    C4 5712   4.471   0.661  17.082  0.9831  0.3070  0.2267
  382MPD2    C5 5713   4.496   0.767  17.005 -1.3384  0.3067  0.0799
  382MPD2     H 5714   4.717   0.682  17.305 -0.1207  1.0620  0.8163
  382MPD2    H1 5715   4.374   0.617  17.063  0.1052  2.1476  0.4167
  382MPD2    H2 5716   4.619   0.937  16.972 -0.5328  0.4951  0.7368
  382MPD2    H3 5717   4.441   0.775  16.912  0.6302  2.2315 -0.9130
  382MPD2     N 5718   4.536   0.500  17.247  0.4509 -0.4625 -0.2643
  382MPD2    H5 5719   4.583   0.483  17.335 -0.8248  1.8624  0.8880
  382MPD2    N1 5720   0.065   0.910  17.193 -0.6061 -0.5345  0.1845
  382MPD2    H7 5721   0.116   0.887  17.277 -2.3632  0.4495  1.5205
  383TMC3    C1 5722   4.466   0.272  17.275  0.3808  0.2622 -0.2312
  383TMC3    C2 5723   4.440   0.156  17.208  0.7623 -0.8384  0.1640
  383TMC3    C3 5724   4.425   0.044  17.287 -0.0716 -0.1008  0.6022
  383TMC3    C4 5725   4.474   0.286  17.406  0.4108  0.3986 -0.7477
  383TMC3    C5 5726   4.453   0.178  17.478  0.2051 -0.1117 -0.2304
  383TMC3    C6 5727   4.423   0.051  17.427  0.0931 -0.6304  0.3980
  383TMC3     C 5728   4.459   0.396  17.194 -0.0412 -0.5669 -0.0802
  383TMC3     O 5729   4.388   0.398  17.097  0.3322  0.2383  0.3423
  383TMC3     H 5730   4.434   0.148  17.100  0.3862 -0.4377  0.1526
  383TMC3    H1 5731   4.487   0.378  17.461 -0.7429 -0.0927  0.3443
  383TMC3    H2 5732   4.398   4.690  17.486 -1.7852 -0.7735 -0.6317
  383TMC3    C7 5733   4.417   0.191  17.621 -1.0800 -0.0717  0.7167
  383TMC3    C8 5734   4.396   4.642  17.223 -0.1732 -0.0108  0.3150
  383TMC3    O1 5735   4.345   0.284  17.653  0.4486  0.0172 -0.1613
  383TMC3    O2 5736   4.324   4.648  17.123 -0.2248  0.0894 -0.5245
  384MPD2     C 5737   2.493   1.685  12.278  0.2527  0.9521  0.0485
  384MPD2    C1 5738   2.467   1.583  12.364 -1.1073 -0.0225  0.1032
  384MPD2    C2 5739   2.554   1.476  12.376  0.2534  0.7379  0.1291
  384MPD2    C3 5740   2.660   1.467  12.287 -0.1586 -0.1410 -0.0380
  384MPD2    C4 5741   2.682   1.566  12.192 -0.3191 -0.5695  0.3016
  384MPD2    C5 5742   2.607   1.680  12.195 -0.9175 -0.0730  0.5017
  384MPD2     H 5743   2.535   1.384  12.429  0.7405  1.6927  1.9565
  384MPD2    H1 5744   2.761   1.560  12.118 -0.9717 -0.0080 -0.4459
  384MPD2    H2 5745   2.418   1.763  12.269  0.8464  1.3439 -1.4234
  384MPD2    H3 5746   2.626   1.761  12.126 -1.0583 -0.0818  0.4531
  384MPD2     N 5747   2.727   1.343  12.289  0.0796  0.2349 -0.4699
  384MPD2    H5 5748   2.691   1.277  12.357 -0.1988  1.3612  0.4931
  384MPD2    N1 5749   2.351   1.567  12.447  0.5934  0.3392 -0.0695
  384MPD2    H7 5750   2.348   1.494  12.518  1.4922 -1.3322 -1.7634
  385TMC3    C1 5751   2.843   1.159  12.211  0.4705 -0.1173 -0.6248
  385TMC3    C2 5752   2.806   1.096  12.093  0.0666 -0.5882 -0.1349
  385TMC3    C3 5753   2.730   0.987  12.104  0.1602  0.6911  0.4399
  385TMC3    C4 5754   2.813   1.110  12.331 -0.0390  0.6381  0.2553
  385TMC3    C5 5755   2.735   1.000  12.336 -0.4583  0.5336  1.1892
  385TMC3    C6 5756   2.698   0.926  12.227 -0.3886 -0.1548 -0.4914
  385TMC3     C 5757   2.818   1.300  12.196  0.8655 -0.1609  0.8628
  385TMC3     O 5758   2.880   1.369  12.112 -0.3895 -0.1722  0.1566
  385TMC3     H 5759   2.833   1.136  11.996 -1.4498  1.2997  0.2222
  385TMC3    H1 5760   2.849   1.150  12.425  1.1837 -1.0664  0.5022
  385TMC3    H2 5761   2.632   0.840  12.226  0.7081 -1.0401  3.3455
  385TMC3    C7 5762   2.618   1.034  12.412  0.5528  0.4909  0.3704
  385TMC3    C8 5763   2.668   0.927  11.985  0.7008  0.0540  0.5456
  385TMC3    O1 5764   2.614   1.142  12.462 -0.6294  0.6479  0.4669
  385TMC3    O2 5765   2.644   0.807  11.985 -0.5661 -0.0931  0.1233
  386TMC3    C1 5766   2.035   3.280  11.616  0.8689  0.1813  0.6242
  386TMC3    C2 5767   2.073   3.274  11.487  0.0203  0.9015  1.1027
  386TMC3    C3 5768   2.000   3.340  11.390  0.1026  0.3899  0.9966
  386TMC3    C4 5769   1.920   3.354  11.644 -0.3534  0.0965 -0.1401
  386TMC3    C5 5770   1.843   3.417  11.547  0.5295 -0.1862 -0.0911
  386TMC3    C6 5771   1.879   3.411  11.417 -0.0688 -0.4916 -0.3695
  386TMC3     C 5772   2.133   3.273  11.719 -0.0849 -0.2899  0.1781
  386TMC3     O 5773   2.095   3.282  11.835  0.1928  0.1761  0.5538
  386TMC3     H 5774   2.149   3.200  11.464 -1.4808 -0.1469 -0.4032
  386TMC3    H1 5775   1.889   3.363  11.747  0.8898  0.0516  0.2313
  386TMC3    H2 5776   1.835   3.484  11.351 -0.8711 -3.1976 -2.8170
  386TMC3    C7 5777   1.734   3.504  11.599 -0.0222 -0.1911  0.2745
  386TMC3    C8 5778   2.020   3.332  11.249  0.6089  0.0124 -0.0257
  386TMC3    O1 5779   1.696   3.474  11.710  0.1902 -0.2521  0.4140
  386TMC3    O2 5780   1.940   3.384  11.172  0.1253  0.2410 -0.1247
  387MPD2     C 5781   0.009   3.252  10.106 -0.7053 -0.7008 -0.1142
  387MPD2    C1 5782   0.122   3.254  10.022  0.1576 -0.3133  0.6138
  387MPD2    C2 5783   0.133   3.149   9.929  0.0741  0.1599 -0.7533
  387MPD2    C3 5784   0.037   3.049   9.910 -0.0740  0.3193  0.2649
  387MPD2    C4 5785   4.658   3.047   9.996 -0.5868  0.0007 -0.0722
  387MPD2    C5 5786   4.648   3.152  10.088 -0.2725 -0.3012  0.3637
  387MPD2     H 5787   0.205   3.162   9.848  1.2799  1.5574  0.5329
  387MPD2    H1 5788   4.574   2.978   9.995  1.5432 -2.5515 -1.0925
  387MPD2    H2 5789   4.722   3.322  10.188 -0.9611 -0.7465 -0.1172
  387MPD2    H3 5790   4.568   3.152  10.162  0.1868  2.2130  0.8856
  387MPD2     N 5791   0.057   2.952   9.810  0.1380 -0.5428 -0.2070
  387MPD2    H5 5792   0.127   2.981   9.742 -2.0616  0.9560 -1.8117
  387MPD2    N1 5793   0.223   3.353  10.023  0.2370 -0.5354  0.3298
  387MPD2    H7 5794   0.297   3.342   9.954  0.2459 -0.2892  0.3015
  388TMC3    C1 5795   0.384   3.484  10.110  0.2619 -0.5148 -0.0047
  388TMC3    C2 5796   0.433   3.607  10.143  0.7174  0.7749  0.1238
  388TMC3    C3 5797   0.566   3.638  10.129 -0.0396 -0.6710 -0.2401
  388TMC3    C4 5798   0.474   3.389  10.070 -0.5021 -0.0836  0.1253
  388TMC3    C5 5799   0.604   3.422  10.058 -0.0602  0.3225 -0.2135
  388TMC3    C6 5800   0.663   3.543  10.103  0.3882  0.5314  0.4020
  388TMC3     C 5801   0.243   3.446  10.117 -0.3949 -0.2083  0.1740
  388TMC3     O 5802   0.163   3.485  10.198 -0.4869 -0.5387  0.8310
  388TMC3     H 5803   0.365   3.688  10.168 -0.6086  0.2488 -1.7457
  388TMC3    H1 5804   0.447   3.284  10.069  0.8606 -0.4748  3.3874
  388TMC3    H2 5805   0.769   3.563  10.102 -0.0729  3.0293  1.0947
  388TMC3    C7 5806   0.698   3.320  10.012  0.6305  0.1651 -0.3424
  388TMC3    C8 5807   0.604   3.764  10.172 -0.0462  0.2354  0.3860
  388TMC3    O1 5808   0.816   3.331  10.045  0.1174 -0.3850  0.1718
  388TMC3    O2 5809   0.702   3.819  10.122  0.3541  0.1208 -0.3030
  389MPD2     C 5810   4.501   1.888  11.267  0.4122 -0.1234  0.6038
  389MPD2    C1 5811   4.395   1.813  11.223  0.0469  0.2868 -0.1828
  389MPD2    C2 5812   4.320   1.746  11.324  0.4344 -0.5132  0.4075
  389MPD2    C3 5813   4.354   1.751  11.452 -0.4100 -0.1536  0.9996
  389MPD2    C4 5814   4.467   1.822  11.485  0.1027  0.4225  0.0989
  389MPD2    C5 5815   4.546   1.886  11.395  0.2284  0.6558 -0.3439
  389MPD2     H 5816   4.230   1.692  11.297  0.4767 -0.3409 -0.0751
  389MPD2    H1 5817   4.489   1.831  11.591  2.6393 -1.0512 -0.3265
  389MPD2    H2 5818   4.570   1.937  11.200 -0.1299  0.1142  0.2187
  389MPD2    H3 5819   4.641   1.931  11.423 -0.0388  1.1899 -0.3001
  389MPD2     N 5820   4.269   1.711  11.558  0.5956  0.3642  0.0189
  389MPD2    H5 5821   4.306   1.735  11.649 -0.7964  2.3431  0.0720
  389MPD2    N1 5822   4.381   1.806  11.077 -0.2769  0.5945  0.3188
  389MPD2    H7 5823   4.445   1.862  11.021 -0.4407 -1.5215 -2.0000
  390TMC3    C1 5824   4.086   1.607  11.672 -0.2641  0.8593 -0.2008
  390TMC3    C2 5825   4.014   1.494  11.692 -0.3714  0.1667 -0.1683
  390TMC3    C3 5826   3.926   1.488  11.798  0.3560 -0.9430 -0.2689
  390TMC3    C4 5827   4.056   1.724  11.738  0.5476  0.2430 -0.0866
  390TMC3    C5 5828   3.953   1.720  11.829  0.8832 -0.5432 -0.0766
  390TMC3    C6 5829   3.884   1.607  11.855 -0.1527 -0.7467  0.0763
  390TMC3     C 5830   4.169   1.617  11.550 -0.4727  0.2887  0.0275
  390TMC3     O 5831   4.135   1.558  11.449  0.2081  0.1479  0.6679
  390TMC3     H 5832   4.036   1.409  11.629  0.7318  1.2857 -1.2943
  390TMC3    H1 5833   4.109   1.818  11.731 -1.0817  0.9664 -2.7508
  390TMC3    H2 5834   3.790   1.613  11.908 -0.0263 -0.5555  0.2767
  390TMC3    C7 5835   3.900   1.846  11.870  0.0197  0.1103  0.5705
  390TMC3    C8 5836   3.832   1.377  11.803 -0.6327 -0.1265  0.1603
  390TMC3    O1 5837   3.940   1.938  11.804 -0.2811 -1.0510  0.4379
  390TMC3    O2 5838   3.819   1.310  11.703 -0.1832  0.1127  0.4472
  391MPD2     C 5839   3.298   3.200  11.374 -0.5798  0.7594 -0.3070
  391MPD2    C1 5840   3.431   3.243  11.349 -0.5337  0.1092  0.5391
  391MPD2    C2 5841   3.488   3.232  11.225  0.2000 -0.2053 -0.6628
  391MPD2    C3 5842   3.408   3.182  11.125  0.0534  0.0047  0.1181
  391MPD2    C4 5843   3.270   3.148  11.144 -0.6088  0.0609 -0.0116
  391MPD2    C5 5844   3.218   3.155  11.269  0.1555 -0.5034 -0.0558
  391MPD2     H 5845   3.593   3.247  11.205  0.4353 -1.5668 -0.4546
  391MPD2    H1 5846   3.203   3.126  11.062 -0.1964  0.8355 -0.5601
  391MPD2    H2 5847   3.253   3.207  11.472  0.1483  1.2956 -0.0091
  391MPD2    H3 5848   3.111   3.145  11.275  0.4250 -2.2450  1.7694
  391MPD2     N 5849   3.467   3.191  11.001  0.1000  0.6520  0.2166
  391MPD2    H5 5850   3.564   3.222  10.999 -0.4737  2.3941 -0.4887
  391MPD2    N1 5851   3.502   3.299  11.458  0.1151  0.5467  0.5555
  391MPD2    H7 5852   3.451   3.323  11.543 -0.6917 -0.0171  0.2341
  392TMC3    C1 5853   3.463   3.203  10.761  0.2663 -0.0434 -0.2065
  392TMC3    C2 5854   3.427   3.140  10.639 -0.3090  0.6075 -0.8560
  392TMC3    C3 5855   3.467   3.201  10.520 -0.0151  0.5759  0.2598
  392TMC3    C4 5856   3.541   3.313  10.767  0.1979 -0.1605  0.2339
  392TMC3    C5 5857   3.579   3.371  10.652  0.0122  0.1444  0.0631
  392TMC3    C6 5858   3.544   3.318  10.531  0.7267 -0.3274 -0.0066
  392TMC3     C 5859   3.397   3.158  10.881  0.6023  0.4094 -0.7034
  392TMC3     O 5860   3.295   3.094  10.863  0.0075  0.0424 -0.9217
  392TMC3     H 5861   3.348   3.065  10.634 -0.1355  0.4838 -1.7232
  392TMC3    H1 5862   3.569   3.354  10.863 -1.4735 -1.8511  1.4460
  392TMC3    H2 5863   3.591   3.346  10.438  0.9830 -0.7683 -0.0126
  392TMC3    C7 5864   3.686   3.469  10.665 -0.1817 -0.3559 -0.4540
  392TMC3    C8 5865   3.382   3.186  10.404  0.8648 -0.8367  0.2623
  392TMC3    O1 5866   3.731   3.484  10.778  0.4031 -0.2659 -0.0999
  392TMC3    O2 5867   3.307   3.090  10.404  0.2084  0.2688 -0.4668
  393TMC3    C1 5868   2.186   0.743  10.481  0.4547 -0.1905  0.4573
  393TMC3    C2 5869   2.073   0.709  10.552 -0.6326  0.0478 -0.2554
  393TMC3    C3 5870   2.062   0.742  10.681 -0.4149 -0.5457 -0.5897
  393TMC3    C4 5871   2.292   0.819  10.533 -0.1743  0.5314 -0.0421
  393TMC3    C5 5872   2.277   0.840  10.673 -0.1197 -0.2066 -0.0457
  393TMC3    C6 5873   2.166   0.802  10.740 -0.2847 -0.6537  0.0150
  393TMC3     C 5874   2.216   0.697  10.339 -0.0875 -0.2650  0.4968
  393TMC3     O 5875   2.307   0.753  10.279 -0.3819 -0.2985 -0.0745
  393TMC3     H 5876   1.993   0.657  10.500  0.3006 -1.8486  0.1785
  393TMC3    H1 5877   2.387   0.836  10.484 -0.2869  0.8735 -0.1444
  393TMC3    H2 5878   2.172   0.828  10.845  0.3438  0.6933 -0.3449
  393TMC3    C7 5879   2.388   0.891  10.752  0.2757 -0.5860  0.0083
  393TMC3    C8 5880   1.935   0.703  10.749  0.5678 -0.3154 -0.6285
  393TMC3    O1 5881   2.370   0.915  10.868 -0.1202  1.1734 -0.3938
  393TMC3    O2 5882   1.869   0.616  10.694  0.3451  0.0398 -0.1730
  394TMC3    C1 5883   4.249   1.801  10.883  0.7325 -0.0638 -0.3023
  394TMC3    C2 5884   4.120   1.840  10.848 -0.3343 -0.0070  0.7850
  394TMC3    C3 5885   4.092   1.881  10.718  0.3984 -0.3350  0.3377
  394TMC3    C4 5886   4.352   1.820  10.796 -0.3552  0.0939 -0.3652
  394TMC3    C5 5887   4.325   1.878  10.679 -0.5981  0.2052 -0.5000
  394TMC3    C6 5888   4.201   1.899  10.637 -0.1595 -0.1558 -0.0760
  394TMC3     C 5889   4.268   1.755  11.021  0.5294  0.4675 -0.4802
  394TMC3     O 5890   4.170   1.694  11.069  0.0574 -0.0062  0.2092
  394TMC3     H 5891   4.040   1.834  10.921 -1.7061 -0.2749 -0.7222
  394TMC3    H1 5892   4.450   1.801  10.836 -0.6650 -2.2037 -0.6892
  394TMC3    H2 5893   4.194   1.951  10.542 -0.0006  1.2345  0.6676
  394TMC3    C7 5894   4.430   1.929  10.592 -0.1016 -0.5931  0.3430
  394TMC3    C8 5895   3.970   1.858  10.650 -0.1428 -0.2697  0.4534
  394TMC3    O1 5896   4.397   1.994  10.494 -0.0759  0.2630 -0.3457
  394TMC3    O2 5897   3.872   1.850  10.721  0.6049  0.3017  0.0119
  395TMC3    C1 5898   3.150   4.199  14.566 -0.2667 -0.0222 -0.0716
  395TMC3    C2 5899   3.052   4.147  14.647  1.0950 -0.8712  0.2120
  395TMC3    C3 5900   3.039   4.194  14.773  0.5574 -0.5754  0.1497
  395TMC3    C4 5901   3.223   4.312  14.603 -0.3441 -0.5375 -0.2688
  395TMC3    C5 5902   3.216   4.354  14.729 -0.7098 -0.0613 -0.4689
  395TMC3    C6 5903   3.129   4.291  14.822  0.0715 -0.0656  0.3546
  395TMC3     C 5904   3.136   4.177  14.421  0.3854 -0.4652 -0.0558
  395TMC3     O 5905   3.122   4.272  14.344  0.2728  0.0627  0.2686
  395TMC3     H 5906   2.974   4.083  14.608 -1.0678  0.5949  2.0594
  395TMC3    H1 5907   3.295   4.363  14.540 -0.5871  0.1648  0.0250
  395TMC3    H2 5908   3.117   4.323  14.925 -1.6016 -2.1877  0.8353
  395TMC3    C7 5909   3.341   4.390  14.796 -0.9466  0.3673  0.1886
  395TMC3    C8 5910   2.955   4.122  14.870  0.1037  0.1060 -0.2142
  395TMC3    O1 5911   3.374   4.329  14.896 -0.4615 -0.5867  0.4368
  395TMC3    O2 5912   2.911   4.188  14.956 -0.5483 -0.1979  0.1765
  396MPD2     C 5913   3.601   0.354   0.041 -0.0877  0.4119 -0.7019
  396MPD2    C1 5914   3.662   0.303  17.630  0.4616  0.1248 -0.0988
  396MPD2    C2 5915   3.662   0.384  17.522 -0.2070  0.0443  0.4201
  396MPD2    C3 5916   3.617   0.516  17.529 -0.5042 -0.3770  0.0239
  396MPD2    C4 5917   3.547   0.563  17.641 -0.6362  0.9895 -0.9474
  396MPD2    C5 5918   3.543   0.478   0.045 -0.0065 -0.2629 -0.2481
  396MPD2     H 5919   3.718   0.361  17.432  1.7609 -2.6937  2.3295
  396MPD2    H1 5920   3.495   0.657  17.638 -2.3213  0.0956  0.4061
  396MPD2    H2 5921   3.585   0.296   0.131  0.0206  0.3364 -0.7312
  396MPD2    H3 5922   3.496   0.508   0.138 -0.9507 -1.4837 -0.3311
  396MPD2     N 5923   3.637   0.599  17.414  0.0708 -0.2444 -0.2558
  396MPD2    H5 5924   3.660   0.546  17.331 -0.9950  0.4109 -0.9727
  396MPD2    N1 5925   3.708   0.174  17.638  0.3705 -0.2558  0.1535
  396MPD2    H7 5926   3.693   0.123   0.019  0.8299 -0.4462  0.1227
  397TMC3    C1 5927   3.776   4.682  17.552  0.3604 -0.9237  0.1682
  397TMC3    C2 5928   3.779   4.606  17.436 -0.6655 -0.5760  0.7446
  397TMC3    C3 5929   3.743   4.477  17.425 -0.1106  0.7809  0.1644
  397TMC3    C4 5930   3.724   4.621  17.662  0.4656  0.1501 -0.3587
  397TMC3    C5 5931   3.686   4.485  17.650  0.4217 -0.5409 -0.1647
  397TMC3    C6 5932   3.689   4.410  17.533  0.1284 -0.2099  0.3494
  397TMC3     C 5933   3.761   0.101  17.535 -0.6241  0.0498 -0.9239
  397TMC3     O 5934   3.771   0.144  17.419  0.4237 -0.3601  0.5869
  397TMC3     H 5935   3.835   4.649  17.354  1.0966  0.4295  2.4580
  397TMC3    H1 5936   3.719   4.675   0.050 -2.3407  0.9822 -0.9952
  397TMC3    H2 5937   3.651   4.308  17.526 -0.8744  0.1909 -0.1678
  397TMC3    C7 5938   3.608   4.427   0.050  0.5124 -0.3152  0.2216
  397TMC3    C8 5939   3.716   4.424  17.292  0.2581 -0.0671  0.4974
  397TMC3    O1 5940   3.543   4.327   0.024  0.1561  0.0892 -0.2878
  397TMC3    O2 5941   3.699   4.305  17.275 -0.6249  0.1254 -0.5268
  398MPD2     C 5942   1.284   0.559   0.170 -0.0535 -0.0957  0.1997
  398MPD2    C1 5943   1.386   0.550   0.261  0.1552 -0.2174 -0.0935
  398MPD2    C2 5944   1.457   0.667   0.300  0.1488 -0.1543 -0.1256
  398MPD2    C3 5945   1.416   0.787   0.249  1.0389  0.0975 -0.1338
  398MPD2    C4 5946   1.318   0.794   0.151 -0.6116  0.0484  0.3337
  398MPD2    C5 5947   1.257   0.677   0.110  0.4786  0.0257  0.2454
  398MPD2     H 5948   1.532   0.662   0.377 -0.6801 -4.0771  0.4091
  398MPD2    H1 5949   1.284   0.887   0.107 -2.6562 -1.2601 -0.8432
  398MPD2    H2 5950   1.219   0.482   0.131 -1.8482  0.7817  1.4759
  398MPD2    H3 5951   1.183   0.680   0.030  0.7376 -1.3566 -0.0516
  398MPD2     N 5952   1.485   0.902   0.298 -0.6113 -0.0074  0.2488
  398MPD2    H5 5953   1.550   0.905   0.376 -1.2718 -2.1836  0.8675
  398MPD2    N1 5954   1.432   0.428   0.315  0.2307 -0.3093 -0.4193
  398MPD2    H7 5955   1.503   0.435   0.387 -0.1912 -3.9826  0.3686
  399TMC3    C1 5956   1.454   0.207   0.385  0.2356  0.1309 -0.6292
  399TMC3    C2 5957   1.581   0.217   0.418 -0.6831  0.5657 -0.2368
  399TMC3    C3 5958   1.637   0.112   0.485 -0.4678 -0.4118 -0.1638
  399TMC3    C4 5959   1.372   0.104   0.430  0.5293 -0.4509  0.8441
  399TMC3    C5 5960   1.435   4.725   0.498 -0.2122 -1.3286  1.0021
  399TMC3    C6 5961   1.571   4.723   0.517 -0.3285  0.0293 -0.5989
  399TMC3     C 5962   1.373   0.303   0.301 -0.2745 -0.5711  0.1299
  399TMC3     O 5963   1.268   0.272   0.246  0.5929 -0.6351  0.0721
  399TMC3     H 5964   1.639   0.304   0.390 -2.8779  2.7857  2.1137
  399TMC3    H1 5965   1.266   0.106   0.411  0.9724  1.4829 -1.3284
  399TMC3    H2 5966   1.615   4.646   0.578  0.0379  0.0894 -0.7852
  399TMC3    C7 5967   1.354   4.608   0.506  0.3655 -0.3861  0.0945
  399TMC3    C8 5968   1.780   0.101   0.486  1.3486 -0.1478 -0.1824
  399TMC3    O1 5969   1.234   4.624   0.514  0.1760 -0.1382  0.4004
  399TMC3    O2 5970   1.833   0.173   0.405 -0.1513  1.0244 -0.4801
  400TMC3    C1 5971   4.388   4.291  16.857  0.3196  0.1402 -1.1613
  400TMC3    C2 5972   4.348   4.166  16.812  0.2271 -0.5914  0.1258
  400TMC3    C3 5973   4.225   4.162  16.748 -0.4215 -0.1312 -0.4405
  400TMC3    C4 5974   4.320   4.409  16.848 -0.9491  0.2364  0.2968
  400TMC3    C5 5975   4.204   4.399  16.771 -0.5236  0.1284  0.7834
  400TMC3    C6 5976   4.161   4.277  16.721  0.0839 -0.7006  0.1628
  400TMC3     C 5977   4.510   4.287  16.936 -0.4374 -0.0150 -0.3535
  400TMC3     O 5978   4.547   4.174  16.970 -0.4539 -0.5778 -1.1703
  400TMC3     H 5979   4.404   4.073  16.819  1.1794 -0.2302 -2.6725
  400TMC3    H1 5980   4.358   4.498  16.895  1.9767 -1.2566  0.7458
  400TMC3    H2 5981   4.067   4.278  16.667  0.4814  1.0041 -0.4937
  400TMC3    C7 5982   4.113   4.509  16.760 -0.1856 -0.3406 -0.1639
  400TMC3    C8 5983   4.143   4.050  16.777 -0.1271 -0.0932  0.9336
  400TMC3    O1 5984   4.018   4.493  16.682  0.1398 -0.8228  0.0026
  400TMC3    O2 5985   4.179   3.976  16.867 -0.1604  0.2616 -0.2313
  401MPD2     C 5986   3.375   3.226   1.929  0.2711  0.1079  0.6322
  401MPD2    C1 5987   3.462   3.175   1.826  0.0373 -0.8033 -0.8534
  401MPD2    C2 5988   3.433   3.047   1.777  0.6172 -0.4024 -0.4017
  401MPD2    C3 5989   3.322   2.977   1.812 -0.0955 -0.3562 -0.5837
  401MPD2    C4 5990   3.236   3.021   1.907 -0.1374  0.2717 -0.2164
  401MPD2    C5 5991   3.267   3.142   1.962  0.1977  0.2369  0.7809
  401MPD2     H 5992   3.500   3.013   1.699  0.6907 -0.9515 -0.0947
  401MPD2    H1 5993   3.154   2.964   1.950 -0.4043  0.1565 -0.8783
  401MPD2    H2 5994   3.384   3.328   1.964 -1.9105  1.3049 -2.2951
  401MPD2    H3 5995   3.202   3.190   2.035  1.3543 -0.0791  2.0108
  401MPD2     N 5996   3.296   2.843   1.764 -0.7016 -0.1316  0.7341
  401MPD2    H5 5997   3.208   2.806   1.799 -0.2222 -0.5038  1.5556
  401MPD2    N1 5998   3.566   3.252   1.769  0.5626 -0.2460 -0.9017
  401MPD2    H7 5999   3.598   3.222   1.677  0.1701 -0.4088 -0.9820
  402TMC3    C1 6000   3.325   2.628   1.654  0.1288  0.3138 -0.4901
  402TMC3    C2 6001   3.412   2.543   1.596 -0.2147 -0.1435 -0.5720
  402TMC3    C3 6002   3.352   2.441   1.526 -0.9799 -0.2235 -0.8055
  402TMC3    C4 6003   3.190   2.632   1.619  0.1644  0.1974 -0.1532
  402TMC3    C5 6004   3.147   2.555   1.518  0.4064  0.3592  0.6894
  402TMC3    C6 6005   3.225   2.451   1.477 -0.7665 -0.1877  0.3987
  402TMC3     C 6006   3.376   2.754   1.689  0.1026  0.0581 -0.1133
  402TMC3     O 6007   3.483   2.784   1.648  0.3058 -0.1031 -0.4664
  402TMC3     H 6008   3.513   2.540   1.633 -0.8662  0.1947  1.2655
  402TMC3    H1 6009   3.121   2.706   1.658  1.1730  1.7774 -1.3723
  402TMC3    H2 6010   3.186   2.374   1.411 -2.3677  1.0304 -0.0675
  402TMC3    C7 6011   3.010   2.572   1.474  0.4615 -0.9927  0.3748
  402TMC3    C8 6012   3.444   2.367   1.443 -0.5950  0.1508  0.7702
  402TMC3    O1 6013   2.929   2.627   1.544  0.0631  0.2569  0.6234
  402TMC3    O2 6014   3.415   2.351   1.325  0.2289  0.1371 -0.4427
  403MPD2     C 6015   1.654   1.045  14.085  0.3403 -0.0434 -0.7896
  403MPD2    C1 6016   1.692   1.083  13.958 -0.4361 -0.0886  0.4443
  403MPD2    C2 6017   1.812   1.146  13.946  0.6403 -0.3423 -0.1665
  403MPD2    C3 6018   1.899   1.160  14.053 -0.9359 -0.0141  0.1483
  403MPD2    C4 6019   1.856   1.127  14.179 -0.3749 -0.3177  0.0542
  403MPD2    C5 6020   1.735   1.067  14.195 -0.2532 -0.4839 -0.5049
  403MPD2     H 6021   1.847   1.174  13.848 -0.7028  2.1697  0.0917
  403MPD2    H1 6022   1.910   1.146  14.271  0.4457  0.2767 -0.5484
  403MPD2    H2 6023   1.556   1.001  14.099  0.7214 -0.0817  1.7592
  403MPD2    H3 6024   1.710   1.033  14.295  0.2461 -0.7180 -0.4583
  403MPD2     N 6025   2.024   1.226  14.031 -0.1010 -0.3480  0.0227
  403MPD2    H5 6026   2.033   1.286  13.950  1.3598 -0.5917  0.0152
  403MPD2    N1 6027   1.598   1.051  13.849  0.5022 -0.2354 -0.2501
  403MPD2    H7 6028   1.511   1.009  13.881  0.0176  0.6217 -0.4580
  404TMC3    C1 6029   1.504   1.066  13.627 -0.3791  0.8795 -0.3435
  404TMC3    C2 6030   1.427   0.961  13.663 -0.2435 -0.1161 -0.0649
  404TMC3    C3 6031   1.339   0.898  13.579 -0.3145 -0.9416  0.4505
  404TMC3    C4 6032   1.497   1.115  13.500  0.3280 -0.3292 -1.3626
  404TMC3    C5 6033   1.409   1.054  13.417 -0.4008 -0.0348 -1.1083
  404TMC3    C6 6034   1.332   0.945  13.451 -0.0077  0.3836 -0.6014
  404TMC3     C 6035   1.621   1.086  13.718 -0.0891  0.6012 -0.6388
  404TMC3     O 6036   1.712   1.143  13.667  0.5115 -0.4861 -0.2987
  404TMC3     H 6037   1.447   0.908  13.756  2.3126 -1.4041 -1.3585
  404TMC3    H1 6038   1.547   1.207  13.470  0.7563  0.1019  0.6816
  404TMC3    H2 6039   1.270   0.894  13.378 -1.3255 -0.4837  1.1223
  404TMC3    C7 6040   1.376   1.131  13.293 -0.3432 -0.3238  0.1565
  404TMC3    C8 6041   1.307   0.766  13.604  0.0542 -0.0487  0.6055
  404TMC3    O1 6042   1.404   1.253  13.298  0.4722 -0.3756 -0.3166
  404TMC3    O2 6043   1.334   0.684  13.512 -0.2101 -0.0414 -0.1122
  405MPD2     C 6044   2.015   2.034  14.874  0.1860  0.1337 -0.4651
  405MPD2    C1 6045   1.949   2.014  14.754  0.3998  0.5024  0.2172
  405MPD2    C2 6046   1.946   2.132  14.671  0.4803  0.8443  0.1094
  405MPD2    C3 6047   2.006   2.244  14.708  0.4546 -0.0663 -0.3828
  405MPD2    C4 6048   2.069   2.262  14.832 -0.6013  0.3971 -0.0877
  405MPD2    C5 6049   2.069   2.151  14.912  0.3075  0.2999  0.0085
  405MPD2     H 6050   1.883   2.121  14.584 -0.2406 -1.5257  0.9523
  405MPD2    H1 6051   2.132   2.346  14.861 -0.1925  0.5497 -1.3904
  405MPD2    H2 6052   2.016   1.958  14.952  0.4384  1.1094  0.4741
  405MPD2    H3 6053   2.130   2.148  15.002  0.5820  0.1843 -0.1821
  405MPD2     N 6054   2.000   2.354  14.621  0.3651  0.2743 -0.5847
  405MPD2    H5 6055   1.969   2.337  14.526 -1.1291  0.2174 -0.0915
  405MPD2    N1 6056   1.884   1.891  14.724  0.3379  0.0419  0.1107
  405MPD2    H7 6057   1.868   1.828  14.802 -3.6376  0.4603 -0.3633
  406TMC3    C1 6058   1.933   2.748  14.439  0.6523 -0.1501 -0.2484
  406TMC3    C2 6059   1.885   2.684  14.327 -0.0439 -0.0560 -0.6332
  406TMC3    C3 6060   1.905   2.554  14.310 -0.5100  0.4045  0.1176
  406TMC3    C4 6061   2.018   2.687  14.524  0.2847 -0.5858 -0.1510
  406TMC3    C5 6062   2.029   2.552  14.515  0.3211  0.1750  0.4884
  406TMC3    C6 6063   1.976   2.487  14.407  0.7020 -0.5983  0.9039
  406TMC3     C 6064   1.839   2.833  14.512  0.1280  0.6532  0.3899
  406TMC3     O 6065   1.873   2.887  14.618 -0.1897  0.5351 -0.1449
  406TMC3     H 6066   1.852   2.753  14.250 -1.3873  0.2093  0.1782
  406TMC3    H1 6067   2.051   2.746  14.610  0.3114  2.9776 -2.6017
  406TMC3    H2 6068   2.016   2.389  14.386 -1.2213 -0.9434 -1.1525
  406TMC3    C7 6069   2.035   2.482  14.643  0.4915 -0.5341  0.1780
  406TMC3    C8 6070   1.778   2.501  14.278  0.1398 -0.3110  0.4747
  406TMC3    O1 6071   2.037   2.545  14.746 -0.0128  0.2497  0.0942
  406TMC3    O2 6072   1.693   2.590  14.290  0.3290  0.0245 -0.0619
  407MPD2     C 6073   4.289   3.266   9.890 -0.3003  0.3259  0.2685
  407MPD2    C1 6074   4.364   3.378   9.908 -0.4185 -0.3531  0.0451
  407MPD2    C2 6075   4.333   3.469  10.005 -0.2421  0.1540  0.3606
  407MPD2    C3 6076   4.228   3.447  10.091 -0.3771 -0.0305  0.3347
  407MPD2    C4 6077   4.150   3.333  10.075  0.0463  0.7604  0.6520
  407MPD2    C5 6078   4.184   3.245   9.973 -0.0349 -0.1007 -0.1328
  407MPD2     H 6079   4.406   3.549  10.003 -1.4995  1.3058  1.6535
  407MPD2    H1 6080   4.061   3.325  10.136  0.5692  1.9946  1.6004
  407MPD2    H2 6081   4.306   3.192   9.813 -0.7131 -0.0502  0.5390
  407MPD2    H3 6082   4.116   3.166   9.947 -2.0377  1.3005  0.8623
  407MPD2     N 6083   4.210   3.527  10.202  0.0345  0.6705  0.4163
  407MPD2    H5 6084   4.150   3.498  10.279  0.9575 -1.7354  0.2349
  407MPD2    N1 6085   4.476   3.404   9.827 -0.0093 -0.1625  0.3641
  407MPD2    H7 6086   4.512   3.498   9.835 -1.4081  0.6496 -2.8554
  408TMC3    C1 6087   4.657   3.355   9.697  0.2394 -0.3080 -0.3778
  408TMC3    C2 6088   4.695   3.319   9.571  0.1492 -0.7616  0.0120
  408TMC3    C3 6089   0.077   3.385   9.514  0.3998 -0.4613  0.1532
  408TMC3    C4 6090   4.718   3.456   9.769  0.6273  0.3666  0.3799
  408TMC3    C5 6091   0.096   3.519   9.706 -0.2940  0.5980  0.1373
  408TMC3    C6 6092   0.145   3.484   9.587 -0.7819  0.0494 -0.0815
  408TMC3     C 6093   4.532   3.312   9.747  0.6355 -0.4926  0.5030
  408TMC3     O 6094   4.501   3.200   9.707  0.2489 -0.9010  0.8265
  408TMC3     H 6095   4.655   3.230   9.522  1.5393 -1.2481 -0.2302
  408TMC3    H1 6096   4.691   3.477   9.872  0.2622  0.5364  0.2484
  408TMC3    H2 6097   0.217   3.547   9.536  2.1166 -1.6312  1.9615
  408TMC3    C7 6098   0.175   3.617   9.782 -0.2393  0.2478  0.0260
  408TMC3    C8 6099   0.141   3.318   9.409  0.3855  0.4330  0.8847
  408TMC3    O1 6100   0.282   3.647   9.730  0.5106 -0.5736 -0.0153
  408TMC3    O2 6101   0.071   3.243   9.342  0.3244  0.1402 -0.3653
  409MPD2     C 6102   3.313   3.708  17.315 -0.5921  0.3269  0.1587
  409MPD2    C1 6103   3.449   3.688  17.311 -0.1655 -0.2947 -0.3932
  409MPD2    C2 6104   3.521   3.765  17.229 -0.3904  0.5704  0.0364
  409MPD2    C3 6105   3.478   3.855  17.144 -0.7223  0.3056  0.4302
  409MPD2    C4 6106   3.346   3.876  17.151  0.3754 -0.6690 -1.3091
  409MPD2    C5 6107   3.264   3.804  17.232 -0.5675 -0.1198 -0.0277
  409MPD2     H 6108   3.624   3.731  17.228 -0.9742 -1.2042 -0.2781
  409MPD2    H1 6109   3.301   3.955  17.091 -0.5715  1.0680  1.7073
  409MPD2    H2 6110   3.242   3.658  17.380 -2.5968  3.3769  0.2663
  409MPD2    H3 6111   3.163   3.836  17.255 -0.0607  0.4480  1.3884
  409MPD2     N 6112   3.557   3.949  17.072 -0.8979  0.0961 -0.2218
  409MPD2    H5 6113   3.512   4.030  17.030  1.3795  2.0389  1.0532
  409MPD2    N1 6114   3.516   3.602  17.403  0.3944  0.4198 -0.3944
  409MPD2    H7 6115   3.617   3.595  17.407  0.5022  1.5069 -1.2846
  410TMC3    C1 6116   3.748   4.075  17.026 -0.3111  0.3421 -0.6366
  410TMC3    C2 6117   3.862   4.121  17.073  0.2267 -0.3734 -0.1697
  410TMC3    C3 6118   3.923   4.226  17.013 -0.1734  0.3018  1.1722
  410TMC3    C4 6119   3.704   4.110  16.899 -0.2777  0.7699  1.0360
  410TMC3    C5 6120   3.770   4.218  16.844  0.0097  0.0586 -1.0135
  410TMC3    C6 6121   3.874   4.282  16.903  0.2674  0.5258  0.9294
  410TMC3     C 6122   3.696   3.948  17.071  0.0061  0.8469 -0.3159
  410TMC3     O 6123   3.771   3.876  17.130  0.5502  0.3484 -0.2845
  410TMC3     H 6124   3.882   4.092  17.175  3.4483 -2.5239 -1.3653
  410TMC3    H1 6125   3.611   4.074  16.858 -0.3717  2.2630 -0.0620
  410TMC3    H2 6126   3.933   4.362  16.861 -0.1167  0.7597  0.8329
  410TMC3    C7 6127   3.721   4.250  16.713  0.5274 -0.6153  0.2870
  410TMC3    C8 6128   4.037   4.287  17.075  0.1655  0.2204 -0.0520
  410TMC3    O1 6129   3.637   4.175  16.667  0.0319 -0.2627  0.5460
  410TMC3    O2 6130   4.045   4.413  17.075  0.1466  1.2030  0.6346
  411MPD2     C 6131   4.120   0.156  14.680 -0.1310 -0.2623  0.5741
  411MPD2    C1 6132   4.028   0.199  14.587  0.0281  0.0274 -0.3825
  411MPD2    C2 6133   3.973   0.104  14.501  0.6774  0.3090 -0.1914
  411MPD2    C3 6134   4.003   4.698  14.508  0.6658 -0.3924  0.3319
  411MPD2    C4 6135   4.079   4.650  14.608  0.6296  0.0439  0.0583
  411MPD2    C5 6136   4.139   0.019  14.691 -0.1401 -0.6987 -0.0726
  411MPD2     H 6137   3.902   0.131  14.424 -0.6452  0.0163  0.9209
  411MPD2    H1 6138   4.118   4.549  14.618  1.3862  0.5285  1.7921
  411MPD2    H2 6139   4.171   0.212  14.757  0.1500 -2.1088  1.7173
  411MPD2    H3 6140   4.211   0.008  14.771  1.4516  0.5096 -1.3363
  411MPD2     N 6141   3.952   4.597  14.423 -0.4528 -0.0572 -0.6350
  411MPD2    H5 6142   4.003   4.510  14.433 -0.2607  0.6296  4.0872
  411MPD2    N1 6143   3.996   0.342  14.584  0.6139  0.3385 -0.3836
  411MPD2    H7 6144   4.038   0.401  14.654 -1.9893  1.1580  0.4831
  412TMC3    C1 6145   3.851   4.514  14.219 -0.2808 -0.9655  0.3395
  412TMC3    C2 6146   3.840   4.561  14.093  0.1468  1.4112 -0.3326
  412TMC3    C3 6147   3.855   4.471  13.982  0.1111 -0.0396 -0.5656
  412TMC3    C4 6148   3.894   4.387  14.246 -0.3053  0.5595 -0.1624
  412TMC3    C5 6149   3.914   4.303  14.141 -0.4698 -0.2181 -0.4585
  412TMC3    C6 6150   3.898   4.343  14.007 -0.1828  0.3642 -0.4615
  412TMC3     C 6151   3.858   4.616  14.326 -0.3321 -0.7434 -0.3246
  412TMC3     O 6152   3.775   4.707  14.318  0.0197  0.3776  0.1699
  412TMC3     H 6153   3.810   4.663  14.074  0.0153  1.5699  0.7342
  412TMC3    H1 6154   3.900   4.356  14.350  0.3352 -0.2632 -0.4513
  412TMC3    H2 6155   3.896   4.265  13.932  1.2565 -2.4716  2.4515
  412TMC3    C7 6156   4.035   4.231  14.153  0.1209  0.3331 -0.6937
  412TMC3    C8 6157   3.937   4.523  13.880 -0.1412 -0.6168 -0.6460
  412TMC3    O1 6158   4.054   4.163  14.246  0.0801  0.2783  0.3613
  412TMC3    O2 6159   4.029   4.447  13.841  0.1336  0.4395 -0.2903
  413MPD2     C 6160   0.509   2.647  15.604  0.0108 -0.7736 -0.2106
  413MPD2    C1 6161   0.559   2.764  15.549  0.6060  0.1834  0.2150
  413MPD2    C2 6162   0.689   2.771  15.492  1.1977  0.3759 -0.6776
  413MPD2    C3 6163   0.770   2.657  15.505 -0.3151  0.3687 -1.2423
  413MPD2    C4 6164   0.719   2.539  15.560  0.0347 -0.2368  0.1796
  413MPD2    C5 6165   0.587   2.533  15.604  0.1432 -0.5862  0.3323
  413MPD2     H 6166   0.738   2.861  15.458  0.8676  1.0675  0.6908
  413MPD2    H1 6167   0.781   2.450  15.563  0.5033  0.0684 -0.4370
  413MPD2    H2 6168   0.407   2.633  15.634 -0.3661 -1.7049 -1.9149
  413MPD2    H3 6169   0.551   2.434  15.632  0.4226 -1.3656 -2.0646
  413MPD2     N 6170   0.912   2.681  15.489 -0.2616  0.1337  0.3882
  413MPD2    H5 6171   0.949   2.775  15.477 -2.1680  0.9881  1.1778
  413MPD2    N1 6172   0.470   2.870  15.549  0.0572  0.3441  0.0420
  413MPD2    H7 6173   0.375   2.849  15.579 -0.1227  2.6675  1.0708
  414TMC3    C1 6174   1.144   2.630  15.518 -0.7452  0.4311  0.3966
  414TMC3    C2 6175   1.227   2.557  15.606  0.0840 -0.0230 -0.1225
  414TMC3    C3 6176   1.353   2.602  15.604 -0.5137  0.2410 -0.3626
  414TMC3    C4 6177   1.191   2.706  15.420 -0.4601 -0.1325 -0.4911
  414TMC3    C5 6178   1.327   2.722  15.407  0.3047 -0.2072 -0.7104
  414TMC3    C6 6179   1.403   2.693  15.519  0.4129  0.4480 -0.2985
  414TMC3     C 6180   1.006   2.580  15.512  0.2887 -0.3162  0.4341
  414TMC3     O 6181   0.989   2.457  15.541 -0.1914 -0.1864 -0.0341
  414TMC3     H 6182   1.195   2.472  15.666  3.2074 -0.6472  0.6594
  414TMC3    H1 6183   1.127   2.726  15.334 -1.3501  0.4711  0.3174
  414TMC3    H2 6184   1.509   2.715  15.523  0.5691  0.1118 -2.5305
  414TMC3    C7 6185   1.382   2.643  15.300 -0.2559  0.2036 -0.0142
  414TMC3    C8 6186   1.438   2.490  15.629 -0.6642 -0.0745 -0.2402
  414TMC3    O1 6187   1.300   2.599  15.219 -0.1349  0.0684 -0.1175
  414TMC3    O2 6188   1.393   2.390  15.577 -0.2482 -0.2301  0.2336
  415TMC3    C1 6189   2.456   0.332  10.322  0.0989 -0.2377 -0.5863
  415TMC3    C2 6190   2.551   0.402  10.255 -0.2459 -0.3356  0.1731
  415TMC3    C3 6191   2.611   0.342  10.148 -0.4049  0.6819 -0.6708
  415TMC3    C4 6192   2.425   0.198  10.289 -0.2624  0.1701 -0.8657
  415TMC3    C5 6193   2.499   0.142  10.194  0.1420  0.1633  0.7395
  415TMC3    C6 6194   2.591   0.207  10.118 -0.1624  0.3985  0.4119
  415TMC3     C 6195   2.410   0.372  10.449 -0.3575 -0.7928  0.3670
  415TMC3     O 6196   2.325   0.297  10.492  0.2068  0.2607  0.1930
  415TMC3     H 6197   2.555   0.509  10.271 -0.7923 -0.0066 -1.9279
  415TMC3    H1 6198   2.324   0.161  10.305 -0.8273  0.9960 -2.5850
  415TMC3    H2 6199   2.661   0.164  10.047 -0.7621 -1.3182  0.8592
  415TMC3    C7 6200   2.471   0.004  10.154 -0.8197  0.0844  0.1284
  415TMC3    C8 6201   2.726   0.406  10.092  1.1710  0.1208 -0.5045
  415TMC3    O1 6202   2.521   4.686  10.049  0.5494 -0.7068 -0.1503
  415TMC3    O2 6203   2.810   0.320  10.058  0.1404 -0.3931  0.2960
  416MPD2     C 6204   3.863   4.404  11.992  0.2708 -0.2818  0.0573
  416MPD2    C1 6205   3.745   4.394  11.922 -0.1254  0.0068 -0.3670
  416MPD2    C2 6206   3.746   4.328  11.802  0.7202 -0.0289  0.4210
  416MPD2    C3 6207   3.857   4.259  11.764 -0.4231 -0.2844  0.4259
  416MPD2    C4 6208   3.971   4.264  11.832  0.5000  0.1566 -1.0409
  416MPD2    C5 6209   3.969   4.341  11.948 -0.0958  0.1189  0.3748
  416MPD2     H 6210   3.650   4.325  11.751 -0.2692 -1.2312  2.3330
  416MPD2    H1 6211   4.058   4.202  11.813  0.3935  0.1086 -1.3652
  416MPD2    H2 6212   3.857   4.454  12.088  0.7169  0.8508 -0.5060
  416MPD2    H3 6213   4.058   4.331  12.009  1.3725  4.4684 -1.0666
  416MPD2     N 6214   3.857   4.168  11.654 -0.2128  0.2372  0.1549
  416MPD2    H5 6215   3.944   4.117  11.641  0.6253  1.6679  0.1578
  416MPD2    N1 6216   3.629   4.444  11.983 -0.5294  0.4410  0.2514
  416MPD2    H7 6217   3.635   4.509  12.060 -1.6087 -0.7210  1.3221
  417TMC3    C1 6218   3.407   4.487  12.046 -0.4945  0.3236 -0.6446
  417TMC3    C2 6219   3.455   4.579  12.138 -0.5139  0.1748 -0.8632
  417TMC3    C3 6220   3.377   4.688  12.166  0.1609 -0.3931 -0.2889
  417TMC3    C4 6221   3.280   4.505  12.001  0.3628 -0.3492 -0.3900
  417TMC3    C5 6222   3.200   4.609  12.040  0.3925 -0.1485  0.6099
  417TMC3    C6 6223   3.248   4.705  12.119  0.6730  0.2530 -0.1313
  417TMC3     C 6224   3.499   4.406  11.964  0.5770 -0.7343 -0.2589
  417TMC3     O 6225   3.449   4.332  11.880 -0.7775 -0.2910 -0.1795
  417TMC3     H 6226   3.552   4.570  12.186 -1.6279 -0.4857  1.2713
  417TMC3    H1 6227   3.243   4.437  11.925  1.4301 -2.2551  0.8286
  417TMC3    H2 6228   3.204   0.078  12.121  1.2984  0.5889 -2.1712
  417TMC3    C7 6229   3.110   4.650  11.937  0.6289  0.5741  0.6757
  417TMC3    C8 6230   3.407   0.052  12.273  0.3881 -0.6168  0.2242
  417TMC3    O1 6231   3.103   0.043  11.920  0.6360 -0.7572  0.3173
  417TMC3    O2 6232   3.309   0.084  12.341  0.1423  0.5563  0.1625
  418TMC3    C1 6233   1.776   1.195   0.337 -0.0184 -0.7274  0.2196
  418TMC3    C2 6234   1.673   1.166   0.258  0.3571  0.0325 -0.7165
  418TMC3    C3 6235   1.558   1.120   0.316 -0.2281 -0.6007  0.1545
  418TMC3    C4 6236   1.752   1.197   0.475  0.1438  0.0979 -0.0382
  418TMC3    C5 6237   1.634   1.163   0.534  0.2779 -0.7081 -0.0160
  418TMC3    C6 6238   1.534   1.128   0.444  0.2109 -0.1529  0.6063
  418TMC3     C 6239   1.904   1.158   0.288  0.3944 -0.1773 -0.3127
  418TMC3     O 6240   1.974   1.086   0.361  0.1612 -0.8339  0.7977
  418TMC3     H 6241   1.686   1.145   0.153 -1.0576 -0.3160 -0.8298
  418TMC3    H1 6242   1.842   1.210   0.534 -0.0889  0.7594  0.1686
  418TMC3    H2 6243   1.443   1.082   0.481 -1.2586  0.2037 -2.5701
  418TMC3    C7 6244   1.646   1.075   0.652  0.1679  0.3271  0.3300
  418TMC3    C8 6245   1.474   1.027   0.238 -0.2825  0.2194 -0.4170
  418TMC3    O1 6246   1.577   0.974   0.650  0.1672 -0.4434 -0.0923
  418TMC3    O2 6247   1.418   1.071   0.141 -0.2014  0.0823 -0.8303
  419MPD2     C 6248   1.033   4.405  12.671 -0.4757  0.1939  0.0734
  419MPD2    C1 6249   0.908   4.431  12.625  0.1357  0.1047 -0.5215
  419MPD2    C2 6250   0.806   4.462  12.716 -0.1218  0.0896 -0.2213
  419MPD2    C3 6251   0.836   4.463  12.853 -0.4994 -0.4024 -0.3676
  419MPD2    C4 6252   0.965   4.426  12.898 -0.1017  0.2069 -0.0422
  419MPD2    C5 6253   1.064   4.400  12.807 -0.2159  1.2484 -0.2598
  419MPD2     H 6254   0.712   4.504  12.681 -0.1136 -0.6637 -1.1596
  419MPD2    H1 6255   0.983   4.418  13.005 -0.7538 -1.0706 -0.0312
  419MPD2    H2 6256   1.118   4.398  12.605  0.0577  1.1209  0.6639
  419MPD2    H3 6257   1.167   4.384  12.835  0.2336  0.3821 -2.3566
  419MPD2     N 6258   0.737   4.510  12.939  0.0368 -0.4282  0.3171
  419MPD2    H5 6259   0.652   4.550  12.900  1.0361 -0.6601 -2.1004
  419MPD2    N1 6260   0.890   4.465  12.484 -0.3590 -0.2788 -0.4465
  419MPD2    H7 6261   0.810   4.521  12.456  0.9895  0.3306 -3.1119
  420TMC3    C1 6262   0.706   4.648  13.116 -0.0886  0.0558  0.2219
  420TMC3    C2 6263   0.641   0.006  13.037  0.5008  0.6300 -0.2343
  420TMC3    C3 6264   0.610   0.126  13.093  0.0346 -0.4174 -0.5124
  420TMC3    C4 6265   0.735   4.673  13.249  0.4529  0.1173  0.1261
  420TMC3    C5 6266   0.694   0.068  13.302 -0.2962 -0.2014  0.0652
  420TMC3    C6 6267   0.629   0.161  13.226 -0.4940  0.4218  0.2168
  420TMC3     C 6268   0.761   4.532  13.065 -0.6157  0.6167  0.6171
  420TMC3     O 6269   0.819   4.458  13.147 -0.2208  0.3025  0.0692
  420TMC3     H 6270   0.624   4.711  12.932 -0.3979  1.9019 -0.3491
  420TMC3    H1 6271   0.804   4.612  13.306  0.9389  1.4178  0.9128
  420TMC3    H2 6272   0.604   0.260  13.261  0.7008  0.6669  0.3994
  420TMC3    C7 6273   0.704   0.078  13.440  0.8493  0.5591 -0.7852
  420TMC3    C8 6274   0.524   0.213  13.017 -0.1664 -0.1500  0.2642
  420TMC3    O1 6275   0.746   4.710  13.503  0.7967  0.6609 -0.4839
  420TMC3    O2 6276   0.439   0.282  13.080 -0.1157  0.5971  0.2606
  421TMC3    C1 6277   2.233   1.302  14.121 -0.1679 -0.5614 -0.1368
  421TMC3    C2 6278   2.210   1.428  14.068  0.6068 -0.2579 -0.0671
  421TMC3    C3 6279   2.313   1.517  14.069  0.2337  0.1453  0.1070
  421TMC3    C4 6280   2.362   1.263  14.155  0.2206 -0.8108 -1.0409
  421TMC3    C5 6281   2.463   1.357  14.156 -1.1193  0.0244  0.0127
  421TMC3    C6 6282   2.438   1.480  14.105 -0.5202 -0.3731  0.3406
  421TMC3     C 6283   2.124   1.205  14.124  0.5802 -0.2646  0.2196
  421TMC3     O 6284   2.140   1.106  14.199  0.2610  0.1452 -0.4358
  421TMC3     H 6285   2.108   1.460  14.048 -0.1990 -2.5841  0.2815
  421TMC3    H1 6286   2.383   1.171  14.207 -0.7396 -1.2913 -1.5030
  421TMC3    H2 6287   2.518   1.553  14.110 -0.0842 -0.7789 -0.6553
  421TMC3    C7 6288   2.577   1.361  14.252  0.6318  0.0253 -0.0691
  421TMC3    C8 6289   2.267   1.640  14.126 -0.0729 -0.1572 -0.3716
  421TMC3    O1 6290   2.643   1.464  14.268 -0.0390 -0.6918 -0.4451
  421TMC3    O2 6291   2.149   1.671  14.119  0.1054 -0.3384 -0.3508
  422TMC3    C1 6292   4.298   2.675  12.677  0.2437  1.2017 -0.3210
  422TMC3    C2 6293   4.264   2.803  12.683  0.6851 -0.5150 -0.0628
  422TMC3    C3 6294   4.157   2.827  12.759 -0.0357  0.5622  0.8724
  422TMC3    C4 6295   4.220   2.571  12.722 -0.3511  0.1160  1.0150
  422TMC3    C5 6296   4.106   2.601  12.790 -0.5819 -0.3820 -0.3180
  422TMC3    C6 6297   4.078   2.732  12.817 -0.1521 -0.4079 -0.0076
  422TMC3     C 6298   4.398   2.637  12.580  0.1579 -0.2889 -0.0047
  422TMC3     O 6299   4.405   2.721  12.494  0.0170 -0.2370 -0.6129
  422TMC3     H 6300   4.335   2.883  12.661 -1.1360  1.1891  0.2667
  422TMC3    H1 6301   4.239   2.465  12.711  1.6467  0.7143 -1.3711
  422TMC3    H2 6302   3.990   2.763  12.873  0.3377  1.4419 -0.2557
  422TMC3    C7 6303   4.023   2.492  12.850  0.5236 -0.4954 -0.4937
  422TMC3    C8 6304   4.156   2.962  12.815 -0.8945  0.1842 -0.2061
  422TMC3    O1 6305   4.082   2.385  12.853  0.2089 -0.5133  0.0266
  422TMC3    O2 6306   4.264   3.019  12.823 -0.7948  0.0639 -0.7488
  423MPD2     C 6307   0.734   3.638   0.788  0.0028 -0.4256  0.2283
  423MPD2    C1 6308   0.835   3.553   0.793  0.4716  0.0066 -0.6494
  423MPD2    C2 6309   0.848   3.474   0.687  0.6805 -0.1340  0.2657
  423MPD2    C3 6310   0.772   3.491   0.572 -0.3802 -0.0467 -0.0590
  423MPD2    C4 6311   0.666   3.575   0.570  0.1772 -0.3082 -0.0810
  423MPD2    C5 6312   0.645   3.650   0.684  0.0001  0.0909  0.4548
  423MPD2     H 6313   0.931   3.404   0.685 -0.4264 -1.4067 -1.2724
  423MPD2    H1 6314   0.600   3.587   0.485 -0.6140 -3.5697  0.0724
  423MPD2    H2 6315   0.718   3.713   0.865  0.3642  1.9047 -1.9511
  423MPD2    H3 6316   0.562   3.717   0.704  0.0835  0.1326  0.6564
  423MPD2     N 6317   0.794   3.422   0.449  0.2169  0.0064 -1.1048
  423MPD2    H5 6318   0.737   3.458   0.373  0.0176  0.6378 -0.6545
  423MPD2    N1 6319   0.920   3.552   0.903 -0.2407 -0.1817 -0.3166
  423MPD2    H7 6320   0.887   3.602   0.985 -2.7446  0.8837 -1.9690
  424TMC3    C1 6321   1.104   3.510   1.052 -0.2305  0.8461  0.2193
  424TMC3    C2 6322   1.235   3.474   1.064  0.3824  0.3328  0.5863
  424TMC3    C3 6323   1.298   3.488   1.184 -0.3223 -0.1142  0.2610
  424TMC3    C4 6324   1.033   3.548   1.163  0.7216 -0.0064 -1.0076
  424TMC3    C5 6325   1.100   3.571   1.279  0.1978 -0.1728  0.1489
  424TMC3    C6 6326   1.228   3.533   1.293 -1.2181  0.7346 -0.2135
  424TMC3     C 6327   1.042   3.490   0.918 -0.2633  0.2194  0.4923
  424TMC3     O 6328   1.102   3.431   0.828 -0.4254 -0.6061 -0.7286
  424TMC3     H 6329   1.278   3.428   0.976  0.2295  1.4512 -0.0702
  424TMC3    H1 6330   0.926   3.568   1.163  0.3173 -2.1249  0.8233
  424TMC3    H2 6331   1.268   3.524   1.393 -1.0324  3.0532 -0.0961
  424TMC3    C7 6332   1.032   3.619   1.401  0.1765  0.5835  0.1701
  424TMC3    C8 6333   1.416   3.411   1.219  0.7226 -0.1070  0.2730
  424TMC3    O1 6334   1.084   3.591   1.511 -0.5366 -0.9699  0.1212
  424TMC3    O2 6335   1.429   3.367   1.335  0.0655 -0.1343  0.1959
  425MPD2     C 6336   0.042   3.051   0.244  0.6659  0.5765  0.2148
  425MPD2    C1 6337   0.017   2.976   0.127  0.0914  0.7883  0.0114
  425MPD2    C2 6338   4.622   2.989   0.063 -0.0356  0.1253 -0.8186
  425MPD2    C3 6339   4.530   3.078   0.108  0.2367  0.0558 -0.1249
  425MPD2    C4 6340   4.560   3.159   0.214 -0.0128 -0.0311  0.1196
  425MPD2    C5 6341   4.678   3.140   0.287  0.5126  0.6086  0.2115
  425MPD2     H 6342   4.608   2.930  17.678  2.4498 -0.2110 -0.9842
  425MPD2    H1 6343   4.484   3.230   0.244 -0.4285 -1.2593  1.9990
  425MPD2    H2 6344   0.143   3.051   0.282  0.8088 -0.2620 -0.1503
  425MPD2    H3 6345   4.707   3.206   0.369 -0.6139  2.6889 -1.0539
  425MPD2     N 6346   4.409   3.097   0.040  0.5003  0.1242 -0.1153
  425MPD2    H5 6347   4.355   3.179   0.068 -1.1154 -0.7436 -0.6725
  425MPD2    N1 6348   0.118   2.889   0.088  0.2344  0.0750 -0.2428
  425MPD2    H7 6349   0.204   2.889   0.142  0.4906 -1.8584 -0.6397
  426TMC3    C1 6350   0.217   2.718  17.659 -0.5885 -0.1972 -0.0358
  426TMC3    C2 6351   0.226   2.651  17.539 -0.0177 -0.4260 -0.0613
  426TMC3    C3 6352   0.260   2.515  17.532 -0.3096 -0.3303 -0.7416
  426TMC3    C4 6353   0.242   2.648   0.070  0.2422  0.4188 -0.1503
  426TMC3    C5 6354   0.294   2.523   0.059  0.4712 -0.7290 -0.0166
  426TMC3    C6 6355   0.303   2.452  17.643  1.0164 -0.2970  0.0803
  426TMC3     C 6356   0.111   2.815  17.680  0.0852  0.4521 -0.3633
  426TMC3     O 6357   0.035   2.821  17.584 -0.8690  0.2725 -0.5572
  426TMC3     H 6358   0.206   2.711  17.452  0.1663 -0.0856  0.1321
  426TMC3    H1 6359   0.213   2.688   0.166 -1.2125 -0.7030 -0.1302
  426TMC3    H2 6360   0.337   2.350  17.636  1.0423 -0.2219 -0.8766
  426TMC3    C7 6361   0.363   2.472   0.180 -1.0838 -0.0587  0.1574
  426TMC3    C8 6362   0.196   2.447  17.427  0.0287 -0.0333  0.8223
  426TMC3    O1 6363   0.396   2.354   0.177  0.8365  0.4333  0.0774
  426TMC3    O2 6364   0.262   2.358  17.379 -0.0306 -0.3232  0.0994
  427MPD2     C 6365   2.940   0.355  14.965 -0.4037 -0.0374 -0.1694
  427MPD2    C1 6366   2.921   0.220  14.949  0.2263 -0.2022  0.3726
  427MPD2    C2 6367   2.798   0.169  14.946  0.6493  0.1754 -0.6883
  427MPD2    C3 6368   2.687   0.254  14.957 -0.1071 -0.4074 -0.5376
  427MPD2    C4 6369   2.707   0.394  14.963 -0.0798 -0.3829  0.8583
  427MPD2    C5 6370   2.833   0.443  14.971  0.0261  0.1562  0.4152
  427MPD2     H 6371   2.782   0.063  14.933 -2.5094  0.8169 -2.0128
  427MPD2    H1 6372   2.631   0.469  14.979  0.9798  1.0661 -0.8939
  427MPD2    H2 6373   3.031   0.415  14.961 -0.0567 -0.5916 -0.6553
  427MPD2    H3 6374   2.851   0.549  14.984 -1.1598  0.4147 -0.0560
  427MPD2     N 6375   2.552   0.218  14.951 -0.2517  0.3362 -0.0139
  427MPD2    H5 6376   2.483   0.292  14.962  2.3241  2.8782 -1.0336
  427MPD2    N1 6377   3.030   0.136  14.936  0.2218  0.1622  0.2290
  427MPD2    H7 6378   3.009   0.037  14.930 -0.5436  0.1953  2.5475
  428TMC3    C1 6379   3.255   0.053  14.973  0.4233  0.4082 -0.0061
  428TMC3    C2 6380   3.203   4.666  15.034 -0.3359  0.5454  0.3569
  428TMC3    C3 6381   3.290   4.588  15.111  0.4882  0.3288  1.0761
  428TMC3    C4 6382   3.385   0.089  14.995  0.3241  0.1886  0.2370
  428TMC3    C5 6383   3.464   0.006  15.068 -0.0741 -0.1500  0.5034
  428TMC3    C6 6384   3.421   4.617  15.124 -0.8511 -0.2874  0.0714
  428TMC3     C 6385   3.166   0.165  14.966 -0.0555 -0.2362 -0.0230
  428TMC3     O 6386   3.205   0.274  15.002  0.8951  0.3268 -0.0250
  428TMC3     H 6387   3.098   4.641  15.022 -0.3186  0.9216 -0.6555
  428TMC3    H1 6388   3.419   0.188  14.967  0.5187  0.7829  2.6056
  428TMC3    H2 6389   3.491   4.562  15.188 -0.1409  1.8350  1.1095
  428TMC3    C7 6390   3.575   0.071  15.132  0.3615 -0.5410 -0.0337
  428TMC3    C8 6391   3.251   4.460  15.167  0.1963 -0.9258  0.6974
  428TMC3    O1 6392   3.598   0.048  15.249  0.3677  0.6784  0.8613
  428TMC3    O2 6393   3.341   4.393  15.213  0.2506 -0.6967 -0.3305
  429MPD2     C 6394   3.908   0.175   0.271 -0.8545  0.0259  0.0889
  429MPD2    C1 6395   3.989   0.123   0.173  0.5666 -0.4691  0.3160
  429MPD2    C2 6396   4.022   0.200   0.067 -0.2955  0.8458 -0.1515
  429MPD2    C3 6397   3.982   0.329   0.056 -0.1000 -0.5538  0.1183
  429MPD2    C4 6398   3.910   0.382   0.161  0.0047  0.6519 -0.2813
  429MPD2    C5 6399   3.877   0.306   0.265  0.2546  0.2770 -0.4048
  429MPD2     H 6400   4.064   0.152  17.684 -0.7272  2.0580 -1.0112
  429MPD2    H1 6401   3.859   0.476   0.141 -0.4058  0.7015  0.9830
  429MPD2    H2 6402   3.881   0.115   0.357  0.6278  2.5523  2.3012
  429MPD2    H3 6403   3.820   0.351   0.345  1.4572  2.9302 -1.0507
  429MPD2     N 6404   4.011   0.384  17.639  0.4529 -0.7054 -0.4681
  429MPD2    H5 6405   4.057   0.321  17.573 -0.5385  0.6748 -2.4795
  429MPD2    N1 6406   4.028   4.709   0.163  0.5158 -0.3679 -0.0847
  429MPD2    H7 6407   4.081   4.681   0.081  0.1979 -0.7425 -0.1592
  430TMC3    C1 6408   4.023   0.521  17.448 -0.1669 -0.4773  0.1196
  430TMC3    C2 6409   3.995   0.644  17.391 -0.0612  1.1109 -0.3398
  430TMC3    C3 6410   4.021   0.654  17.258 -0.0676  0.5723 -0.1563
  430TMC3    C4 6411   4.073   0.414  17.380  1.3634 -0.2493 -0.1429
  430TMC3    C5 6412   4.086   0.436  17.246  0.1197  0.3169 -0.4302
  430TMC3    C6 6413   4.071   0.554  17.185  0.3236  0.4381 -0.5151
  430TMC3     C 6414   3.992   0.507  17.588 -0.0877 -0.1894  0.4545
  430TMC3     O 6415   3.939   0.604  17.642  0.0107 -0.2395  0.3023
  430TMC3     H 6416   3.947   0.722  17.449 -1.1531 -0.2385  0.5950
  430TMC3    H1 6417   4.092   0.320  17.430  0.7857  0.4811  1.4575
  430TMC3    H2 6418   4.087   0.571  17.079  0.3069  2.8532 -0.1325
  430TMC3    C7 6419   4.102   0.316  17.163 -0.0605 -0.2833 -0.2054
  430TMC3    C8 6420   3.950   0.748  17.164  0.1466 -0.1314  0.1451
  430TMC3    O1 6421   4.130   0.215  17.223  0.5274  0.1170 -0.5872
  430TMC3    O2 6422   3.958   0.870  17.191  0.4818  0.0761  0.1746
  431MPD2     C 6423   0.764   0.436  12.336 -0.1070 -0.2048 -0.2810
  431MPD2    C1 6424   0.888   0.392  12.292 -0.3646  0.0331  0.1562
  431MPD2    C2 6425   0.889   0.286  12.202  0.0622 -0.6406 -0.4043
  431MPD2    C3 6426   0.773   0.214  12.171 -0.3034 -0.4029  0.0148
  431MPD2    C4 6427   0.653   0.258  12.219  0.6268  0.1657  0.0204
  431MPD2    C5 6428   0.653   0.376  12.290 -0.7111 -0.3503  0.4774
  431MPD2     H 6429   0.985   0.245  12.171  0.3983  0.6798 -1.1094
  431MPD2    H1 6430   0.557   0.210  12.204  2.2017 -2.4136 -1.7458
  431MPD2    H2 6431   0.746   0.522  12.400  0.0651 -0.5174  0.1871
  431MPD2    H3 6432   0.561   0.416  12.331 -2.1016 -1.1427 -1.9126
  431MPD2     N 6433   0.781   0.086  12.110  0.0313 -0.3246  0.6109
  431MPD2    H5 6434   0.866   0.065  12.060  0.7432 -0.1203  1.7277
  431MPD2    N1 6435   1.010   0.454  12.323 -0.2882 -0.3685 -0.2989
  431MPD2    H7 6436   1.092   0.435  12.267 -1.5544 -1.4194 -1.8112
  432TMC3    C1 6437   0.759   4.584  12.107  0.5719  0.8872 -0.4763
  432TMC3    C2 6438   0.852   4.593  12.010 -0.5666 -0.0310  0.1650
  432TMC3    C3 6439   0.982   4.552  12.031 -0.1309  0.4787 -0.3873
  432TMC3    C4 6440   0.792   4.530  12.228 -0.3850 -0.4819  0.1819
  432TMC3    C5 6441   0.922   4.496  12.252 -0.0188 -0.2647 -0.3694
  432TMC3    C6 6442   1.021   4.505  12.157  0.0081  0.7831 -0.0092
  432TMC3     C 6443   0.696   4.708  12.143  0.4750 -0.8362 -0.3112
  432TMC3     O 6444   0.609   4.707  12.226  0.1384 -0.4238  0.0060
  432TMC3     H 6445   0.816   4.624  11.913  0.2520  2.4165  0.6511
  432TMC3    H1 6446   0.714   4.519  12.302 -0.2340 -1.0220  0.2653
  432TMC3    H2 6447   1.118   4.461  12.176  0.2718  0.8930 -1.0979
  432TMC3    C7 6448   0.965   4.431  12.373  0.0036 -0.4622  0.0436
  432TMC3    C8 6449   1.069   4.518  11.928  0.1539 -0.2087 -0.4217
  432TMC3    O1 6450   1.056   4.355  12.365  0.1416 -0.2591 -0.0455
  432TMC3    O2 6451   1.013   4.502  11.817 -0.1756  0.1437 -0.0300
  433MPD2     C 6452   4.500   3.801  11.083  0.0362 -0.1262  0.3730
  433MPD2    C1 6453   4.438   3.688  11.131 -0.5864 -0.2621  0.6465
  433MPD2    C2 6454   4.427   3.671  11.266  0.2977  0.0685  0.2775
  433MPD2    C3 6455   4.472   3.777  11.352 -0.8276 -0.4570  0.5561
  433MPD2    C4 6456   4.554   3.879  11.300 -0.4229 -0.3067  0.0813
  433MPD2    C5 6457   4.564   3.888  11.161 -0.0500  0.0992 -0.2738
  433MPD2     H 6458   4.394   3.578  11.311 -0.8387 -0.7889 -2.3715
  433MPD2    H1 6459   4.620   3.945  11.355  2.2252 -2.7464 -0.1267
  433MPD2    H2 6460   4.497   3.827  10.977  2.3558 -0.5778  0.2135
  433MPD2    H3 6461   4.638   3.957  11.121 -1.0994  1.4289  0.0692
  433MPD2     N 6462   4.474   3.749  11.493 -0.4529  0.3780  0.1085
  433MPD2    H5 6463   4.423   3.669  11.531  0.3011 -0.9663 -1.6949
  433MPD2    N1 6464   4.395   3.586  11.051  0.0440  1.0287 -0.2410
  433MPD2    H7 6465   4.357   3.506  11.099  0.6782  1.2788  0.6662
  434TMC3    C1 6466   4.406   3.430  10.884 -0.6591 -0.6124  0.5453
  434TMC3    C2 6467   4.422   3.329  10.974 -0.0035  0.5123  0.7681
  434TMC3    C3 6468   4.451   3.208  10.924  0.2025  0.4386  0.0491
  434TMC3    C4 6469   4.397   3.403  10.752  0.0709  0.8980 -0.3757
  434TMC3    C5 6470   4.420   3.278  10.708  0.6041 -0.0578  0.1328
  434TMC3    C6 6471   4.455   3.177  10.789  0.5097  0.5690  0.5555
  434TMC3     C 6472   4.418   3.568  10.917  0.3793 -0.0488  0.5098
  434TMC3     O 6473   4.455   3.653  10.836 -0.1230 -0.1753 -0.2200
  434TMC3     H 6474   4.426   3.352  11.080  0.0126  0.3462  0.8030
  434TMC3    H1 6475   4.386   3.483  10.679  3.1294  1.3710 -0.2910
  434TMC3    H2 6476   4.470   3.074  10.758  0.5956  0.9019 -0.5006
  434TMC3    C7 6477   4.387   3.246  10.568  0.6070 -0.5769  0.2572
  434TMC3    C8 6478   4.528   3.135  11.021 -0.2251 -0.0884  0.0134
  434TMC3    O1 6479   4.294   3.306  10.518 -0.0207 -0.2320  0.0800
  434TMC3    O2 6480   4.496   3.146  11.137 -0.1185  0.2862  0.5802
  435MPD2     C 6481   1.329   3.620  15.626  0.0075 -0.5162  0.7124
  435MPD2    C1 6482   1.320   3.606  15.764  0.0474  0.3726  0.9426
  435MPD2    C2 6483   1.429   3.555  15.835  0.4237  0.1404 -0.4560
  435MPD2    C3 6484   1.539   3.497  15.771  0.3902  1.0386  0.2858
  435MPD2    C4 6485   1.549   3.514  15.634  0.4793  0.2022  0.7325
  435MPD2    C5 6486   1.444   3.579  15.562 -0.8964  0.5412  0.0255
  435MPD2     H 6487   1.422   3.542  15.943 -1.6521 -1.2130 -0.7597
  435MPD2    H1 6488   1.631   3.480  15.570 -2.4051  2.4264 -4.1764
  435MPD2    H2 6489   1.249   3.653  15.561 -0.4963  2.2142  2.7025
  435MPD2    H3 6490   1.449   3.590  15.454 -1.4185  0.2683 -0.0269
  435MPD2     N 6491   1.632   3.428  15.854  0.0554 -0.0284 -0.0430
  435MPD2    H5 6492   1.599   3.433  15.950  2.3114  0.4355  0.6960
  435MPD2    N1 6493   1.213   3.645  15.839  0.2713 -0.3680 -0.1688
  435MPD2    H7 6494   1.217   3.626  15.939  0.6828  0.5592 -0.0125
  436TMC3    C1 6495   0.921   3.701  16.112 -0.7734 -0.1958  0.3191
  436TMC3    C2 6496   1.025   3.706  16.019 -0.4233 -0.0154  0.2823
  436TMC3    C3 6497   0.992   3.674  15.891  0.0862 -0.5454  0.6437
  436TMC3    C4 6498   0.803   3.655  16.073  0.0098 -0.8780 -0.2851
  436TMC3    C5 6499   0.765   3.637  15.940  0.0833  0.2088 -0.5202
  436TMC3    C6 6500   0.866   3.640  15.844 -0.0853 -0.3992  0.3864
  436TMC3     C 6501   0.933   3.782  16.237  0.2797  0.3325  0.0083
  436TMC3     O 6502   1.052   3.800  16.275  0.1786 -0.0864  0.3719
  436TMC3     H 6503   1.114   3.759  16.053 -0.4107 -0.3905  0.8235
  436TMC3    H1 6504   0.725   3.653  16.149  0.5803  0.0260  0.3186
  436TMC3    H2 6505   0.838   3.625  15.741 -0.0991  0.4321  0.2658
  436TMC3    C7 6506   0.626   3.610  15.900 -0.2535  0.2093 -0.7655
  436TMC3    C8 6507   1.098   3.692  15.788  0.5598  0.4854  0.3210
  436TMC3    O1 6508   0.606   3.594  15.784  0.0517 -0.0468 -0.0406
  436TMC3    O2 6509   1.063   3.700  15.670 -0.2810 -0.0386 -0.2131
  437TMC3    C1 6510   0.712   0.363  11.880  0.4493  0.1269 -0.1627
  437TMC3    C2 6511   0.613   0.441  11.936 -0.0978 -0.3341 -0.2273
  437TMC3    C3 6512   0.629   0.575  11.954 -0.1072 -0.2464 -0.3626
  437TMC3    C4 6513   0.836   0.403  11.860  0.2796  0.0925  0.2802
  437TMC3    C5 6514   0.854   0.538  11.879 -0.1261 -0.1493 -0.3882
  437TMC3    C6 6515   0.751   0.622  11.922 -0.5252 -0.6778  0.4018
  437TMC3     C 6516   0.669   0.250  11.800  0.2303 -1.2121  0.2241
  437TMC3     O 6517   0.563   0.203  11.840  0.0123 -0.4341 -0.0406
  437TMC3     H 6518   0.517   0.393  11.950 -0.0622 -0.1306  0.7200
  437TMC3    H1 6519   0.911   0.332  11.827 -1.7342 -0.9440 -1.9864
  437TMC3    H2 6520   0.749   0.729  11.907 -0.2704 -0.7508 -0.1797
  437TMC3    C7 6521   0.980   0.575  11.933  0.2631  0.1198 -0.1063
  437TMC3    C8 6522   0.571   0.643  12.065  0.1640  0.2691 -0.2392
  437TMC3    O1 6523   1.079   0.508  11.914  0.0618 -0.5024  0.4174
  437TMC3    O2 6524   0.645   0.731  12.106  0.3796 -0.0858 -0.1328
  438MPD2     C 6525   1.932   1.513  16.739 -0.2598  1.3098 -0.3716
  438MPD2    C1 6526   2.032   1.441  16.810  0.4941 -0.0009 -0.2546
  438MPD2    C2 6527   1.998   1.369  16.921  0.3695  0.5579 -0.5748
  438MPD2    C3 6528   1.865   1.370  16.963  0.1297  0.1326 -0.2342
  438MPD2    C4 6529   1.765   1.448  16.899 -0.8390  0.5511 -0.0215
  438MPD2    C5 6530   1.808   1.521  16.793 -0.2071 -1.1165 -1.3019
  438MPD2     H 6531   2.073   1.323  16.984  0.2577  0.8206 -0.2440
  438MPD2    H1 6532   1.673   1.472  16.951  0.2673  0.7739  1.8338
  438MPD2    H2 6533   1.956   1.578  16.657  1.9324 -0.5007 -1.1664
  438MPD2    H3 6534   1.740   1.596  16.754 -0.9520 -1.8237 -1.3491
  438MPD2     N 6535   1.829   1.323  17.097  0.2848  0.3687  0.6532
  438MPD2    H5 6536   1.733   1.339  17.126  0.0182  0.0082 -0.0365
  438MPD2    N1 6537   2.170   1.442  16.780  0.0106  0.4758  0.3374
  438MPD2    H7 6538   2.226   1.392  16.849  2.2629  0.5751 -1.4066
  439TMC3    C1 6539   2.372   1.501  16.686 -0.0848  0.2721  0.4936
  439TMC3    C2 6540   2.455   1.550  16.583  0.2287  0.2462 -0.8486
  439TMC3    C3 6541   2.589   1.554  16.600 -0.2927  0.2342 -0.8527
  439TMC3    C4 6542   2.433   1.471  16.810  0.3159  0.1434  0.7253
  439TMC3    C5 6543   2.564   1.501  16.821 -0.6532  0.4601 -0.8852
  439TMC3    C6 6544   2.646   1.542  16.721 -0.4018 -0.2765 -0.8371
  439TMC3     C 6545   2.231   1.508  16.676 -0.5283 -0.1542  0.5024
  439TMC3     O 6546   2.177   1.561  16.583  0.0504 -0.0112  0.4661
  439TMC3     H 6547   2.419   1.543  16.481 -1.4461  0.4884 -0.2741
  439TMC3    H1 6548   2.383   1.437  16.900 -0.3776 -1.7505 -0.3621
  439TMC3    H2 6549   2.755   1.546  16.725 -0.4118  0.2093 -0.9654
  439TMC3    C7 6550   2.632   1.456  16.939  0.3390 -0.6023 -1.0384
  439TMC3    C8 6551   2.652   1.478  16.498  0.0796  0.0335  0.5734
  439TMC3    O1 6552   2.749   1.493  16.949 -0.2443 -0.2476  0.2456
  439TMC3    O2 6553   2.710   1.377  16.531 -0.6397 -0.0934 -0.3993
  440MPD2     C 6554   1.381   2.138  14.871 -0.6512 -0.0954 -0.5044
  440MPD2    C1 6555   1.349   2.124  15.001  0.6833 -0.1723  0.8077
  440MPD2    C2 6556   1.437   2.053  15.078 -0.1070 -0.0531  0.1601
  440MPD2    C3 6557   1.549   1.990  15.024 -1.0283  0.2440  0.2680
  440MPD2    C4 6558   1.585   2.015  14.889 -0.2097  0.0919 -1.1385
  440MPD2    C5 6559   1.490   2.080  14.818  0.1943 -0.4654 -0.2969
  440MPD2     H 6560   1.411   2.051  15.183 -0.6207  1.1260  0.0489
  440MPD2    H1 6561   1.675   1.975  14.844  1.4101 -1.2773  3.3934
  440MPD2    H2 6562   1.328   2.198  14.798  2.2118  2.2210 -0.6875
  440MPD2    H3 6563   1.493   2.094  14.711  0.6433 -0.3962 -0.2784
  440MPD2     N 6564   1.640   1.923  15.110  0.3087 -0.1499  0.2762
  440MPD2    H5 6565   1.620   1.928  15.210 -1.5171 -0.5867 -0.0629
  440MPD2    N1 6566   1.256   2.196  15.063  0.2596 -0.4524  0.0033
  440MPD2    H7 6567   1.254   2.194  15.164 -0.9910  0.6405  0.0044
  441TMC3    C1 6568   1.836   1.842  15.200  0.4031 -0.4931 -0.7565
  441TMC3    C2 6569   1.887   1.957  15.242  1.0116  0.3027  0.0755
  441TMC3    C3 6570   1.887   1.967  15.378  0.2854  0.6687 -0.3927
  441TMC3    C4 6571   1.793   1.747  15.284 -0.1400 -0.0525 -0.1511
  441TMC3    C5 6572   1.814   1.758  15.420  0.0784 -0.0232  0.3290
  441TMC3    C6 6573   1.866   1.872  15.469 -0.4882 -0.5912 -0.0154
  441TMC3     C 6574   1.756   1.853  15.079 -0.1096  0.4225 -0.6159
  441TMC3     O 6575   1.791   1.811  14.971 -0.3205 -0.1774  0.6165
  441TMC3     H 6576   1.924   2.035  15.177  1.8567 -1.1245 -1.1694
  441TMC3    H1 6577   1.727   1.671  15.243 -2.0109  0.5584  1.7721
  441TMC3    H2 6578   1.849   1.896  15.573 -0.5503 -5.0637  0.9977
  441TMC3    C7 6579   1.739   1.665  15.502 -0.4775  0.2644  0.5013
  441TMC3    C8 6580   1.919   2.099  15.430 -0.8003  0.0471  1.0885
  441TMC3    O1 6581   1.619   1.638  15.472  0.0649 -0.3254  0.3066
  441TMC3    O2 6582   2.033   2.139  15.433  0.0126  0.0762  0.3037
  442MPD2     C 6583   3.934   2.839  16.326 -0.2448 -0.4310 -0.4848
  442MPD2    C1 6584   3.860   2.765  16.415 -0.8280 -0.2374  0.5781
  442MPD2    C2 6585   3.899   2.636  16.444  0.4014  0.4458  0.2851
  442MPD2    C3 6586   4.016   2.593  16.386 -0.0607 -0.4297 -1.2623
  442MPD2    C4 6587   4.088   2.667  16.300 -0.7396  0.0919  0.6045
  442MPD2    C5 6588   4.049   2.793  16.269 -0.5979 -0.0696  1.0523
  442MPD2     H 6589   3.837   2.573  16.507  1.6081 -1.4624 -0.4174
  442MPD2    H1 6590   4.169   2.631  16.238 -1.4746  3.3570 -2.1680
  442MPD2    H2 6591   3.913   2.941  16.298 -0.5705 -0.3516  0.0480
  442MPD2    H3 6592   4.105   2.851  16.197 -0.1048 -0.7317  0.9156
  442MPD2     N 6593   4.059   2.457  16.394  0.0883 -0.2460 -0.3795
  442MPD2    H5 6594   4.140   2.427  16.342 -0.3712 -2.0365 -0.0894
  442MPD2    N1 6595   3.745   2.821  16.480 -0.3745  0.0280  0.1575
  442MPD2    H7 6596   3.685   2.766  16.541  1.9439 -0.8787  1.6147
  443TMC3    C1 6597   3.578   2.982  16.540 -0.5458  0.0783 -0.0513
  443TMC3    C2 6598   3.499   3.078  16.485 -0.6378 -0.0969  0.3481
  443TMC3    C3 6599   3.371   3.082  16.527  0.0210  0.8299 -0.1433
  443TMC3    C4 6600   3.534   2.899  16.640  0.2412 -0.7014 -0.8799
  443TMC3    C5 6601   3.420   2.938  16.701 -0.4872  0.2159 -0.0509
  443TMC3    C6 6602   3.329   3.022  16.642 -0.2642  0.1202  0.0204
  443TMC3     C 6603   3.699   2.953  16.464  0.6813 -0.5707 -0.4302
  443TMC3     O 6604   3.730   3.042  16.388 -0.2601 -0.1477 -0.0625
  443TMC3     H 6605   3.529   3.140  16.401 -0.1549 -0.4305  0.2763
  443TMC3    H1 6606   3.596   2.829  16.694 -3.2875  0.0772  4.2185
  443TMC3    H2 6607   3.224   3.022  16.668 -0.7839  1.0009 -2.0772
  443TMC3    C7 6608   3.370   2.851  16.808  0.1921  0.1803  0.0312
  443TMC3    C8 6609   3.261   3.166  16.463  0.1403 -0.3329 -0.1109
  443TMC3    O1 6610   3.431   2.745  16.830  0.7240 -0.5432 -0.2717
  443TMC3    O2 6611   3.174   3.210  16.541  0.2583 -0.7436 -0.1302
  444MPD2     C 6612   4.481   2.114  17.065  0.2340 -0.2416  0.8015
  444MPD2    C1 6613   4.397   2.026  16.999  0.1193  0.0891  0.1501
  444MPD2    C2 6614   4.456   1.925  16.921 -0.0879 -0.3125  0.4703
  444MPD2    C3 6615   4.598   1.916  16.910 -0.0655 -0.5347 -0.4170
  444MPD2    C4 6616   4.675   2.002  16.984 -0.0587  0.1107  0.6481
  444MPD2    C5 6617   4.613   2.092  17.061 -0.0408  0.2484 -0.7875
  444MPD2     H 6618   4.401   1.848  16.868 -0.7490  0.2102  0.3992
  444MPD2    H1 6619   0.057   2.004  16.974 -0.3692  0.6759 -2.8955
  444MPD2    H2 6620   4.453   2.194  17.133 -0.0688  0.7971 -0.5205
  444MPD2    H3 6621   4.669   2.154  17.130  0.0486 -0.7683  0.0479
  444MPD2     N 6622   4.645   1.812  16.831  0.1061 -0.0129  0.0348
  444MPD2    H5 6623   4.568   1.774  16.777  0.9717 -0.3828 -0.9388
  444MPD2    N1 6624   4.257   2.041  16.990  0.7717  0.2272 -0.4562
  444MPD2    H7 6625   4.204   1.963  16.954 -0.9424  1.0570  0.2133
  445TMC3    C1 6626   0.073   1.643  16.747  0.0676 -0.3128  0.3607
  445TMC3    C2 6627   4.692   1.584  16.686 -0.3545  0.7199  0.1391
  445TMC3    C3 6628   4.713   1.485  16.596 -0.5428 -0.2449 -0.6694
  445TMC3    C4 6629   0.201   1.587  16.743 -0.6644  0.0804  0.1215
  445TMC3    C5 6630   0.211   1.477  16.661 -0.4914  0.4424 -0.3817
  445TMC3    C6 6631   0.111   1.430  16.587  0.2088  0.1507  0.2841
  445TMC3     C 6632   0.045   1.760  16.827 -0.2217  0.4840 -0.1524
  445TMC3     O 6633   0.143   1.788  16.898 -0.0851  0.5042 -0.1797
  445TMC3     H 6634   4.588   1.609  16.706  0.2580  2.5218  1.0811
  445TMC3    H1 6635   0.283   1.632  16.798 -0.8066  0.6191 -0.1040
  445TMC3    H2 6636   0.128   1.350  16.515 -1.9625 -1.1791  1.2455
  445TMC3    C7 6637   0.341   1.447  16.607 -0.4083 -0.7145  1.1272
  445TMC3    C8 6638   4.604   1.425  16.523  0.0905  0.6034  0.9812
  445TMC3    O1 6639   0.338   1.434  16.487  0.1039 -0.1932 -0.9137
  445TMC3    O2 6640   4.522   1.505  16.485 -0.2034 -0.5356  0.6653
  446MPD2     C 6641   4.172   2.912  11.532 -0.0212  0.2965 -0.4480
  446MPD2    C1 6642   4.210   2.902  11.397 -0.3235  0.3037  0.5070
  446MPD2    C2 6643   4.319   2.973  11.361  0.3792 -0.2259  0.1931
  446MPD2    C3 6644   4.392   3.050  11.454  0.0655 -0.4016 -0.3555
  446MPD2    C4 6645   4.356   3.057  11.580  0.3385 -0.1106 -0.7311
  446MPD2    C5 6646   4.251   2.984  11.619  0.2594 -0.1028  0.8682
  446MPD2     H 6647   4.349   2.980  11.257  1.8339  0.3678  0.6510
  446MPD2    H1 6648   4.407   3.111  11.659 -2.5073  1.2759  0.1421
  446MPD2    H2 6649   4.078   2.871  11.566 -0.3560  1.9301  0.6154
  446MPD2    H3 6650   4.219   2.989  11.722 -0.5229  1.2101  0.5664
  446MPD2     N 6651   4.504   3.119  11.404 -0.4893  0.3624 -0.5915
  446MPD2    H5 6652   4.527   3.125  11.306 -0.8108 -0.9793 -0.7388
  446MPD2    N1 6653   4.131   2.838  11.298  0.2266  0.6125  0.4135
  446MPD2    H7 6654   4.167   2.843  11.203  0.8224  1.7608  0.7012
  447TMC3    C1 6655   4.708   3.217  11.411  0.3510 -0.2866 -0.1342
  447TMC3    C2 6656   4.689   3.286  11.294  0.8464 -0.7033 -0.4898
  447TMC3    C3 6657   0.076   3.316  11.225  0.1446  0.2767  0.0135
  447TMC3    C4 6658   0.111   3.189  11.458 -0.5241  0.5394 -0.0208
  447TMC3    C5 6659   0.218   3.222  11.379 -0.1753  0.9430 -0.0452
  447TMC3    C6 6660   0.208   3.287  11.263  0.2937 -0.2948 -0.1050
  447TMC3     C 6661   4.601   3.159  11.482 -0.0609 -0.2524 -0.5080
  447TMC3     O 6662   4.629   3.123  11.594  0.0574 -0.3828 -0.3331
  447TMC3     H 6663   4.590   3.322  11.267  1.5698  0.6684 -1.3086
  447TMC3    H1 6664   0.127   3.125  11.544  0.4846  1.3290  0.3781
  447TMC3    H2 6665   0.291   3.323  11.203 -1.3019 -0.0497 -2.1917
  447TMC3    C7 6666   0.351   3.174  11.403  0.3193 -0.6380  0.1415
  447TMC3    C8 6667   0.050   3.386  11.095  0.1772 -0.5243 -0.5387
  447TMC3    O1 6668   0.427   3.196  11.309 -0.3199  0.5276  0.0856
  447TMC3    O2 6669   4.674   3.450  11.082 -1.0569  0.4152  0.2862
  448TMC3    C1 6670   2.132   3.158  17.323 -0.3375 -0.9132  0.4267
  448TMC3    C2 6671   2.168   3.068  17.225 -0.6792 -0.1609 -0.1232
  448TMC3    C3 6672   2.274   2.984  17.251 -0.0188 -0.0051 -0.2474
  448TMC3    C4 6673   2.204   3.172  17.442  0.5200  0.6362 -1.2777
  448TMC3    C5 6674   2.311   3.085  17.460 -0.2877 -0.2420  0.1987
  448TMC3    C6 6675   2.343   2.990  17.363  0.5282 -0.3051 -0.2798
  448TMC3     C 6676   2.018   3.245  17.305  0.0434  0.2045 -0.6624
  448TMC3     O 6677   1.996   3.276  17.190 -0.3764 -0.0912  0.2746
  448TMC3     H 6678   2.123   3.072  17.126  1.4190 -0.1473 -1.0706
  448TMC3    H1 6679   2.190   3.255  17.510 -1.6354 -0.9835  0.2650
  448TMC3    H2 6680   2.420   2.921  17.395 -1.4705 -1.5995  1.7811
  448TMC3    C7 6681   2.380   3.080  17.588 -0.7087  0.6859 -1.0222
  448TMC3    C8 6682   2.284   2.850  17.193  0.0502  0.1872  0.0321
  448TMC3    O1 6683   2.504   3.071  17.584  0.3807 -0.0759 -0.7439
  448TMC3    O2 6684   2.377   2.778  17.217  0.8199  0.2754 -0.1654
  449MPD2     C 6685   4.176   2.070  14.138 -0.6035 -0.0732  0.6331
  449MPD2    C1 6686   4.136   1.988  14.035 -0.1109 -0.3786  0.0684
  449MPD2    C2 6687   4.093   1.854  14.064 -0.5091 -0.2055 -0.3681
  449MPD2    C3 6688   4.094   1.805  14.194  0.4268  0.0865  0.6080
  449MPD2    C4 6689   4.136   1.887  14.290  0.1265  0.2098 -0.3158
  449MPD2    C5 6690   4.175   2.013  14.265  0.0981  0.5209 -0.3298
  449MPD2     H 6691   4.065   1.792  13.980  0.4922  2.2503 -2.5218
  449MPD2    H1 6692   4.154   1.860  14.393 -1.1834 -0.1475 -0.1862
  449MPD2    H2 6693   4.224   2.166  14.121 -0.8451 -0.3107 -1.3985
  449MPD2    H3 6694   4.213   2.078  14.344  0.5007  0.3554 -0.3848
  449MPD2     N 6695   4.045   1.673  14.211  0.3949 -0.3215 -0.1527
  449MPD2    H5 6696   4.015   1.627  14.125 -1.8254  0.7522  0.0326
  449MPD2    N1 6697   4.131   2.029  13.903  0.1992 -0.4931  0.3601
  449MPD2    H7 6698   4.102   1.959  13.836 -0.8643  1.5377 -1.3204
  450TMC3    C1 6699   4.116   2.152  13.718  0.1587 -0.3821  0.0349
  450TMC3    C2 6700   4.217   2.156  13.627  0.1195 -0.5733  0.0895
  450TMC3    C3 6701   4.221   2.064  13.528  0.4710 -0.0922  0.3127
  450TMC3    C4 6702   4.015   2.072  13.688 -0.4215 -0.7567  0.3726
  450TMC3    C5 6703   4.010   1.987  13.580 -0.3168  0.2192 -0.2272
  450TMC3    C6 6704   4.118   1.980  13.496  0.3859 -0.4640 -0.0392
  450TMC3     C 6705   4.157   2.158  13.853 -0.1199 -0.2687  0.2354
  450TMC3     O 6706   4.191   2.265  13.896 -0.2393  0.4101  0.0406
  450TMC3     H 6707   4.310   2.206  13.652 -0.4021 -0.3031  1.5015
  450TMC3    H1 6708   3.937   2.079  13.764 -0.3878 -1.6828  0.5006
  450TMC3    H2 6709   4.120   1.905  13.418  0.4422 -1.1267  0.5965
  450TMC3    C7 6710   3.956   1.863  13.627 -0.4073 -0.2170 -0.3192
  450TMC3    C8 6711   4.326   2.077  13.433  0.4495  0.2227 -1.3881
  450TMC3    O1 6712   4.008   1.838  13.735 -0.0681 -0.0961 -0.0310
  450TMC3    O2 6713   4.374   2.191  13.413  0.0678  0.0145  0.0105
  451MPD2     C 6714   0.936   0.819   1.254 -0.7513  0.0753 -0.3371
  451MPD2    C1 6715   0.859   0.812   1.365 -0.3650  0.0965  0.3048
  451MPD2    C2 6716   0.876   0.699   1.447  0.2171  0.1150 -0.8660
  451MPD2    C3 6717   0.957   0.593   1.409 -0.0214 -0.5273  0.4164
  451MPD2    C4 6718   1.029   0.607   1.292 -0.1387 -0.5463  0.4587
  451MPD2    C5 6719   1.021   0.723   1.218 -0.4319  0.8330  0.1949
  451MPD2     H 6720   0.824   0.684   1.540  1.8690  0.9399  0.1920
  451MPD2    H1 6721   1.103   0.535   1.261  0.6004  0.7529 -0.8021
  451MPD2    H2 6722   0.931   0.904   1.186 -1.4057 -0.6710 -1.2268
  451MPD2    H3 6723   1.069   0.736   1.122 -0.9738  1.4773  0.0118
  451MPD2     N 6724   0.982   0.477   1.493 -0.5474  0.2611  0.6465
  451MPD2    H5 6725   1.035   0.406   1.443  0.2342  0.9037  0.5576
  451MPD2    N1 6726   0.767   0.915   1.385 -0.2581  0.5781 -0.3080
  451MPD2    H7 6727   0.766   0.984   1.310 -1.0588  0.8672 -0.0332
  452TMC3    C1 6728   0.910   0.307   1.636  0.2254  0.4600 -0.5642
  452TMC3    C2 6729   0.861   0.271   1.762  0.9153 -0.3232 -0.4489
  452TMC3    C3 6730   0.780   0.162   1.777  0.2998  0.1914  0.5829
  452TMC3    C4 6731   0.899   0.224   1.530 -0.8190  0.3035  0.2923
  452TMC3    C5 6732   0.823   0.111   1.551 -0.6874  0.4191  0.6229
  452TMC3    C6 6733   0.753   0.082   1.670  0.0123 -0.0644  0.6898
  452TMC3     C 6734   0.927   0.450   1.614 -0.4149 -0.4576 -0.2674
  452TMC3     O 6735   0.898   0.527   1.707  0.1495  0.3128  0.6776
  452TMC3     H 6736   0.868   0.351   1.835 -0.3754  0.9877 -1.7652
  452TMC3    H1 6737   0.940   0.246   1.432 -1.3641  1.0446  0.2343
  452TMC3    H2 6738   0.689   4.721   1.683  0.2653 -0.2807  0.4770
  452TMC3    C7 6739   0.798   0.022   1.443  0.2585  0.9915 -0.5877
  452TMC3    C8 6740   0.703   0.142   1.907 -0.0818  0.2792 -0.5032
  452TMC3    O1 6741   0.880   0.005   1.357  0.4004 -0.1423  0.2486
  452TMC3    O2 6742   0.634   0.039   1.919  0.1983 -0.3484  0.2774
  453TMC3    C1 6743   2.068   2.054  11.724 -0.3039 -1.2960 -0.0085
  453TMC3    C2 6744   1.989   1.952  11.759 -0.0767  0.2712  0.2116
  453TMC3    C3 6745   1.887   1.914  11.672  0.4325 -0.4189 -0.4163
  453TMC3    C4 6746   2.056   2.114  11.605  0.9304 -0.7044 -0.3337
  453TMC3    C5 6747   1.966   2.073  11.515  0.7359 -0.2514  0.5849
  453TMC3    C6 6748   1.875   1.973  11.550 -0.5725  0.1449 -0.1549
  453TMC3     C 6749   2.164   2.116  11.813 -0.4397  0.1352 -0.0947
  453TMC3     O 6750   2.201   2.230  11.783 -1.1511  0.1299 -0.5239
  453TMC3     H 6751   1.994   1.900  11.854  0.5240  0.6656  0.3888
  453TMC3    H1 6752   2.135   2.182  11.575  0.6216 -0.6122 -0.9521
  453TMC3    H2 6753   1.791   1.960  11.482 -0.8204 -1.8756  0.5250
  453TMC3    C7 6754   1.966   2.136  11.387 -0.1562  0.1511 -0.8799
  453TMC3    C8 6755   1.779   1.822  11.702 -0.0114  0.0962  0.2537
  453TMC3    O1 6756   2.017   2.248  11.379 -0.1052 -0.3366 -0.2493
  453TMC3    O2 6757   1.699   1.804  11.611 -0.7362 -0.3130 -0.0316
  454MPD2     C 6758   0.634   1.904  16.402 -0.2011 -0.3292  0.1293
  454MPD2    C1 6759   0.579   1.991  16.309 -0.7277  0.0729 -0.3845
  454MPD2    C2 6760   0.516   2.103  16.352 -0.1621  0.0518 -0.0396
  454MPD2    C3 6761   0.512   2.137  16.486  0.9329 -0.0285 -0.0376
  454MPD2    C4 6762   0.569   2.056  16.574 -0.8327 -0.0539 -0.0504
  454MPD2    C5 6763   0.635   1.941  16.536 -0.7718 -0.1917  0.7529
  454MPD2     H 6764   0.487   2.176  16.278  3.6987  4.8911  3.1967
  454MPD2    H1 6765   0.571   2.088  16.677 -0.4024 -4.6706  1.3774
  454MPD2    H2 6766   0.675   1.813  16.362 -1.2582  0.1095 -1.9476
  454MPD2    H3 6767   0.680   1.875  16.610  1.6506  1.1592  0.4756
  454MPD2     N 6768   0.436   2.251  16.537  0.2513 -0.0216 -0.1574
  454MPD2    H5 6769   0.414   2.263  16.635  0.4578 -1.5127  0.0695
  454MPD2    N1 6770   0.559   1.955  16.178 -0.2829  0.2271 -0.2716
  454MPD2    H7 6771   0.520   2.030  16.122  0.2815  2.4878  2.3177
  455TMC3    C1 6772   0.249   2.369  16.535 -0.4200  0.0307  0.1688
  455TMC3    C2 6773   0.244   2.375  16.673 -0.2125 -0.3206 -0.9446
  455TMC3    C3 6774   0.124   2.361  16.734 -0.0426 -0.7981 -0.0202
  455TMC3    C4 6775   0.137   2.327  16.467  0.1587 -0.0072  0.3786
  455TMC3    C5 6776   0.029   2.274  16.533  0.2852 -0.4729  0.7275
  455TMC3    C6 6777   0.026   2.286  16.667 -0.1014  0.2489  0.4413
  455TMC3     C 6778   0.362   2.335  16.457  0.5150 -0.2164  0.7538
  455TMC3     O 6779   0.360   2.347  16.335 -0.5178 -0.2724 -0.1098
  455TMC3     H 6780   0.327   2.418  16.727 -0.4899  1.7537 -2.2052
  455TMC3    H1 6781   0.136   2.313  16.359  0.5800 -1.1903  0.5265
  455TMC3    H2 6782   4.675   2.240  16.728  0.3100  0.0769  0.8349
  455TMC3    C7 6783   4.721   2.133  16.493  0.4964  0.6509 -0.2696
  455TMC3    C8 6784   0.124   2.357  16.881  0.6275 -0.2975  0.1094
  455TMC3    O1 6785   4.605   2.098  16.501  0.1138 -0.2847 -0.1244
  455TMC3    O2 6786   0.223   2.344  16.949 -0.3293 -0.0288  0.0708
  456MPD2     C 6787   2.787   1.854  16.217  0.2783  0.7509  0.3042
  456MPD2    C1 6788   2.842   1.796  16.333  0.0496 -0.1260 -0.6092
  456MPD2    C2 6789   2.828   1.863  16.450  0.0644 -0.0458  0.8213
  456MPD2    C3 6790   2.765   1.982  16.452  0.1749 -0.2485 -0.2596
  456MPD2    C4 6791   2.727   2.050  16.334 -0.0241 -0.1121 -0.6723
  456MPD2    C5 6792   2.732   1.983  16.214  0.4548 -0.5129 -0.0420
  456MPD2     H 6793   2.861   1.818  16.543 -0.5718 -1.4246  0.3738
  456MPD2    H1 6794   2.695   2.154  16.330 -0.7597 -0.2708  1.0509
  456MPD2    H2 6795   2.789   1.798  16.124  2.1237 -0.3006  0.9683
  456MPD2    H3 6796   2.708   2.030  16.120  3.1248  0.7978 -0.0673
  456MPD2     N 6797   2.763   2.040  16.581  1.0608 -0.3758 -0.3726
  456MPD2    H5 6798   2.822   2.005  16.656  0.0053 -1.3673 -0.0050
  456MPD2    N1 6799   2.929   1.685  16.312  0.6587 -0.4745 -0.6450
  456MPD2    H7 6800   2.946   1.659  16.215 -0.3436 -2.7067 -0.2330
  457TMC3    C1 6801   2.666   2.167  16.756 -0.8549 -1.1279  0.3700
  457TMC3    C2 6802   2.551   2.237  16.787 -0.2464 -0.0093 -0.7875
  457TMC3    C3 6803   2.531   2.256  16.918 -0.5340  0.3358 -0.0574
  457TMC3    C4 6804   2.752   2.112  16.844 -0.6769 -0.0868  0.4228
  457TMC3    C5 6805   2.729   2.140  16.975  0.1075 -0.1831  0.0307
  457TMC3    C6 6806   2.618   2.208  17.012 -0.1608 -0.3035 -0.0600
  457TMC3     C 6807   2.683   2.147  16.617 -0.3114 -0.1191 -0.8189
  457TMC3     O 6808   2.598   2.199  16.545 -0.6653  0.1979  0.1108
  457TMC3     H 6809   2.493   2.285  16.709 -0.9955 -0.7050 -0.6691
  457TMC3    H1 6810   2.844   2.061  16.817 -0.5030  0.1562  0.5572
  457TMC3    H2 6811   2.590   2.223  17.116  1.5491  1.0778  0.1942
  457TMC3    C7 6812   2.836   2.123  17.072 -0.0955 -0.8409  0.3694
  457TMC3    C8 6813   2.463   2.382  16.951 -0.8667 -0.3329 -0.7762
  457TMC3    O1 6814   2.931   2.056  17.033  0.3940 -0.2050  0.0227
  457TMC3    O2 6815   2.518   2.448  17.037 -0.3990 -0.2154 -0.6375
  458MPD2     C 6816   1.266   0.909  12.173 -0.0854 -0.1468 -1.1473
  458MPD2    C1 6817   1.142   0.910  12.237  0.1609  0.0563  0.5507
  458MPD2    C2 6818   1.044   0.831  12.180  0.3313 -0.2881  0.7717
  458MPD2    C3 6819   1.069   0.756  12.071  0.0743  0.5121 -0.4339
  458MPD2    C4 6820   1.190   0.753  12.000 -0.0625 -0.3365  0.8255
  458MPD2    C5 6821   1.286   0.835  12.058  0.1966  0.0537 -0.3171
  458MPD2     H 6822   0.946   0.830  12.227 -0.5789  0.6031 -1.1241
  458MPD2    H1 6823   1.218   0.694  11.913  0.1799  0.0231  0.6597
  458MPD2    H2 6824   1.348   0.965  12.215 -0.5109 -1.0511  0.9195
  458MPD2    H3 6825   1.381   0.841  12.006  1.3622  2.4631  2.0738
  458MPD2     N 6826   0.965   0.679  12.016  0.0239  0.4334  0.3050
  458MPD2    H5 6827   0.869   0.708  12.032 -0.1447 -0.0049  0.0815
  458MPD2    N1 6828   1.127   0.999  12.344  0.2042 -0.2471  0.8911
  458MPD2    H7 6829   1.206   1.059  12.369  0.6208  0.3755 -1.9231
  459TMC3    C1 6830   1.023   1.130  12.503 -0.1293 -0.7859  0.7812
  459TMC3    C2 6831   1.116   1.226  12.482  0.9367  0.0646  0.4372
  459TMC3    C3 6832   1.147   1.313  12.586  0.7221 -0.1432  0.6556
  459TMC3    C4 6833   0.966   1.115  12.625 -0.4806 -0.0420 -0.5835
  459TMC3    C5 6834   1.011   1.191  12.730 -0.2262 -0.5092 -0.4559
  459TMC3    C6 6835   1.104   1.289  12.712  0.4122 -0.6783 -0.0911
  459TMC3     C 6836   1.009   1.021  12.411 -0.2470  0.0286  0.4543
  459TMC3     O 6837   0.902   0.965  12.411  0.5852 -0.6595  0.3385
  459TMC3     H 6838   1.149   1.246  12.381 -0.0604 -0.4301  0.0119
  459TMC3    H1 6839   0.890   1.039  12.636 -1.1220  0.6665 -0.1438
  459TMC3    H2 6840   1.133   1.360  12.789 -0.9959  0.5499 -0.6963
  459TMC3    C7 6841   0.993   1.129  12.859 -0.0711  0.2138  0.1530
  459TMC3    C8 6842   1.250   1.424  12.557 -0.0428  0.0698  0.2291
  459TMC3    O1 6843   0.956   1.013  12.870 -0.1129  0.5649 -0.2775
  459TMC3    O2 6844   1.316   1.464  12.654  0.2225  0.3499 -0.1241
  460MPD2     C 6845   0.231   3.301  10.775 -0.6845  0.4445 -0.3346
  460MPD2    C1 6846   0.136   3.363  10.856 -0.0016 -0.1408 -0.4550
  460MPD2    C2 6847   0.029   3.432  10.794 -0.5567  0.6307 -0.1893
  460MPD2    C3 6848   0.019   3.443  10.657 -0.2161  0.4277 -0.3655
  460MPD2    C4 6849   0.113   3.386  10.578  0.2208 -0.2719  0.3206
  460MPD2    C5 6850   0.209   3.308  10.641  0.3278  0.1697 -0.2586
  460MPD2     H 6851   4.676   3.478  10.851 -0.7859  2.4104 -1.9378
  460MPD2    H1 6852   0.111   3.393  10.470 -2.0457  0.7932  0.4460
  460MPD2    H2 6853   0.318   3.248  10.814 -0.8097  0.1064 -0.5137
  460MPD2    H3 6854   0.279   3.260  10.573  0.0278 -0.3093 -0.2290
  460MPD2     N 6855   4.645   3.524  10.609 -0.4160 -0.7049 -0.1808
  460MPD2    H5 6856   4.598   3.592  10.668 -0.1723 -1.4205  0.8297
  460MPD2    N1 6857   0.138   3.342  11.000 -0.1861  0.2102 -0.8199
  460MPD2    H7 6858   0.210   3.278  11.033  0.7121  2.0729  0.8815
  461TMC3    C1 6859   4.500   3.630  10.469 -0.4633  0.7460  0.1554
  461TMC3    C2 6860   4.381   3.600  10.406 -0.3494 -0.0974  0.6618
  461TMC3    C3 6861   4.315   3.692  10.341  0.0316  0.2384  0.1979
  461TMC3    C4 6862   4.544   3.764  10.466 -0.4298  0.8143 -0.2002
  461TMC3    C5 6863   4.471   3.857  10.395  0.2350  0.1077 -0.4890
  461TMC3    C6 6864   4.356   3.823  10.332  0.2216 -0.0831  0.2555
  461TMC3     C 6865   4.600   3.527  10.484  0.5599  0.4976 -0.1578
  461TMC3     O 6866   4.614   3.452  10.388  0.5688 -0.4531 -0.9446
  461TMC3     H 6867   4.373   3.497  10.374 -0.5155  0.4983 -1.2051
  461TMC3    H1 6868   4.638   3.791  10.512 -1.0210  0.7895  1.0233
  461TMC3    H2 6869   4.299   3.894  10.274 -1.7649 -1.9704 -0.0939
  461TMC3    C7 6870   4.510   3.999  10.391  0.2114 -0.3913 -0.6215
  461TMC3    C8 6871   4.272   3.645  10.209 -0.5267 -0.1641  0.9260
  461TMC3    O1 6872   4.423   4.076  10.353 -0.0819 -0.6861 -0.1610
  461TMC3    O2 6873   4.302   3.723  10.122 -0.4788  0.3903 -0.3973
  462TMC3    C1 6874   0.176   4.398   0.864  0.3516 -0.1683 -0.7126
  462TMC3    C2 6875   0.295   4.384   0.797  0.0212  0.1607  0.3243
  462TMC3    C3 6876   0.304   4.285   0.700  0.2916  0.5345  0.5192
  462TMC3    C4 6877   0.073   4.314   0.841  0.6459 -0.0361  0.1553
  462TMC3    C5 6878   0.087   4.223   0.741  0.3931  0.4572  0.8327
  462TMC3    C6 6879   0.201   4.195   0.677 -0.0025 -0.4828  0.5344
  462TMC3     C 6880   0.164   4.510   0.947 -0.0469  0.5391 -0.0611
  462TMC3     O 6881   0.244   4.604   0.934  0.3348 -0.2400  0.4678
  462TMC3     H 6882   0.375   4.457   0.811 -0.1020 -0.2096  3.0353
  462TMC3    H1 6883   4.704   4.351   0.877  0.1912 -2.0826  1.0453
  462TMC3    H2 6884   0.186   4.137   0.587 -0.7956  0.1753  0.2391
  462TMC3    C7 6885   4.698   4.194   0.664  0.8198 -1.0238  0.0344
  462TMC3    C8 6886   0.409   4.298   0.599 -0.2805  0.2139  0.9410
  462TMC3    O1 6887   4.682   4.080   0.619 -0.0218  0.8495  0.8181
  462TMC3    O2 6888   0.500   4.369   0.638  0.1706 -0.6261 -0.6400
  463MPD2     C 6889   1.306   2.505   1.945 -0.4445  0.1985 -0.3392
  463MPD2    C1 6890   1.302   2.639   1.967  0.2895  0.3013 -0.7917
  463MPD2    C2 6891   1.424   2.713   1.980  0.1555 -0.1655  0.1466
  463MPD2    C3 6892   1.544   2.647   1.975 -0.0074  0.5450  0.1827
  463MPD2    C4 6893   1.540   2.509   1.948  0.2031  0.0112 -0.8317
  463MPD2    C5 6894   1.425   2.441   1.943  0.2757  0.0677 -0.0949
  463MPD2     H 6895   1.413   2.819   2.000 -0.1089 -1.0200  4.6048
  463MPD2    H1 6896   1.636   2.459   1.951  0.5329  0.6511 -0.7391
  463MPD2    H2 6897   1.223   2.438   1.924  1.2036 -1.7491 -0.6108
  463MPD2    H3 6898   1.427   2.333   1.930  0.4538  0.1623 -0.8535
  463MPD2     N 6899   1.673   2.705   1.974  0.0908 -0.9185  0.3034
  463MPD2    H5 6900   1.751   2.642   1.959 -0.1739 -1.3142  0.6170
  463MPD2    N1 6901   1.177   2.711   1.966 -0.1536 -0.1482 -0.4514
  463MPD2    H7 6902   1.186   2.812   1.965  2.0154 -0.3356 -1.3448
  464TMC3    C1 6903   0.940   2.743   1.964  0.5341 -0.0373 -0.2929
  464TMC3    C2 6904   0.958   2.870   2.013 -0.0649  0.4697  0.7506
  464TMC3    C3 6905   0.844   2.942   2.019  0.5024 -0.1201  0.2121
  464TMC3    C4 6906   0.819   2.685   1.937 -0.1685 -0.0094 -0.5985
  464TMC3    C5 6907   0.707   2.759   1.956 -0.1709 -0.4891 -0.2293
  464TMC3    C6 6908   0.721   2.892   1.990 -0.3910 -0.6231  0.1459
  464TMC3     C 6909   1.048   2.652   1.977  0.1577 -0.2381 -0.3366
  464TMC3     O 6910   1.026   2.529   1.979  0.2766 -0.0785 -0.8062
  464TMC3     H 6911   1.058   2.910   2.029  0.1688  0.2429 -0.1510
  464TMC3    H1 6912   0.816   2.582   1.906 -0.2069 -0.2888  0.3185
  464TMC3    H2 6913   0.625   2.942   2.002 -1.6482 -2.4928 -2.0948
  464TMC3    C7 6914   0.593   2.694   1.888 -0.4854 -0.5449  0.0138
  464TMC3    C8 6915   0.857   3.083   2.052 -0.0914 -0.2744  0.4335
  464TMC3    O1 6916   0.607   2.587   1.831 -0.7568 -0.3385 -0.0690
  464TMC3    O2 6917   0.941   3.147   1.991  1.0433  0.3776 -0.3434
  465MPD2     C 6918   2.600   1.825  16.910  0.5300  0.3201  0.0971
  465MPD2    C1 6919   2.528   1.808  17.024  0.0540  0.4938  0.0629
  465MPD2    C2 6920   2.393   1.808  17.007 -0.1221 -0.0160 -0.4048
  465MPD2    C3 6921   2.321   1.833  16.892  0.0234  0.1364 -0.6461
  465MPD2    C4 6922   2.398   1.855  16.778  0.5819 -0.2300 -0.3497
  465MPD2    C5 6923   2.534   1.850  16.794 -0.1703 -0.4201  0.2640
  465MPD2     H 6924   2.328   1.793  17.092 -1.0114 -0.3559 -1.1522
  465MPD2    H1 6925   2.355   1.869  16.679 -0.8587  0.4838  0.3711
  465MPD2    H2 6926   2.708   1.816  16.907  0.4236  0.1592 -3.0692
  465MPD2    H3 6927   2.596   1.854  16.705 -0.8809  2.0976 -0.1313
  465MPD2     N 6928   2.182   1.838  16.899 -0.4105  0.2288 -0.3269
  465MPD2    H5 6929   2.147   1.825  16.993 -0.6984 -2.5339 -0.8174
  465MPD2    N1 6930   2.576   1.763  17.145  0.7934 -0.5281 -0.6669
  465MPD2    H7 6931   2.505   1.748  17.216  0.7642 -0.5726 -0.7062
  466TMC3    C1 6932   1.775   1.796  16.978  0.5809  0.4086  0.6500
  466TMC3    C2 6933   1.677   1.828  16.889 -0.0302 -0.0007 -0.2949
  466TMC3    C3 6934   1.729   1.893  16.776  0.2804 -0.0082  0.2995
  466TMC3    C4 6935   1.910   1.801  16.959  0.0231 -0.6078  0.1796
  466TMC3    C5 6936   1.955   1.842  16.832 -0.1913 -0.2561  0.2912
  466TMC3    C6 6937   1.860   1.897  16.746  0.1960  0.2922 -0.4700
  466TMC3     C 6938   1.739   1.754  17.115 -0.2426  0.5255 -0.0832
  466TMC3     O 6939   1.813   1.795  17.205  0.5086 -0.5401  0.7315
  466TMC3     H 6940   1.571   1.821  16.910  0.5618 -1.4484  2.1655
  466TMC3    H1 6941   1.974   1.753  17.032  0.9288 -1.9900 -1.5294
  466TMC3    H2 6942   1.892   1.926  16.646 -0.3402 -1.9683 -1.3043
  466TMC3    C7 6943   2.095   1.848  16.792  0.4532  0.0198 -0.3065
  466TMC3    C8 6944   1.638   1.969  16.694 -0.3089  0.0739  0.3190
  466TMC3    O1 6945   2.115   1.880  16.676  0.5874 -0.0191  0.3061
  466TMC3    O2 6946   1.662   1.985  16.576 -0.3395 -0.3314 -0.2111
  467TMC3    C1 6947   2.597   0.841  14.356  0.1947 -0.8249  0.2016
  467TMC3    C2 6948   2.574   0.926  14.253  0.4885  0.3536  0.1783
  467TMC3    C3 6949   2.489   0.876  14.157 -0.1201 -0.3876 -0.2877
  467TMC3    C4 6950   2.515   0.740  14.380 -0.9060 -0.1580  0.6466
  467TMC3    C5 6951   2.427   0.695  14.283  0.6067  0.3726  0.9580
  467TMC3    C6 6952   2.412   0.763  14.166 -0.4313 -0.0625 -0.8088
  467TMC3     C 6953   2.739   0.796  14.356 -0.3714 -0.5710  0.7277
  467TMC3     O 6954   2.825   0.871  14.397  0.3922  0.1423  1.2085
  467TMC3     H 6955   2.655   0.990  14.223  3.3650 -3.2501  0.2243
  467TMC3    H1 6956   2.526   0.676  14.467  0.5224 -0.9626 -0.1418
  467TMC3    H2 6957   2.360   0.719  14.083 -2.1855 -0.9346  0.7542
  467TMC3    C7 6958   2.416   0.546  14.277 -0.0229 -0.1009  0.1122
  467TMC3    C8 6959   2.541   0.912  14.023 -0.0467 -0.3131  0.7036
  467TMC3    O1 6960   2.511   0.493  14.331 -0.5086  0.1184 -0.6550
  467TMC3    O2 6961   2.583   1.026  14.010 -0.1452 -0.2605  0.3049
  468MPD2     C 6962   1.639   3.152  10.173  0.2522  0.2049 -0.3706
  468MPD2    C1 6963   1.740   3.119  10.260  0.5205  0.3629 -0.2801
  468MPD2    C2 6964   1.778   2.983  10.272  0.0729 -0.1036 -0.1436
  468MPD2    C3 6965   1.695   2.886  10.224 -0.0307 -0.9598 -0.2631
  468MPD2    C4 6966   1.583   2.926  10.149 -0.2095  0.4936 -0.0733
  468MPD2    C5 6967   1.558   3.059  10.110 -0.5340  0.2810  0.2190
  468MPD2     H 6968   1.862   2.950  10.331  0.9248  1.7722 -0.2938
  468MPD2    H1 6969   1.527   2.845  10.105 -0.2116  1.0486 -1.0658
  468MPD2    H2 6970   1.609   3.253  10.150 -0.9754 -0.0357  0.1295
  468MPD2    H3 6971   1.467   3.094  10.064  0.1830 -0.9777 -2.1308
  468MPD2     N 6972   1.716   2.747  10.258 -0.1347 -0.1812 -0.5666
  468MPD2    H5 6973   1.638   2.683  10.264 -0.8023  0.6553 -0.3055
  468MPD2    N1 6974   1.832   3.216  10.313 -0.3448 -0.2720  0.0279
  468MPD2    H7 6975   1.916   3.180  10.358  0.7037  1.0674 -0.8573
  469TMC3    C1 6976   1.880   3.416  10.426  0.3635 -0.5400 -0.0585
  469TMC3    C2 6977   1.978   3.346  10.498  0.0035  0.4277 -0.4682
  469TMC3    C3 6978   2.085   3.421  10.544 -0.0904  0.0560 -0.1226
  469TMC3    C4 6979   1.878   3.553  10.421  0.5238 -0.2511  0.0606
  469TMC3    C5 6980   1.990   3.620  10.463 -0.4149  0.3565 -0.8591
  469TMC3    C6 6981   2.101   3.558  10.516 -0.2204  0.3431 -0.2261
  469TMC3     C 6982   1.796   3.348  10.330  0.6474 -0.4554 -0.2735
  469TMC3     O 6983   1.691   3.406  10.299 -0.9446  0.1438 -0.2799
  469TMC3     H 6984   1.996   3.240  10.510 -1.1113  0.2727 -0.1996
  469TMC3    H1 6985   1.805   3.610  10.364 -0.9274 -3.0397 -0.8884
  469TMC3    H2 6986   2.165   3.630  10.566 -0.5766  1.4054 -1.2720
  469TMC3    C7 6987   1.986   3.760  10.445  0.4583  0.6069 -0.0712
  469TMC3    C8 6988   2.184   3.362  10.619  0.7358  0.4206  0.0508
  469TMC3    O1 6989   2.092   3.813  10.422  0.5679 -0.7626  0.2458
  469TMC3    O2 6990   2.292   3.378  10.577 -0.7168 -0.7246  0.0121
  470TMC3    C1 6991   4.150   0.806   0.745 -0.1867  0.1587 -0.0324
  470TMC3    C2 6992   4.132   0.908   0.832 -0.0747  0.9339 -0.3749
  470TMC3    C3 6993   4.143   0.869   0.968  0.1447 -0.0123 -0.1818
  470TMC3    C4 6994   4.176   0.676   0.777 -0.0124 -0.3012  0.8120
  470TMC3    C5 6995   4.186   0.642   0.913 -0.3977 -0.1478  0.0104
  470TMC3    C6 6996   4.168   0.741   1.007 -0.6453 -0.0962 -0.0457
  470TMC3     C 6997   4.196   0.837   0.610  0.2095 -0.0628  0.4493
  470TMC3     O 6998   4.198   0.739   0.534  0.0693  0.0282  0.2621
  470TMC3     H 6999   4.110   1.008   0.796  1.3604  1.1773 -0.5801
  470TMC3    H1 7000   4.181   0.596   0.705  0.7219  1.2784 -0.9010
  470TMC3    H2 7001   4.161   0.718   1.113  1.2105  0.3036  0.1611
  470TMC3    C7 7002   4.229   0.509   0.951 -0.0902 -0.0280  0.8123
  470TMC3    C8 7003   4.095   0.961   1.072  0.2408  0.1271 -0.0785
  470TMC3    O1 7004   4.264   0.433   0.859  0.0802 -0.3810  0.5684
  470TMC3    O2 7005   4.122   0.928   1.186 -0.4755  0.1387  0.1420
  471MPD2     C 7006   3.669   0.807  16.750  0.2913 -0.2091  0.0979
  471MPD2    C1 7007   3.675   0.674  16.774  0.0369  0.4440  0.2821
  471MPD2    C2 7008   3.740   0.637  16.885 -0.4093  0.0204 -0.8737
  471MPD2    C3 7009   3.810   0.730  16.967  0.4837  0.0501  0.3551
  471MPD2    C4 7010   3.806   0.864  16.936 -0.2482  0.8829 -0.0939
  471MPD2    C5 7011   3.734   0.890  16.827 -0.6774 -0.1450  0.3007
  471MPD2     H 7012   3.751   0.530  16.898  2.5481  0.6017  1.2803
  471MPD2    H1 7013   3.852   0.946  16.990 -2.1699  3.6472 -2.6084
  471MPD2    H2 7014   3.612   0.846  16.667  1.1222 -0.1524 -0.4470
  471MPD2    H3 7015   3.722   0.994  16.801 -0.2196  0.1848  1.4129
  471MPD2     N 7016   3.866   0.675  17.083  0.0981 -0.2605  0.1035
  471MPD2    H5 7017   3.862   0.575  17.099  1.1891 -0.1977  0.7942
  471MPD2    N1 7018   3.611   0.580  16.699 -0.6085  0.2542  0.2723
  471MPD2    H7 7019   3.633   0.484  16.724  0.2350  0.2749 -0.4033
  472TMC3    C1 7020   3.547   0.475  16.504 -0.2834 -0.1215 -0.0647
  472TMC3    C2 7021   3.436   0.472  16.430  0.7688 -0.1808  0.2011
  472TMC3    C3 7022   3.404   0.351  16.372 -0.8957  0.3864 -0.0330
  472TMC3    C4 7023   3.628   0.371  16.515 -0.1553  0.6596  0.0566
  472TMC3    C5 7024   3.604   0.260  16.445  0.2464  1.1228 -1.4832
  472TMC3    C6 7025   3.487   0.243  16.376  0.1827 -0.1005 -0.0364
  472TMC3     C 7026   3.563   0.601  16.571 -0.9662 -0.1944  0.0751
  472TMC3     O 7027   3.535   0.697  16.502 -0.0213  0.1024  0.4415
  472TMC3     H 7028   3.376   0.561  16.420 -2.2312 -2.1389  0.8349
  472TMC3    H1 7029   3.717   0.371  16.578  0.6316  1.1707 -1.0526
  472TMC3    H2 7030   3.461   0.143  16.342  1.2110 -0.1433 -0.6874
  472TMC3    C7 7031   3.662   0.134  16.494  0.1579 -0.0388  0.2185
  472TMC3    C8 7032   3.264   0.321  16.371 -0.5247  0.0087 -0.5452
  472TMC3    O1 7033   3.665   0.116  16.615  0.1431  0.0099  1.2983
  472TMC3    O2 7034   3.188   0.410  16.339  0.6700  0.7218  0.1660
  473MPD2     C 7035   4.439   3.221  14.009  0.1324  0.2706  0.2024
  473MPD2    C1 7036   4.568   3.275  13.992 -0.2818 -0.4128 -0.3938
  473MPD2    C2 7037   4.627   3.359  14.092  0.2647 -0.1055  1.0897
  473MPD2    C3 7038   4.556   3.393  14.206 -0.2074 -0.1942  0.1282
  473MPD2    C4 7039   4.421   3.350  14.216 -0.2398 -0.8199 -1.2006
  473MPD2    C5 7040   4.368   3.263  14.122  0.0807  0.8963 -0.0893
  473MPD2     H 7041   0.006   3.383  14.078 -0.2977  0.8012 -1.4741
  473MPD2    H1 7042   4.364   3.368  14.306  1.4278  0.6848 -0.4359
  473MPD2    H2 7043   4.390   3.142  13.951  0.0878 -0.4327  1.1996
  473MPD2    H3 7044   4.271   3.220  14.144  0.3563  0.0651 -0.4805
  473MPD2     N 7045   4.610   3.463  14.319  0.3763  0.1485 -0.2522
  473MPD2    H5 7046   4.556   3.494  14.399 -1.2470  1.0178 -1.6817
  473MPD2    N1 7047   4.648   3.258  13.871  0.1913  0.4382 -0.6524
  473MPD2    H7 7048   0.015   3.299  13.864  1.7359 -2.6826  1.9754
  474TMC3    C1 7049   0.040   3.585  14.448  0.2258 -0.3300 -0.0193
  474TMC3    C2 7050   4.654   3.660  14.476  0.1365 -0.2406  0.1282
  474TMC3    C3 7051   4.631   3.681  14.609 -0.0217  0.2169  1.2384
  474TMC3    C4 7052   0.123   3.544  14.542  0.4561 -0.0054 -0.3785
  474TMC3    C5 7053   0.085   3.549  14.671  0.2122  0.1497  0.2786
  474TMC3    C6 7054   4.705   3.624  14.705 -0.0407  0.3700 -0.2740
  474TMC3     C 7055   0.018   3.494  14.334 -0.0413  0.0338 -0.6474
  474TMC3     O 7056   0.116   3.466  14.267 -0.2964  0.2308 -0.6521
  474TMC3     H 7057   4.584   3.697  14.402 -0.9272  0.0395  1.2674
  474TMC3    H1 7058   0.219   3.497  14.520  0.6568 -0.0610  0.6124
  474TMC3    H2 7059   4.659   3.632  14.803 -0.8534 -0.6547 -0.5772
  474TMC3    C7 7060   0.179   3.513  14.776  0.0674  0.9285 -0.6940
  474TMC3    C8 7061   4.512   3.759  14.646  0.3280 -0.3243 -0.2668
  474TMC3    O1 7062   0.259   3.425  14.740 -0.3703  0.7667 -0.1420
  474TMC3    O2 7063   4.437   3.721  14.738  0.0887 -0.0815  0.0402
  475MPD2     C 7064   2.882   1.044  10.765  0.2483  0.0570  0.1366
  475MPD2    C1 7065   2.853   0.997  10.640  0.5520  0.2236  0.4463
  475MPD2    C2 7066   2.725   0.957  10.614 -0.8054 -0.4236 -0.3611
  475MPD2    C3 7067   2.630   0.954  10.711  0.0399  0.4923  0.0531
  475MPD2    C4 7068   2.656   1.010  10.835  0.1395  0.5497  0.9080
  475MPD2    C5 7069   2.780   1.042  10.867  0.5514  0.4397  0.3567
  475MPD2     H 7070   2.689   0.923  10.518 -0.1422  1.0515 -1.1232
  475MPD2    H1 7071   2.582   1.006  10.914 -1.2339 -0.3581 -0.4030
  475MPD2    H2 7072   2.983   1.073  10.793  0.5922 -1.2573  0.2675
  475MPD2    H3 7073   2.800   1.072  10.969 -1.4485  2.6518  0.0828
  475MPD2     N 7074   2.501   0.920  10.669 -0.1937 -0.1396  0.2105
  475MPD2    H5 7075   2.499   0.917  10.567  0.0501 -2.7073  0.2649
  475MPD2    N1 7076   2.949   1.003  10.542 -0.2774  0.1515  0.2739
  475MPD2    H7 7077   3.042   1.036  10.564 -0.4321  0.4405  0.5048
  476TMC3    C1 7078   3.062   0.933  10.337  0.3003  0.0995  0.6042
  476TMC3    C2 7079   3.075   0.833  10.245 -0.2693 -0.3182 -0.0181
  476TMC3    C3 7080   3.195   0.813  10.182 -0.0426  0.2526 -0.3338
  476TMC3    C4 7081   3.164   1.027  10.354 -0.2091  0.2077  0.4932
  476TMC3    C5 7082   3.277   1.004  10.280 -0.2441 -0.1543  1.3891
  476TMC3    C6 7083   3.301   0.897  10.201 -0.4478  0.3850  0.7010
  476TMC3     C 7084   2.940   0.936  10.417 -0.0925 -0.0026 -0.2924
  476TMC3     O 7085   2.852   0.856  10.388 -0.3833  0.5225 -0.1554
  476TMC3     H 7086   2.992   0.772  10.213 -0.3205  0.3272 -1.1353
  476TMC3    H1 7087   3.147   1.113  10.417 -2.8216 -0.1273  0.2470
  476TMC3    H2 7088   3.398   0.881  10.155  0.0735 -1.3632  2.4274
  476TMC3    C7 7089   3.392   1.082  10.317 -0.2719  0.2545 -0.2306
  476TMC3    C8 7090   3.219   0.684  10.120  0.0275 -0.4494 -0.7987
  476TMC3    O1 7091   3.483   1.088  10.236 -0.2402 -0.1460 -0.0129
  476TMC3    O2 7092   3.152   0.587  10.165  0.3240 -0.4680  0.0802
  477MPD2     C 7093   0.590   2.649  11.684 -0.0703  0.4348 -0.1418
  477MPD2    C1 7094   0.485   2.588  11.752 -0.4535  0.5780  0.4454
  477MPD2    C2 7095   0.517   2.487  11.845  0.3717  0.1553  0.9814
  477MPD2    C3 7096   0.650   2.456  11.878  0.8090  0.1936  0.1390
  477MPD2    C4 7097   0.743   2.532  11.812 -0.0182  0.3720  0.1854
  477MPD2    C5 7098   0.717   2.630  11.728 -0.0298 -0.2231  0.5641
  477MPD2     H 7099   0.434   2.430  11.887  0.5077 -0.2477  0.7074
  477MPD2    H1 7100   0.847   2.523  11.843  0.6027  0.9483 -1.7701
  477MPD2    H2 7101   0.576   2.717  11.601 -0.2401  1.1647  0.4855
  477MPD2    H3 7102   0.795   2.692  11.685  0.8330 -2.5523 -1.2443
  477MPD2     N 7103   0.683   2.360  11.976 -0.3751 -0.1176  0.1770
  477MPD2    H5 7104   0.604   2.315  12.021 -1.1374 -1.1862 -2.2186
  477MPD2    N1 7105   0.351   2.628  11.716 -0.1259 -0.1895 -0.1099
  477MPD2    H7 7106   0.355   2.698  11.643  0.3980  0.7813  0.8507
  478TMC3    C1 7107   0.116   2.636  11.704  0.8549 -0.4300  0.7998
  478TMC3    C2 7108   0.010   2.653  11.790 -0.3535  0.2766 -0.6168
  478TMC3    C3 7109   4.640   2.747  11.749 -0.5917 -0.8610  0.0074
  478TMC3    C4 7110   0.121   2.689  11.579  0.2838 -0.1775 -0.0963
  478TMC3    C5 7111   0.019   2.777  11.545  0.3607  0.2031  0.1784
  478TMC3    C6 7112   4.643   2.811  11.629 -0.7457 -1.1232  0.0287
  478TMC3     C 7113   0.234   2.590  11.776 -0.1628 -0.4041 -0.7142
  478TMC3     O 7114   0.212   2.504  11.862  0.5588  0.4798 -0.1887
  478TMC3     H 7115   0.005   2.604  11.886  0.8131  1.2250 -0.0679
  478TMC3    H1 7116   0.186   2.655  11.498 -0.5072 -1.2669 -0.2711
  478TMC3    H2 7117   4.574   2.890  11.603  0.6675 -0.0567 -0.4377
  478TMC3    C7 7118   4.713   2.818  11.409  0.0881 -0.2281  0.0452
  478TMC3    C8 7119   4.574   2.816  11.859  0.5545  0.3426 -0.0571
  478TMC3    O1 7120   4.597   2.815  11.371  0.3006  0.5568 -0.5396
  478TMC3    O2 7121   4.560   2.761  11.968  0.2353 -0.0342 -0.1918
  479MPD2     C 7122   3.832   0.265  14.957 -0.7619 -0.3002 -0.3892
  479MPD2    C1 7123   3.775   0.201  15.058 -0.3984  0.2109 -0.7264
  479MPD2    C2 7124   3.834   0.197  15.182 -1.1546  0.1488 -0.7359
  479MPD2    C3 7125   3.952   0.269  15.201 -0.3108 -0.2681 -0.4621
  479MPD2    C4 7126   4.012   0.323  15.093 -0.0554  0.5435 -0.3667
  479MPD2    C5 7127   3.951   0.323  14.973  0.4162 -0.0262  0.8191
  479MPD2     H 7128   3.791   0.149  15.269  1.1217  2.7923  1.8651
  479MPD2    H1 7129   4.103   0.382  15.090 -1.2422  2.4216  0.4514
  479MPD2    H2 7130   3.792   0.258  14.857 -2.2925  1.1122  0.1154
  479MPD2    H3 7131   3.989   0.376  14.887 -0.5692  2.8521  2.1629
  479MPD2     N 7132   4.022   0.310  15.324  0.3992 -0.4147  0.2127
  479MPD2    H5 7133   4.111   0.346  15.292  0.0614 -0.7190 -1.0832
  479MPD2    N1 7134   3.653   0.135  15.036 -0.5310 -0.2482 -0.1487
  479MPD2    H7 7135   3.622   0.127  14.939 -0.4664 -0.5756 -0.1446
  480TMC3    C1 7136   3.679   0.216  15.607 -0.0250  0.2669  0.1613
  480TMC3    C2 7137   3.582   0.273  15.526 -0.4425  0.2688  0.1812
  480TMC3    C3 7138   3.626   0.362  15.431  0.3311 -0.2189 -0.5765
  480TMC3    C4 7139   3.812   0.215  15.576  0.1611  0.8027 -0.6534
  480TMC3    C5 7140   3.850   0.296  15.479 -0.0106 -0.2145 -0.1048
  480TMC3    C6 7141   3.760   0.375  15.409 -0.9470  0.7167 -0.5708
  480TMC3     C 7142   3.636   0.172  15.737  0.1638  0.1398  0.1488
  480TMC3     O 7143   3.695   0.088  15.804 -0.0835 -0.3125  0.2755
  480TMC3     H 7144   3.478   0.245  15.541  0.1926 -1.7886  0.7502
  480TMC3    H1 7145   3.888   0.165  15.635 -1.7959  0.4627  1.5905
  480TMC3    H2 7146   3.808   0.465  15.370 -0.1327 -0.3365 -1.9738
  480TMC3    C7 7147   3.987   0.307  15.461  0.7278  0.1274  0.1889
  480TMC3    C8 7148   3.539   0.396  15.320 -0.0674 -0.2016  0.2501
  480TMC3    O1 7149   4.056   0.308  15.563 -0.5535  0.2572 -0.1897
  480TMC3    O2 7150   3.417   0.378  15.337 -0.6894  0.4864  0.2705
  481MPD2     C 7151   1.250   0.016  14.703  0.4093 -0.2487  0.4594
  481MPD2    C1 7152   1.125   0.062  14.672 -0.0093  0.9548  0.7713
  481MPD2    C2 7153   1.043   0.101  14.776  0.2570 -0.3176 -0.5224
  481MPD2    C3 7154   1.090   0.105  14.910  0.0128  0.1503 -0.6400
  481MPD2    C4 7155   1.223   0.073  14.931 -0.5531  0.5018 -0.5178
  481MPD2    C5 7156   1.304   0.021  14.834  0.6547 -0.2021  0.0932
  481MPD2     H 7157   0.957   0.160  14.745  0.0902 -0.2247  0.1067
  481MPD2    H1 7158   1.271   0.074  15.028  0.3168 -1.0401 -0.9186
  481MPD2    H2 7159   1.311   4.700  14.624  2.1410 -0.5394  1.9541
  481MPD2    H3 7160   1.400   4.708  14.868 -0.0868 -1.1378  1.1250
  481MPD2     N 7161   1.011   0.150  15.024 -0.6464  0.9180 -0.4228
  481MPD2    H5 7162   1.051   0.153  15.117  1.0940 -1.6813 -1.0804
  481MPD2    N1 7163   1.107   0.056  14.538 -0.0073  0.3589  0.0928
  481MPD2    H7 7164   1.187   0.028  14.483 -0.9060 -0.9942 -0.5334
  482TMC3    C1 7165   0.981   0.028  14.337 -0.2257 -0.1728 -0.3706
  482TMC3    C2 7166   1.027   4.636  14.296 -0.0711  0.6942  0.8273
  482TMC3    C3 7167   1.005   4.596  14.165 -0.3690  0.1973 -0.2077
  482TMC3    C4 7168   0.897   0.103  14.265 -0.3096 -0.0160  0.2619
  482TMC3    C5 7169   0.879   0.069  14.136  0.2000 -0.1123  0.3849
  482TMC3    C6 7170   0.938   4.682  14.083  0.4333 -0.1316  0.4932
  482TMC3     C 7171   0.993   0.080  14.474  0.1852 -0.0248 -0.3453
  482TMC3     O 7172   0.890   0.117  14.523  0.4717  0.1104 -0.0154
  482TMC3     H 7173   1.072   4.562  14.361  0.6960  1.0921  0.7489
  482TMC3    H1 7174   0.852   0.195  14.301  2.0662  0.7243  1.2896
  482TMC3    H2 7175   0.925   4.663  13.977 -1.6427 -1.4337  0.9819
  482TMC3    C7 7176   0.789   0.156  14.063  0.1669  0.1424  0.0245
  482TMC3    C8 7177   1.050   4.468  14.113 -0.6369  0.1845 -0.0651
  482TMC3    O1 7178   0.708   0.225  14.127 -0.1487 -1.1978 -0.0164
  482TMC3    O2 7179   1.011   4.435  14.001  0.3829 -0.4611  0.2773
  483TMC3    C1 7180   3.717   3.415   1.729 -0.7338  0.6946 -1.3569
  483TMC3    C2 7181   3.700   3.392   1.597  0.8987  0.0551 -0.5506
  483TMC3    C3 7182   3.803   3.418   1.516 -0.0785  0.1057  0.1001
  483TMC3    C4 7183   3.837   3.444   1.789 -0.1831 -0.2612  0.2176
  483TMC3    C5 7184   3.944   3.456   1.706 -0.2927  0.5387  0.5510
  483TMC3    C6 7185   3.932   3.445   1.567 -0.1404  0.1120  0.5027
  483TMC3     C 7186   3.621   3.366   1.821  0.2030 -0.1699 -0.3003
  483TMC3     O 7187   3.608   3.416   1.933 -0.2640 -0.2933  0.3496
  483TMC3     H 7188   3.603   3.377   1.549  1.5001  0.0552 -1.7719
  483TMC3    H1 7189   3.834   3.462   1.896  0.8647 -0.1909  0.2344
  483TMC3    H2 7190   4.007   3.474   1.494  0.2435 -0.5123  0.6539
  483TMC3    C7 7191   4.079   3.475   1.758 -0.8775  0.6155  0.2107
  483TMC3    C8 7192   3.775   3.477   1.386  0.6345  0.0291  0.4218
  483TMC3    O1 7193   4.178   3.440   1.694 -0.5141 -0.1608 -0.4939
  483TMC3    O2 7194   3.868   3.483   1.308  0.3916  1.0639  0.4081
  484MPD2     C 7195   1.349   1.579  12.244 -0.2775 -0.1482 -0.6003
  484MPD2    C1 7196   1.370   1.520  12.366 -0.8832  0.7369  0.0339
  484MPD2    C2 7197   1.499   1.520  12.413  0.6953 -0.2675  0.1822
  484MPD2    C3 7198   1.607   1.565  12.346  0.2878  0.4632  0.1964
  484MPD2    C4 7199   1.593   1.615  12.219 -0.0957  0.0961  0.4889
  484MPD2    C5 7200   1.460   1.621  12.163  0.3305 -0.3559  0.3673
  484MPD2     H 7201   1.514   1.477  12.511 -0.5312 -0.6464  0.2038
  484MPD2    H1 7202   1.683   1.642  12.165  0.4399 -2.4887  0.1025
  484MPD2    H2 7203   1.246   1.587  12.210  0.1410  2.1242 -1.3303
  484MPD2    H3 7204   1.452   1.653  12.060 -0.6042 -0.2565  0.4662
  484MPD2     N 7205   1.740   1.560  12.392  0.1150 -0.0269  0.1531
  484MPD2    H5 7206   1.811   1.590  12.326  0.5677  0.2270  0.7568
  484MPD2    N1 7207   1.256   1.470  12.426  0.3549  0.7964 -0.0555
  484MPD2    H7 7208   1.171   1.483  12.372 -0.7725 -0.0040  1.5069
  485TMC3    C1 7209   1.925   1.487  12.508  0.3095 -1.0688  0.0505
  485TMC3    C2 7210   1.967   1.384  12.591  0.8990  0.2531  0.4063
  485TMC3    C3 7211   2.091   1.384  12.640  0.0191  0.6204  0.3012
  485TMC3    C4 7212   2.005   1.591  12.467 -0.7173 -0.1280  0.0219
  485TMC3    C5 7213   2.125   1.595  12.528  0.1879 -0.3358 -0.3051
  485TMC3    C6 7214   2.163   1.498  12.620 -0.2251  0.0973  0.6573
  485TMC3     C 7215   1.786   1.493  12.504  0.8639 -0.3467  0.2604
  485TMC3     O 7216   1.722   1.433  12.589 -0.1493 -0.0643  0.5202
  485TMC3     H 7217   1.898   1.301  12.591 -0.2833  1.2343  0.0189
  485TMC3    H1 7218   1.981   1.664  12.390  0.0336  0.2431  0.1439
  485TMC3    H2 7219   2.261   1.513  12.663  0.9087 -1.1676 -1.4745
  485TMC3    C7 7220   2.237   1.647  12.444  0.2066  0.4928  0.9282
  485TMC3    C8 7221   2.169   1.283  12.582  0.3708  0.7791  0.3312
  485TMC3    O1 7222   2.205   1.746  12.376  0.2197 -0.2748 -0.3566
  485TMC3    O2 7223   2.282   1.323  12.566 -0.0842 -0.3012  0.3679
  486MPD2     C 7224   3.636   0.410  13.266  0.1909 -1.3177 -0.6223
  486MPD2    C1 7225   3.701   0.422  13.140  0.5978  0.7208  0.6584
  486MPD2    C2 7226   3.697   0.546  13.077  0.0560  0.2707 -0.1412
  486MPD2    C3 7227   3.632   0.660  13.132 -0.0230 -0.3497 -0.8113
  486MPD2    C4 7228   3.569   0.649  13.253  0.5600 -0.0922  0.1644
  486MPD2    C5 7229   3.572   0.521  13.310  0.4971  0.3334  0.8424
  486MPD2     H 7230   3.753   0.567  12.986 -2.9261  0.8365 -1.8678
  486MPD2    H1 7231   3.524   0.737  13.297 -0.2039  0.2770 -1.3565
  486MPD2    H2 7232   3.631   0.316  13.320  0.5507 -1.5976 -1.0805
  486MPD2    H3 7233   3.524   0.507  13.407 -2.7936 -0.5668 -0.9135
  486MPD2     N 7234   3.624   0.782  13.052  0.0069  0.3762  0.5500
  486MPD2    H5 7235   3.670   0.779  12.962 -2.4161  1.1622 -0.7246
  486MPD2    N1 7236   3.762   0.299  13.101 -0.0645 -1.2660 -0.1951
  486MPD2    H7 7237   3.764   0.223  13.168  1.6077 -2.2445 -1.3494
  487TMC3    C1 7238   3.870   0.143  12.966 -0.6179 -0.9431 -0.0407
  487TMC3    C2 7239   3.810   0.032  13.022  0.4278  0.0029 -0.3518
  487TMC3    C3 7240   3.883   4.638  13.034 -0.1851  0.6887 -0.1455
  487TMC3    C4 7241   3.991   0.140  12.909  0.1607 -0.1937  0.4380
  487TMC3    C5 7242   4.057   0.021  12.922  0.0567  0.2704 -0.5482
  487TMC3    C6 7243   4.000   4.625  12.960 -0.4002  0.8472 -0.1803
  487TMC3     C 7244   3.810   0.279  12.976 -1.2013 -1.1649 -0.6118
  487TMC3     O 7245   3.837   0.367  12.896  0.1754 -0.6011 -0.2194
  487TMC3     H 7246   3.716   0.046  13.072  0.5435 -1.3677  0.2558
  487TMC3    H1 7247   4.033   0.234  12.877 -2.4496  0.4863 -1.0119
  487TMC3    H2 7248   4.068   4.542  12.977 -0.0621  1.3988  1.1543
  487TMC3    C7 7249   4.200   0.026  12.917 -0.3792 -0.8708 -0.0232
  487TMC3    C8 7250   3.872   4.551  13.155  0.2541  0.3175 -0.4880
  487TMC3    O1 7251   4.254   0.138  12.936 -0.1341  0.1453  0.1333
  487TMC3    O2 7252   3.957   4.465  13.177  0.2452  0.1667  0.0594
  488MPD2     C 7253   3.526   2.022  16.523  0.0846 -0.2403 -0.4890
  488MPD2    C1 7254   3.493   2.157  16.551 -0.4316 -0.0093 -0.3825
  488MPD2    C2 7255   3.425   2.185  16.665 -0.0831 -0.8705 -0.6002
  488MPD2    C3 7256   3.391   2.079  16.747  0.8194  0.5976 -0.8173
  488MPD2    C4 7257   3.424   1.950  16.727 -0.3684  0.2910 -0.0949
  488MPD2    C5 7258   3.489   1.924  16.612  0.3194  0.1582 -0.3556
  488MPD2     H 7259   3.394   2.286  16.687  1.0511 -1.0904  2.0576
  488MPD2    H1 7260   3.400   1.864  16.789  1.9472  0.1950  0.6601
  488MPD2    H2 7261   3.577   1.991  16.432  0.2668 -0.0201 -0.4627
  488MPD2    H3 7262   3.522   1.822  16.599  1.6483  0.5969 -0.3864
  488MPD2     N 7263   3.336   2.113  16.870 -0.5554  0.6549 -0.2991
  488MPD2    H5 7264   3.309   2.209  16.885  0.4481  0.7662  0.7411
  488MPD2    N1 7265   3.537   2.271  16.474  0.5847 -0.4593  0.7379
  488MPD2    H7 7266   3.490   2.360  16.490  1.0050 -0.5980  2.6820
  489TMC3    C1 7267   3.297   2.101  17.099  0.0574 -0.4263  0.0157
  489TMC3    C2 7268   3.227   2.214  17.075 -0.3205 -0.4437 -0.3924
  489TMC3    C3 7269   3.234   2.312  17.170  0.2841  0.1487  0.2160
  489TMC3    C4 7270   3.383   2.087  17.197 -0.1797  1.0426 -0.6410
  489TMC3    C5 7271   3.392   2.192  17.284  0.3840 -0.3422 -0.8639
  489TMC3    C6 7272   3.317   2.311  17.276  0.6243 -0.1308  0.5198
  489TMC3     C 7273   3.333   2.030  16.979 -0.5784  0.1568  0.2516
  489TMC3     O 7274   3.392   1.924  16.996  0.0426 -0.1672 -0.0452
  489TMC3     H 7275   3.160   2.212  16.989 -0.0507 -3.9112 -0.5147
  489TMC3    H1 7276   3.460   2.010  17.196 -1.4135 -0.1984 -0.1321
  489TMC3    H2 7277   3.319   2.392  17.349  1.7518 -1.2868  1.7639
  489TMC3    C7 7278   3.496   2.195  17.385  0.0492 -0.3101  0.5524
  489TMC3    C8 7279   3.197   2.443  17.130  0.3097  0.2014 -0.0404
  489TMC3    O1 7280   3.531   2.311  17.420  0.5560  0.2336  0.2229
  489TMC3    O2 7281   3.166   2.450  17.012  0.2311 -0.1574 -0.2509
  490MPD2     C 7282   4.378   2.038  17.406  0.6809 -0.2640 -0.5273
  490MPD2    C1 7283   4.457   1.942  17.368 -0.6572  0.4204 -0.0240
  490MPD2    C2 7284   4.593   1.961  17.390  0.9124  0.6639 -0.0477
  490MPD2    C3 7285   4.643   2.071  17.463 -0.3772  0.3234  0.2905
  490MPD2    C4 7286   4.557   2.165  17.502 -0.4360  0.2660 -0.2925
  490MPD2    C5 7287   4.424   2.145  17.478  0.4182  1.2100 -0.3463
  490MPD2     H 7288   4.656   1.878  17.362 -0.7387  0.2422 -2.4947
  490MPD2    H1 7289   4.583   2.256  17.555  1.2321  0.1483 -0.9031
  490MPD2    H2 7290   4.271   2.027  17.396  0.5919  0.1151 -0.0062
  490MPD2    H3 7291   4.360   2.227  17.508  1.0878  2.0304 -1.1620
  490MPD2     N 7292   0.051   2.073  17.496 -0.1203  0.0523  0.4406
  490MPD2    H5 7293   0.104   2.002  17.447  1.0659  0.6127  0.8982
  490MPD2    N1 7294   4.412   1.821  17.311 -0.4941 -0.4119  0.1978
  490MPD2    H7 7295   4.485   1.753  17.287  0.4727  0.6441  0.1557
  491TMC3    C1 7296   4.257   1.657  17.238  0.1660 -0.2081  0.3423
  491TMC3    C2 7297   4.338   1.556  17.292 -0.4072 -0.2299  0.7279
  491TMC3    C3 7298   4.349   1.434  17.233 -0.2963  0.6984  0.2439
  491TMC3    C4 7299   4.178   1.628  17.134  0.2530 -0.0490  0.1418
  491TMC3    C5 7300   4.193   1.507  17.072  0.3833 -0.4852 -0.0289
  491TMC3    C6 7301   4.276   1.408  17.122 -0.3403  0.4281 -0.1964
  491TMC3     C 7302   4.283   1.794  17.281 -0.3573 -0.2970 -0.3594
  491TMC3     O 7303   4.179   1.855  17.304 -0.0810 -0.7569  0.2068
  491TMC3     H 7304   4.379   1.583  17.388  0.5876  2.4090 -0.4285
  491TMC3    H1 7305   4.106   1.701  17.099  0.1128 -0.6381 -0.8260
  491TMC3    H2 7306   4.278   1.308  17.081 -0.5573  1.0819 -1.8049
  491TMC3    C7 7307   4.080   1.454  16.994 -0.0053 -0.5046  0.9115
  491TMC3    C8 7308   4.353   1.330  17.334  0.2948 -0.4335  0.0970
  491TMC3    O1 7309   4.080   1.339  16.970 -0.2751  0.1409 -0.2370
  491TMC3    O2 7310   4.349   1.375  17.448 -0.5489 -0.0753 -0.0298
  492MPD2     C 7311   0.337   1.241  11.610 -0.0612 -0.2806  0.1118
  492MPD2    C1 7312   0.226   1.220  11.534  0.0411  0.0538  0.1222
  492MPD2    C2 7313   0.111   1.167  11.589 -0.8309 -0.1441  0.6252
  492MPD2    C3 7314   0.105   1.130  11.723 -0.7125 -0.2325  0.2933
  492MPD2    C4 7315   0.218   1.147  11.798  0.2918 -0.0024  0.5989
  492MPD2    C5 7316   0.331   1.197  11.740 -0.4255  0.3541  0.7633
  492MPD2     H 7317   0.022   1.154  11.529  0.8236 -4.4153 -0.9256
  492MPD2    H1 7318   0.225   1.115  11.901  1.7602  0.0401  0.5010
  492MPD2    H2 7319   0.422   1.297  11.574 -0.3184 -0.7972 -1.3110
  492MPD2    H3 7320   0.422   1.210  11.798 -0.8092 -0.6587  1.5912
  492MPD2     N 7321   4.722   1.072  11.792 -0.2076  0.3607 -0.1967
  492MPD2    H5 7322   0.009   1.032  11.884  0.1823 -1.9845 -1.2617
  492MPD2    N1 7323   0.235   1.266  11.398  0.9943 -0.2759  0.6211
  492MPD2    H7 7324   0.325   1.307  11.378  0.0623  0.5712 -1.8855
  493TMC3    C1 7325   0.204   1.289  11.170  0.2275  0.2551 -0.2388
  493TMC3    C2 7326   0.315   1.367  11.168 -0.1670 -0.3439  0.6882
  493TMC3    C3 7327   0.351   1.427  11.049  0.5648  0.0189  0.0766
  493TMC3    C4 7328   0.120   1.270  11.061 -0.2564 -0.0281  0.5081
  493TMC3    C5 7329   0.159   1.341  10.948  0.1014 -0.2461 -0.3722
  493TMC3    C6 7330   0.282   1.404  10.935 -0.1078 -0.2667  0.2545
  493TMC3     C 7331   0.146   1.243  11.295 -0.2382  0.0914 -0.0368
  493TMC3     O 7332   0.049   1.167  11.289 -0.3056  0.2663 -0.2863
  493TMC3     H 7333   0.378   1.383  11.255 -1.2594  1.3893  1.1634
  493TMC3    H1 7334   0.044   1.193  11.063  1.6094 -1.9644 -3.5193
  493TMC3    H2 7335   0.317   1.446  10.841  2.1867  1.2567  1.7990
  493TMC3    C7 7336   0.086   1.298  10.834 -0.5094  0.4339 -0.2265
  493TMC3    C8 7337   0.486   1.481  11.041 -0.1851  0.0277  0.3161
  493TMC3    O1 7338   4.697   1.258  10.849  0.6204  0.3013 -0.3192
  493TMC3    O2 7339   0.566   1.458  11.129 -0.1161 -0.0491 -0.0931
  494TMC3    C1 7340   0.777   3.088   0.779 -0.3602  0.3826 -0.9062
  494TMC3    C2 7341   0.837   2.965   0.789 -0.3269  0.6496  0.5469
  494TMC3    C3 7342   0.819   2.883   0.679 -0.7370  0.2124 -0.3554
  494TMC3    C4 7343   0.694   3.119   0.672  0.1788  0.6809 -0.9178
  494TMC3    C5 7344   0.681   3.036   0.565  0.0681  0.3881  0.4556
  494TMC3    C6 7345   0.747   2.917   0.567  0.1660  0.6330 -0.1206
  494TMC3     C 7346   0.769   3.170   0.903 -1.0876  0.2761  0.2352
  494TMC3     O 7347   0.676   3.250   0.913 -0.3601 -0.1542 -0.4345
  494TMC3     H 7348   0.891   2.940   0.880 -0.3777 -0.2759  0.3231
  494TMC3    H1 7349   0.631   3.208   0.672  1.7395  1.7812  0.8808
  494TMC3    H2 7350   0.723   2.840   0.494  0.2877  1.2090 -0.7736
  494TMC3    C7 7351   0.597   3.058   0.452 -0.3287  0.7371  0.1852
  494TMC3    C8 7352   0.880   2.752   0.702  0.3268 -0.5765  0.4285
  494TMC3    O1 7353   0.603   2.975   0.362  0.2463  0.2313 -0.1187
  494TMC3    O2 7354   0.943   2.740   0.804 -0.8177 -0.7245  0.1848
  495TMC3    C1 7355   3.908   0.550  14.507 -0.1520 -0.3551 -0.7834
  495TMC3    C2 7356   3.823   0.602  14.411  0.4445 -1.0730 -0.2991
  495TMC3    C3 7357   3.735   0.700  14.454  0.0777 -0.1013 -0.1851
  495TMC3    C4 7358   3.927   0.613  14.625  0.4407 -0.7139  0.7397
  495TMC3    C5 7359   3.847   0.719  14.660  0.3110 -0.1896  0.4099
  495TMC3    C6 7360   3.750   0.768  14.572 -0.5003  0.0530  0.5163
  495TMC3     C 7361   3.904   0.401  14.497  0.1133  0.5067 -0.8586
  495TMC3     O 7362   3.842   0.345  14.410  0.1596  0.4941 -0.7808
  495TMC3     H 7363   3.813   0.546  14.319  0.7729 -1.2992 -0.1976
  495TMC3    H1 7364   3.987   0.572  14.706 -0.7725 -0.6851  1.6544
  495TMC3    H2 7365   3.684   0.847  14.607 -1.2721  0.1853 -1.2587
  495TMC3    C7 7366   3.801   0.691  14.798  0.1217  0.4066  0.2186
  495TMC3    C8 7367   3.599   0.672  14.428  0.7015 -0.6049 -0.2882
  495TMC3    O1 7368   3.880   0.680  14.891  0.2751  0.3279  0.3709
  495TMC3    O2 7369   3.521   0.707  14.516 -0.4044  0.5846 -0.2558
  496MPD2     C 7370   1.791   0.244  15.673 -0.7719  0.6300  0.5792
  496MPD2    C1 7371   1.654   0.235  15.660 -0.6403 -0.5023 -0.4313
  496MPD2    C2 7372   1.574   0.296  15.752 -0.3054 -0.3919 -0.3354
  496MPD2    C3 7373   1.637   0.369  15.856 -0.3980 -0.4686 -0.0367
  496MPD2    C4 7374   1.777   0.363  15.870 -0.2955  0.0617 -0.2357
  496MPD2    C5 7375   1.858   0.311  15.770  0.0175 -0.0928  0.0401
  496MPD2     H 7376   1.467   0.288  15.740 -0.4146 -0.4019  0.6928
  496MPD2    H1 7377   1.839   0.420  15.939  0.2353 -0.8459  0.0452
  496MPD2    H2 7378   1.858   0.206  15.596 -1.0032 -1.9088  1.6104
  496MPD2    H3 7379   1.965   0.326  15.775  0.1691 -1.4379  1.0515
  496MPD2     N 7380   1.559   0.430  15.960 -0.2950  0.1129 -0.6056
  496MPD2    H5 7381   1.459   0.442  15.952 -0.6232 -1.3933  1.1659
  496MPD2    N1 7382   1.591   0.148  15.565  0.9513 -0.6477 -0.2851
  496MPD2    H7 7383   1.490   0.142  15.571  0.8621  1.2002  0.0683
  497TMC3    C1 7384   1.508   0.557  16.145  0.6916  0.0819  0.4147
  497TMC3    C2 7385   1.422   0.625  16.057  0.2994  0.4553  0.2759
  497TMC3    C3 7386   1.322   0.704  16.113  0.9383  0.0399 -0.2441
  497TMC3    C4 7387   1.503   0.570  16.279  0.2439 -0.2188 -0.8868
  497TMC3    C5 7388   1.411   0.663  16.334  0.6130 -0.4155 -0.0653
  497TMC3    C6 7389   1.322   0.718  16.251 -0.4607  0.6431 -0.0389
  497TMC3     C 7390   1.612   0.496  16.067 -0.4885 -0.1579 -0.1922
  497TMC3     O 7391   1.722   0.488  16.116 -0.0308 -0.1454  0.1439
  497TMC3     H 7392   1.443   0.638  15.951  0.0929  1.7447  0.3994
  497TMC3    H1 7393   1.563   0.508  16.345  0.1734 -1.0361 -1.5914
  497TMC3    H2 7394   1.246   0.788  16.283 -1.7601 -0.7618 -0.0598
  497TMC3    C7 7395   1.364   0.654  16.468  0.7935  0.3643  0.5744
  497TMC3    C8 7396   1.273   0.805  16.028 -0.2969  0.2008  0.3140
  497TMC3    O1 7397   1.252   0.689  16.499 -0.2946  0.2029  0.0340
  497TMC3    O2 7398   1.274   0.917  16.064  0.6110 -0.0075 -0.2733
  498MPD2     C 7399   2.970   0.764   9.820  0.6490 -0.3559  0.0123
  498MPD2    C1 7400   2.886   0.829   9.904 -0.1215  0.4509 -0.3822
  498MPD2    C2 7401   2.808   0.753   9.993  0.1830 -0.3051 -0.2714
  498MPD2    C3 7402   2.819   0.617  10.001 -0.2889 -0.1316  0.0407
  498MPD2    C4 7403   2.920   0.555   9.928 -0.0270 -0.1404  0.7606
  498MPD2    C5 7404   2.986   0.630   9.835 -0.1092 -0.0788  0.2838
  498MPD2     H 7405   2.724   0.803  10.040 -0.2770  0.4613 -1.8898
  498MPD2    H1 7406   2.939   0.449   9.927 -0.9483 -0.2959 -0.9763
  498MPD2    H2 7407   3.026   0.800   9.734 -0.7869  1.5664 -0.1182
  498MPD2    H3 7408   3.050   0.567   9.774 -1.1088 -0.0162 -0.8303
  498MPD2     N 7409   2.724   0.548  10.076  0.3095 -0.0525  0.7403
  498MPD2    H5 7410   2.652   0.611  10.109 -0.3430 -0.4851  0.1189
  498MPD2    N1 7411   2.877   0.968   9.909  0.4751 -0.1697  0.3312
  498MPD2    H7 7412   2.808   1.004   9.974 -0.0608 -0.5012 -0.0578
  499TMC3    C1 7413   2.945   1.196   9.866 -0.1973  0.3298  0.4009
  499TMC3    C2 7414   2.929   1.225  10.005  0.2969  0.2710  0.1086
  499TMC3    C3 7415   2.969   1.348  10.051  0.2112 -0.1688 -0.0204
  499TMC3    C4 7416   2.986   1.292   9.779  0.1480  0.3543 -0.2362
  499TMC3    C5 7417   3.020   1.416   9.832 -0.3728  0.4079  0.5270
  499TMC3    C6 7418   3.019   1.445   9.964  0.1672 -0.1223  0.0586
  499TMC3     C 7419   2.955   1.054   9.828  0.8399 -0.2983  0.4194
  499TMC3     O 7420   3.037   1.030   9.739 -0.1282 -0.7984  0.6837
  499TMC3     H 7421   2.931   1.138  10.070 -2.0967  1.5066  1.8138
  499TMC3    H1 7422   2.978   1.277   9.672 -1.6443 -2.5066  0.2946
  499TMC3    H2 7423   3.052   1.544   9.992  0.8131  0.2037 -1.8175
  499TMC3    C7 7424   3.043   1.521   9.738  0.7896 -0.1473  0.1192
  499TMC3    C8 7425   3.009   1.351  10.192  0.6780 -0.5112  0.6056
  499TMC3    O1 7426   3.009   1.631   9.780  0.8710  0.0220 -0.0087
  499TMC3    O2 7427   2.955   1.262  10.260 -0.0535 -0.5221 -0.3286
  500MPD2     C 7428   4.187   2.211  10.862 -0.5147  0.3103  0.6251
  500MPD2    C1 7429   4.194   2.283  10.741 -0.1270 -0.1902 -0.4222
  500MPD2    C2 7430   4.076   2.326  10.683 -0.0675 -0.0053 -0.0566
  500MPD2    C3 7431   3.952   2.283  10.742 -0.3641  0.3142  0.4411
  500MPD2    C4 7432   3.948   2.204  10.852 -0.5483 -0.7975  0.1720
  500MPD2    C5 7433   4.067   2.174  10.914  0.3680  0.3127  0.2441
  500MPD2     H 7434   4.083   2.382  10.591 -2.0932  1.1071  0.4774
  500MPD2    H1 7435   3.859   2.156  10.892 -0.4751  0.2160  1.5439
  500MPD2    H2 7436   4.275   2.172  10.911 -0.6501  1.9584  2.1997
  500MPD2    H3 7437   4.066   2.113  11.004 -2.4032  0.9472  0.6250
  500MPD2     N 7438   3.829   2.305  10.676 -0.1585  0.1383  0.5304
  500MPD2    H5 7439   3.753   2.240  10.697  1.0897 -2.1217 -1.8798
  500MPD2    N1 7440   4.312   2.337  10.688 -0.0411 -0.2233 -0.3090
  500MPD2    H7 7441   4.309   2.387  10.600  1.3361 -0.8646 -0.7170
  501TMC3    C1 7442   4.544   2.371  10.661  0.9647 -0.0049  0.1696
  501TMC3    C2 7443   4.521   2.478  10.578 -0.1403  0.2029  0.4851
  501TMC3    C3 7444   4.631   2.540  10.514  0.3254 -0.8131  0.6967
  501TMC3    C4 7445   4.670   2.336  10.693 -0.7616 -0.9842 -0.6152
  501TMC3    C5 7446   0.047   2.411  10.649 -0.8941  0.4384 -0.0405
  501TMC3    C6 7447   0.029   2.501  10.545  0.1991 -0.3800 -0.0565
  501TMC3     C 7448   4.441   2.321  10.744  0.5267 -0.6530  0.3941
  501TMC3     O 7449   4.477   2.268  10.852 -0.6164  0.3142 -0.1476
  501TMC3     H 7450   4.420   2.513  10.561 -0.2440 -0.9030 -1.1407
  501TMC3    H1 7451   4.689   2.259  10.767  0.4463  0.5533  0.6749
  501TMC3    H2 7452   0.115   2.554  10.507  0.1580  0.1366  0.5744
  501TMC3    C7 7453   0.170   2.385  10.723 -0.1967 -0.0024 -0.2444
  501TMC3    C8 7454   4.611   2.672  10.448  0.7093  0.3236  0.5567
  501TMC3    O1 7455   0.148   2.338  10.834  0.0489 -0.0057 -0.7008
  501TMC3    O2 7456   4.708   2.724  10.396 -0.0826  0.5901 -0.0164
  502TMC3    C1 7457   3.172   1.032  15.365  0.1277  0.2112  0.2196
  502TMC3    C2 7458   3.174   1.161  15.308 -0.6633  0.5831  0.2631
  502TMC3    C3 7459   3.054   1.230  15.311 -0.7911  0.5017  0.3566
  502TMC3    C4 7460   3.054   0.979  15.417 -0.4382  0.2733 -0.2903
  502TMC3    C5 7461   2.942   1.046  15.397 -0.0128  0.1917 -1.1052
  502TMC3    C6 7462   2.934   1.174  15.353 -0.3118 -0.6064 -0.2694
  502TMC3     C 7463   3.278   1.011  15.467 -0.1882  0.1817  0.8330
  502TMC3     O 7464   3.387   1.069  15.444 -0.5309 -0.2453 -0.3920
  502TMC3     H 7465   3.270   1.205  15.288  0.3177 -0.5476  2.5246
  502TMC3    H1 7466   3.060   0.873  15.440  0.7009  0.4351  0.1835
  502TMC3    H2 7467   2.844   1.229  15.330 -0.4112 -1.5726 -2.2395
  502TMC3    C7 7468   2.819   0.974  15.449  0.6989 -0.1830  0.8373
  502TMC3    C8 7469   3.074   1.372  15.291 -0.1332  0.0201 -0.0130
  502TMC3    O1 7470   2.838   0.868  15.506 -0.5086 -0.4071  0.4777
  502TMC3    O2 7471   3.158   1.402  15.209  0.1280 -0.0954 -0.6677
  503MPD2     C 7472   0.855   2.073  16.802 -0.2406 -0.5547  0.0169
  503MPD2    C1 7473   0.797   2.026  16.921  0.5075 -0.9418  0.1314
  503MPD2    C2 7474   0.803   1.893  16.958 -0.1233 -0.1320  0.3762
  503MPD2    C3 7475   0.854   1.797  16.875 -0.0864  0.0218 -0.8486
  503MPD2    C4 7476   0.908   1.839  16.752 -0.2169  1.0714 -0.4411
  503MPD2    C5 7477   0.915   1.975  16.730  0.0399  0.9765 -0.2116
  503MPD2     H 7478   0.772   1.863  17.057  0.6244 -0.8934  0.3831
  503MPD2    H1 7479   0.957   1.776  16.679 -1.0412  0.2102 -0.2542
  503MPD2    H2 7480   0.847   2.179  16.782 -2.7486 -1.1507 -2.2017
  503MPD2    H3 7481   0.957   2.002  16.634  1.4317 -0.8140 -0.1036
  503MPD2     N 7482   0.856   1.661  16.918  0.1185  0.6949  0.7280
  503MPD2    H5 7483   0.816   1.647  17.010  0.9256  1.5874  1.2137
  503MPD2    N1 7484   0.723   2.117  17.004 -0.1602  0.7369 -0.1358
  503MPD2    H7 7485   0.710   2.086  17.099  2.1147  0.2331  0.0083
  504TMC3    C1 7486   0.910   1.440  16.930 -0.8767  0.7692  0.1709
  504TMC3    C2 7487   0.829   1.400  17.040 -0.0484  0.3081 -0.0409
  504TMC3    C3 7488   0.883   1.317  17.136  0.0090  0.0196  1.1869
  504TMC3    C4 7489   1.039   1.401  16.920 -0.3861  0.3593  0.1976
  504TMC3    C5 7490   1.083   1.316  17.014  0.1918 -0.5140  0.6035
  504TMC3    C6 7491   1.011   1.274  17.128  0.0896  0.5015 -0.2468
  504TMC3     C 7492   0.885   1.550  16.836  0.4807  0.2097 -1.2440
  504TMC3     O 7493   0.933   1.544  16.723 -0.5866 -0.4380 -0.0195
  504TMC3     H 7494   0.723   1.420  17.048 -0.5365 -2.1420 -0.6245
  504TMC3    H1 7495   1.103   1.425  16.835 -0.7706  2.6607  0.5600
  504TMC3    H2 7496   1.059   1.211  17.202 -2.1466 -1.6336 -0.6307
  504TMC3    C7 7497   1.234   1.302  17.019  0.1518 -0.6061 -0.1155
  504TMC3    C8 7498   0.797   1.246  17.237  0.2041  0.7934 -0.5430
  504TMC3    O1 7499   1.298   1.368  16.937 -0.0541 -0.2426 -0.8423
  504TMC3    O2 7500   0.676   1.275  17.225 -0.1831 -0.0795 -0.1964
  505MPD2     C 7501   1.630   4.543  10.701  0.0803  0.2356  1.0793
  505MPD2    C1 7502   1.745   4.515  10.767  0.0480 -0.4046 -0.4229
  505MPD2    C2 7503   1.793   4.613  10.851 -0.8749 -0.1008 -0.0119
  505MPD2    C3 7504   1.728   0.004  10.869 -0.5664  0.8854  0.4901
  505MPD2    C4 7505   1.614   0.038  10.801  0.2428  0.2153 -0.6679
  505MPD2    C5 7506   1.560   4.656  10.728  1.1744 -0.0479 -0.2184
  505MPD2     H 7507   1.871   4.577  10.916  0.6974  3.4176  0.0267
  505MPD2    H1 7508   1.555   0.128  10.815  1.4793  1.0920 -1.0480
  505MPD2    H2 7509   1.591   4.465  10.637 -2.4643  2.3576  0.0547
  505MPD2    H3 7510   1.474   4.678  10.667  1.2939  1.3500  0.1293
  505MPD2     N 7511   1.791   0.094  10.959 -0.4604  0.0888  0.8328
  505MPD2    H5 7512   1.860   0.061  11.025  2.5471  1.6176 -1.5315
  505MPD2    N1 7513   1.812   4.386  10.750  0.5998  0.3227 -0.5794
  505MPD2    H7 7514   1.768   4.315  10.692 -0.1126  0.5815 -0.3572
  506TMC3    C1 7515   1.965   4.206  10.786 -0.0371  0.5339  0.1605
  506TMC3    C2 7516   2.000   4.199  10.657 -0.0850 -0.6974 -0.4511
  506TMC3    C3 7517   2.119   4.152  10.623 -0.2419  0.0088  0.4754
  506TMC3    C4 7518   2.057   4.156  10.877 -0.0990 -1.2487  0.7352
  506TMC3    C5 7519   2.186   4.118  10.840 -0.2965 -0.5002 -0.2843
  506TMC3    C6 7520   2.217   4.103  10.705 -0.6621 -0.9253 -0.1705
  506TMC3     C 7521   1.908   4.336  10.831  0.8099  0.7398  0.1974
  506TMC3     O 7522   1.960   4.381  10.934 -1.0772  0.3548 -0.4244
  506TMC3     H 7523   1.946   4.255  10.581 -0.5976  2.2358  2.1016
  506TMC3    H1 7524   2.034   4.165  10.983 -0.1323  1.6759  0.4937
  506TMC3    H2 7525   2.320   4.085  10.674 -0.4351  1.3255 -0.7736
  506TMC3    C7 7526   2.293   4.190  10.907  0.0185  0.1500  0.1409
  506TMC3    C8 7527   2.168   4.171  10.492 -0.3521 -0.8011 -0.1668
  506TMC3    O1 7528   2.409   4.170  10.869 -0.8949 -0.2206 -0.0601
  506TMC3    O2 7529   2.228   4.083  10.432 -0.6960 -0.1321 -0.0001
  507TMC3    C1 7530   1.583   1.643  14.725  0.2771  0.7976 -0.4312
  507TMC3    C2 7531   1.502   1.678  14.620 -0.0605 -0.2342 -0.1297
  507TMC3    C3 7532   1.551   1.737  14.505  0.2325  0.4041  0.0898
  507TMC3    C4 7533   1.715   1.686  14.716 -0.0625 -0.2710 -0.1885
  507TMC3    C5 7534   1.763   1.735  14.595 -0.5348  0.2878 -0.3390
  507TMC3    C6 7535   1.682   1.733  14.486 -0.1354 -0.0817  0.9059
  507TMC3     C 7536   1.530   1.615  14.855 -0.1026 -0.0778  0.2180
  507TMC3     O 7537   1.608   1.539  14.917  0.2377 -0.5062  0.1239
  507TMC3     H 7538   1.394   1.681  14.633 -0.0361 -1.0402  0.2286
  507TMC3    H1 7539   1.791   1.667  14.791 -1.5653  1.5420  1.7841
  507TMC3    H2 7540   1.720   1.768  14.390  0.3511 -1.8231  0.4667
  507TMC3    C7 7541   1.848   1.853  14.594 -0.3914  0.2013 -0.1919
  507TMC3    C8 7542   1.481   1.859  14.463  0.0968  0.5425  1.0968
  507TMC3    O1 7543   1.863   1.917  14.488  0.5522 -0.5980  0.0369
  507TMC3    O2 7544   1.365   1.870  14.493 -0.1315 -0.4190  0.4243
  508MPD2     C 7545   2.114   3.839  16.497  0.7957 -0.0914 -0.8302
  508MPD2    C1 7546   2.240   3.839  16.468 -0.0093  0.5476  0.0489
  508MPD2    C2 7547   2.282   3.869  16.340 -0.5794  0.5187  0.6726
  508MPD2    C3 7548   2.188   3.878  16.237  0.8933  0.4433  0.6664
  508MPD2    C4 7549   2.062   3.888  16.272 -0.1356  0.0382  0.2668
  508MPD2    C5 7550   2.025   3.864  16.401  0.6533 -1.2377 -1.0824
  508MPD2     H 7551   2.388   3.865  16.318 -0.6627  3.1697 -0.2328
  508MPD2    H1 7552   1.977   3.902  16.207 -0.2537 -0.8415  0.2401
  508MPD2    H2 7553   2.084   3.818  16.599 -0.8945  0.0364 -1.3029
  508MPD2    H3 7554   1.920   3.862  16.426  0.7052 -1.6424 -0.8852
  508MPD2     N 7555   2.236   3.886  16.110  0.0625  0.5057 -0.8253
  508MPD2    H5 7556   2.332   3.915  16.095 -0.1403  0.9179 -1.3185
  508MPD2    N1 7557   2.328   3.812  16.578  0.7000 -0.0580 -0.5825
  508MPD2    H7 7558   2.281   3.806  16.667 -0.9475 -0.2064 -1.4645
  509TMC3    C1 7559   2.171   4.079  15.719  0.9014 -0.1859  0.0476
  509TMC3    C2 7560   2.308   4.095  15.697 -0.0582  0.6051 -0.5041
  509TMC3    C3 7561   2.394   4.028  15.782 -0.4102  0.7863  0.0899
  509TMC3    C4 7562   2.131   3.993  15.812 -0.6824  0.1408 -0.8531
  509TMC3    C5 7563   2.214   3.916  15.882  0.2859 -0.1843 -0.1533
  509TMC3    C6 7564   2.349   3.929  15.865  0.2853  0.2614  0.0480
  509TMC3     C 7565   2.068   4.159  15.663 -0.2839 -0.2716  0.2351
  509TMC3     O 7566   1.952   4.135  15.689 -0.3268  0.6168 -0.3841
  509TMC3     H 7567   2.349   4.166  15.627 -0.3085  0.2482 -1.0150
  509TMC3    H1 7568   2.026   3.976  15.828 -0.8970  0.3959 -2.0535
  509TMC3    H2 7569   2.420   3.861  15.911 -0.1114 -1.7921 -2.3935
  509TMC3    C7 7570   2.154   3.862  16.000  1.1356 -0.4388  0.1492
  509TMC3    C8 7571   2.536   4.060  15.780  0.1470 -0.5056 -0.1506
  509TMC3    O1 7572   2.045   3.813  15.993  0.1059  0.6564  0.0609
  509TMC3    O2 7573   2.616   3.965  15.776 -0.4781 -0.3892  0.3038
  510MPD2     C 7574   0.733   1.019  14.825 -0.3228  0.1121  0.0477
  510MPD2    C1 7575   0.712   0.885  14.846 -0.7869  0.9858  0.2942
  510MPD2    C2 7576   0.799   0.789  14.793  0.6893  0.3788 -0.5887
  510MPD2    C3 7577   0.902   0.822  14.709 -0.0217  0.1306  0.1654
  510MPD2    C4 7578   0.925   0.962  14.691  0.5018  0.0467 -0.2156
  510MPD2    C5 7579   0.835   1.053  14.743  0.1488  0.0920  0.3311
  510MPD2     H 7580   0.786   0.686  14.826  0.4493 -0.1189 -2.2220
  510MPD2    H1 7581   1.005   1.001  14.629  0.3507  0.8702  0.1150
  510MPD2    H2 7582   0.655   1.089  14.852  0.0059 -0.2640  1.9367
  510MPD2    H3 7583   0.855   1.157  14.718 -0.4134  0.2773  0.6579
  510MPD2     N 7584   0.987   0.726  14.658  0.8192 -0.3352  0.4790
  510MPD2    H5 7585   0.966   0.633  14.691  0.6217 -0.4161  0.1253
  510MPD2    N1 7586   0.611   0.842  14.934 -0.1323 -0.3688  0.3756
  510MPD2    H7 7587   0.580   0.748  14.911  3.1969 -1.4276  0.1592
  511TMC3    C1 7588   0.430   0.849  15.078  0.2677 -0.8156 -0.2948
  511TMC3    C2 7589   0.371   0.908  15.186 -0.5857 -0.2824 -0.7361
  511TMC3    C3 7590   0.267   0.843  15.247  0.3140 -0.1166 -1.0261
  511TMC3    C4 7591   0.386   0.725  15.031  0.4713  0.4442  0.4273
  511TMC3    C5 7592   0.282   0.668  15.100  0.6950  0.6266 -0.1865
  511TMC3    C6 7593   0.217   0.723  15.201 -0.3753 -0.0488 -0.3803
  511TMC3     C 7594   0.548   0.915  15.026  0.4565 -0.1677  0.0970
  511TMC3     O 7595   0.586   1.020  15.076 -0.2029 -0.1123  0.0437
  511TMC3     H 7596   0.416   0.989  15.243 -2.4405 -1.2121  2.0311
  511TMC3    H1 7597   0.445   0.673  14.957  1.9279 -0.8895  2.5397
  511TMC3    H2 7598   0.120   0.689  15.237  0.5603 -0.3977  1.7910
  511TMC3    C7 7599   0.240   0.537  15.057  0.1679 -0.1392 -0.5396
  511TMC3    C8 7600   0.194   0.916  15.352 -0.7839  0.0308  0.1745
  511TMC3    O1 7601   0.278   0.506  14.944  0.1349 -0.1667 -0.0410
  511TMC3    O2 7602   0.203   1.039  15.369  0.3609 -0.3419 -0.2580
  512TMC3    C1 7603   0.279   4.505  13.521 -0.5664  0.1079  0.1887
  512TMC3    C2 7604   0.266   4.566  13.642  1.0180  0.9688  0.6861
  512TMC3    C3 7605   0.257   4.478  13.746  0.4451  0.1969  0.0306
  512TMC3    C4 7606   0.286   4.369  13.498  0.2916 -0.7043  0.0261
  512TMC3    C5 7607   0.265   4.291  13.606 -0.3715  0.3479 -0.1631
  512TMC3    C6 7608   0.248   4.344  13.729 -0.1706  0.4395  0.6465
  512TMC3     C 7609   0.262   4.593  13.403  0.0651 -0.8132  0.0989
  512TMC3     O 7610   0.210   4.704  13.426  0.7157  0.3943 -0.1108
  512TMC3     H 7611   0.261   4.673  13.655  1.6770  1.1521 -0.5883
  512TMC3    H1 7612   0.279   4.322  13.400 -0.6941 -1.8343  0.6364
  512TMC3    H2 7613   0.264   4.277  13.813  1.8286 -0.3211 -0.3525
  512TMC3    C7 7614   0.177   4.185  13.579 -0.4564  0.5123 -0.4714
  512TMC3    C8 7615   0.162   4.504  13.842 -0.6540  0.1338  0.0165
  512TMC3    O1 7616   0.167   4.148  13.462 -0.3000 -0.2272  0.5888
  512TMC3    O2 7617   0.092   4.411  13.879 -0.5925 -0.0551 -0.1654
  513MPD2     C 7618   1.892   4.329  13.657 -0.6866 -0.8813  0.2782
  513MPD2    C1 7619   1.987   4.385  13.584 -0.7345  1.1464 -0.2442
  513MPD2    C2 7620   2.076   4.465  13.646  0.1692  0.1079  0.1880
  513MPD2    C3 7621   2.068   4.484  13.787 -0.2904  0.5814  0.1106
  513MPD2    C4 7622   1.980   4.407  13.858 -0.2771  0.1783 -0.5172
  513MPD2    C5 7623   1.878   4.339  13.792  0.7704 -0.3886 -0.4892
  513MPD2     H 7624   2.157   4.509  13.589  2.0477 -1.3202  1.7818
  513MPD2    H1 7625   1.969   4.402  13.966  3.5934  2.5914 -0.0303
  513MPD2    H2 7626   1.827   4.258  13.606 -0.0036 -0.4986 -1.1330
  513MPD2    H3 7627   1.808   4.277  13.845 -0.7678  1.0458 -0.8571
  513MPD2     N 7628   2.168   4.562  13.850  0.0326  0.0307 -0.4832
  513MPD2    H5 7629   2.229   4.610  13.785  0.1265 -0.0515 -0.4551
  513MPD2    N1 7630   1.994   4.357  13.446 -0.5091  0.0572 -0.0046
  513MPD2    H7 7631   1.912   4.311  13.407  1.0495 -2.8416  0.1639
  514TMC3    C1 7632   2.089   4.350  13.230  0.1855  0.5700 -0.2171
  514TMC3    C2 7633   1.985   4.412  13.161  0.0141  0.1498 -0.0416
  514TMC3    C3 7634   2.010   4.464  13.042  0.2172  0.5568  0.0820
  514TMC3    C4 7635   2.215   4.344  13.179  0.2589 -0.8879  0.2010
  514TMC3    C5 7636   2.240   4.414  13.062 -0.4910 -0.2759 -0.4142
  514TMC3    C6 7637   2.136   4.457  12.986 -1.0875 -0.2520  0.3697
  514TMC3     C 7638   2.103   4.383  13.368 -0.3254 -0.2886  0.0804
  514TMC3     O 7639   2.212   4.430  13.400 -0.2619  0.1015  0.1595
  514TMC3     H 7640   1.896   4.432  13.221 -0.3022 -0.7903 -0.1863
  514TMC3    H1 7641   2.300   4.310  13.238 -1.6355 -0.7253  3.0082
  514TMC3    H2 7642   2.162   4.515  12.898 -0.8656 -0.5572  0.2356
  514TMC3    C7 7643   2.344   4.515  13.074 -0.2908 -0.3167  0.4074
  514TMC3    C8 7644   1.898   4.447  12.950  0.2083 -0.0494 -0.7561
  514TMC3    O1 7645   2.397   4.558  12.972 -0.3328  0.1572 -0.0353
  514TMC3    O2 7646   1.786   4.434  13.000  0.1586 -0.3726 -0.5103
  515MPD2     C 7647   3.978   2.204  15.507 -0.3235  0.9336  0.6194
  515MPD2    C1 7648   4.018   2.217  15.371  0.0051  0.3574  1.1183
  515MPD2    C2 7649   4.122   2.304  15.337 -0.9089  0.5738 -0.7853
  515MPD2    C3 7650   4.184   2.376  15.438 -0.8986 -0.9569  0.4213
  515MPD2    C4 7651   4.145   2.368  15.566 -0.1416 -0.0017 -0.7243
  515MPD2    C5 7652   4.038   2.287  15.596 -0.2704 -0.1876  0.2464
  515MPD2     H 7653   4.149   2.318  15.233  0.9601  0.5603 -0.2995
  515MPD2    H1 7654   4.200   2.417  15.646  1.9580 -1.5279 -1.2247
  515MPD2    H2 7655   3.900   2.135  15.537  1.7094 -1.7649 -0.3104
  515MPD2    H3 7656   4.003   2.289  15.698  0.0146  0.1359  0.3354
  515MPD2     N 7657   4.302   2.454  15.412 -0.0759  0.4836 -0.0837
  515MPD2    H5 7658   4.326   2.535  15.468  0.5084 -0.1305  0.5638
  515MPD2    N1 7659   3.970   2.131  15.267  0.5331 -0.4982 -0.3403
  515MPD2    H7 7660   3.999   2.143  15.170  3.6510  0.2325  0.6748
  516TMC3    C1 7661   3.851   1.952  15.161 -0.1786  0.5492 -0.8699
  516TMC3    C2 7662   3.845   2.019  15.037  0.0400 -0.8406  0.2555
  516TMC3    C3 7663   3.830   1.945  14.921  0.4885  0.0804 -0.7602
  516TMC3    C4 7664   3.845   1.814  15.163 -0.2733  0.3728 -0.0449
  516TMC3    C5 7665   3.821   1.744  15.047  0.0683  0.0416  0.3456
  516TMC3    C6 7666   3.808   1.807  14.925 -1.2327 -0.0769 -0.2738
  516TMC3     C 7667   3.909   2.012  15.285  0.2746  0.1403  0.3912
  516TMC3     O 7668   3.879   1.953  15.389  0.2956 -0.0205 -0.3529
  516TMC3     H 7669   3.853   2.126  15.027  1.6473 -1.0996 -1.3193
  516TMC3    H1 7670   3.861   1.771  15.262 -1.5365  0.9918  0.4179
  516TMC3    H2 7671   3.799   1.745  14.836  1.1223  0.9088 -1.2203
  516TMC3    C7 7672   3.815   1.595  15.049  0.3638  0.0962 -0.1693
  516TMC3    C8 7673   3.849   2.002  14.792  0.6537  0.9447  0.4058
  516TMC3    O1 7674   3.796   1.538  15.155 -0.2432 -0.2847  0.3926
  516TMC3    O2 7675   3.786   1.950  14.697 -0.4566 -0.8561  0.3697
  517MPD2     C 7676   3.706   3.264   0.247  0.2101 -0.1862  0.1919
  517MPD2    C1 7677   3.843   3.281   0.254 -0.4928  0.1991  0.1045
  517MPD2    C2 7678   3.896   3.375   0.337  0.3208  0.7673 -0.8349
  517MPD2    C3 7679   3.815   3.441   0.423  0.1543 -0.7056 -0.2823
  517MPD2    C4 7680   3.677   3.413   0.424 -0.7486 -0.4122 -0.7544
  517MPD2    C5 7681   3.624   3.323   0.335 -0.0929  0.0143 -0.5859
  517MPD2     H 7682   4.002   3.392   0.348 -0.3345  3.1016  1.8505
  517MPD2    H1 7683   3.613   3.461   0.497  0.7654  0.1174  0.2339
  517MPD2    H2 7684   3.656   3.195   0.180 -0.8276 -0.8381  1.6318
  517MPD2    H3 7685   3.517   3.303   0.333  0.6544 -4.0845  0.1840
  517MPD2     N 7686   3.850   3.545   0.513  0.3358 -0.1982  0.5769
  517MPD2    H5 7687   3.771   3.572   0.571  0.6179 -0.9223  1.2771
  517MPD2    N1 7688   3.931   3.206   0.180 -0.1203  0.4803  0.3740
  517MPD2    H7 7689   4.026   3.204   0.216 -0.7942 -0.2632  2.1227
  518TMC3    C1 7690   4.004   3.063  17.704 -1.2092  0.4406  0.0618
  518TMC3    C2 7691   3.949   2.989  17.600 -0.2974 -0.5720  0.9898
  518TMC3    C3 7692   4.034   2.950  17.503  0.4793  0.4145  0.1633
  518TMC3    C4 7693   4.135   3.101   0.001 -0.8023  0.7812  0.1382
  518TMC3    C5 7694   4.219   3.053  17.603 -0.0935  0.1402  1.0962
  518TMC3    C6 7695   4.162   2.983  17.494  0.4584  0.5242  0.0438
  518TMC3     C 7696   3.893   3.141   0.067 -0.6990 -0.0217 -1.3089
  518TMC3     O 7697   3.785   3.136   0.013  0.2038  0.3099 -0.2789
  518TMC3     H 7698   3.846   2.955  17.601 -0.0977 -1.1988  0.7027
  518TMC3    H1 7699   4.164   3.167   0.082  1.7918  0.3157 -0.4070
  518TMC3    H2 7700   4.231   2.957  17.415  0.5023 -0.4358  0.4030
  518TMC3    C7 7701   4.357   3.021  17.635  0.3758 -1.3798  0.0844
  518TMC3    C8 7702   3.983   2.861  17.398  0.3502 -1.0371  0.0880
  518TMC3    O1 7703   4.401   2.919  17.583  0.2738 -0.0726  0.0960
  518TMC3    O2 7704   4.070   2.790  17.349  0.0049 -0.4960  0.2019
  519MPD2     C 7705   0.994   2.129  13.959 -1.2947  0.0659  0.3286
  519MPD2    C1 7706   0.894   2.077  14.040  0.0163 -0.2770 -0.2218
  519MPD2    C2 7707   0.882   1.944  14.058  1.2940  0.2678  0.5073
  519MPD2    C3 7708   0.968   1.859  13.993  0.6393  0.5510 -0.2426
  519MPD2    C4 7709   1.071   1.915  13.923 -0.1101 -0.2511 -0.6652
  519MPD2    C5 7710   1.088   2.051  13.903  0.2226  0.0283 -0.4667
  519MPD2     H 7711   0.804   1.903  14.122  0.6222  1.8056  0.6763
  519MPD2    H1 7712   1.137   1.844  13.876  1.0963 -0.3935  1.2525
  519MPD2    H2 7713   0.990   2.237  13.954 -1.9773  0.0309  0.0829
  519MPD2    H3 7714   1.171   2.099  13.852  1.8252 -1.2226  0.9660
  519MPD2     N 7715   0.954   1.720  13.987 -0.4585  0.0947  0.0047
  519MPD2    H5 7716   1.030   1.663  13.951 -1.0373  0.3017 -1.5535
  519MPD2    N1 7717   0.796   2.171  14.082 -0.0610 -0.1318  0.2377
  519MPD2    H7 7718   0.811   2.262  14.041  2.4362 -0.9073 -0.5580
  520TMC3    C1 7719   0.877   1.504  14.022  0.4630 -0.3029 -0.1553
  520TMC3    C2 7720   0.764   1.427  14.004 -0.5353  0.8400  0.1769
  520TMC3    C3 7721   0.775   1.299  14.044  0.2599 -0.2101 -0.3209
  520TMC3    C4 7722   0.985   1.461  14.099  0.4510  0.3201 -0.7014
  520TMC3    C5 7723   0.991   1.328  14.131  0.1698  0.1799  0.3799
  520TMC3    C6 7724   0.887   1.241  14.098 -0.2690 -0.1044 -0.4013
  520TMC3     C 7725   0.848   1.646  14.033 -0.3309 -0.3775 -0.2994
  520TMC3     O 7726   0.746   1.687  14.079 -0.1638 -0.6737  0.6241
  520TMC3     H 7727   0.677   1.463  13.950 -1.5030 -0.0141  1.1471
  520TMC3    H1 7728   1.062   1.531  14.130  1.2798 -1.2718  0.8421
  520TMC3    H2 7729   0.898   1.133  14.102 -1.5433 -0.2742 -1.3878
  520TMC3    C7 7730   1.077   1.275  14.230  0.5161 -0.9599  0.0398
  520TMC3    C8 7731   0.656   1.216  14.023  0.2457  0.1177  0.4333
  520TMC3    O1 7732   1.113   1.159  14.231  0.2497  0.2945  0.5152
  520TMC3    O2 7733   0.673   1.095  14.002  0.1092 -0.3986  0.6863
  521MPD2     C 7734   1.319   3.796   0.289  0.2336 -0.1625 -0.1284
  521MPD2    C1 7735   1.299   3.856   0.166 -0.2161 -0.2065  0.1343
  521MPD2    C2 7736   1.407   3.857   0.080  0.2951  0.1461 -0.2652
  521MPD2    C3 7737   1.532   3.820   0.124 -0.1967 -0.0085 -0.5256
  521MPD2    C4 7738   1.544   3.760   0.247 -0.0090 -0.4529  0.2168
  521MPD2    C5 7739   1.438   3.751   0.333 -0.3949  0.1805 -0.2575
  521MPD2     H 7740   1.394   3.886  17.682 -0.0256  0.9361 -0.0033
  521MPD2    H1 7741   1.636   3.715   0.285  0.0700 -0.8218 -0.4149
  521MPD2    H2 7742   1.233   3.787   0.354 -0.3590 -0.9324 -1.0120
  521MPD2    H3 7743   1.435   3.709   0.433  0.8641  1.1606  0.2051
  521MPD2     N 7744   1.640   3.832   0.029  0.1555 -0.5167 -0.4136
  521MPD2    H5 7745   1.613   3.869  17.644 -0.7519  0.0514  0.0986
  521MPD2    N1 7746   1.170   3.900   0.134 -0.7821  0.3062  0.7523
  521MPD2    H7 7747   1.103   3.892   0.209  1.2461 -1.1060  2.4167
  522TMC3    C1 7748   1.853   3.809  17.656 -0.9391 -0.1752  0.0413
  522TMC3    C2 7749   1.946   3.718  17.673 -0.6980  0.0744 -0.1016
  522TMC3    C3 7750   2.003   3.664  17.554  0.5247 -0.1931  0.1913
  522TMC3    C4 7751   1.816   3.867  17.540  0.3106  0.0593  0.6066
  522TMC3    C5 7752   1.869   3.806  17.429  0.7247 -0.4514  0.7588
  522TMC3    C6 7753   1.965   3.712  17.429 -0.5009  0.3316 -0.8093
  522TMC3     C 7754   1.765   3.821   0.066 -0.5388  0.0555  0.2983
  522TMC3     O 7755   1.808   3.816   0.181 -0.2050  0.0945  0.4744
  522TMC3     H 7756   1.972   3.695   0.071 -0.0485  0.7845 -0.1008
  522TMC3    H1 7757   1.744   3.949  17.539 -0.4202 -0.6305 -2.6862
  522TMC3    H2 7758   1.999   3.659  17.341 -0.3089  3.0229 -2.3468
  522TMC3    C7 7759   1.867   3.879  17.303 -0.3364  0.5295 -0.1452
  522TMC3    C8 7760   2.117   3.582  17.569 -0.2507  0.4353  0.0698
  522TMC3    O1 7761   1.951   3.847  17.222 -0.3911 -0.4930 -0.8562
  522TMC3    O2 7762   2.114   3.487  17.646 -0.0059  0.4627  0.2433
  523MPD2     C 7763   0.074   4.171  10.505 -0.0044  0.1096  0.4321
  523MPD2    C1 7764   4.689   4.154  10.432  0.6638  0.4712  0.0455
  523MPD2    C2 7765   4.641   4.253  10.353 -0.7648 -0.2932  0.1938
  523MPD2    C3 7766   4.706   4.378  10.356  0.4511 -0.7923 -0.4679
  523MPD2    C4 7767   0.100   4.395  10.421 -0.0289 -0.0673 -0.2945
  523MPD2    C5 7768   0.145   4.286  10.492 -0.1562  0.3075  0.7189
  523MPD2     H 7769   4.548   4.246  10.298 -0.4728 -1.1043 -0.2047
  523MPD2    H1 7770   0.156   4.487  10.435 -1.3987  0.9518 -1.5086
  523MPD2    H2 7771   0.106   4.095  10.575 -0.5147  1.3637  2.0240
  523MPD2    H3 7772   0.232   4.297  10.556  0.4866  2.4931 -0.5153
  523MPD2     N 7773   4.661   4.499  10.296 -0.2456  0.2811  0.6962
  523MPD2    H5 7774   0.001   4.575  10.299  1.6641 -1.3402  0.2756
  523MPD2    N1 7775   4.635   4.026  10.442 -0.4637 -0.4627 -0.5071
  523MPD2    H7 7776   4.685   3.950  10.486  0.0467  1.0749  1.5633
  524TMC3    C1 7777   4.518   4.656  10.198  0.0764  0.1027 -0.0473
  524TMC3    C2 7778   4.622   4.723  10.142 -0.4540  0.1888  0.5644
  524TMC3    C3 7779   4.588   0.113  10.084  0.0229 -0.3217 -1.1452
  524TMC3    C4 7780   4.389   4.706  10.203  0.7382  0.4450 -0.3344
  524TMC3    C5 7781   4.360   0.092  10.134 -0.9785  0.4490  0.0007
  524TMC3    C6 7782   4.461   0.164  10.073  0.0403  0.6480 -0.1295
  524TMC3     C 7783   4.537   4.519  10.242  0.0126 -0.5098 -0.5370
  524TMC3     O 7784   4.440   4.441  10.251  0.0732 -0.2601 -0.8206
  524TMC3     H 7785   4.715   4.672  10.120 -0.4241 -0.2123  1.6034
  524TMC3    H1 7786   4.314   4.643  10.249 -0.2814  2.8832  1.3608
  524TMC3    H2 7787   4.450   0.260  10.025 -2.0108  1.0217  1.0787
  524TMC3    C7 7788   4.221   0.139  10.140 -0.5073  0.0908 -0.1895
  524TMC3    C8 7789   4.697   0.202  10.043  0.2715  0.4753  0.4352
  524TMC3    O1 7790   4.140   0.068  10.197  0.2762  0.0720 -0.0393
  524TMC3    O2 7791   4.672   0.320  10.018  0.0564  0.1768 -0.0040
  525MPD2     C 7792   1.771   1.195  14.548  0.0518  0.3802 -0.1150
  525MPD2    C1 7793   1.898   1.178  14.575  0.3553  0.4777 -0.7398
  525MPD2    C2 7794   1.994   1.264  14.530 -0.2199  0.5989 -0.4681
  525MPD2    C3 7795   1.964   1.372  14.450 -0.2635  0.4948 -0.1002
  525MPD2    C4 7796   1.837   1.379  14.409  0.4252 -0.0920 -0.3626
  525MPD2    C5 7797   1.737   1.293  14.462 -0.5219  0.6102 -0.5660
  525MPD2     H 7798   2.090   1.259  14.580 -0.1352  0.8738 -0.6041
  525MPD2    H1 7799   1.808   1.459  14.341 -0.6253  2.2016  2.7280
  525MPD2    H2 7800   1.692   1.131  14.586 -1.9185  1.3406 -2.6039
  525MPD2    H3 7801   1.632   1.292  14.437 -0.8436 -0.2451  0.8465
  525MPD2     N 7802   2.060   1.476  14.430 -0.4238 -0.3626  0.1518
  525MPD2    H5 7803   2.028   1.566  14.395 -1.2177 -0.6506  0.1541
  525MPD2    N1 7804   1.937   1.093  14.676 -0.0346  0.3291 -0.2583
  525MPD2    H7 7805   2.036   1.101  14.698  0.1472 -1.0721 -0.5659
  526TMC3    C1 7806   1.924   0.939  14.859  0.7320 -0.2263 -0.6577
  526TMC3    C2 7807   1.839   0.868  14.941  0.3326  0.3669  0.1507
  526TMC3    C3 7808   1.883   0.830  15.064 -1.2053 -0.8917  0.0638
  526TMC3    C4 7809   2.045   0.983  14.897 -0.4405  0.3730  0.5275
  526TMC3    C5 7810   2.081   0.945  15.026  0.4454 -0.1326  0.5455
  526TMC3    C6 7811   2.005   0.878  15.112 -1.4246 -0.0675  0.2950
  526TMC3     C 7812   1.852   1.007  14.752 -0.1006  0.0518  0.1665
  526TMC3     O 7813   1.747   0.955  14.719  0.1252  0.1084 -0.0148
  526TMC3     H 7814   1.733   0.859  14.921  0.0257  2.9709  0.6531
  526TMC3    H1 7815   2.103   1.048  14.833 -2.6532  0.8607 -0.9685
  526TMC3    H2 7816   2.060   0.843  15.200  0.2468 -1.2888 -1.2279
  526TMC3    C7 7817   2.220   0.949  15.061 -0.1935 -0.8779 -0.0532
  526TMC3    C8 7818   1.805   0.745  15.156  0.1873  0.3124 -0.1689
  526TMC3    O1 7819   2.253   0.967  15.177 -0.1942  0.0287  0.0313
  526TMC3    O2 7820   1.718   0.671  15.114  0.4588  0.3424 -0.6940
  527MPD2     C 7821   0.747   3.969   1.658 -0.0033 -0.1919  0.1910
  527MPD2    C1 7822   0.719   3.974   1.523  0.9604 -0.3317  0.1779
  527MPD2    C2 7823   0.771   3.886   1.433  0.6223 -0.4485  0.2139
  527MPD2    C3 7824   0.868   3.793   1.476 -0.2922  0.6197  0.2852
  527MPD2    C4 7825   0.898   3.787   1.618 -0.5434  0.1498  0.1335
  527MPD2    C5 7826   0.844   3.880   1.698 -0.2444  0.1247 -0.3434
  527MPD2     H 7827   0.730   3.871   1.334  1.1580  0.4753 -0.1467
  527MPD2    H1 7828   0.972   3.721   1.661 -1.3835 -1.3610 -0.7435
  527MPD2    H2 7829   0.702   4.024   1.740  0.0074 -1.2159  0.8888
  527MPD2    H3 7830   0.875   3.892   1.802  0.0859 -0.6838 -0.3521
  527MPD2     N 7831   0.928   3.708   1.375  0.2023  0.4936 -0.3419
  527MPD2    H5 7832   0.898   3.723   1.279  0.8726  1.9585 -0.3185
  527MPD2    N1 7833   0.615   4.066   1.468  0.1768  0.3274  0.4246
  527MPD2    H7 7834   0.614   4.067   1.367 -0.0554 -0.9847  0.4123
  528TMC3    C1 7835   0.449   4.242   1.473 -0.8561  0.0048 -1.0084
  528TMC3    C2 7836   0.379   4.337   1.544 -0.1840  0.6515 -0.0213
  528TMC3    C3 7837   0.249   4.381   1.502 -0.7973 -0.3050 -0.3550
  528TMC3    C4 7838   0.402   4.206   1.352  0.3805 -0.4192 -0.0017
  528TMC3    C5 7839   0.279   4.263   1.308 -0.2466  0.5649  1.1152
  528TMC3    C6 7840   0.200   4.349   1.382 -0.5120  0.1832  0.1037
  528TMC3     C 7841   0.539   4.153   1.543  0.6347 -0.0040  0.2925
  528TMC3     O 7842   0.563   4.183   1.658  0.3349 -0.0269  0.3979
  528TMC3     H 7843   0.417   4.368   1.641  1.0580  2.4011 -1.0430
  528TMC3    H1 7844   0.436   4.119   1.297  0.0715  1.3187 -2.9289
  528TMC3    H2 7845   0.095   4.357   1.357  0.1747  0.0926 -2.8721
  528TMC3    C7 7846   0.211   4.206   1.188  0.0130 -1.0136  0.1053
  528TMC3    C8 7847   0.181   4.464   1.600  0.3493  0.0380  0.2815
  528TMC3    O1 7848   0.096   4.248   1.172  0.4257  0.6619  0.5099
  528TMC3    O2 7849   0.258   4.502   1.688 -0.7116 -0.0622  0.1382
  529MPD2     C 7850   2.105   2.147   1.145 -0.7608 -0.3797 -0.8660
  529MPD2    C1 7851   2.196   2.215   1.065  0.6494  0.0631 -0.9357
  529MPD2    C2 7852   2.150   2.319   0.985 -0.1717  0.3841  0.2074
  529MPD2    C3 7853   2.022   2.356   0.986 -0.6153  0.3240  0.8517
  529MPD2    C4 7854   1.938   2.279   1.052  0.0717  0.2589 -0.1108
  529MPD2    C5 7855   1.975   2.173   1.135 -0.1851  0.2004  0.4378
  529MPD2     H 7856   2.221   2.358   0.913 -0.1596  0.0713  0.0521
  529MPD2    H1 7857   1.834   2.309   1.060 -0.0425 -0.7098  2.0714
  529MPD2    H2 7858   2.131   2.062   1.207  0.6510 -0.0260 -0.9785
  529MPD2    H3 7859   1.894   2.129   1.193  1.8923 -1.4568  2.0989
  529MPD2     N 7860   1.982   2.466   0.906  0.2000  0.5324  0.1076
  529MPD2    H5 7861   1.888   2.482   0.872  0.1238  0.2773  0.1955
  529MPD2    N1 7862   2.340   2.193   1.071 -0.1257  0.1576  0.6531
  529MPD2    H7 7863   2.397   2.257   1.017  0.5998  0.0354  1.2858
  530TMC3    C1 7864   2.540   2.133   1.165  0.3688 -0.1725 -0.3814
  530TMC3    C2 7865   2.603   2.133   1.281 -0.4292 -0.0345  0.3337
  530TMC3    C3 7866   2.735   2.158   1.281 -0.0803 -0.4941  0.0550
  530TMC3    C4 7867   2.599   2.175   1.054 -0.3157 -0.9680  0.0711
  530TMC3    C5 7868   2.729   2.212   1.049 -0.0995  0.3292 -0.6288
  530TMC3    C6 7869   2.800   2.210   1.170 -0.3580  0.0647 -0.2628
  530TMC3     C 7870   2.402   2.121   1.170  0.3616  0.9891  0.7955
  530TMC3     O 7871   2.365   2.034   1.249  0.1355 -0.8939 -0.2301
  530TMC3     H 7872   2.537   2.103   1.362  0.7564 -0.8806  0.9941
  530TMC3    H1 7873   2.552   2.161   0.957  1.3272  0.3029 -0.8925
  530TMC3    H2 7874   2.903   2.242   1.180 -0.8775  0.9329  2.5812
  530TMC3    C7 7875   2.806   2.167   0.939 -0.5499  0.5349 -0.1830
  530TMC3    C8 7876   2.799   2.171   1.409 -0.4399 -0.1733  0.6616
  530TMC3    O1 7877   2.858   2.254   0.872 -0.8008 -0.1054  0.2605
  530TMC3    O2 7878   2.717   2.172   1.499 -0.0413 -0.0533 -0.6046
  531MPD2     C 7879   2.611   0.103  13.382 -0.2372  0.5358 -0.7359
  531MPD2    C1 7880   2.537   0.026  13.459  0.0890 -0.1476 -0.1468
  531MPD2    C2 7881   2.455   4.660  13.398  0.2317 -0.1338  0.7057
  531MPD2    C3 7882   2.454   4.640  13.260 -0.1324  0.7698  0.1052
  531MPD2    C4 7883   2.547   4.711  13.190 -0.2353  0.2033 -0.0666
  531MPD2    C5 7884   2.620   0.087  13.247 -1.0277 -0.0340 -0.7623
  531MPD2     H 7885   2.382   4.605  13.457 -0.2648  2.5286  2.5720
  531MPD2    H1 7886   2.555   4.720  13.082 -2.7571 -0.4914 -0.3227
  531MPD2    H2 7887   2.675   0.178  13.426 -0.4877  0.7995 -0.8276
  531MPD2    H3 7888   2.686   0.149  13.187 -1.0865 -0.2329 -1.0338
  531MPD2     N 7889   2.359   4.549  13.209 -0.5037  0.4429 -0.3572
  531MPD2    H5 7890   2.303   4.510  13.283 -0.6658 -1.4900 -1.5197
  531MPD2    N1 7891   2.538   0.050  13.602  0.2025  0.0874  0.6587
  531MPD2    H7 7892   2.610   0.106  13.646  0.4160 -0.9577  1.6574
  532TMC3    C1 7893   2.460   0.011  13.820 -0.6446 -0.4477  0.1147
  532TMC3    C2 7894   2.347   0.006  13.896  0.1366 -0.0244  0.0648
  532TMC3    C3 7895   2.328   4.647  13.994 -0.2303  0.2453 -0.2387
  532TMC3    C4 7896   2.565   4.663  13.855 -0.4394 -0.2482  0.1481
  532TMC3    C5 7897   2.553   4.587  13.966 -0.2987 -0.0029 -0.2484
  532TMC3    C6 7898   2.432   4.572  14.031  0.5758 -0.6694  0.2748
  532TMC3     C 7899   2.432   0.016  13.680  0.3278  0.2879 -0.9927
  532TMC3     O 7900   2.319   4.705  13.656  0.1467 -0.0683  0.3162
  532TMC3     H 7901   2.256   0.061  13.876 -3.1412 -4.8067  1.7031
  532TMC3    H1 7902   2.654   4.673  13.793 -0.8466  1.6833 -0.1250
  532TMC3    H2 7903   2.423   4.489  14.101 -0.6841  1.1233  2.2139
  532TMC3    C7 7904   2.642   4.472  13.977  1.1339  0.3099 -0.0764
  532TMC3    C8 7905   2.210   4.568  13.981 -0.3299 -0.6178  0.1632
  532TMC3    O1 7906   2.661   4.427  14.087  0.2774 -0.2174 -0.0438
  532TMC3    O2 7907   2.184   4.499  14.079 -0.0145  0.0390  0.0979
  533TMC3    C1 7908   2.264   1.580  14.496  0.1789  0.1767 -0.1235
  533TMC3    C2 7909   2.406   1.570  14.503 -0.5575  0.4350  0.1044
  533TMC3    C3 7910   2.467   1.633  14.607  0.0026  0.5334 -0.5312
  533TMC3    C4 7911   2.186   1.644  14.587 -0.4940 -0.1814 -0.0282
  533TMC3    C5 7912   2.254   1.700  14.695 -0.3087  0.1439  0.0311
  533TMC3    C6 7913   2.395   1.702  14.704 -0.0674 -0.2741  0.2552
  533TMC3     C 7914   2.204   1.461  14.438 -0.1191  0.2024  1.0594
  533TMC3     O 7915   2.263   1.356  14.459 -0.4978  0.2548  0.5044
  533TMC3     H 7916   2.457   1.525  14.419 -0.7917  0.3924 -0.0129
  533TMC3    H1 7917   2.078   1.647  14.582 -0.4904  0.4445  0.2597
  533TMC3    H2 7918   2.450   1.744  14.787 -2.5788  4.4012 -0.4619
  533TMC3    C7 7919   2.180   1.717  14.815 -0.3830 -0.1098  0.2293
  533TMC3    C8 7920   2.609   1.666  14.613  0.5212  0.0179  0.4333
  533TMC3    O1 7921   2.066   1.664  14.817  0.1392 -0.1750  0.0092
  533TMC3    O2 7922   2.650   1.707  14.721  0.8145  0.1390 -0.0930
  534MPD2     C 7923   0.272   2.866   1.800  0.3943  0.3425 -0.9356
  534MPD2    C1 7924   0.368   2.769   1.792  0.1448 -0.5112 -0.1391
  534MPD2    C2 7925   0.352   2.663   1.710  0.3652  0.4437 -0.5967
  534MPD2    C3 7926   0.240   2.647   1.635 -0.4673 -0.2005  0.6702
  534MPD2    C4 7927   0.141   2.742   1.652  0.4766  0.2873  0.4188
  534MPD2    C5 7928   0.153   2.845   1.741 -0.6241  0.5820 -0.5651
  534MPD2     H 7929   0.429   2.588   1.699  0.4621  0.3575  0.6492
  534MPD2    H1 7930   0.042   2.724   1.610  1.0823  1.8112 -1.6206
  534MPD2    H2 7931   0.283   2.945   1.874  0.7478 -0.8479  0.2841
  534MPD2    H3 7932   0.067   2.908   1.756  0.2827  1.5405  0.5580
  534MPD2     N 7933   0.215   2.536   1.549 -0.4693 -0.0537 -0.2678
  534MPD2    H5 7934   0.140   2.538   1.481 -1.0252 -1.5580  0.3026
  534MPD2    N1 7935   0.487   2.787   1.865  0.0423  0.5707  0.2170
  534MPD2    H7 7936   0.479   2.878   1.908 -1.5628  0.3926  0.2701
  535TMC3    C1 7937   0.268   2.327   1.447 -0.2246 -0.5347 -0.0119
  535TMC3    C2 7938   0.161   2.337   1.363 -0.6399 -0.8995  0.0208
  535TMC3    C3 7939   0.157   2.245   1.258 -0.0401  0.2040 -0.2002
  535TMC3    C4 7940   0.373   2.242   1.427  0.5993 -0.3784 -0.3201
  535TMC3    C5 7941   0.362   2.148   1.326 -0.0340  1.1261  0.8767
  535TMC3    C6 7942   0.257   2.157   1.236  1.0123  0.0493 -0.1604
  535TMC3     C 7943   0.283   2.419   1.561 -0.3716 -0.4321  0.4600
  535TMC3     O 7944   0.350   2.384   1.656  0.0247  0.0672 -0.0524
  535TMC3     H 7945   0.077   2.405   1.365  0.6876  0.7631 -0.5116
  535TMC3    H1 7946   0.471   2.250   1.473  1.9079 -1.3769 -2.9861
  535TMC3    H2 7947   0.245   2.079   1.161 -1.0616 -0.3183  0.5476
  535TMC3    C7 7948   0.472   2.061   1.287  0.3130  0.1665 -0.3251
  535TMC3    C8 7949   0.039   2.241   1.175 -0.7362  0.0792 -0.9762
  535TMC3    O1 7950   0.463   2.016   1.173  0.2630 -0.2025 -0.1861
  535TMC3    O2 7951   4.660   2.264   1.229  0.8706 -0.0497  0.0177
  536MPD2     C 7952   3.277   0.440  16.875 -0.1714 -0.7422  0.9024
  536MPD2    C1 7953   3.291   0.572  16.876  0.6551  0.5099  0.1611
  536MPD2    C2 7954   3.243   0.639  16.762  0.0193  0.2634 -0.4448
  536MPD2    C3 7955   3.167   0.576  16.669  0.5343  0.3923  0.1231
  536MPD2    C4 7956   3.152   0.438  16.677 -0.3414 -0.1102  0.0963
  536MPD2    C5 7957   3.198   0.372  16.792  0.2579  0.1859  0.2161
  536MPD2     H 7958   3.283   0.740  16.760  1.8393 -0.4302  0.5010
  536MPD2    H1 7959   3.100   0.376  16.605  0.6643  0.1177 -0.8347
  536MPD2    H2 7960   3.310   0.385  16.962 -1.4642 -2.2865  0.4351
  536MPD2    H3 7961   3.180   0.266  16.801 -1.7562  0.5385  0.3512
  536MPD2     N 7962   3.121   0.634  16.545 -0.0069  0.6230 -0.2982
  536MPD2    H5 7963   3.057   0.583  16.484 -3.4670  3.2718  1.0705
  536MPD2    N1 7964   3.375   0.639  16.979 -0.6355 -0.0215  0.6972
  536MPD2    H7 7965   3.428   0.578  17.039  1.7650  1.4925  0.1059
  537TMC3    C1 7966   3.493   0.816  17.084  0.4341  0.5547  0.8765
  537TMC3    C2 7967   3.539   0.950  17.066 -1.4137 -0.3398  0.4795
  537TMC3    C3 7968   3.610   1.009  17.165  0.0189  0.2823 -0.7152
  537TMC3    C4 7969   3.543   0.738  17.184 -0.2071 -0.4747  0.4263
  537TMC3    C5 7970   3.609   0.801  17.286  0.3457  0.9618  0.1340
  537TMC3    C6 7971   3.644   0.935  17.280 -0.3729 -0.5188 -0.1490
  537TMC3     C 7972   3.386   0.776  16.995  0.7676 -0.1497 -0.5065
  537TMC3     O 7973   3.324   0.872  16.952  0.2935 -0.6664 -0.1316
  537TMC3     H 7974   3.503   1.009  16.983 -0.0388  1.9571  1.5072
  537TMC3    H1 7975   3.514   0.634  17.198 -0.8208 -0.4068 -0.3593
  537TMC3    H2 7976   3.677   0.987  17.369 -2.0763  1.0375 -0.4170
  537TMC3    C7 7977   3.622   0.737  17.419 -0.3381  0.1821  0.2313
  537TMC3    C8 7978   3.679   1.135  17.140  0.1032  0.0825 -0.1683
  537TMC3    O1 7979   3.643   0.807  17.520 -0.6169 -0.1576  0.2809
  537TMC3    O2 7980   3.770   1.175  17.211  0.5117 -0.0432 -0.6298
  538TMC3    C1 7981   0.379   3.945  11.119  0.5552  0.4042  0.0463
  538TMC3    C2 7982   0.495   3.882  11.088  0.4799 -0.7833  0.2672
  538TMC3    C3 7983   0.582   3.960  11.019  0.5043  0.5929  0.0782
  538TMC3    C4 7984   0.360   4.078  11.108  0.1661 -0.1154  0.2213
  538TMC3    C5 7985   0.446   4.146  11.028 -0.4087 -0.0222 -0.1620
  538TMC3    C6 7986   0.564   4.090  10.985  0.2607 -0.2756  0.0514
  538TMC3     C 7987   0.283   3.878  11.200  0.1973 -0.5121  0.6108
  538TMC3     O 7988   0.168   3.916  11.184  0.1123 -0.1285  0.5552
  538TMC3     H 7989   0.503   3.776  11.107  0.4492 -0.5998  1.2848
  538TMC3    H1 7990   0.271   4.126  11.148 -0.3317 -1.4608  0.7239
  538TMC3    H2 7991   0.626   4.145  10.915 -0.8186  0.1496 -0.5768
  538TMC3    C7 7992   0.383   4.236  10.927  0.0852  0.3026  0.2637
  538TMC3    C8 7993   0.684   3.889  10.947  0.0059 -0.0314  0.3423
  538TMC3    O1 7994   0.437   4.337  10.883 -0.3453 -0.3979 -0.3884
  538TMC3    O2 7995   0.799   3.941  10.944  0.6997  0.4049  0.0535
  539MPD2     C 7996   4.392   2.990  12.013  0.0019 -0.9812 -0.5099
  539MPD2    C1 7997   4.500   3.035  11.936 -0.3197  0.4483 -0.2926
  539MPD2    C2 7998   4.535   3.170  11.933  0.4820 -0.1061  0.5494
  539MPD2    C3 7999   4.463   3.262  12.001  0.9485 -0.5471  0.0352
  539MPD2    C4 8000   4.357   3.220  12.080 -0.0490 -0.3929 -0.4436
  539MPD2    C5 8001   4.317   3.086  12.080  0.2784  0.3216  0.3427
  539MPD2     H 8002   4.608   3.192  11.856 -1.1228  0.4459 -0.8104
  539MPD2    H1 8003   4.302   3.288  12.143 -2.1655 -1.5031 -1.0618
  539MPD2    H2 8004   4.358   2.887  12.003 -0.6741 -0.9106  1.0580
  539MPD2    H3 8005   4.220   3.069  12.126  0.2930 -0.9956 -0.1246
  539MPD2     N 8006   4.475   3.402  11.979  0.4370 -0.4646  0.2040
  539MPD2    H5 8007   4.415   3.468  12.026 -0.4892  0.6366 -2.4944
  539MPD2    N1 8008   4.558   2.950  11.840 -0.1571  0.3801 -0.7012
  539MPD2    H7 8009   4.615   2.988  11.765  0.5618  1.0238  0.1709
  540TMC3    C1 8010   4.497   3.602  11.859 -0.4913  0.4333  0.4375
  540TMC3    C2 8011   4.514   3.645  11.731 -0.2199  0.4394 -0.0734
  540TMC3    C3 8012   4.503   3.781  11.720 -0.2241 -0.7033 -0.9039
  540TMC3    C4 8013   4.461   3.679  11.963 -0.2712  0.3219  0.3070
  540TMC3    C5 8014   4.449   3.811  11.937 -0.1073  0.6157  0.0651
  540TMC3    C6 8015   4.466   3.869  11.817 -0.2756 -0.3743 -0.2937
  540TMC3     C 8016   4.545   3.461  11.881  0.0672  0.1012 -0.6425
  540TMC3     O 8017   4.620   3.408  11.798 -0.2572 -0.1098  0.2523
  540TMC3     H 8018   4.542   3.576  11.653  0.1876 -1.0894  1.4092
  540TMC3    H1 8019   4.474   3.640  12.063 -0.0590 -0.4074 -0.0014
  540TMC3    H2 8020   4.469   3.977  11.806 -0.1815 -0.1899  1.4784
  540TMC3    C7 8021   4.365   3.884  12.027 -0.4037  0.0465  0.3985
  540TMC3    C8 8022   4.529   3.831  11.585  0.1844  0.5571  0.3677
  540TMC3    O1 8023   4.277   3.821  12.085  0.5062 -0.0032 -0.0561
  540TMC3    O2 8024   4.580   3.943  11.584  0.9045 -0.0890 -0.1192
  541MPD2     C 8025   3.119   0.508  13.625 -0.5568 -0.0218  0.3018
  541MPD2    C1 8026   3.169   0.405  13.556  0.0066 -0.2775  0.0565
  541MPD2    C2 8027   3.205   0.418  13.423 -0.1875  0.2169 -0.0805
  541MPD2    C3 8028   3.198   0.536  13.354  0.1922  0.5829  0.3353
  541MPD2    C4 8029   3.151   0.641  13.422  0.1267  0.0851 -0.2068
  541MPD2    C5 8030   3.106   0.626  13.554  0.7309 -0.4450 -0.2344
  541MPD2     H 8031   3.239   0.328  13.374  0.0045 -0.5870  1.5126
  541MPD2    H1 8032   3.155   0.745  13.393  0.4262  0.1792  0.1737
  541MPD2    H2 8033   3.108   0.513  13.733 -1.0083  0.0625  0.2531
  541MPD2    H3 8034   3.091   0.718  13.609 -0.0095 -0.4926 -0.3544
  541MPD2     N 8035   3.221   0.549  13.216 -0.5501  0.1996  0.9909
  541MPD2    H5 8036   3.205   0.645  13.189 -2.6736  0.2658  2.4736
  541MPD2    N1 8037   3.206   0.287  13.615  0.2098 -0.1552 -0.2647
  541MPD2    H7 8038   3.272   0.224  13.569  0.4627  2.4499 -3.5080
  542TMC3    C1 8039   3.322   0.503  13.010 -0.9952  0.5922 -0.4565
  542TMC3    C2 8040   3.398   0.418  12.929 -0.5700  0.5026  0.5116
  542TMC3    C3 8041   3.434   0.464  12.808 -0.0027  0.0012 -0.6834
  542TMC3    C4 8042   3.273   0.622  12.964 -0.1912  0.0227  0.5257
  542TMC3    C5 8043   3.313   0.660  12.838 -0.5675 -0.0639  0.2716
  542TMC3    C6 8044   3.399   0.587  12.763  0.0384 -0.7846 -0.0563
  542TMC3     C 8045   3.283   0.456  13.138 -0.4068  0.5032 -0.5493
  542TMC3     O 8046   3.312   0.341  13.166  0.5336 -0.2062 -0.1585
  542TMC3     H 8047   3.405   0.315  12.962 -0.1436 -0.0020 -1.1331
  542TMC3    H1 8048   3.196   0.679  13.015 -0.6193  0.3839 -0.5300
  542TMC3    H2 8049   3.414   0.618  12.661  1.5856  0.8225  0.6741
  542TMC3    C7 8050   3.262   0.783  12.779 -0.0328  0.0050 -0.1504
  542TMC3    C8 8051   3.457   0.381  12.700 -0.1332 -0.0767 -0.2395
  542TMC3    O1 8052   3.251   0.790  12.657 -0.3385 -0.3905  0.3415
  542TMC3    O2 8053   3.407   0.269  12.695 -0.3368  0.3708  0.1324
  543TMC3    C1 8054   1.840   1.201  17.302 -0.3875 -0.4344  0.3264
  543TMC3    C2 8055   1.873   1.077  17.342  1.0160  0.0147 -0.1684
  543TMC3    C3 8056   1.801   1.028  17.450 -0.1328  0.2219 -0.2357
  543TMC3    C4 8057   1.743   1.279  17.360  0.3230 -0.4324 -0.2858
  543TMC3    C5 8058   1.685   1.221  17.474 -0.1303  0.0477 -0.0565
  543TMC3    C6 8059   1.709   1.098  17.518 -0.9005 -0.0119 -0.1348
  543TMC3     C 8060   1.902   1.241  17.179 -0.0205  0.6803 -0.5094
  543TMC3     O 8061   2.010   1.185  17.146  0.5590 -0.2067 -0.3339
  543TMC3     H 8062   1.947   1.010  17.299  1.1230 -1.8282  2.8784
  543TMC3    H1 8063   1.734   1.384  17.338  0.5154  0.0464  1.9214
  543TMC3    H2 8064   1.666   1.072  17.614 -0.8139  1.3682  0.2726
  543TMC3    C7 8065   1.648   1.310  17.587  0.4665 -0.3305  0.1961
  543TMC3    C8 8066   1.831   0.891  17.483  0.2780 -0.0606 -0.0933
  543TMC3    O1 8067   1.559   1.265  17.658 -0.4613 -0.3308  0.4599
  543TMC3    O2 8068   1.939   0.844  17.452  0.4192 -0.1660  0.0765
  544MPD2     C 8069   1.752   0.420   0.014  0.1357  0.6246 -0.2996
  544MPD2    C1 8070   1.848   0.463  17.621  0.2997 -0.3962  0.3869
  544MPD2    C2 8071   1.843   0.599  17.582 -0.1748  0.2263 -0.2661
  544MPD2    C3 8072   1.742   0.694  17.611  0.2859  0.3447 -0.2776
  544MPD2    C4 8073   1.651   0.644  17.701 -0.5076 -0.7863 -0.2005
  544MPD2    C5 8074   1.660   0.515   0.047  0.2365 -0.2559  0.3375
  544MPD2     H 8075   1.913   0.623  17.502  1.4418 -0.1274  1.0363
  544MPD2    H1 8076   1.580   0.711   0.043 -0.2026  0.7899 -1.9791
  544MPD2    H2 8077   1.743   0.321   0.058 -1.5241  1.4372  1.1774
  544MPD2    H3 8078   1.587   0.491   0.124 -0.1023 -1.1618 -0.2586
  544MPD2     N 8079   1.732   0.825  17.556 -0.1807 -0.3490 -0.5316
  544MPD2    H5 8080   1.645   0.874  17.571 -1.3822 -3.3417  2.4025
  544MPD2    N1 8081   1.956   0.374  17.592 -0.5994 -0.2633 -0.1711
  544MPD2    H7 8082   1.947   0.281  17.634  0.4612 -0.5298 -0.5475
  545TMC3    C1 8083   2.153   0.288  17.482 -0.4793 -0.1820  0.8496
  545TMC3    C2 8084   2.226   0.276  17.367 -0.3003  0.2857 -0.0731
  545TMC3    C3 8085   2.320   0.181  17.365 -0.0081 -0.4015  0.5178
  545TMC3    C4 8086   2.188   0.224  17.597 -0.4457 -0.7836  0.0154
  545TMC3    C5 8087   2.298   0.143  17.596 -0.3289  0.1494 -0.1626
  545TMC3    C6 8088   2.363   0.117  17.478  0.3705 -0.8492 -0.1286
  545TMC3     C 8089   2.051   0.392  17.492  0.0800  0.0444  0.1152
  545TMC3     O 8090   2.066   0.484  17.413 -0.3156  0.9135  0.1979
  545TMC3     H 8091   2.206   0.340  17.282  1.6769  1.1739  0.1266
  545TMC3    H1 8092   2.149   0.258  17.692 -0.2848  1.4756 -0.7294
  545TMC3    H2 8093   2.424   0.029  17.468  0.6394 -0.7536  0.6529
  545TMC3    C7 8094   2.306   0.058   0.009 -0.5082 -0.4575 -0.9604
  545TMC3    C8 8095   2.366   0.139  17.233 -0.1125 -0.4037  0.2078
  545TMC3    O1 8096   2.207   0.047   0.083 -0.0641 -0.0758 -0.0399
  545TMC3    O2 8097   2.306   0.170  17.130  0.7051  0.3739 -0.5427
  546MPD2     C 8098   3.838   1.436  17.455 -0.3553  0.6409 -0.1994
  546MPD2    C1 8099   3.741   1.493  17.378 -0.3370 -0.3795  0.3876
  546MPD2    C2 8100   3.762   1.606  17.309 -0.3577 -0.1717  0.1641
  546MPD2    C3 8101   3.881   1.679  17.323 -0.1588 -0.5956  0.1133
  546MPD2    C4 8102   3.977   1.629  17.403 -0.1364  0.0617 -0.1324
  546MPD2    C5 8103   3.957   1.510  17.467  0.0133  0.5400  0.5023
  546MPD2     H 8104   3.686   1.642  17.240  2.7263  1.8407 -2.1770
  546MPD2    H1 8105   4.075   1.670  17.424  0.7098 -1.1760 -1.6287
  546MPD2    H2 8106   3.816   1.352  17.521 -0.3550  0.8435  0.0569
  546MPD2    H3 8107   4.029   1.473  17.539  0.4130 -0.8245 -0.6020
  546MPD2     N 8108   3.907   1.808  17.267  0.0539 -0.8320 -0.4763
  546MPD2    H5 8109   3.996   1.855  17.281 -0.6696  0.4752 -0.2979
  546MPD2    N1 8110   3.627   1.413  17.368 -1.0727 -0.1768  0.4170
  546MPD2    H7 8111   3.639   1.325  17.417 -1.3364 -0.7246 -0.4869
  547TMC3    C1 8112   3.412   1.344  17.305 -0.6557 -0.0605 -0.0217
  547TMC3    C2 8113   3.280   1.368  17.255 -0.2849  0.5019 -0.6577
  547TMC3    C3 8114   3.180   1.276  17.288 -0.2110 -0.0231  0.0956
  547TMC3    C4 8115   3.439   1.219  17.356 -0.0705 -0.4172  0.2972
  547TMC3    C5 8116   3.342   1.124  17.374 -0.5250 -0.2816  0.5582
  547TMC3    C6 8117   3.209   1.155  17.347 -0.3766  0.0936  0.4906
  547TMC3     C 8118   3.514   1.445  17.296  0.1481 -0.7170  0.4042
  547TMC3     O 8119   3.489   1.550  17.238 -0.6286 -0.1045 -1.0080
  547TMC3     H 8120   3.254   1.470  17.228  0.0824  0.6158 -0.5722
  547TMC3    H1 8121   3.536   1.191  17.395 -0.1836 -1.0872  0.0990
  547TMC3    H2 8122   3.131   1.088  17.381 -1.6728  1.0545 -0.6252
  547TMC3    C7 8123   3.368   1.037  17.481 -0.3248  0.2852  0.5177
  547TMC3    C8 8124   3.047   1.314  17.251 -0.2911  0.0594 -0.6409
  547TMC3    O1 8125   3.461   1.062  17.557 -0.3575  0.6415 -0.8810
  547TMC3    O2 8126   3.037   1.411  17.173 -0.1988  0.0406  0.1724
  548MPD2     C 8127   3.752   2.219  12.308  0.1919  0.0666  0.9144
  548MPD2    C1 8128   3.781   2.152  12.429 -0.5941 -1.0264  0.1599
  548MPD2    C2 8129   3.883   2.061  12.438 -0.1519  0.0634 -0.1508
  548MPD2    C3 8130   3.951   2.028  12.321  0.5362  0.0625  0.1952
  548MPD2    C4 8131   3.918   2.086  12.202  0.0459  0.4909  0.8548
  548MPD2    C5 8132   3.822   2.183  12.195  0.0348  0.0813 -0.2649
  548MPD2     H 8133   3.911   2.017  12.532 -1.1720  1.1514  0.6679
  548MPD2    H1 8134   3.978   2.073  12.113 -1.2052  2.4583 -0.2818
  548MPD2    H2 8135   3.674   2.293  12.296  2.1837  1.4807 -3.1033
  548MPD2    H3 8136   3.810   2.240  12.104 -1.7246  2.7338  1.6127
  548MPD2     N 8137   4.055   1.935  12.327 -0.5500 -0.1110  0.1499
  548MPD2    H5 8138   4.066   1.881  12.413  0.5454  0.3539  0.2988
  548MPD2    N1 8139   3.698   2.177  12.540 -0.2194  0.7522  0.7716
  548MPD2    H7 8140   3.612   2.228  12.521 -1.6677 -2.1776 -0.4837
  549TMC3    C1 8141   3.601   2.175  12.757  0.1732  0.3758  0.0494
  549TMC3    C2 8142   3.508   2.264  12.715 -0.8776 -0.0835 -0.5436
  549TMC3    C3 8143   3.390   2.273  12.781 -0.3964  0.1545  0.3017
  549TMC3    C4 8144   3.586   2.096  12.868  0.2954 -1.2593 -0.2158
  549TMC3    C5 8145   3.459   2.096  12.925  0.2260  0.0320 -0.4397
  549TMC3    C6 8146   3.362   2.183  12.880 -0.8029  0.2161  0.5605
  549TMC3     C 8147   3.719   2.149  12.676  0.3960 -0.0707 -0.4522
  549TMC3     O 8148   3.811   2.089  12.731 -0.6419  0.5977  0.1956
  549TMC3     H 8149   3.518   2.329  12.629 -0.6179  1.8335  0.9325
  549TMC3    H1 8150   3.668   2.036  12.907 -0.5390 -1.4239  1.2941
  549TMC3    H2 8151   3.261   2.191  12.919 -0.7618  0.7161  0.5732
  549TMC3    C7 8152   3.414   2.000  13.021 -0.1556 -1.2845 -0.7591
  549TMC3    C8 8153   3.284   2.360  12.738 -0.9196 -0.5762 -0.6597
  549TMC3    O1 8154   3.303   2.029  13.066  0.8477 -0.4254  0.7933
  549TMC3    O2 8155   3.167   2.317  12.728  0.3506  0.4992  0.3464
  550TMC3    C1 8156   2.814   0.166  12.732  0.3604 -0.2437  0.5782
  550TMC3    C2 8157   2.725   0.203  12.824  0.4763 -0.4820 -0.0251
  550TMC3    C3 8158   2.617   0.275  12.782 -0.6734  0.0768  0.3870
  550TMC3    C4 8159   2.819   0.218  12.610  0.6791 -0.0563 -0.4834
  550TMC3    C5 8160   2.717   0.310  12.574 -0.3073  0.0484 -0.0648
  550TMC3    C6 8161   2.607   0.335  12.655 -0.7929  0.2997  0.1309
  550TMC3     C 8162   2.852   0.031  12.740 -0.2397  0.7594  0.4180
  550TMC3     O 8163   2.866   4.703  12.847  0.2008 -0.4580  0.6171
  550TMC3     H 8164   2.717   0.151  12.919 -0.3668 -0.7377 -0.2354
  550TMC3    H1 8165   2.889   0.186  12.534 -0.1585 -1.3675 -0.6929
  550TMC3    H2 8166   2.533   0.404  12.617 -0.8631  0.3063  0.2810
  550TMC3    C7 8167   2.690   0.340  12.434 -0.0062 -0.7075  0.1552
  550TMC3    C8 8168   2.502   0.264  12.868  0.8119 -0.8454 -0.3017
  550TMC3    O1 8169   2.737   0.445  12.392 -0.1341 -0.8921 -0.5426
  550TMC3    O2 8170   2.516   0.278  12.986  0.3407  0.0014 -0.3588
  551TMC3    C1 8171   4.451   2.692  13.414 -0.5444 -0.3150 -0.5291
  551TMC3    C2 8172   4.565   2.705  13.344 -0.2922 -0.5719 -0.4640
  551TMC3    C3 8173   4.680   2.700  13.415  0.3495  0.3601 -0.1345
  551TMC3    C4 8174   4.443   2.682  13.550  0.3278  1.0723 -0.1040
  551TMC3    C5 8175   4.563   2.685  13.610  0.1161  0.2293 -0.1154
  551TMC3    C6 8176   4.688   2.688  13.551  0.0868 -0.6589 -0.2391
  551TMC3     C 8177   4.350   2.620  13.342 -0.6561  0.6545 -0.1166
  551TMC3     O 8178   4.376   2.584  13.228 -0.4444  0.3850  0.0196
  551TMC3     H 8179   4.559   2.722  13.238 -1.5550 -1.0448 -0.4636
  551TMC3    H1 8180   4.351   2.661  13.604  0.6777 -1.4333 -0.5083
  551TMC3    H2 8181   0.050   2.674  13.613  0.3738  0.2974 -0.4361
  551TMC3    C7 8182   4.565   2.735  13.744  0.0739  0.0225 -0.2348
  551TMC3    C8 8183   0.070   2.658  13.346  0.7847 -0.7637 -0.0762
  551TMC3    O1 8184   4.646   2.827  13.767  0.7316 -0.5128  0.6838
  551TMC3    O2 8185   0.126   2.556  13.387 -0.0309  0.1060  0.1108
  552MPD2     C 8186   1.857   3.980  14.052 -0.2201 -0.3876  0.1531
  552MPD2    C1 8187   1.961   4.066  14.069 -0.1872  0.3654 -0.0470
  552MPD2    C2 8188   1.967   4.131  14.189 -0.7719 -0.3222 -1.3058
  552MPD2    C3 8189   1.882   4.119  14.297  0.7285  0.1759  0.0025
  552MPD2    C4 8190   1.776   4.031  14.273  0.6454  0.2995  0.6134
  552MPD2    C5 8191   1.766   3.969  14.157  0.6645 -0.3353 -0.0491
  552MPD2     H 8192   2.058   4.187  14.210 -0.7108 -1.0861  0.4986
  552MPD2    H1 8193   1.685   4.027  14.333  0.5082  0.0022  0.3892
  552MPD2    H2 8194   1.838   3.915  13.967  1.0254 -1.3724  0.6121
  552MPD2    H3 8195   1.681   3.904  14.136 -0.3876  0.8459  0.5294
  552MPD2     N 8196   1.880   4.209  14.407 -0.9566 -0.5067  0.8662
  552MPD2    H5 8197   1.822   4.183  14.486  0.9990 -0.9100  2.1681
  552MPD2    N1 8198   2.073   4.079  13.987 -0.2957  0.5261 -0.2898
  552MPD2    H7 8199   2.154   4.132  14.016 -0.5010  2.1090 -2.6416
  553TMC3    C1 8200   2.200   4.049  13.801  0.1017  0.1765  0.4491
  553TMC3    C2 8201   2.205   4.039  13.664 -0.3245  0.1144 -0.0099
  553TMC3    C3 8202   2.327   4.016  13.608  0.0951 -0.1262 -0.2264
  553TMC3    C4 8203   2.310   4.041  13.880  0.4895  0.1152  0.4177
  553TMC3    C5 8204   2.433   4.011  13.818 -0.1389  0.4211 -0.3128
  553TMC3    C6 8205   2.442   3.999  13.687  0.0882  0.5596  0.2059
  553TMC3     C 8206   2.071   4.034  13.858 -0.2205 -1.0248  0.3444
  553TMC3     O 8207   1.989   3.972  13.794 -0.2763 -0.2145 -0.2641
  553TMC3     H 8208   2.115   4.061  13.608 -0.6697  0.0390  0.5152
  553TMC3    H1 8209   2.303   4.010  13.983 -2.0979  2.1846  0.8630
  553TMC3    H2 8210   2.537   3.967  13.645 -0.1683  1.1202 -0.8160
  553TMC3    C7 8211   2.537   3.969  13.907  0.1010  0.5659 -0.5571
  553TMC3    C8 8212   2.364   4.051  13.470 -0.1652  0.0044  0.8699
  553TMC3    O1 8213   2.614   3.876  13.876 -0.2658  0.4075 -0.0737
  553TMC3    O2 8214   2.482   4.081  13.455  0.2546  0.0437  0.1849
  554TMC3    C1 8215   3.737   3.463  11.779 -0.2683 -0.0820  0.2912
  554TMC3    C2 8216   3.664   3.395  11.687 -0.5854 -0.1059 -0.4911
  554TMC3    C3 8217   3.699   3.411  11.557 -0.2471  0.4928 -0.0349
  554TMC3    C4 8218   3.844   3.539  11.743 -0.8122 -0.4392  0.4138
  554TMC3    C5 8219   3.889   3.536  11.615 -0.5231  0.3030  0.9098
  554TMC3    C6 8220   3.814   3.476  11.519 -0.3061 -0.6376 -0.1624
  554TMC3     C 8221   3.706   3.457  11.920 -0.3828 -1.0638 -0.1013
  554TMC3     O 8222   3.761   3.531  11.995  0.1845 -0.2168 -0.1720
  554TMC3     H 8223   3.581   3.334  11.721 -0.2389  0.0313  0.5752
  554TMC3    H1 8224   3.908   3.589  11.814  1.4373 -0.7309 -1.4176
  554TMC3    H2 8225   3.840   3.500  11.417 -0.1666 -1.3543 -0.2954
  554TMC3    C7 8226   3.993   3.616  11.556 -0.2141  0.9298 -0.5212
  554TMC3    C8 8227   3.626   3.363  11.439  1.0380  0.5542 -0.1709
  554TMC3    O1 8228   4.030   3.586  11.441  0.1073 -0.2519 -0.0366
  554TMC3    O2 8229   3.686   3.388  11.336  0.1899  0.5034  0.2352
  555TMC3    C1 8230   2.651   2.768  14.972  1.1304 -0.2588 -0.2570
  555TMC3    C2 8231   2.645   2.867  15.064 -0.2160  0.2180 -0.2667
  555TMC3    C3 8232   2.659   2.832  15.200  0.3361 -0.1523  0.7122
  555TMC3    C4 8233   2.661   2.641  15.016 -0.0333 -0.3027 -0.2441
  555TMC3    C5 8234   2.672   2.603  15.147  0.0565 -0.0853  0.9433
  555TMC3    C6 8235   2.670   2.704  15.238  0.7105  0.0851 -0.2440
  555TMC3     C 8236   2.665   2.786  14.829 -0.0974 -0.6850 -0.0425
  555TMC3     O 8237   2.732   2.713  14.760  0.1979 -0.2109  0.1247
  555TMC3     H 8238   2.637   2.974  15.046  3.1199  0.8109  1.5861
  555TMC3    H1 8239   2.634   2.564  14.945 -0.1564  0.2327 -0.7818
  555TMC3    H2 8240   2.665   2.686  15.345  0.2546 -0.0714 -0.2886
  555TMC3    C7 8241   2.653   2.472  15.195 -0.0632  0.7469  0.2170
  555TMC3    C8 8242   2.581   2.927  15.283  0.0441 -0.0814 -0.5667
  555TMC3    O1 8243   2.628   2.458  15.316  0.3361 -0.1148 -0.1696
  555TMC3    O2 8244   2.493   2.981  15.224  0.3436 -0.1943 -0.3835
  556MPD2     C 8245   0.802   4.579  10.734 -0.2696 -0.5485  0.1922
  556MPD2    C1 8246   0.835   4.451  10.783 -0.3434 -0.2259  0.3401
  556MPD2    C2 8247   0.867   4.350  10.698 -0.1225  0.4867  0.6145
  556MPD2    C3 8248   0.870   4.372  10.561 -0.1333 -0.3947 -0.1051
  556MPD2    C4 8249   0.854   4.496  10.513  0.2393 -0.7732  0.2782
  556MPD2    C5 8250   0.816   4.598  10.598 -0.3198 -0.3866 -0.2129
  556MPD2     H 8251   0.878   4.250  10.740 -0.1410 -0.3203 -1.2984
  556MPD2    H1 8252   0.872   4.527  10.411  0.4627  0.7303  0.7762
  556MPD2    H2 8253   0.770   4.663  10.795  0.6353 -1.5032  1.9927
  556MPD2    H3 8254   0.802   4.694  10.551 -0.9776 -0.9748 -1.2326
  556MPD2     N 8255   0.912   4.266  10.479  0.6657 -0.0483  0.5457
  556MPD2    H5 8256   0.939   4.179  10.525 -1.0518 -0.1475  1.3540
  556MPD2    N1 8257   0.825   4.424  10.927  0.4977 -0.0114 -0.2088
  556MPD2    H7 8258   0.873   4.343  10.964  2.0335  1.2406  0.5394
  557TMC3    C1 8259   0.966   4.128  10.291 -0.3597 -0.1953  0.3559
  557TMC3    C2 8260   1.015   4.122  10.163 -0.6912  0.0996  0.1458
  557TMC3    C3 8261   1.040   4.005  10.103  0.2148 -0.1052 -0.1672
  557TMC3    C4 8262   0.939   4.013  10.360  0.3458  0.1094  0.6816
  557TMC3    C5 8263   0.969   3.898  10.294  0.3140  0.1370 -0.3754
  557TMC3    C6 8264   1.021   3.889  10.169  0.4186 -0.4533 -0.2668
  557TMC3     C 8265   0.934   4.260  10.342  0.3547  0.1015 -0.6313
  557TMC3     O 8266   0.921   4.349  10.257 -0.0124 -0.0748  0.1880
  557TMC3     H 8267   1.038   4.211  10.105  2.7927 -0.4370  0.7048
  557TMC3    H1 8268   0.871   4.010  10.444 -0.8727  0.0094 -0.3024
  557TMC3    H2 8269   1.040   3.793  10.121  0.6232  0.1784 -1.4504
  557TMC3    C7 8270   0.927   3.771  10.356  0.3190  0.5371  0.2417
  557TMC3    C8 8271   1.125   4.007   9.984 -0.8095 -0.2979 -0.8436
  557TMC3    O1 8272   0.937   3.670  10.287 -0.0396 -0.0014  0.5164
  557TMC3    O2 8273   1.191   4.110   9.964 -0.1855  0.2518 -0.2202
  558TMC3    C1 8274   3.698   2.408  10.492 -0.1422 -0.5464  0.4539
  558TMC3    C2 8275   3.589   2.340  10.523 -0.4366 -0.3636  0.2932
  558TMC3    C3 8276   3.499   2.308  10.423  0.7690  0.1232 -0.2829
  558TMC3    C4 8277   3.718   2.445  10.360  0.0792 -0.2463  0.2545
  558TMC3    C5 8278   3.634   2.410  10.257 -0.4206  0.2082  0.6374
  558TMC3    C6 8279   3.523   2.335  10.288  0.0799 -0.5027 -0.0183
  558TMC3     C 8280   3.810   2.411  10.586  0.0534 -0.5594 -0.2586
  558TMC3     O 8281   3.898   2.492  10.554  0.2494  0.4921  0.0983
  558TMC3     H 8282   3.582   2.338  10.631  0.7795 -1.1930  0.3627
  558TMC3    H1 8283   3.800   2.507  10.326  0.4066 -0.8883 -0.1195
  558TMC3    H2 8284   3.457   2.295  10.213  1.1187 -1.2463 -0.5221
  558TMC3    C7 8285   3.673   2.428  10.120 -0.7089  0.9472 -0.3365
  558TMC3    C8 8286   3.395   2.201  10.449 -0.0574  0.4031  0.6454
  558TMC3    O1 8287   3.785   2.479  10.100 -0.0980  0.3425  0.4269
  558TMC3    O2 8288   3.312   2.187  10.361  0.5901 -0.4669 -0.1626
  559MPD2     C 8289   3.539   2.783  10.487 -0.0104 -0.1363 -0.9760
  559MPD2    C1 8290   3.466   2.709  10.578  0.2432 -0.2582 -0.0679
  559MPD2    C2 8291   3.534   2.658  10.690 -0.0633 -0.6314  0.3932
  559MPD2    C3 8292   3.668   2.696  10.713 -0.1069  0.5814  0.0693
  559MPD2    C4 8293   3.738   2.760  10.609  0.0124  0.2147  0.0394
  559MPD2    C5 8294   3.672   2.804  10.501 -0.5957 -0.4984 -0.7774
  559MPD2     H 8295   3.480   2.599  10.764 -3.2254  1.1484 -0.4742
  559MPD2    H1 8296   3.844   2.782  10.619  0.0970 -0.5854  0.9155
  559MPD2    H2 8297   3.487   2.824  10.401 -0.3260 -2.9229 -2.1280
  559MPD2    H3 8298   3.726   2.853  10.421 -1.7183  0.3353 -1.0181
  559MPD2     N 8299   3.732   2.665  10.841 -0.5549  0.2338  0.2018
  559MPD2    H5 8300   3.697   2.598  10.908 -0.5560 -1.1444 -1.1995
  559MPD2    N1 8301   3.327   2.698  10.552  0.3065 -0.1247  0.0980
  559MPD2    H7 8302   3.294   2.762  10.481  1.4118 -0.0666 -0.3704
  560TMC3    C1 8303   3.901   2.666  10.999 -0.0694  0.3786  0.1941
  560TMC3    C2 8304   3.871   2.531  11.013 -0.0426 -0.3343  0.8658
  560TMC3    C3 8305   3.886   2.478  11.135  0.0370 -0.1412 -0.2093
  560TMC3    C4 8306   3.963   2.738  11.099  0.1459 -0.3225 -0.3401
  560TMC3    C5 8307   3.970   2.679  11.225 -0.1395  0.2513 -0.3552
  560TMC3    C6 8308   3.923   2.549  11.242 -0.1760 -0.5710  1.0073
  560TMC3     C 8309   3.854   2.726  10.873  0.5402 -0.3409  0.4214
  560TMC3     O 8310   3.903   2.833  10.839 -0.1172  0.9184 -0.1429
  560TMC3     H 8311   3.851   2.464  10.930  0.7986  2.2316 -1.3762
  560TMC3    H1 8312   3.998   2.838  11.077 -1.5995  0.4855  0.6011
  560TMC3    H2 8313   3.916   2.508  11.342  0.1891 -2.1559  0.3751
  560TMC3    C7 8314   4.030   2.751  11.332  0.8567  0.3441  0.1433
  560TMC3    C8 8315   3.856   2.337  11.151  0.2957 -0.5607 -0.4081
  560TMC3    O1 8316   3.991   2.707  11.438  0.7895 -0.2007 -0.1704
  560TMC3    O2 8317   3.749   2.301  11.101 -0.0883  0.1334  0.1574
  561TMC3    C1 8318   1.525   1.785  11.116  1.0172 -0.6444 -0.2638
  561TMC3    C2 8319   1.474   1.733  11.234  0.2025 -0.1713 -0.3861
  561TMC3    C3 8320   1.435   1.821  11.333  0.1798 -0.0390  0.1772
  561TMC3    C4 8321   1.536   1.919  11.100  0.3015  0.2202  0.1905
  561TMC3    C5 8322   1.488   2.001  11.193 -0.6684  0.4015 -0.7094
  561TMC3    C6 8323   1.437   1.953  11.313  0.4703 -0.6090 -0.0748
  561TMC3     C 8324   1.569   1.691  11.013 -0.1632  0.3169  0.3376
  561TMC3     O 8325   1.647   1.729  10.933  0.6708  0.7182 -0.2612
  561TMC3     H 8326   1.449   1.628  11.249  0.1211 -0.3177 -1.5018
  561TMC3    H1 8327   1.582   1.958  11.009 -0.9057  0.4666 -0.3067
  561TMC3    H2 8328   1.405   2.017  11.395  2.3502 -1.1714  1.0912
  561TMC3    C7 8329   1.507   2.146  11.174  0.3564 -0.6132 -0.3364
  561TMC3    C8 8330   1.413   1.756  11.462  0.1300 -0.3618 -0.3788
  561TMC3    O1 8331   1.519   2.221  11.268  1.3814  0.5064  0.3456
  561TMC3    O2 8332   1.460   1.646  11.475  0.0901  0.1231 -0.2422
  562TMC3    C1 8333   2.210   3.465  16.028  1.0521  0.1082 -0.1535
  562TMC3    C2 8334   2.085   3.521  16.034  0.1615 -0.1114  0.1324
  562TMC3    C3 8335   2.017   3.482  16.145  0.0878 -0.5761 -0.3180
  562TMC3    C4 8336   2.272   3.394  16.123  0.7113 -0.0337  0.0099
  562TMC3    C5 8337   2.194   3.366  16.232  0.0114 -0.1187  0.8839
  562TMC3    C6 8338   2.061   3.401  16.242  0.3637  0.3749 -0.0273
  562TMC3     C 8339   2.274   3.468  15.898  0.0163  0.5132  0.0178
  562TMC3     O 8340   2.199   3.493  15.803 -0.0950 -0.9220 -0.1163
  562TMC3     H 8341   2.042   3.570  15.948  3.4574 -0.3399 -1.6300
  562TMC3    H1 8342   2.375   3.361  16.115  0.1222 -1.2136 -2.9110
  562TMC3    H2 8343   2.005   3.387  16.333 -0.0288 -0.8391 -0.4587
  562TMC3    C7 8344   2.243   3.284  16.335 -0.2123  0.1008  0.1218
  562TMC3    C8 8345   1.884   3.528  16.169  1.0461  0.0940  0.1188
  562TMC3    O1 8346   2.172   3.278  16.436 -0.6681 -0.5414  0.1009
  562TMC3    O2 8347   1.812   3.454  16.237 -0.1121 -0.1885  0.1274
  563MPD2     C 8348   4.502   4.376  16.155 -0.7388 -0.1693  0.4697
  563MPD2    C1 8349   4.522   4.510  16.130 -0.9654 -0.1570  0.1098
  563MPD2    C2 8350   4.637   4.580  16.125 -1.0232 -0.5876  0.4156
  563MPD2    C3 8351   0.023   4.503  16.152 -0.1505 -0.6821 -0.2199
  563MPD2    C4 8352   0.006   4.370  16.175 -0.2233  0.1401 -0.0095
  563MPD2    C5 8353   4.616   4.305  16.169 -0.0297  0.1963 -0.9629
  563MPD2     H 8354   4.647   4.682  16.091 -0.6844 -0.7714 -0.0487
  563MPD2    H1 8355   0.092   4.306  16.187  0.2590  0.4762 -1.6277
  563MPD2    H2 8356   4.410   4.321  16.139  0.0249 -1.5722  0.9552
  563MPD2    H3 8357   4.616   4.197  16.176  1.1975  0.2531 -0.0667
  563MPD2     N 8358   0.157   4.559  16.155 -0.0735  0.6974 -0.8195
  563MPD2    H5 8359   0.174   4.658  16.144  1.7920  0.4657  0.0073
  563MPD2    N1 8360   4.395   4.571  16.125  0.0222  0.1213  0.5248
  563MPD2    H7 8361   4.317   4.510  16.106  0.6601 -0.3911 -0.4754
  564TMC3    C1 8362   4.236   4.723  16.204  0.0327  0.2193 -0.1158
  564TMC3    C2 8363   4.139   4.645  16.152  0.5684 -0.3360  0.3666
  564TMC3    C3 8364   4.057   4.586  16.243 -0.2697 -0.1178  0.0931
  564TMC3    C4 8365   4.261   0.000  16.340 -0.3592  0.0047 -0.0935
  564TMC3    C5 8366   4.186   4.650  16.427  0.2446  0.2932  0.3464
  564TMC3    C6 8367   4.083   4.577  16.382 -0.0473  0.0501  0.1138
  564TMC3     C 8368   4.369   4.705  16.148  0.3945  0.3978 -0.4320
  564TMC3     O 8369   4.442   0.077  16.158  0.0624  0.0175 -0.3019
  564TMC3     H 8370   4.130   4.639  16.044 -1.3537  1.9835  0.3926
  564TMC3    H1 8371   4.350   0.046  16.382  0.6683 -1.7583 -0.3524
  564TMC3    H2 8372   4.029   4.514  16.452 -0.8603 -2.3673 -2.6784
  564TMC3    C7 8373   4.279   4.561  16.486  0.2758 -0.6665  0.6287
  564TMC3    C8 8374   4.001   4.467  16.184 -1.0641 -0.3974 -0.0463
  564TMC3    O1 8375   4.356   4.615  16.566 -0.2745 -0.2607  0.0697
  564TMC3    O2 8376   4.005   4.376  16.265 -0.2009 -0.0218 -0.2216
  565TMC3    C1 8377   0.160   0.850  10.653  0.2104 -0.2180  0.1122
  565TMC3    C2 8378   0.118   0.748  10.733 -0.2524 -0.4282 -0.2754
  565TMC3    C3 8379   0.029   0.658  10.688 -0.8442 -0.2627  0.2504
  565TMC3    C4 8380   0.113   0.864  10.523  0.6040  0.0264 -0.2367
  565TMC3    C5 8381   0.038   0.764  10.476  0.3131  0.0769  0.0254
  565TMC3    C6 8382   4.720   0.658  10.554  0.0263 -0.6592 -0.1509
  565TMC3     C 8383   0.259   0.946  10.691 -0.6177 -0.4197 -0.7580
  565TMC3     O 8384   0.312   1.016  10.601 -0.0982 -0.4385 -0.0309
  565TMC3     H 8385   0.129   0.735  10.840 -0.8174  0.2752 -0.1321
  565TMC3    H1 8386   0.132   0.957  10.470  1.8977  0.6128  1.2327
  565TMC3    H2 8387   4.643   0.589  10.524 -1.5745  0.8802  0.4295
  565TMC3    C7 8388   4.708   0.773  10.344  0.4772  0.0056 -0.5094
  565TMC3    C8 8389   0.004   0.553  10.784 -0.8056 -0.9381 -0.4523
  565TMC3    O1 8390   4.618   0.702  10.310 -0.0359  0.2416 -0.2237
  565TMC3    O2 8391   0.101   0.509  10.842  0.2244 -0.5195 -0.0038
  566MPD2     C 8392   1.796   3.198  14.508 -0.3651 -0.7015  0.1403
  566MPD2    C1 8393   1.869   3.156  14.397  0.2032  0.1601 -0.1398
  566MPD2    C2 8394   1.807   3.111  14.282  0.0090  0.2405 -0.6226
  566MPD2    C3 8395   1.672   3.104  14.278 -0.3868  0.3377 -0.4161
  566MPD2    C4 8396   1.603   3.165  14.377  0.2657 -0.4836  0.4831
  566MPD2    C5 8397   1.667   3.211  14.484  0.0540  0.0101 -0.4810
  566MPD2     H 8398   1.869   3.075  14.200 -1.6279 -2.0783 -0.8502
  566MPD2    H1 8399   1.496   3.150  14.379 -0.0006  1.4089 -0.2922
  566MPD2    H2 8400   1.833   3.236  14.603  4.8292 -1.6603 -1.4838
  566MPD2    H3 8401   1.602   3.248  14.563 -1.6643 -2.4794 -0.7283
  566MPD2     N 8402   1.605   3.038  14.167  0.2003 -0.3193 -0.4285
  566MPD2    H5 8403   1.504   3.033  14.169  0.1266  1.0079 -0.7333
  566MPD2    N1 8404   2.011   3.154  14.404  0.6304 -0.0158  0.0314
  566MPD2    H7 8405   2.045   3.163  14.499 -0.3681 -0.9372  0.4808
  567TMC3    C1 8406   2.230   3.147  14.324 -1.3143  0.1714 -0.1038
  567TMC3    C2 8407   2.308   3.200  14.224  0.3329  1.0847 -0.0907
  567TMC3    C3 8408   2.387   3.116  14.152  0.2406 -0.3031 -0.5017
  567TMC3    C4 8409   2.252   3.018  14.362  0.6054  0.1280  0.3827
  567TMC3    C5 8410   2.342   2.938  14.294  0.8642 -0.0395 -0.1195
  567TMC3    C6 8411   2.405   2.979  14.182 -0.0879  0.7539  0.7340
  567TMC3     C 8412   2.093   3.175  14.295 -0.5094  0.4552  0.5981
  567TMC3     O 8413   2.056   3.214  14.186 -0.0532 -0.9382  0.0331
  567TMC3     H 8414   2.285   3.296  14.179 -0.3674  1.5094  1.2016
  567TMC3    H1 8415   2.180   2.963  14.421 -1.1867  2.2539  0.1810
  567TMC3    H2 8416   2.471   2.910  14.129  0.0104  1.0471  0.4749
  567TMC3    C7 8417   2.366   2.805  14.331  0.0431  0.1571  0.1424
  567TMC3    C8 8418   2.395   3.157  14.006 -0.2909  0.6311  0.3777
  567TMC3    O1 8419   2.398   2.724  14.242 -0.4553 -0.2944 -0.6684
  567TMC3    O2 8420   2.361   3.267  13.967  0.7861 -0.4064  0.2830
  568MPD2     C 8421   4.261   3.086  16.310 -0.9375  0.0299  0.0394
  568MPD2    C1 8422   4.218   3.152  16.422  0.5412 -0.1444  0.3232
  568MPD2    C2 8423   4.137   3.269  16.405 -0.0562  0.4642  0.4457
  568MPD2    C3 8424   4.100   3.311  16.277 -0.2677  0.4080  0.4572
  568MPD2    C4 8425   4.138   3.237  16.170  0.8408  0.4696 -0.0338
  568MPD2    C5 8426   4.226   3.131  16.185 -0.0680 -0.1105  0.1279
  568MPD2     H 8427   4.105   3.329  16.489 -1.1405  1.2612 -0.5278
  568MPD2    H1 8428   4.126   3.272  16.068  1.8207  2.5194  0.5458
  568MPD2    H2 8429   4.321   2.996  16.309  0.2628  0.8241 -0.0165
  568MPD2    H3 8430   4.250   3.065  16.102  1.2846  1.6283 -0.8591
  568MPD2     N 8431   4.014   3.418  16.268  0.1107 -0.5845 -0.0911
  568MPD2    H5 8432   3.962   3.448  16.350  1.7446  2.6730 -0.2516
  568MPD2    N1 8433   4.261   3.106  16.551 -0.0198 -0.5268 -0.3541
  568MPD2    H7 8434   4.322   3.025  16.561 -0.2021 -0.5196  0.8292
  569TMC3    C1 8435   3.908   3.588  16.141  0.0410  0.3353  0.5210
  569TMC3    C2 8436   3.827   3.619  16.248  0.0744 -0.3447  0.5942
  569TMC3    C3 8437   3.729   3.720  16.235 -0.4161 -0.4045 -0.1352
  569TMC3    C4 8438   3.894   3.666  16.028 -0.3621 -0.1872  0.9616
  569TMC3    C5 8439   3.797   3.769  16.020 -0.2386  0.0182 -0.0160
  569TMC3    C6 8440   3.712   3.796  16.122  0.0406 -0.1178  0.3079
  569TMC3     C 8441   4.022   3.497  16.154  0.1725  0.8162 -0.3140
  569TMC3     O 8442   4.110   3.516  16.076 -0.4175  0.1039  0.3448
  569TMC3     H 8443   3.846   3.585  16.349 -0.9312  2.0815  1.6014
  569TMC3    H1 8444   3.950   3.650  15.937 -2.9391  0.7665 -0.7887
  569TMC3    H2 8445   3.633   3.870  16.115 -0.2846 -0.3780  1.1729
  569TMC3    C7 8446   3.831   3.885  15.941  0.7459  0.2001 -0.6841
  569TMC3    C8 8447   3.732   3.813  16.351  0.3333 -0.3858  0.2433
  569TMC3    O1 8448   3.842   3.865  15.822  0.5485 -0.1829  1.0176
  569TMC3    O2 8449   3.765   3.930  16.322 -0.2857  0.2989 -0.1341
  570TMC3    C1 8450   3.617   2.385  16.282  0.1627 -0.3033  0.7263
  570TMC3    C2 8451   3.708   2.388  16.178  0.9349  0.0691  0.9127
  570TMC3    C3 8452   3.732   2.499  16.110 -0.6695  0.4583  0.6522
  570TMC3    C4 8453   3.546   2.499  16.323 -0.0152 -0.1908 -0.7975
  570TMC3    C5 8454   3.570   2.613  16.246  0.8268  0.2507 -0.0166
  570TMC3    C6 8455   3.658   2.618  16.142 -0.1210 -0.0412 -0.3202
  570TMC3     C 8456   3.616   2.266  16.365  0.0190 -0.4182 -0.0422
  570TMC3     O 8457   3.664   2.167  16.309 -0.6489  0.2069  0.1103
  570TMC3     H 8458   3.761   2.295  16.157  0.5987 -0.2753  1.5902
  570TMC3    H1 8459   3.489   2.506  16.415  0.4457  0.2036 -0.5378
  570TMC3    H2 8460   3.687   2.707  16.089  2.5179 -0.5201  0.3200
  570TMC3    C7 8461   3.458   2.704  16.252  0.3846 -0.6381  0.1840
  570TMC3    C8 8462   3.850   2.522  16.026 -0.1919  0.5077  0.5540
  570TMC3    O1 8463   3.399   2.712  16.359 -0.1835  0.0266 -0.5045
  570TMC3    O2 8464   3.860   2.635  15.978 -0.2645  0.1120  0.5544
  571MPD2     C 8465   2.364   3.683   0.083 -0.1995  0.1229  0.0018
  571MPD2    C1 8466   2.303   3.674   0.208  0.0010  0.3415 -1.0344
  571MPD2    C2 8467   2.220   3.776   0.253 -0.1317 -0.3672  1.1721
  571MPD2    C3 8468   2.220   3.891   0.176  0.2834  0.0644 -0.1935
  571MPD2    C4 8469   2.278   3.899   0.051 -0.5778  0.0681 -0.1408
  571MPD2    C5 8470   2.351   3.793   0.002  0.3191  0.1012 -0.2464
  571MPD2     H 8471   2.158   3.761   0.340 -0.6829  1.8906  1.1643
  571MPD2    H1 8472   2.260   3.985  17.694 -1.1079 -0.6637 -0.9946
  571MPD2    H2 8473   2.427   3.603   0.047  0.1342  0.3924 -0.0059
  571MPD2    H3 8474   2.392   3.801  17.607  4.5186  3.3341  1.7340
  571MPD2     N 8475   2.147   4.004   0.206 -0.0997  0.2000 -0.2994
  571MPD2    H5 8476   2.150   4.077   0.136  0.2791 -0.3333 -0.8334
  571MPD2    N1 8477   2.285   3.553   0.270  0.3286  0.2159  0.4848
  571MPD2    H7 8478   2.230   3.541   0.355 -2.9825 -0.1383 -1.6797
  572TMC3    C1 8479   2.020   4.156   0.342 -0.3564 -0.2574  0.5073
  572TMC3    C2 8480   1.950   4.185   0.453 -0.0195  0.2075  0.2157
  572TMC3    C3 8481   1.895   4.309   0.457  0.1938 -0.0685  0.6811
  572TMC3    C4 8482   2.030   4.243   0.235  0.2250  0.3231 -0.2146
  572TMC3    C5 8483   1.973   4.365   0.252 -0.6650 -0.1503  0.5925
  572TMC3    C6 8484   1.904   4.402   0.361 -0.3278 -0.1296  0.6946
  572TMC3     C 8485   2.078   4.025   0.330  0.1874 -0.9364  0.9141
  572TMC3     O 8486   2.065   3.953   0.428 -0.6183  0.1703 -0.3573
  572TMC3     H 8487   1.926   4.103   0.520  1.1395  1.0567  1.6844
  572TMC3    H1 8488   2.093   4.231   0.147  2.6547 -1.7867  1.8046
  572TMC3    H2 8489   1.867   4.503   0.376 -1.2648 -0.0455 -2.2114
  572TMC3    C7 8490   1.981   4.467   0.147  0.3460  0.1030 -0.1262
  572TMC3    C8 8491   1.783   4.333   0.547  0.3111 -0.6931 -0.1243
  572TMC3    O1 8492   1.894   4.553   0.154 -0.0105  0.2949  0.2506
  572TMC3    O2 8493   1.703   4.421   0.524 -0.3434  0.7729 -0.1847
  573MPD2     C 8494   3.206   4.636   1.095 -0.1906  0.3956 -0.6380
  573MPD2    C1 8495   3.205   0.008   1.006  0.4438 -0.1638  0.2233
  573MPD2    C2 8496   3.212   4.711   0.869 -0.5930 -0.0495  0.9071
  573MPD2    C3 8497   3.203   4.583   0.822  0.0387 -0.0429 -1.2078
  573MPD2    C4 8498   3.196   4.481   0.911  0.0194  0.4860 -0.4826
  573MPD2    C5 8499   3.199   4.508   1.049  0.0091 -0.1414  0.7750
  573MPD2     H 8500   3.219   0.061   0.793 -0.4447  0.9990  1.9777
  573MPD2    H1 8501   3.173   4.377   0.890  2.0599 -0.4576  1.9426
  573MPD2    H2 8502   3.221   4.654   1.201  0.0906  0.6486 -0.7184
  573MPD2    H3 8503   3.197   4.424   1.118  1.8442 -0.5055  0.3980
  573MPD2     N 8504   3.218   4.546   0.687 -0.6766 -0.3939 -0.4722
  573MPD2    H5 8505   3.203   4.447   0.668 -1.2586 -0.3054 -0.4623
  573MPD2    N1 8506   3.210   0.148   1.055  0.2968 -0.4380  0.7418
  573MPD2    H7 8507   3.198   0.166   1.155  2.9240 -1.2955  1.2096
  574TMC3    C1 8508   3.222   4.562   0.467  0.4537  0.2776 -0.2541
  574TMC3    C2 8509   3.088   4.517   0.460  0.3879  1.3610 -0.5266
  574TMC3    C3 8510   3.033   4.500   0.336 -0.1785 -0.5656 -0.5847
  574TMC3    C4 8511   3.281   4.596   0.346 -0.0062 -0.2901  0.1457
  574TMC3    C5 8512   3.223   4.560   0.229 -0.7676 -0.2791 -0.0602
  574TMC3    C6 8513   3.101   4.498   0.220 -0.4028 -0.3864 -0.4218
  574TMC3     C 8514   3.268   4.622   0.589  0.2995  0.1972 -0.0644
  574TMC3     O 8515   3.305   0.012   0.578 -0.3620 -0.1164 -0.1328
  574TMC3     H 8516   3.013   4.521   0.538 -0.0132 -1.3072 -0.7812
  574TMC3    H1 8517   3.382   4.637   0.354 -0.1591  0.4259 -1.6297
  574TMC3    H2 8518   3.053   4.489   0.124 -1.0825  3.1748 -0.4311
  574TMC3    C7 8519   3.265   4.629   0.111 -0.9931 -1.1447 -0.7159
  574TMC3    C8 8520   2.884   4.480   0.331 -0.1692  0.1369  0.2706
  574TMC3    O1 8521   3.324   0.007   0.120  0.3978  0.3447 -0.3308
  574TMC3    O2 8522   2.832   4.428   0.432 -0.2684  0.1950  0.0234
  575TMC3    C1 8523   0.277   0.479  11.535 -0.1593 -0.1468 -0.5125
  575TMC3    C2 8524   0.271   0.349  11.580 -0.0423  0.8462  0.3696
  575TMC3    C3 8525   0.173   0.275  11.520 -0.7744  0.7586  0.3915
  575TMC3    C4 8526   0.184   0.542  11.458  0.4885 -0.2010 -0.0344
  575TMC3    C5 8527   0.090   0.457  11.398 -0.5195  0.2962 -0.4431
  575TMC3    C6 8528   0.085   0.322  11.428 -0.6341  0.4776  0.1834
  575TMC3     C 8529   0.393   0.555  11.579  0.3008 -0.3690  0.0190
  575TMC3     O 8530   0.481   0.492  11.634 -0.1598  0.5338  0.0927
  575TMC3     H 8531   0.337   0.309  11.656 -0.6446 -1.6099 -0.4133
  575TMC3    H1 8532   0.204   0.643  11.424 -0.5420  0.6215  1.8070
  575TMC3    H2 8533   0.017   0.251  11.382 -1.5408  1.8956 -0.6933
  575TMC3    C7 8534   0.006   0.513  11.288  0.0667 -0.6490  0.8540
  575TMC3    C8 8535   0.150   0.140  11.566  0.7901  0.6322 -0.2672
  575TMC3    O1 8536   0.029   0.626  11.243  0.3044  0.2794 -0.1191
  575TMC3    O2 8537   0.185   0.122  11.683 -0.6426 -0.4323 -0.5236
  576MPD2     C 8538   0.602   2.060  12.655  0.2935 -0.0051 -0.0174
  576MPD2    C1 8539   0.576   2.154  12.555 -0.0024 -0.3334  0.6599
  576MPD2    C2 8540   0.480   2.255  12.574 -0.4175 -0.4012  0.1247
  576MPD2    C3 8541   0.414   2.252  12.698  0.1327 -0.3473 -0.2830
  576MPD2    C4 8542   0.436   2.155  12.794  0.0452 -0.2056 -0.3454
  576MPD2    C5 8543   0.526   2.054  12.769  0.5377  0.9262 -0.0858
  576MPD2     H 8544   0.450   2.334  12.506  0.9445 -0.9082 -1.0646
  576MPD2    H1 8545   0.390   2.165  12.892  1.5394 -0.3888  0.3763
  576MPD2    H2 8546   0.677   1.982  12.648  0.6980  0.5728 -1.9691
  576MPD2    H3 8547   0.544   1.980  12.847  1.0264  1.5848  0.4203
  576MPD2     N 8548   0.324   2.359  12.718 -0.1865  0.2412 -0.4546
  576MPD2    H5 8549   0.324   2.433  12.649 -0.1851  0.6543 -0.0150
  576MPD2    N1 8550   0.653   2.151  12.437  0.2115 -0.4240 -0.1278
  576MPD2    H7 8551   0.637   2.229  12.374  0.5612  0.6521  1.1083
  577TMC3    C1 8552   0.808   2.081  12.268  0.3781  0.4681 -0.0174
  577TMC3    C2 8553   0.904   1.991  12.232  0.1154 -0.0530  0.2354
  577TMC3    C3 8554   0.946   1.990  12.102 -0.2386 -0.2900 -0.4047
  577TMC3    C4 8555   0.752   2.168  12.180  0.3295  0.2988 -0.7348
  577TMC3    C5 8556   0.795   2.163  12.052  0.0247  0.4602 -0.1054
  577TMC3    C6 8557   0.883   2.068  12.012 -0.3197 -0.2739 -0.2834
  577TMC3     C 8558   0.751   2.064  12.402  0.0357  0.1036  0.0609
  577TMC3     O 8559   0.800   1.971  12.462 -0.1132 -0.2777  0.0497
  577TMC3     H 8560   0.956   1.934  12.308 -1.7812  0.3470  1.8367
  577TMC3    H1 8561   0.674   2.237  12.208  1.0443  0.4782  0.8358
  577TMC3    H2 8562   0.908   2.076  11.907 -1.0910  0.1190 -0.4367
  577TMC3    C7 8563   0.804   2.298  11.985 -0.2571 -0.6675 -0.0712
  577TMC3    C8 8564   1.016   1.871  12.050  0.1894  0.7913  0.2123
  577TMC3    O1 8565   0.913   2.323  11.937 -0.3826  0.1120  0.1909
  577TMC3    O2 8566   1.015   1.771  12.120 -0.1133 -0.3561  0.0390
  578MPD2     C 8567   3.746   2.223   1.552 -0.4182  0.0285  0.7445
  578MPD2    C1 8568   3.661   2.260   1.458  0.1778  1.0547  0.5391
  578MPD2    C2 8569   3.682   2.226   1.324  0.2255  0.3081 -0.0449
  578MPD2    C3 8570   3.801   2.165   1.288 -0.0571 -0.5373  0.3457
  578MPD2    C4 8571   3.889   2.125   1.392  0.7033  0.5027 -0.7416
  578MPD2    C5 8572   3.856   2.158   1.519 -0.1600 -0.6096 -1.1666
  578MPD2     H 8573   3.613   2.263   1.249  0.0102 -2.5710 -1.2617
  578MPD2    H1 8574   3.982   2.071   1.382  0.6147 -0.3423  2.9032
  578MPD2    H2 8575   3.728   2.233   1.658  1.6722  0.7531  1.0348
  578MPD2    H3 8576   3.923   2.116   1.594 -0.2009 -2.0767 -1.9325
  578MPD2     N 8577   3.840   2.137   1.150  0.1308  0.1933 -0.0018
  578MPD2    H5 8578   3.774   2.182   1.086  0.3659  0.9692  0.3046
  578MPD2    N1 8579   3.550   2.319   1.514 -0.2949  0.1762 -0.0462
  578MPD2    H7 8580   3.542   2.329   1.615 -1.9606 -1.0689 -0.0507
  579TMC3    C1 8581   3.982   2.093   0.958 -0.4677  0.4961 -0.1089
  579TMC3    C2 8582   4.110   2.099   0.918 -0.1873  0.0225  0.4834
  579TMC3    C3 8583   4.134   2.152   0.790 -0.0578  0.2872 -0.2529
  579TMC3    C4 8584   3.879   2.106   0.874 -0.2053 -0.0489 -0.1730
  579TMC3    C5 8585   3.905   2.131   0.743  0.2332  0.3643  0.2795
  579TMC3    C6 8586   4.032   2.164   0.703  1.2481  0.3094 -0.1181
  579TMC3     C 8587   3.959   2.081   1.100 -0.1295  0.7817  0.2207
  579TMC3     O 8588   4.051   2.032   1.162 -0.1210 -0.6028 -0.7642
  579TMC3     H 8589   4.188   2.079   0.991 -0.6230  4.8825  2.3121
  579TMC3    H1 8590   3.778   2.088   0.910 -0.8254  0.6887 -1.5475
  579TMC3    H2 8591   4.052   2.215   0.609 -1.0350 -0.6692 -1.1140
  579TMC3    C7 8592   3.800   2.143   0.648 -0.0527  0.3520  0.0916
  579TMC3    C8 8593   4.268   2.165   0.743 -0.7683 -0.5354  0.5815
  579TMC3    O1 8594   3.825   2.220   0.558 -0.3386  0.0443 -0.2088
  579TMC3    O2 8595   4.290   2.143   0.626 -0.5474  0.3719  0.5219
  580TMC3    C1 8596   2.995   1.791  12.189  0.2290 -0.1161  0.2594
  580TMC3    C2 8597   3.059   1.904  12.225 -0.2532 -0.4666  0.0883
  580TMC3    C3 8598   3.179   1.902  12.284 -0.4645  0.6183 -0.1875
  580TMC3    C4 8599   3.038   1.669  12.224 -0.2568 -0.0530  0.0682
  580TMC3    C5 8600   3.142   1.673  12.316 -0.0746 -0.6992  0.3532
  580TMC3    C6 8601   3.226   1.783  12.331  0.3876  0.5127  0.1859
  580TMC3     C 8602   2.913   1.803  12.073 -0.0335 -0.1335 -0.0227
  580TMC3     O 8603   2.930   1.713  11.990 -0.0399  0.7219 -0.5091
  580TMC3     H 8604   3.021   2.001  12.195  1.4026  0.5960  1.4743
  580TMC3    H1 8605   2.986   1.578  12.198 -1.8540  0.8116  0.2424
  580TMC3    H2 8606   3.320   1.773  12.384  1.0473  1.2354 -0.8519
  580TMC3    C7 8607   3.185   1.557  12.382 -0.3591 -0.1907  0.0252
  580TMC3    C8 8608   3.281   1.992  12.233 -0.0979 -0.2339 -0.0810
  580TMC3    O1 8609   3.224   1.580  12.495 -0.3695  0.0893  0.2575
  580TMC3    O2 8610   3.254   2.111  12.211 -0.3213 -0.0655 -0.9892
  581MPD2     C 8611   0.484   1.285  15.205 -0.2396 -0.1378 -0.0508
  581MPD2    C1 8612   0.572   1.357  15.129 -0.3025 -0.1893  0.1970
  581MPD2    C2 8613   0.536   1.484  15.079  0.0404 -0.1164 -0.1222
  581MPD2    C3 8614   0.407   1.521  15.121  0.4348  0.2357  0.3179
  581MPD2    C4 8615   0.334   1.451  15.215 -0.2875 -0.0973 -0.7001
  581MPD2    C5 8616   0.373   1.335  15.257  0.6228  0.2736 -0.0882
  581MPD2     H 8617   0.599   1.542  15.013  2.3020 -1.0250  1.2325
  581MPD2    H1 8618   0.231   1.468  15.244  0.0506  0.6762  0.0598
  581MPD2    H2 8619   0.515   1.190  15.247  1.6811  0.2193 -0.6309
  581MPD2    H3 8620   0.309   1.282  15.326  1.0332 -0.0828  0.0189
  581MPD2     N 8621   0.354   1.634  15.054 -0.5347 -0.0835  0.9554
  581MPD2    H5 8622   0.411   1.673  14.980  0.7397 -1.3206  1.2778
  581MPD2    N1 8623   0.685   1.283  15.099 -0.1581 -0.5767 -0.1447
  581MPD2    H7 8624   0.689   1.187  15.132 -0.5648 -0.6851 -0.4226
  582TMC3    C1 8625   0.910   1.244  15.051  0.6350 -0.4533  0.0079
  582TMC3    C2 8626   1.001   1.318  15.112  0.5856  0.0638 -0.0044
  582TMC3    C3 8627   1.090   1.259  15.200 -0.6725 -0.3051 -0.8953
  582TMC3    C4 8628   0.887   1.115  15.099  0.1258  0.4735  0.3882
  582TMC3    C5 8629   0.971   1.057  15.191 -0.2309  0.6506 -0.3180
  582TMC3    C6 8630   1.077   1.132  15.239 -0.0639  0.7856 -0.9101
  582TMC3     C 8631   0.792   1.326  15.023 -0.5397 -0.0750  0.4487
  582TMC3     O 8632   0.807   1.421  14.947 -0.4718 -0.0439 -0.2082
  582TMC3     H 8633   1.011   1.425  15.093 -0.8789  0.5438  1.9700
  582TMC3    H1 8634   0.801   1.063  15.060  0.2100 -0.4418  1.4380
  582TMC3    H2 8635   1.130   1.086  15.321  0.8039  1.4290 -1.1174
  582TMC3    C7 8636   0.897   1.013  15.300  0.3004  0.0852  0.2303
  582TMC3    C8 8637   1.103   1.334  15.319 -0.6492  0.2386 -0.4093
  582TMC3    O1 8638   0.872   0.895  15.324  0.0097  0.2225 -0.0238
  582TMC3    O2 8639   1.005   1.375  15.381 -0.2547  0.3942 -0.1035
  583MPD2     C 8640   0.876   2.569  16.970 -0.2770 -0.2751 -0.1343
  583MPD2    C1 8641   0.827   2.675  16.896  0.3494 -0.6458 -0.5985
  583MPD2    C2 8642   0.742   2.760  16.956  0.2102  0.3183  0.0063
  583MPD2    C3 8643   0.715   2.760  17.088 -0.1923  0.5608  0.5167
  583MPD2    C4 8644   0.771   2.665  17.166 -0.3935 -0.0495  0.1618
  583MPD2    C5 8645   0.835   2.558  17.102  0.4016 -0.0871 -0.0311
  583MPD2     H 8646   0.696   2.834  16.892  1.2961  0.6520 -0.3843
  583MPD2    H1 8647   0.775   2.669  17.274  0.9613  1.2587  0.0583
  583MPD2    H2 8648   0.931   2.490  16.922  1.2472  0.9235 -0.3619
  583MPD2    H3 8649   0.874   2.476  17.162  0.5448 -0.7357 -1.0072
  583MPD2     N 8650   0.633   2.862  17.144 -0.1515 -0.8769 -0.1012
  583MPD2    H5 8651   0.587   2.916  17.072 -0.0498 -0.7599 -0.0767
  583MPD2    N1 8652   0.868   2.697  16.765 -0.8621  0.3116 -0.1844
  583MPD2    H7 8653   0.826   2.785  16.739  0.7586  1.3656  0.7629
  584TMC3    C1 8654   0.505   2.970  17.318 -0.0853 -0.0121 -0.6333
  584TMC3    C2 8655   0.486   3.088  17.243  0.1204  0.0877  0.3287
  584TMC3    C3 8656   0.438   3.198  17.301 -0.3243 -0.3044  0.0035
  584TMC3    C4 8657   0.457   2.959  17.446  0.2204  0.2219 -0.6045
  584TMC3    C5 8658   0.412   3.073  17.502  0.1026 -0.9313  0.2613
  584TMC3    C6 8659   0.399   3.189  17.433  0.0195 -0.7241 -0.7362
  584TMC3     C 8660   0.574   2.853  17.267  0.1345  0.5615 -0.0932
  584TMC3     O 8661   0.588   2.767  17.350  0.2433  0.0650  0.3754
  584TMC3     H 8662   0.527   3.106  17.144  1.6399  1.1620  1.1579
  584TMC3    H1 8663   0.467   2.870  17.507 -0.9179 -1.4463 -2.8501
  584TMC3    H2 8664   0.352   3.278  17.474 -0.5888 -0.8166 -1.2281
  584TMC3    C7 8665   0.421   3.071  17.647  0.0980  0.5059  0.3303
  584TMC3    C8 8666   0.454   3.327  17.230 -0.2276  0.6733 -0.0760
  584TMC3    O1 8667   0.477   2.976  17.704 -0.3138  0.0194  0.2266
  584TMC3    O2 8668   0.483   3.321  17.115 -0.4844 -0.2221  0.6399
  585MPD2     C 8669   0.515   2.076   0.671 -0.0937 -0.0663 -0.6835
  585MPD2    C1 8670   0.617   2.050   0.582 -0.1572  0.6821  0.6437
  585MPD2    C2 8671   0.593   2.034   0.446  0.0819  0.2215 -0.0606
  585MPD2    C3 8672   0.460   2.043   0.401  0.1497 -0.0140 -0.2844
  585MPD2    C4 8673   0.361   2.053   0.500 -0.6312  0.4160 -0.6789
  585MPD2    C5 8674   0.386   2.062   0.635  0.0503  0.5658 -0.3622
  585MPD2     H 8675   0.679   2.024   0.380 -1.4600 -1.6351 -1.8045
  585MPD2    H1 8676   0.257   2.051   0.469 -0.7829  0.6403 -0.1924
  585MPD2    H2 8677   0.548   2.101   0.772 -0.5209  0.0537 -0.5706
  585MPD2    H3 8678   0.302   2.068   0.705  0.0261  0.5929 -0.3937
  585MPD2     N 8679   0.418   2.026   0.269 -0.5517 -0.1462  0.3751
  585MPD2    H5 8680   0.318   2.037   0.257 -0.5976  0.5653  1.3694
  585MPD2    N1 8681   0.749   2.044   0.641  0.6195  0.5361 -0.1215
  585MPD2    H7 8682   0.758   2.065   0.740 -0.3935  0.5680 -0.0386
  586TMC3    C1 8683   0.433   2.056   0.039 -0.0505 -0.6154 -0.3040
  586TMC3    C2 8684   0.504   2.025  17.630  0.1974 -0.6938  0.8079
  586TMC3    C3 8685   0.449   2.039  17.507 -0.0437 -0.8959  1.1204
  586TMC3    C4 8686   0.302   2.088   0.027  0.2154  0.4305  0.0333
  586TMC3    C5 8687   0.245   2.095  17.605 -0.0356  0.2024 -1.1542
  586TMC3    C6 8688   0.318   2.062  17.494 -0.0686 -0.2800 -0.0491
  586TMC3     C 8689   0.504   2.037   0.160 -0.8357  0.1030  0.4057
  586TMC3     O 8690   0.622   2.030   0.160  0.8597  0.1478 -0.7220
  586TMC3     H 8691   0.609   2.007  17.647 -0.0947 -2.0002  1.2741
  586TMC3    H1 8692   0.243   2.120   0.112  1.7376  2.2186  0.4105
  586TMC3    H2 8693   0.276   2.081  17.396  0.6895 -0.4243 -0.4028
  586TMC3    C7 8694   0.115   2.154  17.589  0.6667  0.6557 -0.2882
  586TMC3    C8 8695   0.524   1.973  17.399  0.0640  0.2510  0.9274
  586TMC3    O1 8696   0.063   2.223  17.678 -0.4783  0.0547 -0.3335
  586TMC3    O2 8697   0.613   1.899  17.429 -0.1377  0.2304 -0.3632
  587TMC3    C1 8698   2.573   0.431  16.237 -0.4171  0.1130  0.9910
  587TMC3    C2 8699   2.537   0.557  16.215  0.0535 -0.8146  0.1975
  587TMC3    C3 8700   2.624   0.631  16.144 -0.9045  0.0291  0.1151
  587TMC3    C4 8701   2.685   0.376  16.172  1.5784 -0.3239 -0.9438
  587TMC3    C5 8702   2.769   0.453  16.094 -0.2293  0.6958 -0.0792
  587TMC3    C6 8703   2.742   0.587  16.084  0.0074  0.1789 -0.4156
  587TMC3     C 8704   2.486   0.339  16.305 -0.0357  0.6723 -1.0833
  587TMC3     O 8705   2.494   0.221  16.295  0.0822 -0.3291  0.1331
  587TMC3     H 8706   2.450   0.598  16.265  1.8199 -0.5765  3.0596
  587TMC3    H1 8707   2.709   0.275  16.203 -0.1229 -0.2528  0.6003
  587TMC3    H2 8708   2.808   0.657  16.034  0.3450  0.8633  0.9822
  587TMC3    C7 8709   2.869   0.386  16.014 -0.0288  0.4532 -0.3445
  587TMC3    C8 8710   2.611   0.776  16.140 -0.3206 -0.1421 -0.4242
  587TMC3    O1 8711   2.878   0.267  16.030 -0.0384  0.2018  0.4345
  587TMC3    O2 8712   2.688   0.831  16.060 -0.4989 -0.1435  0.0931
  588TMC3    C1 8713   0.070   2.740   9.722 -0.6576 -0.1281 -0.6234
  588TMC3    C2 8714   0.026   2.613   9.737 -0.0508  0.3437  0.3723
  588TMC3    C3 8715   0.122   2.513   9.740  1.1128  0.3057  0.1160
  588TMC3    C4 8716   0.206   2.773   9.704 -0.6752  0.1561 -0.1642
  588TMC3    C5 8717   0.295   2.669   9.707 -0.1176 -0.6983  0.6156
  588TMC3    C6 8718   0.254   2.540   9.735 -0.2350  0.3062 -0.5187
  588TMC3     C 8719   0.002   2.829   9.807  0.0962 -0.8297  0.3773
  588TMC3     O 8720   4.648   2.782   9.885  0.4108 -0.3894 -0.1050
  588TMC3     H 8721   4.648   2.582   9.744  0.1856 -0.6910 -0.7728
  588TMC3    H1 8722   0.237   2.868   9.661  0.1898  1.0853  2.4781
  588TMC3    H2 8723   0.332   2.468   9.751 -0.2033 -0.1494 -2.6383
  588TMC3    C7 8724   0.437   2.699   9.725  0.0550  0.1737  1.0594
  588TMC3    C8 8725   0.068   2.378   9.765  0.1269 -0.1661 -0.0628
  588TMC3    O1 8726   0.523   2.615   9.735 -0.3052 -0.0786 -0.2571
  588TMC3    O2 8727   4.676   2.372   9.806  0.2595  0.4731  0.2799
  589TMC3    C1 8728   4.023   1.447   1.816 -0.6725 -0.2521  0.2944
  589TMC3    C2 8729   4.136   1.417   1.882 -0.2507  0.0308 -0.2497
  589TMC3    C3 8730   4.216   1.323   1.826  0.3928 -0.6798  0.7083
  589TMC3    C4 8731   3.991   1.402   1.692  0.2578 -0.0374 -0.2361
  589TMC3    C5 8732   4.076   1.310   1.643  0.0380  0.3428 -0.5064
  589TMC3    C6 8733   4.175   1.253   1.717 -0.1649 -0.4774 -0.0867
  589TMC3     C 8734   3.939   1.550   1.881 -0.4952 -1.2674  0.2742
  589TMC3     O 8735   3.988   1.627   1.957 -0.3501 -0.2164 -0.0766
  589TMC3     H 8736   4.156   1.452   1.982  2.3928 -0.8942 -0.4685
  589TMC3    H1 8737   3.893   1.417   1.648  0.7669  0.9617 -1.0273
  589TMC3    H2 8738   4.237   1.182   1.663 -1.4104 -1.6810  0.0727
  589TMC3    C7 8739   4.044   1.243   1.517  0.1279 -0.1511  0.7311
  589TMC3    C8 8740   4.353   1.306   1.882 -0.2127  0.0330  0.0530
  589TMC3    O1 8741   4.120   1.157   1.478  0.1258  0.2331 -0.6592
  589TMC3    O2 8742   4.370   1.365   1.990  0.1032 -0.1207 -0.5744
  590MPD2     C 8743   3.173   3.814  16.800 -0.4183 -0.1083  0.9586
  590MPD2    C1 8744   3.077   3.880  16.728  0.2616 -0.3663  0.1091
  590MPD2    C2 8745   3.116   3.960  16.620  0.3787 -0.5018 -0.4335
  590MPD2    C3 8746   3.247   3.979  16.585 -0.1627 -0.4082  0.3880
  590MPD2    C4 8747   3.348   3.910  16.663  0.6298  0.1042 -0.4900
  590MPD2    C5 8748   3.308   3.819  16.763 -0.6722  0.0641 -0.0612
  590MPD2     H 8749   3.048   4.008  16.550 -0.5468  0.1232  0.9037
  590MPD2    H1 8750   3.453   3.926  16.639  0.5434 -0.2661 -1.1207
  590MPD2    H2 8751   3.151   3.755  16.889 -3.4946  0.1881  0.3996
  590MPD2    H3 8752   3.384   3.767  16.821  0.1234 -0.2060 -1.3574
  590MPD2     N 8753   3.291   4.044  16.469 -0.2366  0.6833 -0.4253
  590MPD2    H5 8754   3.390   4.037  16.446 -0.0700  0.9385  0.2011
  590MPD2    N1 8755   2.935   3.879  16.749  0.2230  0.0084 -0.0846
  590MPD2    H7 8756   2.876   3.935  16.688  1.1980  1.4549  0.2937
  591TMC3    C1 8757   3.292   4.195  16.281 -0.1487 -0.8580 -0.3644
  591TMC3    C2 8758   3.355   4.121  16.188  1.2826 -0.3556  0.0813
  591TMC3    C3 8759   3.422   4.191  16.092  0.2467 -0.4847  0.1962
  591TMC3    C4 8760   3.293   4.335  16.285 -0.2245  0.0264  0.5886
  591TMC3    C5 8761   3.353   4.402  16.180  0.7549  0.1216  0.0965
  591TMC3    C6 8762   3.418   4.330  16.082  0.2434 -0.2576 -0.3708
  591TMC3     C 8763   3.219   4.129  16.388 -0.0030  0.6486  0.0595
  591TMC3     O 8764   3.104   4.166  16.406  0.1630 -0.0243 -0.1381
  591TMC3     H 8765   3.376   4.015  16.200 -0.7223 -1.0305 -2.3610
  591TMC3    H1 8766   3.239   4.388  16.363 -2.7514 -0.9922 -0.4565
  591TMC3    H2 8767   3.457   4.384  15.996  0.3671  2.4080  1.3628
  591TMC3    C7 8768   3.315   4.538  16.166 -0.3062 -0.7435  0.8243
  591TMC3    C8 8769   3.457   4.114  15.968  0.3115 -0.6118 -0.6754
  591TMC3    O1 8770   3.216   4.574  16.231 -0.0176 -0.3200  0.1167
  591TMC3    O2 8771   3.484   3.996  15.985 -0.7700 -0.3820 -0.3041
  592MPD2     C 8772   4.157   1.054  11.536 -0.2623 -0.7027 -0.1713
  592MPD2    C1 8773   4.142   1.125  11.654 -0.1915 -0.6353  0.3692
  592MPD2    C2 8774   4.052   1.085  11.744 -0.0984 -0.6754  0.0912
  592MPD2    C3 8775   3.981   0.964  11.731  0.7482  0.4269 -0.4538
  592MPD2    C4 8776   3.990   0.902  11.608 -0.1580 -0.2714  0.2504
  592MPD2    C5 8777   4.076   0.950  11.512 -0.3106  0.2666 -0.4067
  592MPD2     H 8778   4.034   1.136  11.838  1.3268 -1.0053  0.5413
  592MPD2    H1 8779   3.916   0.827  11.583  2.0070 -2.1330 -0.5625
  592MPD2    H2 8780   4.230   1.083  11.461  0.1583 -2.6453 -0.5096
  592MPD2    H3 8781   4.075   0.904  11.414  0.9463  0.0666 -0.3381
  592MPD2     N 8782   3.897   0.917  11.840 -0.7514  0.2228  0.1413
  592MPD2    H5 8783   3.912   0.969  11.926  0.0024 -0.5193  0.4614
  592MPD2    N1 8784   4.236   1.222  11.677 -0.2439  0.1026  0.1465
  592MPD2    H7 8785   4.305   1.229  11.602 -0.4636  1.1349  0.0406
  593TMC3    C1 8786   4.346   1.398  11.784  0.2631 -0.1382 -0.3608
  593TMC3    C2 8787   4.350   1.492  11.886 -0.2706 -0.0886  0.0396
  593TMC3    C3 8788   4.461   1.559  11.895 -1.0369 -0.7625  0.7863
  593TMC3    C4 8789   4.459   1.371  11.711  0.0413  0.7263  0.3085
  593TMC3    C5 8790   4.574   1.443  11.730  0.7517 -0.4620 -0.3018
  593TMC3    C6 8791   4.573   1.537  11.820 -0.0088 -0.4204 -0.3322
  593TMC3     C 8792   4.238   1.303  11.792  0.7415 -0.4306 -0.9305
  593TMC3     O 8793   4.170   1.309  11.892 -0.0692  0.4712 -0.1372
  593TMC3     H 8794   4.260   1.513  11.943 -0.2183 -0.5305  0.2851
  593TMC3    H1 8795   4.452   1.303  11.626 -1.4705 -0.1616  1.1601
  593TMC3    H2 8796   4.648   1.616  11.819 -2.0566  1.5459  1.2719
  593TMC3    C7 8797   4.662   1.474  11.623 -0.0521 -0.0660 -0.5050
  593TMC3    C8 8798   4.452   1.678  11.974  0.1368  0.1347  0.6304
  593TMC3    O1 8799   0.038   1.540  11.653  0.4325  0.2538 -0.5033
  593TMC3    O2 8800   4.359   1.750  11.945 -0.2280 -0.1383  0.3905
  594MPD2     C 8801   2.437   4.535  14.437 -0.4608 -0.0943 -0.2091
  594MPD2    C1 8802   2.378   4.617  14.533 -0.1310 -0.1679 -0.0377
  594MPD2    C2 8803   2.435   0.007  14.568  0.1879 -0.2883 -0.0035
  594MPD2    C3 8804   2.566   0.035  14.527  0.4360  0.0338  0.2765
  594MPD2    C4 8805   2.630   4.668  14.446  1.0148  0.5131 -0.0478
  594MPD2    C5 8806   2.563   4.563  14.398 -0.3448  0.2654 -0.8781
  594MPD2     H 8807   2.381   0.086  14.620 -1.5354 -0.7667 -1.0740
  594MPD2    H1 8808   2.729   4.685  14.405  1.0097  0.2548 -0.1689
  594MPD2    H2 8809   2.391   4.439  14.420 -2.0733  0.8083 -0.9858
  594MPD2    H3 8810   2.609   4.490  14.333  2.0402  0.3023  0.7845
  594MPD2     N 8811   2.622   0.161  14.564 -0.9954  0.7913  0.4874
  594MPD2    H5 8812   2.561   0.239  14.582  0.3640  2.0810 -0.4787
  594MPD2    N1 8813   2.245   4.581  14.576  0.6096 -0.0104 -0.5651
  594MPD2    H7 8814   2.212   4.490  14.545  0.7770 -0.2247 -0.1206
  595TMC3    C1 8815   2.954   0.479  14.579  0.0269 -0.1791  0.0418
  595TMC3    C2 8816   2.921   0.351  14.583  0.3561 -0.3153  0.6417
  595TMC3    C3 8817   2.790   0.323  14.596  0.0017  0.6250  0.1346
  595TMC3    C4 8818   2.864   0.588  14.605 -0.1829 -0.5455 -0.3715
  595TMC3    C5 8819   2.739   0.546  14.639  0.5702  0.0195  0.2949
  595TMC3    C6 8820   2.699   0.423  14.608 -0.8503 -0.5519 -0.0761
  595TMC3     C 8821   3.082   0.521  14.532 -0.9983 -0.0939  0.1800
  595TMC3     O 8822   3.122   0.630  14.566 -0.1231 -0.2436  0.5256
  595TMC3     H 8823   3.003   0.280  14.580  1.1678  0.6154  0.8942
  595TMC3    H1 8824   2.899   0.689  14.585  0.6734 -0.8701 -0.4922
  595TMC3    H2 8825   2.595   0.407  14.633 -0.5025  0.3898  2.0629
  595TMC3    C7 8826   2.646   0.634  14.704 -0.0523 -0.6049 -0.1351
  595TMC3    C8 8827   2.752   0.195  14.538 -0.4232  0.1521 -0.6021
  595TMC3    O1 8828   2.528   0.601  14.720 -0.1037 -0.6147 -0.0875
  595TMC3    O2 8829   2.850   0.122  14.520  0.6795  0.0740  0.4908
  596MPD2     C 8830   1.643   2.584  16.929 -0.3864  0.2999 -0.0028
  596MPD2    C1 8831   1.626   2.695  16.851 -0.5231  0.0540 -0.4134
  596MPD2    C2 8832   1.640   2.675  16.717 -0.6358 -1.0097 -0.4919
  596MPD2    C3 8833   1.677   2.553  16.654 -0.5010  0.1356  0.1417
  596MPD2    C4 8834   1.702   2.446  16.735  0.3929  0.3998 -0.3068
  596MPD2    C5 8835   1.679   2.466  16.871  0.0626  0.5428 -0.6442
  596MPD2     H 8836   1.622   2.757  16.648 -0.1416  0.1713  0.7935
  596MPD2    H1 8837   1.721   2.345  16.701 -1.4860  0.7716 -2.4794
  596MPD2    H2 8838   1.658   2.587  17.036  0.8756  0.1974 -0.1813
  596MPD2    H3 8839   1.706   2.392  16.945 -0.4462  1.0854  0.0867
  596MPD2     N 8840   1.676   2.523  16.514 -0.8749 -0.2677 -0.1598
  596MPD2    H5 8841   1.708   2.431  16.489 -1.4251 -0.5299  0.1040
  596MPD2    N1 8842   1.593   2.817  16.907 -0.6176 -0.6128  0.4230
  596MPD2    H7 8843   1.591   2.892  16.838 -1.2718  0.0878  1.1885
  597TMC3    C1 8844   1.541   2.979  17.073 -0.4452 -0.4711  0.7676
  597TMC3    C2 8845   1.601   3.073  16.994 -1.0742 -0.0044  0.1856
  597TMC3    C3 8846   1.561   3.201  17.019  0.4833  0.3346  0.2781
  597TMC3    C4 8847   1.431   2.994  17.160  0.1764 -0.1117  0.0980
  597TMC3    C5 8848   1.390   3.123  17.153  0.1767 -0.3276  0.4274
  597TMC3    C6 8849   1.452   3.226  17.101 -0.0758  0.2509  0.4930
  597TMC3     C 8850   1.558   2.835  17.041  0.2292  0.4255 -0.3324
  597TMC3     O 8851   1.558   2.756  17.133 -0.2398 -0.2294  0.6857
  597TMC3     H 8852   1.688   3.050  16.933  0.0645  0.8358  1.4769
  597TMC3    H1 8853   1.379   2.907  17.199 -1.3255  0.4835 -0.5519
  597TMC3    H2 8854   1.414   3.326  17.119  0.4987  0.5704 -0.0473
  597TMC3    C7 8855   1.261   3.149  17.229  0.1832  0.6924  0.0799
  597TMC3    C8 8856   1.608   3.315  16.937 -0.2996  0.3501 -0.1797
  597TMC3    O1 8857   1.217   3.049  17.284 -0.5178 -0.6767 -0.0868
  597TMC3    O2 8858   1.545   3.417  16.954  0.1496  0.0148  0.5003
  598TMC3    C1 8859   0.065   4.519  15.683 -0.2414 -0.5356 -0.6469
  598TMC3    C2 8860   4.676   4.468  15.734  0.2475 -0.0259 -0.1048
  598TMC3    C3 8861   4.575   4.461  15.641  1.2168  0.1212  0.2031
  598TMC3    C4 8862   0.079   4.590  15.568  0.4116 -1.1903  0.7846
  598TMC3    C5 8863   4.683   4.610  15.505 -0.8201  0.6198  0.4794
  598TMC3    C6 8864   4.567   4.540  15.533 -0.2581  0.6137 -0.3804
  598TMC3     C 8865   0.186   4.463  15.743 -0.2422  0.0156  0.5053
  598TMC3     O 8866   0.176   4.383  15.835 -0.0260  0.3531  0.4636
  598TMC3     H 8867   4.673   4.399  15.818 -2.3293 -0.6866 -0.7385
  598TMC3    H1 8868   0.168   4.626  15.518 -1.3117  0.8887 -0.8556
  598TMC3    H2 8869   4.474   4.546  15.478 -0.2677 -2.3334 -0.6792
  598TMC3    C7 8870   4.681   4.661  15.369  0.2296  0.3481 -0.1973
  598TMC3    C8 8871   4.463   4.383  15.678 -0.3334 -0.0669 -0.0792
  598TMC3    O1 8872   4.585   4.636  15.295 -0.6301 -0.1354 -0.2356
  598TMC3    O2 8873   4.449   4.343  15.792  0.9549 -0.2749 -0.3166
  599MPD2     C 8874   0.084   2.282  16.090 -0.1170 -0.1438 -0.1393
  599MPD2    C1 8875   0.033   2.156  16.085 -0.1686  0.4980  0.4319
  599MPD2    C2 8876   4.632   2.124  16.124  0.6577 -0.3280 -0.4866
  599MPD2    C3 8877   4.555   2.231  16.172  0.1694  0.4254 -0.3592
  599MPD2    C4 8878   4.598   2.358  16.168  0.4273 -0.3981  1.2384
  599MPD2    C5 8879   4.725   2.390  16.120 -0.2817 -0.0141  0.1136
  599MPD2     H 8880   4.597   2.021  16.132  3.3350 -1.4268 -3.0632
  599MPD2    H1 8881   4.540   2.446  16.193 -0.0187 -0.7205  1.3348
  599MPD2    H2 8882   0.180   2.302  16.045  0.0826  2.9309  1.6665
  599MPD2    H3 8883   0.040   2.490  16.116 -2.9208  1.1771  2.6835
  599MPD2     N 8884   4.419   2.210  16.221 -0.2036 -0.1568  1.0696
  599MPD2    H5 8885   4.378   2.291  16.266  0.5337  0.0783  1.3166
  599MPD2    N1 8886   0.120   2.064  16.041 -0.4873  0.6907  0.1904
  599MPD2    H7 8887   0.213   2.102  16.028 -0.1892 -0.3814 -0.8810
  600TMC3    C1 8888   4.209   2.117  16.276  0.3826 -0.3881  0.3479
  600TMC3    C2 8889   4.126   2.004  16.267 -0.4506 -0.3490  1.0319
  600TMC3    C3 8890   4.005   2.005  16.325 -0.3503 -0.0048 -0.6142
  600TMC3    C4 8891   4.170   2.227  16.347 -0.3219  0.2172 -0.0546
  600TMC3    C5 8892   4.047   2.228  16.404 -0.4281 -0.0879  0.1881
  600TMC3    C6 8893   3.971   2.121  16.394  0.8375  0.2749  0.2740
  600TMC3     C 8894   4.344   2.095  16.219 -0.1407  0.1811 -0.1262
  600TMC3     O 8895   4.365   1.999  16.153 -0.3205  0.0047 -0.3679
  600TMC3     H 8896   4.154   1.918  16.207  1.3007 -1.4047  3.4017
  600TMC3    H1 8897   4.238   2.311  16.337 -0.7330  0.4926 -0.5103
  600TMC3    H2 8898   3.881   2.112  16.453 -0.3515 -0.5219 -1.6729
  600TMC3    C7 8899   3.985   2.359  16.445  0.3009 -0.5514  0.3557
  600TMC3    C8 8900   3.980   1.878  16.385 -0.3280  0.0094  0.1026
  600TMC3    O1 8901   3.876   2.356  16.506 -0.3126 -0.1652  0.2790
  600TMC3    O2 8902   4.078   1.823  16.430  0.0379  0.0189  0.4181
  601MPD2     C 8903   2.084   4.634  17.376  0.1223 -0.5505  0.6079
  601MPD2    C1 8904   1.991   4.676  17.466 -0.6382  0.3815  0.4395
  601MPD2    C2 8905   1.990   4.625  17.597 -0.7111  0.4143 -0.5890
  601MPD2    C3 8906   2.083   4.531  17.636 -0.3179  0.0827 -0.0647
  601MPD2    C4 8907   2.179   4.499  17.551  0.4558  0.4239  0.0851
  601MPD2    C5 8908   2.176   4.550  17.423  0.0235 -0.2354 -0.6911
  601MPD2     H 8909   1.907   4.650  17.663  0.1944 -0.1469  0.7684
  601MPD2    H1 8910   2.259   4.429  17.572  0.1332 -0.2563 -0.9642
  601MPD2    H2 8911   2.072   4.660  17.271  2.2267 -0.0277  0.4871
  601MPD2    H3 8912   2.246   4.504  17.355  2.4388  0.0134  1.6128
  601MPD2     N 8913   2.084   4.458   0.052  0.2234  0.4180 -0.8250
  601MPD2    H5 8914   2.158   4.389   0.064 -0.3837 -0.1554 -0.4021
  601MPD2    N1 8915   1.888   0.044  17.431 -0.0462  0.1733 -0.4711
  601MPD2    H7 8916   1.811   0.053  17.496 -0.5689 -1.3862 -0.8771
  602TMC3    C1 8917   1.748   0.192  17.302 -0.2164 -0.4080 -0.1843
  602TMC3    C2 8918   1.682   0.237  17.412 -0.3473 -0.2316  0.1562
  602TMC3    C3 8919   1.578   0.320  17.401 -0.7041  0.3249 -0.1668
  602TMC3    C4 8920   1.705   0.228  17.179 -0.3997  0.9005 -0.6147
  602TMC3    C5 8921   1.585   0.299  17.171 -0.1909 -0.2541 -0.4914
  602TMC3    C6 8922   1.519   0.343  17.278 -0.5353 -0.4048 -0.7583
  602TMC3     C 8923   1.869   0.115  17.309 -0.0898  0.5467  0.1321
  602TMC3     O 8924   1.931   0.103  17.207  0.3802  0.2182  0.0551
  602TMC3     H 8925   1.702   0.210  17.515  0.4334  1.2411  0.3840
  602TMC3    H1 8926   1.747   0.196  17.084  0.1215  0.8451 -0.3665
  602TMC3    H2 8927   1.422   0.390  17.267 -1.0217 -1.2060  0.1018
  602TMC3    C7 8928   1.518   0.302  17.036  0.4655 -0.8352  0.2721
  602TMC3    C8 8929   1.482   0.291  17.502  0.1810 -0.3370  0.4739
  602TMC3    O1 8930   1.584   0.276  16.936 -0.5475  0.4216 -0.4144
  602TMC3    O2 8931   1.482   0.195  17.577 -0.8430  0.5889 -0.3236
  603TMC3    C1 8932   4.173   0.693  11.288  0.1874 -0.0589 -0.4459
  603TMC3    C2 8933   4.235   0.653  11.405 -0.1728 -0.3841  0.2620
  603TMC3    C3 8934   4.367   0.674  11.408  0.4794 -0.8173 -0.5428
  603TMC3    C4 8935   4.235   0.741  11.177  0.1755  1.2698 -0.0362
  603TMC3    C5 8936   4.377   0.749  11.193 -0.4813 -0.2284  0.0887
  603TMC3    C6 8937   4.441   0.720  11.310  0.0317  0.0477  0.1912
  603TMC3     C 8938   4.028   0.667  11.281  0.0699 -0.3239 -0.7311
  603TMC3     O 8939   3.967   0.672  11.384  0.0148 -0.1352  0.6337
  603TMC3     H 8940   4.177   0.604  11.483 -0.7161 -0.0042  0.0917
  603TMC3    H1 8941   4.181   0.788  11.095  0.5919  0.4647 -0.7788
  603TMC3    H2 8942   4.549   0.712  11.305  0.0235 -0.4530  0.8009
  603TMC3    C7 8943   4.451   0.826  11.095  0.5652  0.4242  0.8593
  603TMC3    C8 8944   4.435   0.629  11.530 -0.4945 -0.6505 -0.5305
  603TMC3    O1 8945   4.557   0.881  11.130  0.3457  0.0210  0.1910
  603TMC3    O2 8946   4.397   0.530  11.588 -0.3985 -0.4360  0.1689
  604MPD2     C 8947   0.782   4.089  16.611 -0.0582  0.2677  1.0112
  604MPD2    C1 8948   0.680   4.079  16.525 -0.0479  0.4439 -0.0305
  604MPD2    C2 8949   0.700   4.009  16.407 -0.3279  0.1814  0.1268
  604MPD2    C3 8950   0.814   3.941  16.382 -0.3830 -0.0417 -0.2535
  604MPD2    C4 8951   0.913   3.953  16.480  0.0691 -0.1510  0.1371
  604MPD2    C5 8952   0.902   4.025  16.596 -0.1685  0.1189 -0.0293
  604MPD2     H 8953   0.619   4.020  16.336  0.3825  0.5637 -0.6223
  604MPD2    H1 8954   1.008   3.901  16.473  0.4947  0.4288  1.5694
  604MPD2    H2 8955   0.766   4.163  16.689  0.2539 -0.5475  1.8408
  604MPD2    H3 8956   0.987   4.040  16.661 -0.0852 -1.1560  0.1605
  604MPD2     N 8957   0.826   3.853  16.268  0.1376 -0.6369 -0.1193
  604MPD2    H5 8958   0.751   3.854  16.200 -1.3457 -2.1701  1.4773
  604MPD2    N1 8959   0.566   4.158  16.559 -0.3825  0.6352  0.3299
  604MPD2    H7 8960   0.578   4.218  16.640 -0.1142 -0.7599  1.3420
  605TMC3    C1 8961   0.365   4.262  16.538  0.2374 -0.2924  0.1817
  605TMC3    C2 8962   0.425   4.353  16.618 -0.4772 -0.0178 -0.9093
  605TMC3    C3 8963   0.364   4.399  16.731  0.5318 -0.0230 -0.1193
  605TMC3    C4 8964   0.233   4.219  16.565  0.6233 -0.4107 -0.4527
  605TMC3    C5 8965   0.170   4.283  16.665 -0.3535 -0.4290 -0.7995
  605TMC3    C6 8966   0.229   4.380  16.740 -0.5296 -0.2061 -0.1584
  605TMC3     C 8967   0.448   4.153  16.491  0.0847  0.4713  0.0924
  605TMC3     O 8968   0.407   4.072  16.410 -0.1469  0.0053 -0.4601
  605TMC3     H 8969   0.522   4.386  16.584  0.3709 -1.4921  0.0422
  605TMC3    H1 8970   0.187   4.146  16.500 -2.3061  0.4868  0.6197
  605TMC3    H2 8971   0.179   4.423  16.827  0.4853  2.9683 -1.1387
  605TMC3    C7 8972   0.030   4.317  16.639 -0.3424  0.4270 -0.0627
  605TMC3    C8 8973   0.441   4.374  16.854  0.0522 -0.7399  0.1383
  605TMC3    O1 8974   4.707   4.420  16.680  0.0316 -0.4830  0.0500
  605TMC3    O2 8975   0.544   4.306  16.841  0.2768  0.3819 -0.7168
  606TMC3    C1 8976   1.248   3.045   0.017 -0.1197 -0.5554  0.7317
  606TMC3    C2 8977   1.207   2.989   0.136 -0.2456  0.0970 -0.1213
  606TMC3    C3 8978   1.233   2.856   0.144  0.4015  0.6215 -0.1227
  606TMC3    C4 8979   1.301   2.977  17.614  0.3330 -0.0968  0.4358
  606TMC3    C5 8980   1.324   2.842  17.629 -0.6043  0.1102 -0.3832
  606TMC3    C6 8981   1.273   2.781   0.036  0.0787 -0.0837  0.4708
  606TMC3     C 8982   1.211   3.188   0.008 -0.2915  0.6048 -0.2353
  606TMC3     O 8983   1.133   3.232   0.091 -0.5699 -0.1244  0.2899
  606TMC3     H 8984   1.185   3.055   0.218 -0.1606 -0.7007  0.5450
  606TMC3    H1 8985   1.323   3.036  17.527  2.5061 -1.2258  0.2192
  606TMC3    H2 8986   1.270   2.673   0.041  1.7802 -0.1489  0.0002
  606TMC3    C7 8987   1.441   2.781  17.561  0.6991  0.2471 -0.2221
  606TMC3    C8 8988   1.307   2.813   0.262 -0.7865 -0.1837  0.2705
  606TMC3    O1 8989   1.483   2.824  17.457  0.2103  0.3184  0.3542
  606TMC3    O2 8990   1.391   2.732   0.234 -0.4396  0.6144 -0.3095
  607MPD2     C 8991   4.078   0.505  11.969 -0.2357 -0.1369  0.5232
  607MPD2    C1 8992   4.097   0.610  12.055  0.2998  0.1506  0.0611
  607MPD2    C2 8993   4.080   0.590  12.188 -0.3455  0.1007 -0.1631
  607MPD2    C3 8994   4.067   0.458  12.238  0.0304  0.0057 -0.2454
  607MPD2    C4 8995   4.064   0.351  12.151  1.0632 -0.1690  0.4521
  607MPD2    C5 8996   4.071   0.378  12.017 -0.0107  0.1494 -0.1637
  607MPD2     H 8997   4.093   0.673  12.257  0.1369 -0.6822  0.6837
  607MPD2    H1 8998   4.048   0.249  12.185 -0.4949 -0.4459 -1.0805
  607MPD2    H2 8999   4.085   0.516  11.861 -1.4321 -0.4933  0.3999
  607MPD2    H3 9000   4.067   0.287  11.958 -0.9339  1.1590 -1.6485
  607MPD2     N 9001   4.058   0.448  12.380 -0.1717 -0.0560 -0.1784
  607MPD2    H5 9002   4.062   0.536  12.429  0.9798 -0.8272  1.1059
  607MPD2    N1 9003   4.146   0.735  12.018 -0.1127  0.3304 -0.0985
  607MPD2    H7 9004   4.142   0.801  12.095 -2.6784  1.3221 -1.0963
  608TMC3    C1 9005   4.291   0.890  11.905  0.1539  0.8090 -0.0746
  608TMC3    C2 9006   4.298   0.948  12.026 -0.3576 -0.0524 -0.1999
  608TMC3    C3 9007   4.395   1.042  12.048  0.0373 -1.0290 -0.6736
  608TMC3    C4 9008   4.392   0.898  11.814  0.1196  0.3482 -0.4323
  608TMC3    C5 9009   4.499   0.983  11.844 -0.4133  0.1558  0.1335
  608TMC3    C6 9010   4.493   1.065  11.955  0.2149 -0.5949  0.2147
  608TMC3     C 9011   4.217   0.766  11.900 -0.4241 -0.7527  0.2712
  608TMC3     O 9012   4.269   0.682  11.834 -0.4373 -0.8055 -0.2201
  608TMC3     H 9013   4.208   0.946  12.086  1.1164  0.5785  2.0267
  608TMC3    H1 9014   4.389   0.848  11.718  0.8197 -0.2645 -0.1399
  608TMC3    H2 9015   4.581   1.118  11.989  0.5812  0.2486 -2.0395
  608TMC3    C7 9016   4.594   1.033  11.737 -0.2805  0.0662  0.0447
  608TMC3    C8 9017   4.408   1.100  12.180  0.2239  0.7118 -0.2247
  608TMC3    O1 9018   4.554   1.029  11.621 -0.5015 -0.1080 -0.5466
  608TMC3    O2 9019   4.476   1.203  12.186 -0.1178 -0.3647 -0.0973
  609TMC3    C1 9020   3.178   2.947   9.218  0.2375  0.6480 -0.1698
  609TMC3    C2 9021   3.232   2.824   9.187  0.1545 -0.4858  0.6498
  609TMC3    C3 9022   3.350   2.789   9.265 -0.4776 -0.3030  0.4415
  609TMC3    C4 9023   3.232   3.034   9.312 -0.4771  0.3407 -0.1321
  609TMC3    C5 9024   3.340   2.997   9.381  0.6237 -0.0622 -0.4631
  609TMC3    C6 9025   3.401   2.875   9.355 -0.2573 -0.6596  0.2092
  609TMC3     C 9026   3.062   3.002   9.150  0.1823  0.4593  0.1532
  609TMC3     O 9027   3.035   3.120   9.169 -0.1426  0.2248 -0.7302
  609TMC3     H 9028   3.208   2.771   9.096  0.8624 -1.6009  1.1078
  609TMC3    H1 9029   3.178   3.126   9.330 -0.7000  0.3110 -0.6431
  609TMC3    H2 9030   3.484   2.843   9.417  2.1813  3.1124 -1.0516
  609TMC3    C7 9031   3.419   3.099   9.436 -0.1704  0.1268 -1.1044
  609TMC3    C8 9032   3.454   2.707   9.190  0.1327  0.2547 -0.4541
  609TMC3    O1 9033   3.540   3.079   9.446  0.3754  0.2368 -0.0353
  609TMC3    O2 9034   3.416   2.632   9.103 -0.6925 -0.1115  0.3159
  610TMC3    C1 9035   4.601   0.745  12.897  0.4629 -0.9710  0.1344
  610TMC3    C2 9036   4.592   0.803  12.772 -0.4208 -0.1784  0.2001
  610TMC3    C3 9037   4.614   0.721  12.667  0.8329  0.5453  0.4850
  610TMC3    C4 9038   4.648   0.616  12.919 -1.1176 -0.4680 -0.6445
  610TMC3    C5 9039   4.689   0.543  12.809  0.5999 -0.5029  0.1710
  610TMC3    C6 9040   4.667   0.591  12.683  0.5631  0.2830  1.2126
  610TMC3     C 9041   4.551   0.810  13.017 -0.7696  0.1325 -0.8892
  610TMC3     O 9042   4.490   0.914  12.988  0.0594 -0.3437 -0.5578
  610TMC3     H 9043   4.561   0.907  12.762 -0.3112 -0.1925 -0.2620
  610TMC3    H1 9044   4.682   0.580  13.015  0.7489 -1.3236 -1.6246
  610TMC3    H2 9045   4.678   0.521  12.601 -1.3371  1.0971  0.2744
  610TMC3    C7 9046   0.071   0.451  12.828 -0.9484 -0.2868 -0.1280
  610TMC3    C8 9047   4.597   0.776  12.537  0.7624  0.2664 -0.1836
  610TMC3    O1 9048   0.078   0.399  12.939 -0.6314 -0.2963 -0.6710
  610TMC3    O2 9049   4.649   0.887  12.520  0.8804 -0.5017 -0.4252
  611MPD2     C 9050   3.462   0.496  10.365 -0.1355 -0.1195 -0.1306
  611MPD2    C1 9051   3.580   0.421  10.340  0.6685 -0.2573 -0.3547
  611MPD2    C2 9052   3.696   0.494  10.309 -0.3886 -0.8703 -0.2693
  611MPD2    C3 9053   3.688   0.638  10.305 -0.6400  0.0043  0.0886
  611MPD2    C4 9054   3.569   0.704  10.328  0.3681  0.0055  0.2223
  611MPD2    C5 9055   3.460   0.632  10.369  0.4564  0.1560  1.0652
  611MPD2     H 9056   3.789   0.445  10.280  0.3771  0.6859 -0.4407
  611MPD2    H1 9057   3.555   0.811  10.322 -1.0692 -0.0767  2.0020
  611MPD2    H2 9058   3.367   0.448  10.380  0.3869 -0.8979  0.6382
  611MPD2    H3 9059   3.375   0.698  10.382  0.6419  0.9210 -1.7632
  611MPD2     N 9060   3.800   0.714  10.265  0.2603 -0.3821 -0.5830
  611MPD2    H5 9061   3.778   0.810  10.240  0.0437 -1.1603 -3.2988
  611MPD2    N1 9062   3.568   0.279  10.346 -0.6004 -0.2861  0.1833
  611MPD2    H7 9063   3.470   0.254  10.351 -0.3932 -0.7535  2.1381
  612TMC3    C1 9064   4.026   0.777  10.228 -0.0203 -0.5430 -0.0627
  612TMC3    C2 9065   4.144   0.773  10.299 -0.4583  0.5343  0.6361
  612TMC3    C3 9066   4.222   0.885  10.288  0.3585  0.2906  0.5530
  612TMC3    C4 9067   3.992   0.871  10.141 -0.3152 -0.1921 -0.4284
  612TMC3    C5 9068   4.076   0.979  10.125  0.0116 -0.4946 -0.2005
  612TMC3    C6 9069   4.193   0.982  10.197  0.9332 -0.4906 -1.2413
  612TMC3     C 9070   3.930   0.672  10.277  0.1214  1.2715 -0.2192
  612TMC3     O 9071   3.980   0.577  10.336  0.2659 -0.0331 -0.1265
  612TMC3     H 9072   4.162   0.707  10.382 -1.7955 -0.7963 -0.1346
  612TMC3    H1 9073   3.900   0.877  10.083 -0.6158 -1.4270 -0.0780
  612TMC3    H2 9074   4.250   1.074  10.191 -0.3772  0.5348  1.9146
  612TMC3    C7 9075   4.033   1.092  10.051  0.3661  0.1917  0.1570
  612TMC3    C8 9076   4.336   0.921  10.379 -0.5120 -1.3028 -0.4629
  612TMC3    O1 9077   3.918   1.099  10.005 -0.2084  0.2128 -0.1287
  612TMC3    O2 9078   4.404   1.011  10.339  0.2817  0.1597 -1.0790
  613MPD2     C 9079   2.485   3.496  16.508 -0.0598 -0.6571 -0.1721
  613MPD2    C1 9080   2.600   3.430  16.529  0.0116 -0.4152 -0.2296
  613MPD2    C2 9081   2.622   3.363  16.647 -0.5274 -0.3016 -1.1117
  613MPD2    C3 9082   2.530   3.373  16.751  0.4805 -0.6263  0.0057
  613MPD2    C4 9083   2.405   3.430  16.726  0.0334  0.1857 -0.0978
  613MPD2    C5 9084   2.388   3.492  16.607  0.1783  0.1579 -1.0086
  613MPD2     H 9085   2.707   3.297  16.660 -0.3801  0.0865 -0.1165
  613MPD2    H1 9086   2.318   3.441  16.791  0.1670  1.3936 -0.1163
  613MPD2    H2 9087   2.459   3.552  16.419 -0.9276 -1.3378 -0.3546
  613MPD2    H3 9088   2.296   3.535  16.570 -0.1391  1.2987  1.0959
  613MPD2     N 9089   2.570   3.306  16.872  0.5169 -0.8097 -0.1673
  613MPD2    H5 9090   2.652   3.246  16.877 -0.6600 -2.3198  1.1620
  613MPD2    N1 9091   2.683   3.420  16.412  0.5460 -0.8309  0.1391
  613MPD2    H7 9092   2.655   3.467  16.326  0.3433 -1.1832  0.0143
  614TMC3    C1 9093   2.822   3.310  16.258  0.4134  0.8754  0.3425
  614TMC3    C2 9094   2.933   3.225  16.262 -0.4308 -0.0158 -0.5819
  614TMC3    C3 9095   2.935   3.109  16.186  0.3310  0.2797 -0.3196
  614TMC3    C4 9096   2.723   3.286  16.163  0.5653 -0.2526 -0.6316
  614TMC3    C5 9097   2.724   3.170  16.083  0.3850  0.4416  0.4525
  614TMC3    C6 9098   2.833   3.087  16.091 -0.0240 -0.0866 -0.6550
  614TMC3     C 9099   2.792   3.341  16.395  0.4807  0.0974 -0.6322
  614TMC3     O 9100   2.853   3.281  16.480  0.0077  0.1743  0.0383
  614TMC3     H 9101   3.022   3.260  16.313 -1.1546 -0.6104  1.1161
  614TMC3    H1 9102   2.635   3.349  16.168  0.9299  0.2987 -1.1077
  614TMC3    H2 9103   2.820   2.988  16.049 -1.5877 -0.6964  1.2864
  614TMC3    C7 9104   2.616   3.153  15.987 -0.2680 -0.0775  0.3535
  614TMC3    C8 9105   2.964   3.001  16.274  0.4842  0.0034 -0.5626
  614TMC3    O1 9106   2.513   3.203  16.029  0.3158 -0.1125  0.0201
  614TMC3    O2 9107   2.984   2.888  16.227 -0.0197  0.1578  0.7956
  615MPD2     C 9108   2.198   4.550  16.877 -0.5893 -0.4185 -0.2991
  615MPD2    C1 9109   2.167   4.417  16.858 -1.1017  0.1902 -0.2129
  615MPD2    C2 9110   2.151   4.360  16.733 -0.3945 -0.1471 -0.3360
  615MPD2    C3 9111   2.178   4.439  16.625 -0.5433  0.4203 -0.0100
  615MPD2    C4 9112   2.203   4.570  16.644 -0.8020  0.5398 -0.0894
  615MPD2    C5 9113   2.218   4.630  16.767  0.6391 -0.4170  0.2954
  615MPD2     H 9114   2.123   4.256  16.724  1.2037 -0.3941 -2.5417
  615MPD2    H1 9115   2.226   4.637  16.561  0.6383  1.4044  1.0138
  615MPD2    H2 9116   2.211   4.602  16.971 -1.0237 -0.0700 -0.4320
  615MPD2    H3 9117   2.236   0.009  16.784 -0.4949 -0.5731  2.3011
  615MPD2     N 9118   2.177   4.385  16.495  0.1295  0.2909 -0.3278
  615MPD2    H5 9119   2.201   4.451  16.421  0.0024  1.1115  0.3668
  615MPD2    N1 9120   2.122   4.335  16.968  0.1401 -0.5859  0.1663
  615MPD2    H7 9121   2.107   4.236  16.954 -0.7837 -0.5782  1.0982
  616TMC3    C1 9122   2.093   4.269  17.191 -0.1732  0.2535  0.0756
  616TMC3    C2 9123   2.214   4.208  17.197  0.2007 -0.3280 -0.7531
  616TMC3    C3 9124   2.255   4.146  17.312  0.7907 -0.4541 -0.4892
  616TMC3    C4 9125   2.013   4.270  17.306  0.1727  0.6079 -0.6620
  616TMC3    C5 9126   2.056   4.204  17.417  0.1004  0.6368  0.0892
  616TMC3    C6 9127   2.175   4.138  17.422  0.4179 -0.4559 -0.2550
  616TMC3     C 9128   2.080   4.374  17.092  0.2693 -0.2981 -0.3754
  616TMC3     O 9129   2.023   4.478  17.117 -1.1324  0.2435 -0.5370
  616TMC3     H 9130   2.285   4.218  17.116  0.6750  1.0948 -0.1600
  616TMC3    H1 9131   1.925   4.334  17.314 -0.1123  0.2000 -0.5626
  616TMC3    H2 9132   2.218   4.097  17.513 -1.1187  0.9406  1.1207
  616TMC3    C7 9133   1.977   4.187  17.537 -0.1772 -0.1504  0.0355
  616TMC3    C8 9134   2.362   4.052  17.312 -0.0268  0.3935 -0.3868
  616TMC3    O1 9135   2.028   4.121  17.622 -0.6568 -0.1004  0.3854
  616TMC3    O2 9136   2.360   3.968  17.398 -0.0229 -0.0474 -0.2635
  617MPD2     C 9137   0.426   2.973  13.601  0.4988  0.5461  0.1738
  617MPD2    C1 9138   0.488   2.930  13.711 -0.6374 -0.2241  0.3239
  617MPD2    C2 9139   0.414   2.873  13.817 -0.7325  0.1415 -0.7701
  617MPD2    C3 9140   0.274   2.851  13.802 -0.0908  0.2431 -0.6824
  617MPD2    C4 9141   0.225   2.879  13.682  1.0222  0.7620  0.1628
  617MPD2    C5 9142   0.296   2.941  13.579 -0.4799 -1.0488 -0.6597
  617MPD2     H 9143   0.463   2.850  13.910 -1.4258  0.8646 -0.2257
  617MPD2    H1 9144   0.121   2.867  13.654  1.1059  4.0867 -1.5435
  617MPD2    H2 9145   0.478   3.023  13.519 -3.9510  3.5363 -0.7887
  617MPD2    H3 9146   0.253   2.968  13.484 -0.0172 -1.4066 -0.9679
  617MPD2     N 9147   0.190   2.789  13.893 -0.1196  0.3225  0.3410
  617MPD2    H5 9148   0.091   2.782  13.869 -0.2932  1.3858  0.7673
  617MPD2    N1 9149   0.626   2.941  13.720  0.7219  0.0877 -0.3748
  617MPD2    H7 9150   0.675   2.986  13.643  2.8403 -3.5147 -1.1382
  618TMC3    C1 9151   0.833   2.835  13.727  0.0412  0.3236 -0.6823
  618TMC3    C2 9152   0.940   2.814  13.803  0.5911  0.1497  0.2234
  618TMC3    C3 9153   1.058   2.781  13.744  0.2402 -0.3202  0.8906
  618TMC3    C4 9154   0.840   2.824  13.589  0.0041  0.4160 -0.0113
  618TMC3    C5 9155   0.963   2.801  13.531 -0.2078 -0.2455  0.3108
  618TMC3    C6 9156   1.071   2.771  13.607 -0.7803  0.2238  0.2612
  618TMC3     C 9157   0.701   2.845  13.789 -0.5863  0.0531 -0.7643
  618TMC3     O 9158   0.671   2.786  13.892  0.6690  0.4879  0.3108
  618TMC3     H 9159   0.929   2.820  13.910 -0.3227  0.3202  0.1179
  618TMC3    H1 9160   0.755   2.840  13.524  0.7319 -1.4068 -1.4187
  618TMC3    H2 9161   1.167   2.751  13.560 -1.1911 -0.0803 -0.4330
  618TMC3    C7 9162   0.940   2.723  13.406  0.1274  0.5564  0.2672
  618TMC3    C8 9163   1.156   2.728  13.835 -0.3146 -0.5315 -0.2798
  618TMC3    O1 9164   0.830   2.669  13.386  0.0919  0.3647  0.2536
  618TMC3    O2 9165   1.148   2.774  13.947  0.4873  0.0202  0.4453
  619MPD2     C 9166   2.470   3.628  13.622 -0.2673  0.0301  0.4135
  619MPD2    C1 9167   2.429   3.686  13.505  0.7218 -0.1423 -0.3205
  619MPD2    C2 9168   2.296   3.690  13.473  0.2387  0.0037  0.4110
  619MPD2    C3 9169   2.200   3.649  13.562  0.1750 -0.2499  0.6647
  619MPD2    C4 9170   2.241   3.590  13.681  0.3046 -0.2421 -0.3787
  619MPD2    C5 9171   2.374   3.572  13.708  0.1121  0.1067 -0.0830
  619MPD2     H 9172   2.271   3.739  13.379  1.9121 -1.1670 -0.6363
  619MPD2    H1 9173   2.165   3.560  13.753 -0.8071  0.9276 -1.0635
  619MPD2    H2 9174   2.572   3.627  13.658  0.4923  0.3263 -1.7356
  619MPD2    H3 9175   2.409   3.530  13.802  1.4166 -0.5159 -0.8501
  619MPD2     N 9176   2.065   3.671  13.549  0.7054  0.5539 -0.7497
  619MPD2    H5 9177   2.008   3.634  13.625 -0.1501  1.9439 -0.7221
  619MPD2    N1 9178   2.513   3.756  13.415  0.1664  0.6288 -0.0457
  619MPD2    H7 9179   2.468   3.810  13.342 -1.5224  0.1091  0.5972
  620TMC3    C1 9180   2.704   3.879  13.349 -0.0192  0.1927  0.1267
  620TMC3    C2 9181   2.651   3.915  13.231  0.2431  0.2396 -0.1421
  620TMC3    C3 9182   2.702   4.033  13.173 -0.4252 -0.3391  0.0279
  620TMC3    C4 9183   2.815   3.942  13.399  0.7404 -0.1141  0.6859
  620TMC3    C5 9184   2.860   4.062  13.344  1.1714 -0.0688  0.2069
  620TMC3    C6 9185   2.809   4.103  13.226  0.0109 -0.2644  0.1679
  620TMC3     C 9186   2.648   3.780  13.440 -0.4076  0.0217 -0.0254
  620TMC3     O 9187   2.719   3.740  13.532 -0.8212 -0.1544 -0.2249
  620TMC3     H 9188   2.568   3.862  13.187 -0.3404  0.9988  0.0488
  620TMC3    H1 9189   2.861   3.906  13.491 -1.4815 -0.5351  1.6175
  620TMC3    H2 9190   2.837   4.194  13.174 -0.8632  0.2657  0.6412
  620TMC3    C7 9191   2.875   4.173  13.439  0.5398  0.1426 -0.4831
  620TMC3    C8 9192   2.685   4.043  13.027  0.1385  0.4143 -0.4087
  620TMC3    O1 9193   2.847   4.285  13.406  0.0690  0.3677  0.7497
  620TMC3    O2 9194   2.784   4.035  12.957 -0.9121 -0.3331 -0.5431
  621MPD2     C 9195   2.865   3.591   9.782 -0.2224  0.0702  0.2502
  621MPD2    C1 9196   2.923   3.594   9.906  0.4435 -0.5333 -0.0856
  621MPD2    C2 9197   3.031   3.676   9.935 -0.1143  0.8040 -0.4323
  621MPD2    C3 9198   3.093   3.750   9.836  0.3818  0.3390  0.8134
  621MPD2    C4 9199   3.047   3.734   9.706  0.2624 -0.8738  0.3995
  621MPD2    C5 9200   2.928   3.673   9.684  1.1360 -0.0547 -0.2824
  621MPD2     H 9201   3.060   3.686  10.039  0.6712  1.6903 -0.7385
  621MPD2    H1 9202   3.099   3.789   9.628 -0.6662 -2.3179 -1.2572
  621MPD2    H2 9203   2.776   3.538   9.752  1.3797 -3.5608  1.8873
  621MPD2    H3 9204   2.889   3.675   9.583 -1.3762  0.0680  0.6948
  621MPD2     N 9205   3.201   3.834   9.868 -0.0707  0.4711  0.4624
  621MPD2    H5 9206   3.231   3.847   9.964  0.0216  0.5831  0.4184
  621MPD2    N1 9207   2.868   3.530  10.024  0.1540  0.4259 -0.1408
  621MPD2    H7 9208   2.916   3.533  10.113  1.2248  1.4188 -0.7599
  622TMC3    C1 9209   2.708   3.424  10.166 -0.0465  0.0879  0.1215
  622TMC3    C2 9210   2.573   3.417  10.183 -0.0168  0.0949  0.2605
  622TMC3    C3 9211   2.518   3.306  10.245  0.1539 -0.4187 -0.6008
  622TMC3    C4 9212   2.782   3.319  10.216 -0.0144  0.3113 -1.1262
  622TMC3    C5 9213   2.716   3.206  10.261  0.1961 -0.5032 -0.5976
  622TMC3    C6 9214   2.582   3.190  10.280 -0.2040 -0.1816 -0.2811
  622TMC3     C 9215   2.746   3.472  10.037 -0.5878 -0.3867  0.0224
  622TMC3     O 9216   2.662   3.460   9.946 -0.3627 -0.5818  0.4733
  622TMC3     H 9217   2.509   3.492  10.140 -3.3070 -2.0069  1.4203
  622TMC3    H1 9218   2.887   3.318  10.191  0.6984 -0.3879  1.8430
  622TMC3    H2 9219   2.541   3.118  10.350 -0.9911 -1.1069 -1.7049
  622TMC3    C7 9220   2.801   3.086  10.265 -0.1826  0.6048 -0.1869
  622TMC3    C8 9221   2.376   3.296  10.261 -0.3371 -0.5705  0.3005
  622TMC3    O1 9222   2.920   3.110  10.253 -0.1153  0.0077  0.3304
  622TMC3    O2 9223   2.329   3.185  10.274 -0.7105 -0.5017  0.3895
  623MPD2     C 9224   0.968   4.353  16.350 -0.4978  0.1459 -0.1632
  623MPD2    C1 9225   0.879   4.436  16.424 -0.7276  0.2315 -0.3649
  623MPD2    C2 9226   0.890   4.433  16.559  0.1585  0.9908  0.8772
  623MPD2    C3 9227   1.000   4.379  16.620  0.1961  0.3933 -0.0908
  623MPD2    C4 9228   1.089   4.298  16.550 -0.4432  0.8180  0.2210
  623MPD2    C5 9229   1.067   4.286  16.410 -1.0591 -0.1506  0.3634
  623MPD2     H 9230   0.820   4.486  16.622 -1.9601 -0.4235 -0.3148
  623MPD2    H1 9231   1.162   4.237  16.602 -0.6213  1.3615  1.1062
  623MPD2    H2 9232   0.954   4.349  16.243  0.9462 -0.7649 -0.3197
  623MPD2    H3 9233   1.126   4.214  16.355  0.6591  1.5911 -0.0852
  623MPD2     N 9234   1.013   4.396  16.761  0.4202 -0.1807 -0.3359
  623MPD2    H5 9235   0.933   4.441  16.805 -0.6852 -1.8081 -0.6889
  623MPD2    N1 9236   0.769   4.502  16.355  0.6104 -0.1032  0.3708
  623MPD2    H7 9237   0.695   4.540  16.414  1.8392  0.6973  1.3951
  624TMC3    C1 9238   1.241   4.357  17.178  0.1455  0.0668  0.7480
  624TMC3    C2 9239   1.137   4.306  17.247 -0.1748  0.4174  0.1547
  624TMC3    C3 9240   1.019   4.293  17.182 -0.8790 -0.2926  0.2410
  624TMC3    C4 9241   1.224   4.390  17.047 -0.6775 -0.2868  0.4281
  624TMC3    C5 9242   1.108   4.368  16.981  0.2479 -0.5507  0.4168
  624TMC3    C6 9243   1.003   4.316  17.049 -0.5763 -0.2238 -0.0576
  624TMC3     C 9244   1.374   4.313  17.228  0.7241  0.6003 -0.2075
  624TMC3     O 9245   1.372   4.259  17.339 -0.0405 -0.4014 -0.0059
  624TMC3     H 9246   1.148   4.290  17.354 -0.7472  0.4945  0.2252
  624TMC3    H1 9247   1.310   4.425  16.993 -0.7559 -0.6251  0.0793
  624TMC3    H2 9248   0.916   4.301  16.987 -0.6447  1.1045 -0.2934
  624TMC3    C7 9249   1.119   4.360  16.838  0.6741 -0.0388  0.1344
  624TMC3    C8 9250   0.906   4.326  17.271  0.3606  1.0312 -0.5064
  624TMC3    O1 9251   1.222   4.307  16.801 -0.2540 -0.2059  0.2906
  624TMC3    O2 9252   0.936   4.391  17.368 -0.0614  0.0778 -0.0294
  625MPD2     C 9253   1.153   0.484   0.546  0.2977  0.5228 -0.6285
  625MPD2    C1 9254   1.226   0.592   0.588  0.0486  1.0682  0.9771
  625MPD2    C2 9255   1.338   0.575   0.659 -0.6690 -0.1687  0.1558
  625MPD2    C3 9256   1.378   0.449   0.695 -0.2890  0.2074 -0.5322
  625MPD2    C4 9257   1.299   0.341   0.668 -0.2822 -0.7890 -0.2795
  625MPD2    C5 9258   1.185   0.358   0.593 -0.4663  0.0493 -0.4824
  625MPD2     H 9259   1.404   0.661   0.671 -0.0253 -0.4130 -1.6418
  625MPD2    H1 9260   1.340   0.245   0.697 -0.8258 -0.2858  2.1635
  625MPD2    H2 9261   1.064   0.472   0.485 -0.6213 -1.5455  1.0918
  625MPD2    H3 9262   1.122   0.276   0.560 -0.3563 -0.0724 -0.3886
  625MPD2     N 9263   1.504   0.447   0.751  0.6699 -0.3509  0.5595
  625MPD2    H5 9264   1.550   0.536   0.768  0.3305  0.1961 -1.3572
  625MPD2    N1 9265   1.193   0.724   0.562 -0.0460 -0.2096  0.6151
  625MPD2    H7 9266   1.245   0.799   0.607 -0.9766  0.3686  0.7361
  626TMC3    C1 9267   1.103   0.888   0.426 -1.3125  0.1502 -0.6013
  626TMC3    C2 9268   1.042   0.925   0.312 -0.7281  0.5681  0.1242
  626TMC3    C3 9269   1.047   1.047   0.273  0.0990  0.2568  0.2195
  626TMC3    C4 9270   1.161   0.986   0.510  0.4794  0.3637 -0.1088
  626TMC3    C5 9271   1.158   1.118   0.468 -0.4009  0.1559  0.4385
  626TMC3    C6 9272   1.107   1.148   0.345 -0.1185 -0.2721 -0.3736
  626TMC3     C 9273   1.090   0.757   0.480 -0.4345  0.2478  0.5821
  626TMC3     O 9274   1.017   0.691   0.404  0.3763 -0.4613  0.1115
  626TMC3     H 9275   1.003   0.847   0.248  0.4151 -1.4202  1.8427
  626TMC3    H1 9276   1.204   0.966   0.607  0.9903 -0.8584 -0.5947
  626TMC3    H2 9277   1.111   1.249   0.305  0.9260 -0.0855  0.2162
  626TMC3    C7 9278   1.164   1.214   0.568 -0.4247 -0.2958  0.0442
  626TMC3    C8 9279   1.004   1.071   0.135 -0.0091 -0.2140  0.6757
  626TMC3    O1 9280   1.265   1.218   0.636  0.2009 -0.2239  0.2336
  626TMC3    O2 9281   1.097   1.102   0.057 -0.4132 -0.1622  0.5587
  627MPD2     C 9282   4.406   1.722  14.605  0.2172  0.7320 -0.2049
  627MPD2    C1 9283   4.460   1.670  14.725 -0.0331  0.5094 -0.1094
  627MPD2    C2 9284   4.425   1.539  14.769 -0.6054  0.3900  0.0273
  627MPD2    C3 9285   4.344   1.461  14.692  0.0546  0.0661 -1.2708
  627MPD2    C4 9286   4.291   1.517  14.582 -0.2897 -0.3825  0.3844
  627MPD2    C5 9287   4.316   1.645  14.536  0.1778  0.1229 -0.2697
  627MPD2     H 9288   4.462   1.502  14.864 -1.0586  0.5074  0.2535
  627MPD2    H1 9289   4.220   1.452  14.533  0.3146  0.5546 -1.6918
  627MPD2    H2 9290   4.431   1.818  14.561  1.7629 -0.0111 -0.9747
  627MPD2    H3 9291   4.272   1.683  14.445 -1.6477  2.2827  1.4934
  627MPD2     N 9292   4.320   1.326  14.731 -0.2385  0.0996 -0.1554
  627MPD2    H5 9293   4.356   1.288  14.818 -0.6294  0.2432  0.0636
  627MPD2    N1 9294   4.556   1.733  14.811  0.6001  0.1227 -0.3175
  627MPD2    H7 9295   4.590   1.681  14.891 -0.5184 -2.2993 -1.4011
  628TMC3    C1 9296   0.000   1.881  14.880  0.3031 -0.2924 -0.1151
  628TMC3    C2 9297   0.061   1.771  14.929  0.4786  0.2477 -0.1466
  628TMC3    C3 9298   0.185   1.785  14.978  0.3017 -1.2000 -0.4366
  628TMC3    C4 9299   0.068   1.999  14.869  0.9076 -0.0701 -0.4579
  628TMC3    C5 9300   0.194   2.013  14.925 -0.3385 -0.1142 -0.6623
  628TMC3    C6 9301   0.254   1.902  14.977  0.1002  0.4503 -0.0265
  628TMC3     C 9302   4.602   1.862  14.801 -0.0806 -0.4152 -0.3071
  628TMC3     O 9303   4.567   1.944  14.718 -0.0280 -0.0180 -0.0670
  628TMC3     H 9304   0.015   1.673  14.927 -1.2121  0.9988  1.2743
  628TMC3    H1 9305   0.006   2.084  14.841 -1.4509 -1.9954 -1.1253
  628TMC3    H2 9306   0.358   1.911  15.004 -0.3429  0.8944  1.5189
  628TMC3    C7 9307   0.269   2.133  14.904 -0.0870 -0.1670  0.7784
  628TMC3    C8 9308   0.223   1.676  15.065  0.9079  0.2302  0.1358
  628TMC3    O1 9309   0.370   2.152  14.968  0.1653 -0.3497  0.1893
  628TMC3    O2 9310   0.134   1.610  15.116  0.4543 -0.3179 -0.3574
  629MPD2     C 9311   2.838   3.903  17.175  0.0367  0.1137 -0.0701
  629MPD2    C1 9312   2.818   4.029  17.121 -0.1333  0.3513  0.5601
  629MPD2    C2 9313   2.693   4.090  17.154  0.1535  0.6439  0.4773
  629MPD2    C3 9314   2.595   4.021  17.224  0.3097 -0.9853  0.0070
  629MPD2    C4 9315   2.620   3.894  17.277 -0.3641 -0.3229  0.0366
  629MPD2    C5 9316   2.741   3.843  17.253 -0.2000  0.9835 -0.0982
  629MPD2     H 9317   2.672   4.189  17.114 -1.2979  0.1300 -0.0315
  629MPD2    H1 9318   2.549   3.839  17.339 -0.8923  1.1550  0.7278
  629MPD2    H2 9319   2.928   3.848  17.152  0.0240 -0.3586  1.0191
  629MPD2    H3 9320   2.747   3.741  17.291  0.4560  1.5109  1.2142
  629MPD2     N 9321   2.469   4.092  17.244 -0.6926 -0.6594  0.3011
  629MPD2    H5 9322   2.449   4.178  17.194  1.2425 -0.8689 -0.8493
  629MPD2    N1 9323   2.917   4.082  17.037 -0.0995  0.4593 -0.1345
  629MPD2    H7 9324   3.003   4.030  17.024  0.7122  1.6528  0.4849
  630TMC3    C1 9325   3.017   4.225  16.881 -0.6507  0.5441  0.3603
  630TMC3    C2 9326   2.998   4.313  16.775 -0.2793  0.3293 -0.6473
  630TMC3    C3 9327   3.107   4.338  16.693  0.6227  0.1174  0.3208
  630TMC3    C4 9328   3.133   4.176  16.919 -0.1957  0.0156 -0.0071
  630TMC3    C5 9329   3.236   4.200  16.835 -0.3580  0.4342 -0.3328
  630TMC3    C6 9330   3.229   4.272  16.720 -0.0652 -0.9335 -0.2045
  630TMC3     C 9331   2.903   4.202  16.961 -0.0084 -0.1909  0.2334
  630TMC3     O 9332   2.803   4.271  16.950 -0.1723  0.1266 -0.3567
  630TMC3     H 9333   2.900   4.357  16.759  0.7233  2.1465 -1.9187
  630TMC3    H1 9334   3.152   4.150  17.023  0.4499 -0.0616 -0.1427
  630TMC3    H2 9335   3.317   4.271  16.657  0.1697  0.5673  0.1083
  630TMC3    C7 9336   3.355   4.252  16.911  0.2144 -0.3640 -0.6150
  630TMC3    C8 9337   3.123   4.473  16.656 -0.3054  0.0963  0.0596
  630TMC3    O1 9338   3.413   4.174  16.986  0.0108  0.4173  0.5946
  630TMC3    O2 9339   3.236   4.520  16.671  0.3941 -0.5800  0.0748
  631MPD2     C 9340   1.396   4.284  15.782  0.2208  0.7532  0.4166
  631MPD2    C1 9341   1.507   4.339  15.724 -0.1864 -0.0333 -0.3243
  631MPD2    C2 9342   1.629   4.319  15.780 -0.2579  0.4267 -0.1052
  631MPD2    C3 9343   1.643   4.264  15.905 -0.3705 -0.3306  0.2284
  631MPD2    C4 9344   1.536   4.212  15.966  0.0676  0.5651 -0.7194
  631MPD2    C5 9345   1.410   4.224  15.904  0.5819 -0.2029 -0.0585
  631MPD2     H 9346   1.712   4.367  15.728 -2.2876  1.3882 -2.4452
  631MPD2    H1 9347   1.540   4.162  16.062 -0.9776  0.9552 -0.4792
  631MPD2    H2 9348   1.298   4.293  15.738  0.8688 -0.6787 -1.3030
  631MPD2    H3 9349   1.326   4.179  15.955  0.1616 -0.0403 -0.6210
  631MPD2     N 9350   1.767   4.267  15.969 -0.5022 -0.1143 -0.1425
  631MPD2    H5 9351   1.846   4.285  15.907 -0.5047 -2.8192 -0.9296
  631MPD2    N1 9352   1.507   4.421  15.610 -0.0577 -0.4675 -0.4637
  631MPD2    H7 9353   1.587   4.478  15.584 -0.0358 -0.2745  0.0252
  632TMC3    C1 9354   1.418   4.533  15.426  0.5930  0.5659 -0.1492
  632TMC3    C2 9355   1.482   4.632  15.491  0.2155 -0.0193 -0.0854
  632TMC3    C3 9356   1.578   4.698  15.412 -0.3216  0.4538 -0.5243
  632TMC3    C4 9357   1.456   4.485  15.305  0.4476 -0.4774  0.1634
  632TMC3    C5 9358   1.560   4.542  15.236  0.5380 -0.7527  0.4579
  632TMC3    C6 9359   1.620   4.658  15.288  0.0496  0.4654  0.1547
  632TMC3     C 9360   1.401   4.425  15.524 -0.6375 -0.4498  0.0900
  632TMC3     O 9361   1.299   4.354  15.519  0.0001  0.5796 -0.5454
  632TMC3     H 9362   1.439   4.668  15.584 -3.2155 -0.2294 -1.5896
  632TMC3    H1 9363   1.414   4.391  15.271  2.5557 -1.6438  0.7814
  632TMC3    H2 9364   1.676   4.717  15.216 -0.1296  0.8790  0.3542
  632TMC3    C7 9365   1.548   4.541  15.085 -0.0374 -0.3894  0.0231
  632TMC3    C8 9366   1.655   0.081  15.465 -0.5843  0.0276  0.0414
  632TMC3    O1 9367   1.561   4.652  15.038 -0.4101  0.0555  0.5832
  632TMC3    O2 9368   1.765   0.093  15.416  0.8032  0.4364 -0.7454
  633MPD2     C 9369   1.100   2.502  17.661 -0.0770 -0.9420  0.0153
  633MPD2    C1 9370   1.208   2.479  17.579  0.3738 -0.0381 -0.1779
  633MPD2    C2 9371   1.303   2.380  17.618 -0.0618  0.3851 -0.0023
  633MPD2    C3 9372   1.297   2.320   0.037  0.6289  0.1454 -0.2600
  633MPD2    C4 9373   1.187   2.348   0.118 -0.3737  0.4070  0.4729
  633MPD2    C5 9374   1.090   2.436   0.074 -0.0687  1.8132 -0.4145
  633MPD2     H 9375   1.386   2.372  17.548  2.2161 -2.1683  3.0125
  633MPD2    H1 9376   1.166   2.302   0.214  1.8300 -1.2694  0.1291
  633MPD2    H2 9377   1.023   2.571  17.629  0.1161 -0.6010  0.2876
  633MPD2    H3 9378   1.003   2.457   0.136 -0.1218  1.8034 -0.4865
  633MPD2     N 9379   1.399   2.226   0.070 -0.2530  0.1110 -0.4181
  633MPD2    H5 9380   1.456   2.186  17.701 -2.0555 -2.4227 -0.4559
  633MPD2    N1 9381   1.220   2.525  17.447 -0.0178  0.3734  0.3142
  633MPD2    H7 9382   1.299   2.498  17.389 -1.7602  0.7958 -2.2739
  634TMC3    C1 9383   1.153   2.627  17.245  0.5430 -0.1573 -0.4486
  634TMC3    C2 9384   1.201   2.516  17.176 -0.2087  0.8632  0.1606
  634TMC3    C3 9385   1.239   2.537  17.051  0.5474  0.2775 -0.2479
  634TMC3    C4 9386   1.128   2.746  17.178 -0.1388 -0.2305 -0.4105
  634TMC3    C5 9387   1.162   2.756  17.048  0.3945  0.2922 -0.1436
  634TMC3    C6 9388   1.221   2.656  16.978 -0.4800 -0.7206 -0.1373
  634TMC3     C 9389   1.131   2.615  17.390 -0.3914  0.4201 -0.4214
  634TMC3     O 9390   1.040   2.685  17.436 -0.4042 -0.1630  0.5678
  634TMC3     H 9391   1.188   2.416  17.214 -1.5297  0.9270 -0.1389
  634TMC3    H1 9392   1.112   2.831  17.243  1.5363  1.0421 -1.6461
  634TMC3    H2 9393   1.235   2.662  16.871  1.7466 -0.1038  0.1987
  634TMC3    C7 9394   1.121   2.867  16.963 -0.0712  0.2675 -0.0211
  634TMC3    C8 9395   1.287   2.415  16.990 -0.2925 -0.1131  0.0728
  634TMC3    O1 9396   1.185   2.881  16.857 -0.0947 -0.1948 -0.1479
  634TMC3    O2 9397   1.339   2.336  17.074  0.1322  0.1712  0.4855
  635TMC3    C1 9398   2.327   3.332   0.338 -0.4120 -0.4307 -0.1887
  635TMC3    C2 9399   2.210   3.323   0.399 -0.1468  0.1415  0.3344
  635TMC3    C3 9400   2.218   3.261   0.520  0.4966 -0.1523  0.3347
  635TMC3    C4 9401   2.441   3.281   0.394  0.2203  0.6727  0.2638
  635TMC3    C5 9402   2.437   3.205   0.510  0.1873  0.6018 -0.0780
  635TMC3    C6 9403   2.318   3.202   0.582 -0.1583  0.5574 -0.1776
  635TMC3     C 9404   2.347   3.435   0.238  0.5261 -0.1674 -0.2743
  635TMC3     O 9405   2.444   3.416   0.168  0.1087 -0.2391 -0.0542
  635TMC3     H 9406   2.120   3.381   0.379 -0.0453  0.2329  0.1371
  635TMC3    H1 9407   2.537   3.283   0.342  0.0265 -2.4927 -0.1627
  635TMC3    H2 9408   2.314   3.178   0.688 -2.9156  0.5265 -0.2959
  635TMC3    C7 9409   2.564   3.172   0.567 -0.4042  0.6750 -0.4478
  635TMC3    C8 9410   2.093   3.226   0.589 -0.4528  0.6568  0.4899
  635TMC3    O1 9411   2.663   3.240   0.539 -0.2465  0.7264  0.7646
  635TMC3    O2 9412   2.095   3.213   0.712 -0.2977 -0.4332 -0.7356
  636MPD2     C 9413   2.494   3.012  16.304 -0.1918 -0.3450  0.0740
  636MPD2    C1 9414   2.397   3.096  16.368  0.3936 -0.3438  0.2601
  636MPD2    C2 9415   2.390   3.090  16.510 -0.1687 -0.6126  0.5115
  636MPD2    C3 9416   2.458   2.987  16.579  0.0912 -0.5782 -0.0032
  636MPD2    C4 9417   2.555   2.914  16.516  0.5574 -0.5243 -0.2236
  636MPD2    C5 9418   2.573   2.929  16.380 -0.3363 -1.1270  0.6190
  636MPD2     H 9419   2.335   3.170  16.557 -0.3208  0.0512 -0.7991
  636MPD2    H1 9420   2.607   2.838  16.572 -2.6978 -3.8049 -1.6419
  636MPD2    H2 9421   2.523   3.025  16.201  0.9456 -1.6565  0.2332
  636MPD2    H3 9422   2.647   2.874  16.324 -0.9522 -0.9652 -0.3445
  636MPD2     N 9423   2.434   2.977  16.716 -0.0540  0.3136 -0.3897
  636MPD2    H5 9424   2.369   3.049  16.747  0.4042  0.5528  0.0275
  636MPD2    N1 9425   2.336   3.193  16.285  0.6029 -0.1519 -0.1951
  636MPD2    H7 9426   2.346   3.186  16.184  1.8011 -0.0629 -0.0882
  637TMC3    C1 9427   2.507   2.921  16.942 -1.0147  0.1567  0.5735
  637TMC3    C2 9428   2.446   3.043  16.972 -0.0652 -0.2790  0.6152
  637TMC3    C3 9429   2.524   3.143  17.018  0.7425  0.0367 -0.3230
  637TMC3    C4 9430   2.639   2.904  16.966  0.6995  0.2770 -0.4650
  637TMC3    C5 9431   2.717   3.014  17.006 -0.7463  0.3128  0.2731
  637TMC3    C6 9432   2.652   3.126  17.047 -0.2312 -0.8375 -0.4091
  637TMC3     C 9433   2.475   2.874  16.799  1.1633 -0.3129 -1.2138
  637TMC3     O 9434   2.493   2.762  16.760  0.1657  0.4886  0.1022
  637TMC3     H 9435   2.342   3.072  16.966  0.7718  2.8687  1.2043
  637TMC3    H1 9436   2.686   2.818  16.920  2.4828  1.9852 -1.8671
  637TMC3    H2 9437   2.715   3.213  17.064 -0.6916 -0.4915 -0.4803
  637TMC3    C7 9438   2.821   3.044  16.909 -0.6242 -0.2589 -1.3125
  637TMC3    C8 9439   2.485   3.270  16.972  0.1692 -0.0371 -0.6711
  637TMC3    O1 9440   2.828   3.155  16.858  0.1101 -0.3061  0.0596
  637TMC3    O2 9441   2.372   3.307  16.995 -0.2071  0.0686  0.3134
  638MPD2     C 9442   2.243   1.870  15.143  0.2180 -0.3813  0.4442
  638MPD2    C1 9443   2.210   1.775  15.053 -0.1306 -0.7348 -0.1080
  638MPD2    C2 9444   2.139   1.673  15.112 -0.2835 -0.1906  0.0168
  638MPD2    C3 9445   2.120   1.656  15.251  0.0343 -0.5468  0.5359
  638MPD2    C4 9446   2.165   1.760  15.333  0.1489 -0.0608 -0.2811
  638MPD2    C5 9447   2.220   1.872  15.273 -0.5942 -0.4562  0.2648
  638MPD2     H 9448   2.105   1.589  15.052  0.4669  1.0859 -2.1876
  638MPD2    H1 9449   2.161   1.765  15.441  0.5846 -3.0977 -0.1096
  638MPD2    H2 9450   2.299   1.953  15.102  1.5192 -1.6473 -0.3471
  638MPD2    H3 9451   2.259   1.954  15.332  1.3476  0.5812 -2.4198
  638MPD2     N 9452   2.064   1.536  15.297  0.1561 -0.0231 -0.0196
  638MPD2    H5 9453   2.044   1.459  15.233  0.5783 -0.0895 -0.0709
  638MPD2    N1 9454   2.252   1.783  14.916 -0.5618 -0.3004 -0.6154
  638MPD2    H7 9455   2.310   1.862  14.889 -0.6074  1.0665  3.2537
  639TMC3    C1 9456   2.021   1.363  15.452 -0.3700 -0.4101 -0.4655
  639TMC3    C2 9457   1.899   1.331  15.401 -0.6411  0.4457 -0.1808
  639TMC3    C3 9458   1.836   1.229  15.462  0.0577  0.2083 -0.7300
  639TMC3    C4 9459   2.079   1.298  15.554 -0.2691 -0.2371 -0.3221
  639TMC3    C5 9460   2.023   1.184  15.604 -0.8797  0.1762  0.1913
  639TMC3    C6 9461   1.899   1.149  15.556 -0.2653  0.0910 -0.1916
  639TMC3     C 9462   2.066   1.498  15.426  0.2512  0.0853  0.4388
  639TMC3     O 9463   2.101   1.557  15.527 -0.0111 -0.1915  0.3149
  639TMC3     H 9464   1.857   1.395  15.324  1.7705  0.9699 -1.0647
  639TMC3    H1 9465   2.160   1.341  15.612  1.0193 -0.5598 -1.8799
  639TMC3    H2 9466   1.856   1.055  15.589  1.9781 -0.7397  0.3794
  639TMC3    C7 9467   2.110   1.062  15.610  0.3941 -0.1785 -0.2183
  639TMC3    C8 9468   1.713   1.173  15.409 -0.4197 -0.0392  0.4602
  639TMC3    O1 9469   2.050   0.960  15.638  0.0664 -0.5383 -0.0167
  639TMC3    O2 9470   1.693   1.187  15.287 -0.3800 -0.6745  0.4703
  640MPD2     C 9471   4.691   0.210   9.698  0.5519  0.0734 -0.6634
  640MPD2    C1 9472   4.596   0.107   9.716 -0.0508  0.6860  0.7294
  640MPD2    C2 9473   4.456   0.135   9.701  0.2070 -0.1157 -0.7968
  640MPD2    C3 9474   4.422   0.270   9.674  0.3216 -0.1243 -0.1670
  640MPD2    C4 9475   4.514   0.360   9.644 -0.0325  0.5202  0.0311
  640MPD2    C5 9476   4.650   0.334   9.652 -0.2378 -0.2949 -0.1095
  640MPD2     H 9477   4.378   0.064   9.725 -0.3553 -0.2125 -2.8368
  640MPD2    H1 9478   4.481   0.460   9.618  2.6925  1.1676 -0.9361
  640MPD2    H2 9479   0.070   0.195   9.716  0.7217  1.9818 -0.0201
  640MPD2    H3 9480   4.716   0.417   9.632  0.5656 -0.6053  1.2241
  640MPD2     N 9481   4.285   0.319   9.652  0.2441 -0.1096 -0.3039
  640MPD2    H5 9482   4.273   0.417   9.627 -0.2594 -0.6232 -2.0661
  640MPD2    N1 9483   4.649   4.701   9.755  0.2206 -0.1053  0.2002
  640MPD2    H7 9484   0.023   4.694   9.770  0.0658  0.9573  1.6630
  641TMC3    C1 9485   4.647   4.483   9.836  0.4543  0.7056  0.2075
  641TMC3    C2 9486   4.579   4.397   9.911  0.4332 -0.6085  0.2856
  641TMC3    C3 9487   4.624   4.268   9.937  0.1492  0.2366  0.1060
  641TMC3    C4 9488   0.043   4.457   9.787 -0.0633  0.0878  0.1525
  641TMC3    C5 9489   0.085   4.321   9.807 -0.5654 -0.5037  0.4273
  641TMC3    C6 9490   0.019   4.226   9.882 -0.4356 -0.3410 -0.0104
  641TMC3     C 9491   4.571   4.597   9.789  0.5180 -0.0828 -0.3419
  641TMC3     O 9492   4.456   4.616   9.827  0.4280 -0.5084  0.5854
  641TMC3     H 9493   4.475   4.412   9.938  0.8195 -1.2803  2.1235
  641TMC3    H1 9494   0.087   4.511   9.703 -1.5046  0.7058 -0.1972
  641TMC3    H2 9495   0.054   4.123   9.891 -3.5982 -1.2232  2.1312
  641TMC3    C7 9496   0.216   4.281   9.750 -0.5192 -0.1460 -0.0370
  641TMC3    C8 9497   4.534   4.164   9.967  0.1230  0.8197  1.1546
  641TMC3    O1 9498   0.237   4.161   9.726 -0.8518  0.2783 -0.4066
  641TMC3    O2 9499   4.564   4.058   9.915 -0.4628 -0.0537  0.0031
  642TMC3    C1 9500   4.235   1.799  12.264 -0.5932 -0.3124  0.7142
  642TMC3    C2 9501   4.305   1.825  12.381 -0.3560 -0.0191  0.2755
  642TMC3    C3 9502   4.344   1.720  12.457  0.0002  0.3611 -0.9095
  642TMC3    C4 9503   4.186   1.673  12.234 -0.4349  0.3669  0.6113
  642TMC3    C5 9504   4.211   1.574  12.323  0.0915 -0.4405  0.9313
  642TMC3    C6 9505   4.290   1.593  12.435 -0.2537 -0.4259 -0.1339
  642TMC3     C 9506   4.150   1.908  12.225  0.0543  0.0629  0.4578
  642TMC3     O 9507   4.175   1.957  12.117  0.2986  0.8584 -0.0684
  642TMC3     H 9508   4.341   1.919  12.420 -1.3752  0.5501 -0.1725
  642TMC3    H1 9509   4.118   1.659  12.151  4.3671 -2.0866 -2.9037
  642TMC3    H2 9510   4.325   1.499  12.477  2.1380  0.7955  0.6425
  642TMC3    C7 9511   4.117   1.457  12.323 -0.5646  0.1077  0.2484
  642TMC3    C8 9512   4.474   1.704  12.518  0.0640  0.8582 -0.1893
  642TMC3    O1 9513   4.073   1.425  12.216 -0.0032  0.3830 -0.4536
  642TMC3    O2 9514   4.517   1.592  12.541  0.7672 -0.5750  0.0813
  643TMC3    C1 9515   3.413   1.041   0.588  0.5176  1.0337  0.2445
  643TMC3    C2 9516   3.283   1.050   0.624  0.0404 -0.6682 -0.0557
  643TMC3    C3 9517   3.181   0.976   0.567 -1.3437  0.1108  0.8434
  643TMC3    C4 9518   3.444   0.963   0.481  0.2756  0.1261 -0.4139
  643TMC3    C5 9519   3.347   0.887   0.428 -0.1128 -0.2471  0.4990
  643TMC3    C6 9520   3.213   0.890   0.467 -0.0188 -0.1761  0.1178
  643TMC3     C 9521   3.466   1.172   0.595  0.3998  0.5261 -0.0570
  643TMC3     O 9522   3.404   1.262   0.545  0.6617 -0.0581  0.3632
  643TMC3     H 9523   3.253   1.126   0.696 -0.8233 -0.3444 -0.7544
  643TMC3    H1 9524   3.545   0.963   0.443  1.0103  0.9030  1.5630
  643TMC3    H2 9525   3.132   0.839   0.417 -1.3548  1.1258  0.9697
  643TMC3    C7 9526   3.369   0.866   0.286 -0.1726  0.3344  0.0137
  643TMC3    C8 9527   3.067   1.059   0.527  0.9616  1.0137 -0.0034
  643TMC3    O1 9528   3.467   0.929   0.238 -0.1834 -0.1819 -0.1708
  643TMC3    O2 9529   2.969   1.009   0.471 -0.0988  0.5660  0.0050
  644MPD2     C 9530   3.418   1.117   9.891 -0.2976  0.3818 -0.6626
  644MPD2    C1 9531   3.527   1.179   9.820  0.3545 -0.3283 -1.3242
  644MPD2    C2 9532   3.526   1.314   9.801 -0.6946 -0.5764 -0.9208
  644MPD2    C3 9533   3.428   1.387   9.862 -0.3503 -0.4580  0.3132
  644MPD2    C4 9534   3.331   1.330   9.943 -0.5851  0.4428 -0.1320
  644MPD2    C5 9535   3.319   1.198   9.945 -0.5049  0.1329 -0.5535
  644MPD2     H 9536   3.608   1.362   9.749  0.3390 -1.1473  0.1832
  644MPD2    H1 9537   3.258   1.397   9.987 -0.1513  0.1231  1.0851
  644MPD2    H2 9538   3.406   1.009   9.893 -0.4790  0.4390  1.6506
  644MPD2    H3 9539   3.239   1.148   9.998 -0.3921  0.8833  0.3378
  644MPD2     N 9540   3.447   1.524   9.859 -0.1161  0.4042  1.0368
  644MPD2    H5 9541   3.514   1.564   9.794 -0.8864 -0.0162 -0.0228
  644MPD2    N1 9542   3.634   1.094   9.767  0.0182  0.1531 -0.6533
  644MPD2    H7 9543   3.615   0.997   9.786  1.2354 -0.1316 -0.9035
  645TMC3    C1 9544   3.432   1.751   9.909 -0.3168  0.1175  0.2310
  645TMC3    C2 9545   3.467   1.770   9.782  0.2302  0.5386 -0.2506
  645TMC3    C3 9546   3.529   1.888   9.761 -0.8018 -0.1563  0.3802
  645TMC3    C4 9547   3.458   1.836  10.011  0.2590 -0.5840 -0.2948
  645TMC3    C5 9548   3.520   1.957   9.987 -0.5829  0.1585 -0.2787
  645TMC3    C6 9549   3.562   1.981   9.859 -0.3195 -0.4298  0.9903
  645TMC3     C 9550   3.373   1.614   9.938 -1.1498  0.7669  0.2388
  645TMC3     O 9551   3.292   1.606  10.026  0.1304 -0.4204  0.5224
  645TMC3     H 9552   3.436   1.708   9.699 -0.9993  0.7956  0.0159
  645TMC3    H1 9553   3.423   1.808  10.109  0.5349  1.3371  0.3673
  645TMC3    H2 9554   3.596   2.082   9.836  0.0386 -1.0764 -1.3517
  645TMC3    C7 9555   3.575   2.016  10.108 -0.2959 -0.1093 -0.0259
  645TMC3    C8 9556   3.526   1.939   9.630  0.5562 -0.6937  0.0933
  645TMC3    O1 9557   3.519   2.006  10.214 -0.1767  0.1770  0.0569
  645TMC3    O2 9558   3.442   1.880   9.564 -0.0899 -0.6664  0.3170
  646MPD2     C 9559   1.898   0.300  14.614  0.0597 -0.1073 -1.0063
  646MPD2    C1 9560   1.917   0.323  14.746  0.3117 -0.2272  0.1650
  646MPD2    C2 9561   1.834   0.414  14.812 -0.8990  0.7007 -0.1430
  646MPD2    C3 9562   1.742   0.487  14.744  0.2207 -0.0444 -0.2165
  646MPD2    C4 9563   1.728   0.456  14.607 -0.5488  0.0189  0.0317
  646MPD2    C5 9564   1.798   0.359  14.543  0.0245 -0.6842  0.3367
  646MPD2     H 9565   1.846   0.441  14.916 -0.4754  0.8393 -0.2267
  646MPD2    H1 9566   1.639   0.485  14.552 -0.0189 -1.5777 -1.6640
  646MPD2    H2 9567   1.970   0.237  14.563 -0.3240  0.4897 -2.2911
  646MPD2    H3 9568   1.788   0.337  14.437 -1.2258  1.2501  0.0753
  646MPD2     N 9569   1.657   0.579  14.810 -0.2675  0.3485  0.2785
  646MPD2    H5 9570   1.651   0.578  14.911 -1.6869  1.0576  0.2040
  646MPD2    N1 9571   2.019   0.247  14.811 -0.2450  0.3066 -0.1169
  646MPD2    H7 9572   2.072   0.174  14.763  1.2080  2.2279 -1.4384
  647TMC3    C1 9573   2.162   0.173  14.975 -0.1975  0.1109  0.2268
  647TMC3    C2 9574   2.136   0.081  15.074  0.4714  0.0996 -0.1577
  647TMC3    C3 9575   2.227   4.707  15.102  0.6354 -1.6086 -0.3740
  647TMC3    C4 9576   2.287   0.177  14.913  0.4611 -0.3903  0.2611
  647TMC3    C5 9577   2.371   0.067  14.940  0.5830  0.5794  0.2797
  647TMC3    C6 9578   2.341   4.689  15.027 -0.3371 -0.6172 -0.8643
  647TMC3     C 9579   2.050   0.264  14.943  0.2205 -0.5505  0.2506
  647TMC3     O 9580   2.009   0.335  15.033  0.0942 -0.6589  0.0952
  647TMC3     H 9581   2.043   0.084  15.130  1.0673 -2.5897  1.0117
  647TMC3    H1 9582   2.314   0.250  14.837 -0.4331 -0.1557  0.1694
  647TMC3    H2 9583   2.420   4.621  15.057 -0.7067 -0.3999  0.6028
  647TMC3    C7 9584   2.511   0.088  14.927  0.1250 -0.2222 -0.0190
  647TMC3    C8 9585   2.212   4.629  15.223  0.0857 -0.3617 -0.6761
  647TMC3    O1 9586   2.577   4.715  14.912  0.7094 -0.2970  0.5722
  647TMC3    O2 9587   2.306   4.562  15.258 -0.5077 -0.1404 -0.0578
  648TMC3    C1 9588   1.630   2.586  16.289 -0.1068  0.2889 -0.8111
  648TMC3    C2 9589   1.616   2.453  16.258  0.0251 -0.3864  0.4375
  648TMC3    C3 9590   1.593   2.427  16.130 -0.5263  1.0786  0.8614
  648TMC3    C4 9591   1.609   2.687  16.202 -0.4957  0.0734  0.0402
  648TMC3    C5 9592   1.573   2.657  16.075  1.0878  0.6219  0.6069
  648TMC3    C6 9593   1.584   2.526  16.032  0.3473 -0.1863 -0.0202
  648TMC3     C 9594   1.655   2.622  16.420 -0.6545 -0.9091  0.5155
  648TMC3     O 9595   1.675   2.741  16.441 -0.4695 -0.2108  0.5242
  648TMC3     H 9596   1.629   2.371  16.329  0.2412 -0.9197 -0.2196
  648TMC3    H1 9597   1.606   2.789  16.239 -2.9638 -0.3889  1.1462
  648TMC3    H2 9598   1.562   2.504  15.928 -0.3000  2.8848 -0.5112
  648TMC3    C7 9599   1.512   2.749  15.977  0.6583 -0.1358 -0.6160
  648TMC3    C8 9600   1.589   2.286  16.093  0.5519  0.2220 -0.4184
  648TMC3    O1 9601   1.534   2.741  15.857 -0.3231  0.1629 -0.1963
  648TMC3    O2 9602   1.563   2.202  16.183  0.1742 -0.4280  0.5281
  649TMC3    C1 9603   1.482   3.838  12.748 -0.2692 -0.3413  0.1076
  649TMC3    C2 9604   1.618   3.842  12.738  0.1944 -0.3509  0.4456
  649TMC3    C3 9605   1.694   3.775  12.833  0.1912  0.2481  0.1830
  649TMC3    C4 9606   1.422   3.789  12.857 -0.7307  0.3176 -0.1800
  649TMC3    C5 9607   1.502   3.729  12.950 -0.2208 -0.3412  0.1684
  649TMC3    C6 9608   1.637   3.723  12.944  0.4464  0.4967  0.9072
  649TMC3     C 9609   1.406   3.925  12.655 -0.2769 -0.5748  0.1835
  649TMC3     O 9610   1.283   3.911  12.645  0.3315 -0.1955  0.5942
  649TMC3     H 9611   1.670   3.873  12.649  0.0163 -1.4376 -0.0403
  649TMC3    H1 9612   1.318   3.813  12.876 -0.5962  0.9598 -0.2374
  649TMC3    H2 9613   1.693   3.661  13.013  0.6266 -0.3826 -0.0310
  649TMC3    C7 9614   1.436   3.666  13.063 -0.1753  0.0523  0.3196
  649TMC3    C8 9615   1.825   3.735  12.785  0.3587 -0.1351  0.2336
  649TMC3    O1 9616   1.498   3.655  13.167 -0.7687  0.3200  0.7163
  649TMC3    O2 9617   1.881   3.802  12.699  0.9444 -0.1209  0.3494
  650TMC3    C1 9618   3.570   1.004  12.995 -0.0403  0.1779 -0.0035
  650TMC3    C2 9619   3.583   1.137  13.036 -0.4524 -0.5677  0.8555
  650TMC3    C3 9620   3.605   1.227  12.938 -0.7531 -0.3143  0.7838
  650TMC3    C4 9621   3.576   0.964  12.864 -0.9185  0.0697 -0.5139
  650TMC3    C5 9622   3.584   1.066  12.775  0.2523  0.3558  0.2842
  650TMC3    C6 9623   3.608   1.191  12.809  0.0974 -0.0101 -0.3604
  650TMC3     C 9624   3.562   0.900  13.095  0.6515 -0.6149  0.0695
  650TMC3     O 9625   3.533   0.936  13.211 -0.0103  0.0160  0.7608
  650TMC3     H 9626   3.577   1.168  13.140 -0.6560 -0.7969  0.9117
  650TMC3    H1 9627   3.529   0.871  12.835  0.9403 -1.2519  0.7022
  650TMC3    H2 9628   3.627   1.266  12.732  0.0697 -2.4222 -2.7106
  650TMC3    C7 9629   3.502   1.047  12.658 -0.5684 -0.1606 -0.2837
  650TMC3    C8 9630   3.603   1.373  12.966  0.0041 -0.4195  0.0155
  650TMC3    O1 9631   3.491   0.933  12.619  0.1915  0.3986  0.5895
  650TMC3    O2 9632   3.664   1.447  12.890  0.0862 -0.1245 -0.6652
  651MPD2     C 9633   2.367   2.202  10.317  0.1145  0.2546  0.2873
  651MPD2    C1 9634   2.337   2.328  10.351 -0.5781  0.1370  1.1797
  651MPD2    C2 9635   2.438   2.405  10.400 -0.1876 -0.1889 -0.4118
  651MPD2    C3 9636   2.573   2.363  10.408  0.7021 -0.0744 -0.3201
  651MPD2    C4 9637   2.595   2.233  10.370 -0.7125 -0.1553  0.3021
  651MPD2    C5 9638   2.487   2.158  10.326  0.0843 -0.3816 -0.0331
  651MPD2     H 9639   2.416   2.509  10.423 -0.6283 -0.5410  0.7497
  651MPD2    H1 9640   2.689   2.182  10.381 -0.4622  1.0991  3.9112
  651MPD2    H2 9641   2.290   2.133  10.287  2.2664 -0.6480 -3.2499
  651MPD2    H3 9642   2.500   2.059  10.285  0.7474 -0.6450  0.8124
  651MPD2     N 9643   2.669   2.455  10.455  0.0248  0.0500 -0.0983
  651MPD2    H5 9644   2.634   2.546  10.483 -0.3167  0.0558 -0.5535
  651MPD2    N1 9645   2.204   2.373  10.353 -0.5487  0.0874 -0.2338
  651MPD2    H7 9646   2.190   2.473  10.353  1.2631  0.3340 -0.7380
  652TMC3    C1 9647   3.112   2.636  10.563 -0.0940 -0.0666  0.1857
  652TMC3    C2 9648   3.035   2.528  10.523  0.6038  0.1512  0.0522
  652TMC3    C3 9649   2.902   2.550  10.500  0.0046  0.5040 -0.2207
  652TMC3    C4 9650   3.064   2.756  10.600  0.3598 -0.2881  1.1902
  652TMC3    C5 9651   2.927   2.768  10.600 -0.5767  0.1899 -0.1737
  652TMC3    C6 9652   2.848   2.676  10.541 -0.2466  0.3697  0.3402
  652TMC3     C 9653   3.241   2.598  10.597  0.0220 -0.4267 -0.4978
  652TMC3     O 9654   3.266   2.497  10.656  1.2054  0.5973 -0.0627
  652TMC3     H 9655   3.078   2.432  10.497  1.5741  0.5474  0.2090
  652TMC3    H1 9656   3.126   2.830  10.650 -1.8173  1.7428  0.8775
  652TMC3    H2 9657   2.743   2.695  10.521  0.5979  3.6253 -1.0048
  652TMC3    C7 9658   2.859   2.857  10.684  1.1190  0.4040 -0.4711
  652TMC3    C8 9659   2.809   2.435  10.462 -0.4793  0.5200  0.3628
  652TMC3    O1 9660   2.745   2.832  10.718 -0.5263  0.0193 -0.2640
  652TMC3    O2 9661   2.873   2.331  10.431 -0.0792  0.2144  0.0923
  653MPD2     C 9662   0.748   2.623   0.156  0.7777 -0.4622 -1.1095
  653MPD2    C1 9663   0.738   2.719   0.061  0.2221 -0.0908 -0.4289
  653MPD2    C2 9664   0.702   2.689  17.638 -0.0437  0.1176 -0.2313
  653MPD2    C3 9665   0.682   2.558  17.606  0.1181 -0.5615 -0.8849
  653MPD2    C4 9666   0.682   2.459  17.702  0.4853  0.2091 -0.6371
  653MPD2    C5 9667   0.712   2.490   0.126  0.3054 -0.0168  0.1881
  653MPD2     H 9668   0.688   2.763  17.560  0.2977 -0.5192 -0.8913
  653MPD2    H1 9669   0.651   2.358  17.680 -1.1554  0.4443  0.5502
  653MPD2    H2 9670   0.774   2.646   0.259 -0.8190 -2.1169 -0.3325
  653MPD2    H3 9671   0.718   2.416   0.205  0.8177  1.2068  1.3136
  653MPD2     N 9672   0.652   2.532  17.469  0.7042 -0.0193  0.0258
  653MPD2    H5 9673   0.630   2.621  17.425  0.0688 -0.7031 -1.0462
  653MPD2    N1 9674   0.775   2.858   0.097 -0.0217 -0.1865 -0.4287
  653MPD2    H7 9675   0.757   2.927   0.025 -1.0909 -0.1648 -0.1485
  654TMC3    C1 9676   0.594   2.409  17.272  0.2087  0.5271  0.0439
  654TMC3    C2 9677   0.496   2.496  17.236 -0.2880 -0.0042 -0.7811
  654TMC3    C3 9678   0.460   2.493  17.104 -0.9133  0.2595 -0.2454
  654TMC3    C4 9679   0.637   2.302  17.199  0.0301  0.8819  0.3880
  654TMC3    C5 9680   0.589   2.299  17.068  0.3334 -0.4568 -0.3193
  654TMC3    C6 9681   0.508   2.396  17.019  0.5925  0.2500 -0.0871
  654TMC3     C 9682   0.640   2.407  17.410  0.8964  0.3974 -0.7573
  654TMC3     O 9683   0.671   2.302  17.468 -0.0503 -0.5092 -0.0304
  654TMC3     H 9684   0.448   2.568  17.300  2.7131 -0.2249  1.7516
  654TMC3    H1 9685   0.725   2.250  17.236 -1.1843 -1.2419  0.2335
  654TMC3    H2 9686   0.470   2.387  16.918 -0.0445  0.3511  0.1429
  654TMC3    C7 9687   0.657   2.226  16.961 -0.9209  0.3149 -0.0209
  654TMC3    C8 9688   0.362   2.587  17.053  0.3081 -0.0671 -0.4425
  654TMC3    O1 9689   0.632   2.251  16.840 -0.0043 -0.3096  0.0478
  654TMC3    O2 9690   0.310   2.663  17.131  0.1468 -0.6677 -0.3655
  655MPD2     C 9691   2.336   2.886  15.914  0.0410 -0.0634 -0.0123
  655MPD2    C1 9692   2.238   2.929  15.822 -0.6630 -0.0345 -0.1767
  655MPD2    C2 9693   2.247   2.870  15.693  0.0124 -0.3681 -0.7977
  655MPD2    C3 9694   2.345   2.783  15.660  0.7959  0.0272 -0.2202
  655MPD2    C4 9695   2.432   2.737  15.760 -0.5602 -0.0187 -0.8302
  655MPD2    C5 9696   2.421   2.790  15.888  0.8633  0.6406 -0.5234
  655MPD2     H 9697   2.167   2.894  15.624 -0.6401  2.7879  1.0468
  655MPD2    H1 9698   2.506   2.661  15.737 -0.0823 -0.2699  1.5472
  655MPD2    H2 9699   2.330   2.932  16.012  2.2867  1.4362 -0.5699
  655MPD2    H3 9700   2.475   2.731  15.961 -1.3240 -1.2085 -0.4154
  655MPD2     N 9701   2.357   2.725  15.531 -0.5176  0.2749 -0.5620
  655MPD2    H5 9702   2.406   2.636  15.532  1.7713  1.5328  0.6197
  655MPD2    N1 9703   2.131   3.018  15.844 -0.0905 -0.5102  0.5099
  655MPD2    H7 9704   2.060   3.030  15.773  1.0714  1.1045 -0.3862
  656TMC3    C1 9705   1.968   3.131  15.977  0.7220 -0.0086 -0.1122
  656TMC3    C2 9706   1.906   3.103  16.099 -0.4134  0.1830 -0.2262
  656TMC3    C3 9707   1.797   3.174  16.121 -0.4606  0.3408  0.4751
  656TMC3    C4 9708   1.923   3.210  15.878  0.1889 -0.2542  0.4031
  656TMC3    C5 9709   1.804   3.269  15.910  0.3730  0.8136  0.1069
  656TMC3    C6 9710   1.741   3.251  16.030 -0.2374  0.4778  0.8519
  656TMC3     C 9711   2.104   3.072  15.966  0.2812  0.2586  0.2367
  656TMC3     O 9712   2.140   3.042  16.078  0.9104  0.4650  0.3561
  656TMC3     H 9713   1.941   3.028  16.169 -4.9271  1.7034  3.6151
  656TMC3    H1 9714   1.975   3.245  15.790 -2.1137  2.2896  0.0562
  656TMC3    H2 9715   1.635   3.267  16.043 -0.3851 -0.4807  0.8289
  656TMC3    C7 9716   1.746   3.358  15.814 -0.5088  0.1607  0.6325
  656TMC3    C8 9717   1.710   3.121  16.217  0.1828  0.1633  0.2819
  656TMC3    O1 9718   1.795   3.374  15.703 -0.4646  0.2065  1.2291
  656TMC3    O2 9719   1.714   3.004  16.247  0.0974  0.8161  0.0602
  657TMC3    C1 9720   1.058   2.320  15.107 -0.3265 -0.1827 -0.2153
  657TMC3    C2 9721   1.018   2.232  15.207 -0.3607 -0.6045 -0.0754
  657TMC3    C3 9722   0.899   2.267  15.272 -0.4354 -0.2650  0.0092
  657TMC3    C4 9723   0.983   2.433  15.078 -0.0027 -0.4060  0.0982
  657TMC3    C5 9724   0.868   2.460  15.152 -0.4806 -0.0060 -0.4362
  657TMC3    C6 9725   0.826   2.384  15.251 -0.6095 -0.8164  0.4329
  657TMC3     C 9726   1.165   2.289  15.011 -0.6837 -0.7389 -0.2642
  657TMC3     O 9727   1.137   2.316  14.893  0.8383  0.9381 -0.0151
  657TMC3     H 9728   1.053   2.129  15.211  0.1243 -0.4775 -1.0268
  657TMC3    H1 9729   1.010   2.489  14.990  1.0311 -1.0879 -0.0227
  657TMC3    H2 9730   0.742   2.410  15.314  0.1809  1.1092  0.6811
  657TMC3    C7 9731   0.783   2.577  15.123 -0.2031  0.7795  0.4947
  657TMC3    C8 9732   0.823   2.149  15.318 -0.8804 -0.7235 -0.2388
  657TMC3    O1 9733   0.849   2.670  15.082 -0.2729 -0.1791 -0.2166
  657TMC3    O2 9734   0.712   2.131  15.270 -0.7077 -0.5514  0.3159
  658MPD2     C 9735   2.371   2.433  14.684 -0.5192  0.2225 -0.0990
  658MPD2    C1 9736   2.378   2.550  14.746  0.5446  0.4412  0.0128
  658MPD2    C2 9737   2.390   2.661  14.666  0.4063  0.6208 -0.2976
  658MPD2    C3 9738   2.380   2.652  14.526  0.3807  0.0015  0.4281
  658MPD2    C4 9739   2.376   2.530  14.466  0.2354  0.1822 -0.1441
  658MPD2    C5 9740   2.388   2.416  14.547 -0.0843 -0.2512 -0.1643
  658MPD2     H 9741   2.403   2.758  14.714  0.0892  1.4563 -1.8977
  658MPD2    H1 9742   2.360   2.512  14.360 -1.3843 -1.8922  0.4666
  658MPD2    H2 9743   2.352   2.343  14.740  1.2201 -0.2390 -0.2586
  658MPD2    H3 9744   2.395   2.314  14.510  1.7144 -0.8450  1.8288
  658MPD2     N 9745   2.363   2.779  14.462 -0.0409  0.1603  0.2116
  658MPD2    H5 9746   2.361   2.858  14.526 -2.4920  0.3403 -0.0757
  658MPD2    N1 9747   2.337   2.540  14.879 -0.0400  0.2267  0.0089
  658MPD2    H7 9748   2.324   2.452  14.927  0.7653 -0.5758 -1.2498
  659TMC3    C1 9749   2.256   2.618  15.084 -0.1271 -0.1769  0.9157
  659TMC3    C2 9750   2.293   2.699  15.183 -0.0423  0.7793 -0.0488
  659TMC3    C3 9751   2.293   2.658  15.311  0.3219  0.0289 -0.1801
  659TMC3    C4 9752   2.193   2.502  15.116 -0.9544 -0.2445 -0.3401
  659TMC3    C5 9753   2.161   2.479  15.249  0.3494 -0.4226 -0.0298
  659TMC3    C6 9754   2.232   2.547  15.348 -0.0106  0.4888 -0.1255
  659TMC3     C 9755   2.295   2.653  14.947 -0.4428 -0.6422 -0.1196
  659TMC3     O 9756   2.293   2.772  14.916  0.0898 -0.0086 -0.4599
  659TMC3     H 9757   2.341   2.796  15.169 -0.9770  0.9020 -2.2977
  659TMC3    H1 9758   2.146   2.450  15.034  0.7596 -0.9679 -0.8669
  659TMC3    H2 9759   2.225   2.528  15.455  0.1943 -2.8964 -0.7143
  659TMC3    C7 9760   2.018   2.495  15.269 -0.3089  0.2351 -0.0529
  659TMC3    C8 9761   2.293   2.765  15.410 -0.3179  0.5691 -0.4589
  659TMC3    O1 9762   1.992   2.571  15.358 -0.0653  0.7677 -0.3070
  659TMC3    O2 9763   2.240   2.868  15.389 -0.1306  0.1022  0.2872
  660MPD2     C 9764   0.582   1.306  12.536 -0.1634  0.4974 -0.1385
  660MPD2    C1 9765   0.517   1.421  12.567 -0.2236 -0.5266 -0.3009
  660MPD2    C2 9766   0.423   1.413  12.662 -0.3217  0.3180 -0.3743
  660MPD2    C3 9767   0.398   1.290  12.721 -0.4466 -0.3738 -0.7026
  660MPD2    C4 9768   0.482   1.183  12.708 -0.0449 -0.0886 -0.4448
  660MPD2    C5 9769   0.573   1.188  12.607 -0.2347  0.4111  0.1388
  660MPD2     H 9770   0.361   1.500  12.676  0.1203  0.5548  0.1276
  660MPD2    H1 9771   0.482   1.087  12.759  1.4085 -0.3036 -0.8606
  660MPD2    H2 9772   0.641   1.301  12.445 -0.8083  1.8190 -0.6231
  660MPD2    H3 9773   0.639   1.105  12.588 -1.3380 -0.3816 -0.2128
  660MPD2     N 9774   0.293   1.279  12.816 -0.0043  0.4585 -0.1994
  660MPD2    H5 9775   0.291   1.204  12.883 -0.5630  0.0433 -0.6865
  660MPD2    N1 9776   0.543   1.539  12.492 -0.0743 -0.8919  0.2668
  660MPD2    H7 9777   0.588   1.523  12.403  0.9578 -1.2355  0.8488
  661TMC3    C1 9778   0.505   1.766  12.428  0.1709 -0.6600  0.9711
  661TMC3    C2 9779   0.557   1.741  12.307 -0.1464 -0.1247 -0.1247
  661TMC3    C3 9780   0.544   1.839  12.207 -0.6233  0.3934  0.6638
  661TMC3    C4 9781   0.413   1.868  12.448 -0.0187  0.2703  0.4474
  661TMC3    C5 9782   0.388   1.949  12.339  0.1101 -0.4875  0.6585
  661TMC3    C6 9783   0.464   1.943  12.223  0.6355  0.1466 -0.8304
  661TMC3     C 9784   0.504   1.667  12.531 -0.0507 -0.3689 -0.3115
  661TMC3     O 9785   0.461   1.702  12.640 -0.2290  0.3226 -0.1413
  661TMC3     H 9786   0.640   1.672  12.300 -2.1284 -2.5836  0.7334
  661TMC3    H1 9787   0.360   1.879  12.542 -0.0013  0.1028  0.4770
  661TMC3    H2 9788   0.412   1.985  12.138  0.8039 -0.7898 -1.3884
  661TMC3    C7 9789   0.258   1.999  12.326  0.1169  0.3425 -0.0038
  661TMC3    C8 9790   0.605   1.807  12.079 -0.1771 -0.8855  0.4533
  661TMC3    O1 9791   0.254   2.120  12.302  0.1483 -0.3070  0.3639
  661TMC3    O2 9792   0.672   1.704  12.072 -0.4007  0.3215 -0.4126
  662MPD2     C 9793   0.488   1.660  16.981  0.4530 -0.1308 -0.3051
  662MPD2    C1 9794   0.471   1.642  17.116  0.2536  1.2509 -0.0773
  662MPD2    C2 9795   0.475   1.744  17.214 -0.5241 -0.8332  0.3934
  662MPD2    C3 9796   0.478   1.880  17.176  0.2534 -0.4200 -0.2481
  662MPD2    C4 9797   0.470   1.902  17.039 -0.2481  0.2090 -0.0468
  662MPD2    C5 9798   0.487   1.796  16.950  0.1381  0.2452 -0.7305
  662MPD2     H 9799   0.467   1.724  17.320 -3.1567 -2.7345 -0.1404
  662MPD2    H1 9800   0.475   2.001  16.996  1.1477  0.1042 -0.1052
  662MPD2    H2 9801   0.474   1.593  16.896  1.7290  0.9918 -1.4090
  662MPD2    H3 9802   0.497   1.823  16.845  0.5552 -0.9078 -0.9776
  662MPD2     N 9803   0.479   1.987  17.270  0.7250  0.1645 -0.0834
  662MPD2    H5 9804   0.418   2.065  17.247 -0.5516 -0.5589  0.9056
  662MPD2    N1 9805   0.432   1.515  17.171 -0.1430  0.1717 -0.3250
  662MPD2    H7 9806   0.435   1.503  17.272 -0.2714 -0.2648 -0.3714
  663TMC3    C1 9807   0.348   1.288  17.184 -0.0595 -0.1703 -0.4511
  663TMC3    C2 9808   0.330   1.312  17.314 -0.2732 -0.7948  0.2023
  663TMC3    C3 9809   0.258   1.226  17.394  0.8873 -0.8667  0.1401
  663TMC3    C4 9810   0.279   1.186  17.119 -0.8446 -0.5039 -0.2898
  663TMC3    C5 9811   0.199   1.108  17.200 -0.6927 -0.6373 -0.0810
  663TMC3    C6 9812   0.182   1.131  17.335  0.5968 -1.1299  0.3330
  663TMC3     C 9813   0.385   1.405  17.102  0.1468 -0.5238 -0.3475
  663TMC3     O 9814   0.359   1.400  16.979  0.2915 -0.4250 -0.3317
  663TMC3     H 9815   0.384   1.381  17.378 -0.1272 -0.3656 -0.3822
  663TMC3    H1 9816   0.294   1.152  17.017  0.6103 -0.2374 -0.1527
  663TMC3    H2 9817   0.128   1.061  17.398  0.4041  0.5960  2.0911
  663TMC3    C7 9818   0.106   1.023  17.128  0.8423  0.5202  0.6800
  663TMC3    C8 9819   0.190   1.278  17.505 -0.1720 -0.1559  0.5699
  663TMC3    O1 9820   0.079   1.055  17.012 -0.2955  0.4718 -0.4282
  663TMC3    O2 9821   0.150   1.198  17.589 -0.0395 -0.7601 -0.1468
  664MPD2     C 9822   3.523   4.314   0.310 -0.2293  0.0739  0.7441
  664MPD2    C1 9823   3.587   4.437   0.299  0.4898 -0.6816  0.3708
  664MPD2    C2 9824   3.612   4.506   0.416 -0.1366  0.1240  0.3389
  664MPD2    C3 9825   3.568   4.469   0.544  0.5746 -0.4595  0.4709
  664MPD2    C4 9826   3.494   4.351   0.550 -0.1894 -0.2984  0.1256
  664MPD2    C5 9827   3.475   4.287   0.432 -0.0149 -0.2469 -0.0188
  664MPD2     H 9828   3.643   4.610   0.409  0.6195 -0.0864  0.6073
  664MPD2    H1 9829   3.448   4.309   0.639  0.5877 -1.6281 -0.1000
  664MPD2    H2 9830   3.505   4.250   0.224  2.1177  0.6420 -0.1808
  664MPD2    H3 9831   3.419   4.196   0.450  0.0624 -0.7064 -2.1546
  664MPD2     N 9832   3.582   4.559   0.650 -0.2559 -0.1025  0.6803
  664MPD2    H5 9833   3.627   4.649   0.642 -4.3666  1.9759  1.2667
  664MPD2    N1 9834   3.628   4.489   0.170  0.5991 -0.3834 -0.0406
  664MPD2    H7 9835   3.678   4.577   0.169 -1.8043  0.9554 -0.9804
  665TMC3    C1 9836   3.545   4.652   0.870  0.2011 -0.4498 -0.3272
  665TMC3    C2 9837   3.534   4.621   0.998  0.0965 -0.0382  0.5460
  665TMC3    C3 9838   3.559   4.724   1.089  0.1483  0.3875 -0.0484
  665TMC3    C4 9839   3.587   0.048   0.830  0.4013  0.3587 -0.2042
  665TMC3    C5 9840   3.602   0.145   0.923 -0.4840 -0.3388  0.4835
  665TMC3    C6 9841   3.587   0.127   1.056 -0.8163 -0.7561  0.0416
  665TMC3     C 9842   3.544   4.538   0.776 -0.2025  0.1658  0.6709
  665TMC3     O 9843   3.513   4.430   0.824  0.1201 -0.2714 -0.4967
  665TMC3     H 9844   3.503   4.522   1.029 -0.1403 -0.0056  0.4110
  665TMC3    H1 9845   3.607   0.076   0.727  4.2458 -1.7486 -0.0375
  665TMC3    H2 9846   3.602   0.206   1.129  1.3773  0.2782 -1.5104
  665TMC3    C7 9847   3.580   0.284   0.872 -0.2518  0.4518  0.1874
  665TMC3    C8 9848   3.538   4.717   1.231  0.9082 -0.1198  0.0934
  665TMC3    O1 9849   3.526   0.290   0.762  0.0804 -0.1530  0.0581
  665TMC3    O2 9850   3.551   0.086   1.305  0.0847 -0.3490  0.1800
  666TMC3    C1 9851   3.362   4.003   9.843  0.9002 -0.5185  0.1419
  666TMC3    C2 9852   3.441   3.949   9.942 -0.0867 -0.4137 -0.3013
  666TMC3    C3 9853   3.504   4.027  10.028 -0.7075 -0.4875 -0.0474
  666TMC3    C4 9854   3.353   4.132   9.823 -0.1285  0.2535  0.0998
  666TMC3    C5 9855   3.424   4.214   9.908  0.1641  0.0190  0.5221
  666TMC3    C6 9856   3.495   4.159  10.016 -0.2182 -0.0013 -0.5034
  666TMC3     C 9857   3.269   3.916   9.779  0.3650 -0.0668 -0.7790
  666TMC3     O 9858   3.234   3.959   9.668 -0.3516 -0.3130  0.3964
  666TMC3     H 9859   3.455   3.842   9.952  0.5916 -0.3628 -0.7685
  666TMC3    H1 9860   3.303   4.179   9.740  1.6009 -0.7555 -1.5219
  666TMC3    H2 9861   3.522   4.233  10.090 -0.9578  0.3903 -0.6265
  666TMC3    C7 9862   3.360   4.348   9.932 -0.0921  0.1825  0.2288
  666TMC3    C8 9863   3.542   3.964  10.156 -0.3002 -0.2275  0.2385
  666TMC3    O1 9864   3.239   4.365   9.910  0.2533  0.2729  0.3390
  666TMC3    O2 9865   3.505   3.847  10.173  0.9072  0.7232  0.1425
  667MPD2     C 9866   3.783   4.656  14.826  0.0416  0.1624 -0.4218
  667MPD2    C1 9867   3.727   4.557  14.900  0.1938  0.4306 -0.2924
  667MPD2    C2 9868   3.610   4.492  14.864 -0.0587  0.0230 -0.9477
  667MPD2    C3 9869   3.542   4.524  14.747  0.4963  0.9367  0.3331
  667MPD2    C4 9870   3.601   4.621  14.672  0.8476  0.0309  0.1093
  667MPD2    C5 9871   3.716   4.688  14.714 -0.3261 -0.5368  0.2629
  667MPD2     H 9872   3.575   4.412  14.928 -3.0843  2.8246  0.9379
  667MPD2    H1 9873   3.551   4.654  14.582 -1.0817 -0.0572  1.1527
  667MPD2    H2 9874   3.870   4.716  14.850  0.3091  0.2399 -1.6290
  667MPD2    H3 9875   3.758   0.036  14.646  0.5799  0.4328  1.8658
  667MPD2     N 9876   3.413   4.474  14.716  0.4545 -0.3863  0.3009
  667MPD2    H5 9877   3.364   4.519  14.640  1.6316  0.7344  0.1937
  667MPD2    N1 9878   3.776   4.529  15.030 -0.6293  0.4564  0.2726
  667MPD2    H7 9879   3.721   4.470  15.091  0.6593  1.5316  2.4945
  668TMC3    C1 9880   3.916   4.586  15.220  0.2168 -0.3752  0.1452
  668TMC3    C2 9881   4.040   4.606  15.267 -0.5512  0.5114  0.0279
  668TMC3    C3 9882   4.060   4.631  15.402 -0.5491 -1.0990 -0.1214
  668TMC3    C4 9883   3.810   4.574  15.302  0.0843 -0.0064  0.4667
  668TMC3    C5 9884   3.837   4.585  15.444  0.2500  0.0380  0.0190
  668TMC3    C6 9885   3.964   4.614  15.494 -0.9335 -0.1550 -0.1000
  668TMC3     C 9886   3.896   4.577  15.078 -0.2053 -0.1225 -0.4347
  668TMC3     O 9887   3.983   4.633  15.014  0.0189 -0.1633 -0.2879
  668TMC3     H 9888   4.126   4.614  15.202 -0.8336 -1.4523 -0.5755
  668TMC3    H1 9889   3.710   4.565  15.261  0.7563 -0.9306 -0.9796
  668TMC3    H2 9890   3.979   4.625  15.601  0.1306 -1.7039 -0.0928
  668TMC3    C7 9891   3.731   4.588  15.542 -0.2072 -0.0638 -0.4460
  668TMC3    C8 9892   4.186   4.687  15.452 -0.1733  0.2163 -0.6819
  668TMC3    O1 9893   3.758   4.567  15.658  0.0780 -0.3911 -0.4076
  668TMC3    O2 9894   4.192   4.681  15.576  0.0504 -0.0126 -0.0886
  669TMC3    C1 9895   1.966   4.402  14.759  0.1637 -0.1398 -1.0178
  669TMC3    C2 9896   1.930   4.330  14.650  0.7165  0.2082 -0.8407
  669TMC3    C3 9897   1.956   4.388  14.526 -0.7962  0.6485  0.1467
  669TMC3    C4 9898   2.011   4.531  14.757 -0.2414  0.4454 -0.5080
  669TMC3    C5 9899   2.029   4.592  14.640 -0.3783 -0.0367 -0.7659
  669TMC3    C6 9900   2.012   4.517  14.524  0.0160  0.6766 -0.0153
  669TMC3     C 9901   1.945   4.347  14.891 -1.3363 -0.5151 -0.1983
  669TMC3     O 9902   1.909   4.416  14.983  0.4471  0.3292 -0.0858
  669TMC3     H 9903   1.886   4.231  14.657 -0.3895  0.6546 -1.4284
  669TMC3    H1 9904   2.054   4.577  14.845 -0.3934  1.1402 -0.7960
  669TMC3    H2 9905   2.056   4.559  14.434  0.7054  1.8081  0.8478
  669TMC3    C7 9906   2.149   4.665  14.630  0.3968  0.2978  0.2523
  669TMC3    C8 9907   1.965   4.314  14.406  0.6738  0.3879 -0.2561
  669TMC3    O1 9908   2.155   0.058  14.664 -0.1488 -0.0861 -0.5162
  669TMC3    O2 9909   2.042   4.371  14.327 -0.2206 -0.0546  0.6441
  670MPD2     C 9910   0.318   2.060  13.414 -0.0267 -0.1392  0.2757
  670MPD2    C1 9911   0.439   2.119  13.437  0.0125 -0.1206  0.5203
  670MPD2    C2 9912   0.463   2.197  13.545 -0.4841  0.1986  0.1258
  670MPD2    C3 9913   0.373   2.201  13.647  0.8764 -0.2841 -0.6727
  670MPD2    C4 9914   0.251   2.138  13.626  0.2475 -0.5195  0.0060
  670MPD2    C5 9915   0.220   2.087  13.505 -0.4231  0.0868  0.2848
  670MPD2     H 9916   0.555   2.254  13.543 -1.2137  1.3450 -1.1225
  670MPD2    H1 9917   0.166   2.147  13.693 -0.4613 -0.5929 -0.8838
  670MPD2    H2 9918   0.299   1.993  13.331  1.1627 -2.0734  1.5566
  670MPD2    H3 9919   0.118   2.050  13.499 -0.4229  0.1311  0.0129
  670MPD2     N 9920   0.416   2.259  13.769  0.3422 -0.2238  0.2291
  670MPD2    H5 9921   0.510   2.297  13.772  0.8363 -1.3605 -0.6240
  670MPD2    N1 9922   0.545   2.092  13.347  0.3344  0.7216  0.5866
  670MPD2    H7 9923   0.617   2.163  13.356  0.5187  0.5550  0.4409
  671TMC3    C1 9924   0.405   2.310  13.992 -0.0584  0.0222  0.3233
  671TMC3    C2 9925   0.535   2.265  14.005 -0.4047 -0.1279 -0.1649
  671TMC3    C3 9926   0.577   2.237  14.136  0.7083 -0.4622  0.2170
  671TMC3    C4 9927   0.324   2.313  14.103 -0.6711  0.4322  1.0523
  671TMC3    C5 9928   0.369   2.279  14.229 -0.3093  0.3308 -0.3814
  671TMC3    C6 9929   0.498   2.242  14.245 -0.1110  0.5462  0.4136
  671TMC3     C 9930   0.333   2.270  13.877 -0.3645  0.2462 -0.6585
  671TMC3     O 9931   0.211   2.257  13.884 -0.0197  0.0661  0.4351
  671TMC3     H 9932   0.602   2.244  13.922 -0.1151 -1.0697  0.2983
  671TMC3    H1 9933   0.224   2.350  14.086  0.6399  3.1470 -0.7080
  671TMC3    H2 9934   0.543   2.218  14.340 -1.3071 -1.5426  0.4701
  671TMC3    C7 9935   0.267   2.203  14.283  0.4289  0.6272 -0.4729
  671TMC3    C8 9936   0.688   2.141  14.160  0.8627  0.4634  0.6784
  671TMC3    O1 9937   0.160   2.201  14.223  0.2613 -0.5893  0.0207
  671TMC3    O2 9938   0.669   2.046  14.231  0.0449  0.6098  0.8657
  672MPD2     C 9939   1.210   2.458   1.497 -0.3442  0.4326 -0.1820
  672MPD2    C1 9940   1.329   2.412   1.461  0.0318  0.6253 -0.0944
  672MPD2    C2 9941   1.448   2.476   1.501  0.2879  0.4666  0.6577
  672MPD2    C3 9942   1.442   2.586   1.583 -0.0448 -0.3813 -0.1333
  672MPD2    C4 9943   1.318   2.632   1.624 -0.5796  1.1698 -0.0547
  672MPD2    C5 9944   1.202   2.569   1.576  1.1618  0.7608 -0.8015
  672MPD2     H 9945   1.545   2.440   1.468 -0.4108 -0.1174 -0.7335
  672MPD2    H1 9946   1.305   2.722   1.682 -1.7708  0.3815  0.8835
  672MPD2    H2 9947   1.119   2.408   1.467 -0.7856  0.6210  0.8461
  672MPD2    H3 9948   1.106   2.607   1.607  0.8988 -1.0139  0.5698
  672MPD2     N 9949   1.555   2.663   1.612  0.8823  0.4744 -0.3437
  672MPD2    H5 9950   1.539   2.756   1.650 -0.0420 -0.7474  2.2425
  672MPD2    N1 9951   1.337   2.315   1.363  0.1626  0.0885  0.1410
  672MPD2    H7 9952   1.437   2.299   1.353 -0.0536 -1.9798  1.2725
  673TMC3    C1 9953   1.289   2.219   1.155  0.5645 -0.3121  0.0137
  673TMC3    C2 9954   1.371   2.114   1.170  0.8345  0.5305  0.3207
  673TMC3    C3 9955   1.413   2.055   1.059  0.2171  0.4719  0.1051
  673TMC3    C4 9956   1.255   2.265   1.029  0.0062  0.7671 -0.8432
  673TMC3    C5 9957   1.295   2.196   0.919  1.1534  0.2366 -0.4756
  673TMC3    C6 9958   1.380   2.088   0.934 -0.3300  0.4707 -0.0211
  673TMC3     C 9959   1.242   2.286   1.269  0.6017 -0.7963 -1.2445
  673TMC3     O 9960   1.141   2.345   1.243  0.4825 -0.0998 -0.2449
  673TMC3     H 9961   1.400   2.077   1.268  0.8842  0.8009  0.4095
  673TMC3    H1 9962   1.202   2.358   1.023 -2.8188 -0.7833  0.1530
  673TMC3    H2 9963   1.415   2.044   0.841  1.3639  0.2659  0.7001
  673TMC3    C7 9964   1.238   2.214   0.787 -0.3529  0.3209 -0.6631
  673TMC3    C8 9965   1.508   1.948   1.066  0.7350 -0.4861 -0.5984
  673TMC3    O1 9966   1.267   2.142   0.693  0.3063 -0.2290 -0.4386
  673TMC3    O2 9967   1.516   1.872   0.975  0.1019 -0.4586 -0.4785
  674MPD2     C 9968   1.296   1.394   0.202 -0.0184 -0.1242 -0.5424
  674MPD2    C1 9969   1.165   1.448   0.198  0.1460 -0.2044  0.6366
  674MPD2    C2 9970   1.133   1.532   0.304 -0.1367 -0.6504  0.1599
  674MPD2    C3 9971   1.216   1.552   0.416  0.3464 -0.4867  0.4620
  674MPD2    C4 9972   1.338   1.490   0.425  0.2645 -0.4566  0.2406
  674MPD2    C5 9973   1.378   1.412   0.315  0.4587  0.8547  0.0093
  674MPD2     H 9974   1.050   1.601   0.296  0.1841 -0.2804  0.0415
  674MPD2    H1 9975   1.414   1.509   0.499 -0.0404 -0.0942  0.4561
  674MPD2    H2 9976   1.343   1.332   0.125  1.1010  1.8138 -1.4204
  674MPD2    H3 9977   1.477   1.367   0.320  1.0101  2.3200  2.1748
  674MPD2     N 9978   1.173   1.646   0.512 -0.1024  0.3492  0.2500
  674MPD2    H5 9979   1.087   1.691   0.483 -0.2138  1.6024  2.5209
  674MPD2    N1 9980   1.092   1.430   0.083 -0.1388 -0.4307  0.6408
  674MPD2    H7 9981   1.145   1.399   0.002 -0.7799  0.1753 -0.0067
  675TMC3    C1 9982   0.892   1.464  17.654 -1.1824 -0.4165  0.2138
  675TMC3    C2 9983   0.754   1.460  17.660 -0.7801  0.3274 -0.3039
  675TMC3    C3 9984   0.688   1.490  17.546  0.8561  0.2913  0.0070
  675TMC3    C4 9985   0.960   1.518  17.545 -0.0469 -0.3451 -0.0738
  675TMC3    C5 9986   0.884   1.571  17.443 -0.7811 -0.3410  0.5251
  675TMC3    C6 9987   0.748   1.547  17.434 -0.7432 -0.8688  0.3253
  675TMC3     C 9988   0.958   1.464   0.081 -0.2017 -0.7160 -0.1600
  675TMC3     O 9989   0.880   1.480   0.175  0.0549 -0.2571  0.3432
  675TMC3     H 9990   0.716   1.397   0.034 -4.2672  2.5724 -0.1787
  675TMC3    H1 9991   1.066   1.539  17.556  0.1691 -1.0124 -0.9116
  675TMC3    H2 9992   0.694   1.589  17.350 -2.4732 -0.6674  1.5316
  675TMC3    C7 9993   0.945   1.637  17.326 -0.8026 -0.0576  0.2663
  675TMC3    C8 9994   0.553   1.533  17.568  0.3407  0.2512  0.3936
  675TMC3    O1 9995   0.873   1.653  17.226 -0.3031 -0.1921  0.3215
  675TMC3    O2 9996   0.482   1.557  17.468 -0.1571 -0.2179  0.7649
  676MPD2     C 9997   3.874   0.435  11.618 -0.3612  0.3295 -0.2222
  676MPD2    C1 9998   3.748   0.427  11.559  0.2505 -0.0521  0.0042
  676MPD2    C2 9999   3.731   0.325  11.464  0.1287  0.9133 -0.2214
  676MPD2    C310000   3.840   0.246  11.417  0.9422 -0.3709 -0.2298
  676MPD2    C410001   3.956   0.247  11.489 -0.0103  0.4174 -0.5976
  676MPD2    C510002   3.971   0.344  11.591 -0.3782 -0.9778 -0.0012
  676MPD2     H10003   3.632   0.324  11.419  0.6521  2.3273 -1.4167
  676MPD2    H110004   4.044   0.188  11.465  0.3074  0.1127  1.3284
  676MPD2    H210005   3.890   0.510  11.694  0.5455 -0.4236  0.3319
  676MPD2    H310006   4.069   0.348  11.638 -0.1278  1.8418 -0.7789
  676MPD2     N10007   3.836   0.149  11.312  0.8324 -0.3786  0.1167
  676MPD2    H510008   3.918   0.094  11.286 -0.6187 -1.9664 -1.0393
  676MPD2    N110009   3.647   0.524  11.593  0.5225  0.4102 -0.7109
  676MPD2    H710010   3.683   0.598  11.652  0.1382  0.5799 -0.6903
  677TMC3    C110011   3.427   0.582  11.653 -0.0263  0.2148  0.2444
  677TMC3    C210012   3.303   0.524  11.669 -0.1686 -0.9783 -0.0440
  677TMC3    C310013   3.209   0.606  11.722 -0.1331  0.4586  0.6131
  677TMC3    C410014   3.454   0.712  11.695 -0.5495  0.7042 -0.1293
  677TMC3    C510015   3.353   0.791  11.742 -0.2253 -0.2860 -0.3410
  677TMC3    C610016   3.229   0.739  11.751  0.0251  0.5201 -1.0341
  677TMC3     C10017   3.509   0.510  11.556 -0.2458 -0.9548 -0.4979
  677TMC3     O10018   3.446   0.438  11.479 -0.4823 -0.1768 -0.0582
  677TMC3     H10019   3.278   0.424  11.636 -0.7335 -0.5549 -0.9096
  677TMC3    H110020   3.554   0.748  11.676 -0.6066  1.8610  1.8239
  677TMC3    H210021   3.146   0.807  11.767  1.2637  1.7047  0.3868
  677TMC3    C710022   3.389   0.895  11.842  0.5591 -0.0618  0.3810
  677TMC3    C810023   3.086   0.536  11.758 -0.0063  0.5495  0.4498
  677TMC3    O110024   3.308   0.921  11.931 -0.4111 -0.1301  0.4007
  677TMC3    O210025   3.048   0.458  11.674 -0.1043 -0.5467  0.3078
  678MPD2     C10026   0.122   1.183   1.902  0.5057 -0.1293 -0.0953
  678MPD2    C110027   0.082   1.173   1.768  0.2908  0.2068  0.1789
  678MPD2    C210028   4.671   1.185   1.748 -0.1418  0.6145  0.5515
  678MPD2    C310029   4.572   1.213   1.841  0.2437  0.5227 -0.2039
  678MPD2    C410030   4.606   1.200   1.967 -0.3742 -1.1984  0.1811
  678MPD2    C510031   0.015   1.186   1.993  0.0790 -0.0806  0.3127
  678MPD2     H10032   4.642   1.191   1.644  0.4109 -0.8494  0.3055
  678MPD2    H110033   4.526   1.190   2.039  1.1610 -1.9060  1.7911
  678MPD2    H210034   0.225   1.177   1.937  0.0190  2.8275  1.8530
  678MPD2    H310035   0.034   1.182   2.100  0.4753  0.9079  0.2871
  678MPD2     N10036   4.447   1.254   1.796 -0.0404 -0.4736  0.1383
  678MPD2    H510037   4.420   1.248   1.698  1.6191  0.4639 -0.3810
  678MPD2    N110038   0.175   1.163   1.664 -0.3232  0.3420 -0.1504
  678MPD2    H710039   0.134   1.153   1.572 -0.4711 -0.8362  0.0408
  679TMC3    C110040   0.564   1.015   1.469 -0.2198 -0.5763  0.6073
  679TMC3    C210041   0.493   1.053   1.579 -0.1729  0.4077 -0.2179
  679TMC3    C310042   0.383   1.134   1.564 -0.0576  0.3280  0.3716
  679TMC3    C410043   0.530   1.066   1.347  0.4648 -0.2790 -0.0887
  679TMC3    C510044   0.425   1.158   1.343  0.7074  0.0886 -0.0724
  679TMC3    C610045   0.347   1.192   1.449 -0.1447 -0.0194  0.2465
  679TMC3     C10046   0.679   0.925   1.491 -0.3070  0.5286  0.1243
  679TMC3     O10047   0.693   0.880   1.606  0.1222 -0.3694  0.3555
  679TMC3     H10048   0.530   1.025   1.677  1.4171 -1.1672 -1.2721
  679TMC3    H110049   0.578   1.024   1.260  0.3454  2.0183 -1.2700
  679TMC3    H210050   0.263   1.260   1.440  0.5640  0.7238 -0.8088
  679TMC3    C710051   0.381   1.203   1.210 -0.2231  0.5216 -0.3082
  679TMC3    C810052   0.314   1.161   1.686 -0.2322  0.2852 -0.3974
  679TMC3    O110053   0.276   1.268   1.202  0.1566 -0.3742 -0.0902
  679TMC3    O210054   0.386   1.164   1.787 -0.8072 -0.7537 -0.7901
  680MPD2     C10055   1.340   4.073  14.080  0.9623 -0.0879  0.2947
  680MPD2    C110056   1.213   4.085  14.025  0.3483  0.3240  0.1416
  680MPD2    C210057   1.148   4.191  14.082  0.5454 -0.0730  0.4396
  680MPD2    C310058   1.207   4.290  14.162 -0.1543 -0.7961  0.0179
  680MPD2    C410059   1.332   4.262  14.209 -0.2152 -0.0053  0.6607
  680MPD2    C510060   1.402   4.154  14.173 -0.5800 -0.2160 -0.3831
  680MPD2     H10061   1.050   4.209  14.040  0.6605  1.8607  0.9930
  680MPD2    H110062   1.384   4.331  14.274  0.0594  1.4943 -1.1685
  680MPD2    H210063   1.407   3.991  14.056  0.9056 -0.2287  0.6168
  680MPD2    H310064   1.503   4.144  14.211 -0.1581 -0.5692 -1.5868
  680MPD2     N10065   1.136   4.406  14.202 -0.3819  0.4743 -0.0740
  680MPD2    H510066   1.183   4.462  14.272 -1.4936  1.1828  0.1050
  680MPD2    N110067   1.145   3.990  13.936  0.1174  0.2840 -0.1010
  680MPD2    H710068   1.046   3.998  13.915  0.7227  0.1246 -2.9839
  681TMC3    C110069   1.115   3.787  13.813  0.5172 -0.0697 -0.2391
  681TMC3    C210070   0.978   3.790  13.841  0.7516  0.3393 -0.1395
  681TMC3    C310071   0.900   3.693  13.787  0.2307 -0.6061 -0.2746
  681TMC3    C410072   1.166   3.685  13.739 -0.2801 -0.1122 -0.0423
  681TMC3    C510073   1.083   3.584  13.704 -0.0899  0.0711 -0.5121
  681TMC3    C610074   0.953   3.582  13.729  0.2962  0.4118  0.2562
  681TMC3     C10075   1.208   3.879  13.879  0.6990 -0.0438 -0.4984
  681TMC3     O10076   1.322   3.838  13.886 -0.7958  0.0996 -0.4242
  681TMC3     H10077   0.939   3.854  13.919 -2.2740 -0.8863 -0.6532
  681TMC3    H110078   1.274   3.681  13.724 -0.0000 -1.3837  2.2746
  681TMC3    H210079   0.888   3.519  13.670 -0.2488  0.7854  0.4548
  681TMC3    C710080   1.115   3.506  13.588  0.9639  0.0045  0.1163
  681TMC3    C810081   0.751   3.703  13.769 -0.5250 -0.7735 -0.1037
  681TMC3    O110082   1.094   3.388  13.598 -0.5740  0.1997 -0.0033
  681TMC3    O210083   0.689   3.611  13.718  0.3751 -0.0356  0.1425
  682MPD2     C10084   2.956   0.614  10.785  0.5087  0.0718  0.2899
  682MPD2    C110085   2.892   0.488  10.784 -0.1330  0.6709  0.4581
  682MPD2    C210086   2.827   0.446  10.895 -0.9957 -0.9193  0.1096
  682MPD2    C310087   2.823   0.530  11.009 -0.4530  0.1612  1.2662
  682MPD2    C410088   2.892   0.649  11.012  0.2091 -0.4419 -0.5623
  682MPD2    C510089   2.953   0.690  10.899 -0.3273 -0.1097 -0.3388
  682MPD2     H10090   2.773   0.352  10.900  0.5786 -1.9837 -3.3013
  682MPD2    H110091   2.893   0.717  11.096 -2.9810  0.3101 -1.1300
  682MPD2    H210092   2.986   0.667  10.695  1.3574 -1.7169 -0.4929
  682MPD2    H310093   2.989   0.792  10.892  1.8900 -0.7912  0.8664
  682MPD2     N10094   2.750   0.500  11.129 -0.4700 -0.3286  0.3497
  682MPD2    H510095   2.742   0.575  11.197  0.3542 -0.6499  0.7955
  682MPD2    N110096   2.878   0.410  10.664 -0.9807 -0.3035 -0.1114
  682MPD2    H710097   2.807   0.338  10.668  0.1798 -1.3787  1.1272
  683TMC3    C110098   2.567   0.473  11.492 -0.3770  0.5778 -0.4331
  683TMC3    C210099   2.517   0.357  11.532  0.3024 -0.5190 -0.5446
  683TMC3    C310100   2.519   0.246  11.436  0.7406 -0.9501 -0.5343
  683TMC3    C410101   2.612   0.488  11.367  0.3874  0.0162  0.2385
  683TMC3    C510102   2.601   0.386  11.275  0.2577 -0.2349  0.3100
  683TMC3    C610103   2.553   0.269  11.307  0.1406  0.1867 -0.3734
  683TMC3     C10104   2.570   0.587  11.578  0.5827  0.5876  0.2695
  683TMC3     O10105   2.537   0.556  11.696  0.3286  0.1204 -0.5081
  683TMC3     H10106   2.475   0.352  11.632 -0.2242  2.6147 -0.6118
  683TMC3    H110107   2.660   0.579  11.334 -1.3148  1.3998  1.5481
  683TMC3    H210108   2.532   0.183  11.244 -1.9155 -0.2229  0.8821
  683TMC3    C710109   2.677   0.382  11.150  0.5287  0.7681 -0.4047
  683TMC3    C810110   2.418   0.142  11.451 -0.0194 -0.0394 -0.2145
  683TMC3    O110111   2.683   0.276  11.093 -0.7130 -0.0982  0.2432
  683TMC3    O210112   2.341   0.139  11.354 -0.2448 -0.2189  0.2458
  684MPD2     C10113   0.585   0.298  15.709 -0.5372 -0.0407  0.0765
  684MPD2    C110114   0.645   0.271  15.840 -0.7180  0.2339  0.2439
  684MPD2    C210115   0.725   0.365  15.904 -0.7975  0.0548 -0.0157
  684MPD2    C310116   0.760   0.483  15.846 -0.1930  0.5441 -0.4869
  684MPD2    C410117   0.708   0.510  15.723  0.6966 -0.3045 -0.6589
  684MPD2    C510118   0.621   0.422  15.661  0.6507  0.5120 -0.5938
  684MPD2     H10119   0.755   0.334  16.004 -1.2497 -1.1149 -0.2551
  684MPD2    H110120   0.705   0.605  15.671  1.9120 -0.6089 -1.2932
  684MPD2    H210121   0.518   0.229  15.660  1.3252 -0.2314 -2.2093
  684MPD2    H310122   0.567   0.451  15.572 -0.6555  0.3603  0.1460
  684MPD2     N10123   0.828   0.589  15.912 -0.3166 -0.2153  0.5129
  684MPD2    H510124   0.829   0.677  15.861  0.7621 -1.0105 -0.8180
  684MPD2    N110125   0.617   0.156  15.921  0.8331 -0.2786 -0.5913
  684MPD2    H710126   0.675   0.131  16.000 -1.4329 -2.3644  0.4067
  685TMC3    C110127   0.515   4.700  16.010 -0.4398 -0.6569  0.0468
  685TMC3    C210128   0.398   4.644  16.044  0.2888  0.1867 -0.0357
  685TMC3    C310129   0.393   4.560  16.153 -0.2146 -0.6991  0.8828
  685TMC3    C410130   0.635   4.660  16.055 -0.9799  0.5670  0.2197
  685TMC3    C510131   0.628   4.590  16.173  0.2009 -0.3393  0.2882
  685TMC3    C610132   0.508   4.532  16.221  0.2449 -0.0907 -0.2868
  685TMC3     C10133   0.506   0.078  15.906 -0.4578  0.4326 -0.6450
  685TMC3     O10134   0.406   0.090  15.837  0.2389  0.3784  0.1564
  685TMC3     H10135   0.309   4.665  15.984  0.8828 -1.6840 -1.5563
  685TMC3    H110136   0.727   4.700  16.013 -1.7791  0.9923 -1.0915
  685TMC3    H210137   0.499   4.480  16.315 -0.9454 -1.7266 -1.3111
  685TMC3    C710138   0.753   4.526  16.217  0.0770  0.2078  0.3808
  685TMC3    C810139   0.274   4.484  16.169 -0.1246 -0.8587 -0.1009
  685TMC3    O110140   0.852   4.531  16.145  0.2997 -0.1217 -0.7771
  685TMC3    O210141   0.299   4.383  16.237 -0.0719  0.3317  0.0073
  686MPD2     C10142   1.872   4.671  15.840 -0.0656 -0.9720  0.2210
  686MPD2    C110143   1.898   4.626  15.973  0.3799  0.2293 -0.7036
  686MPD2    C210144   2.023   4.571  16.007  0.1291 -0.1167  0.1980
  686MPD2    C310145   2.106   4.549  15.901  0.2918  0.6825  0.0014
  686MPD2    C410146   2.093   4.610  15.782 -0.9216 -1.1647  0.3410
  686MPD2    C510147   1.974   4.668  15.749 -0.1039 -0.0654 -0.2962
  686MPD2     H10148   2.034   4.539  16.110  4.8806 -0.6467 -0.4986
  686MPD2    H110149   2.168   4.602  15.705 -0.7281 -0.5876  0.4741
  686MPD2    H210150   1.779   4.713  15.804  0.1302 -0.3390  0.4568
  686MPD2    H310151   1.966   4.724  15.656 -1.1828  0.5069  0.1455
  686MPD2     N10152   2.225   4.470  15.909 -0.2955 -0.5201 -0.2606
  686MPD2    H510153   2.295   4.480  15.837  0.7792 -0.2146  0.8278
  686MPD2    N110154   1.785   4.613  16.056 -0.0387 -0.1770 -0.1845
  686MPD2    H710155   1.697   4.642  16.014 -0.2002 -0.6186 -0.1548
  687TMC3    C110156   2.155   4.317  16.091  1.2037 -0.5484 -0.1134
  687TMC3    C210157   2.040   4.265  16.039  0.4268 -0.3059 -0.2841
  687TMC3    C310158   1.948   4.214  16.127  0.2262  0.6767  0.3187
  687TMC3    C410159   2.192   4.310  16.222  0.5033 -0.0466  0.5868
  687TMC3    C510160   2.099   4.260  16.310  0.6272 -0.6283 -0.2848
  687TMC3    C610161   1.980   4.207  16.264 -0.4729 -0.2463 -0.0264
  687TMC3     C10162   2.256   4.370  16.005  0.3679 -0.6949  0.1412
  687TMC3     O10163   2.357   4.298  15.993  0.3409  0.1745  0.1759
  687TMC3     H10164   2.012   4.291  15.937 -0.3358 -3.5069 -0.8945
  687TMC3    H110165   2.287   4.355  16.251  0.7520 -0.6607  0.7281
  687TMC3    H210166   1.910   4.157  16.330 -0.9970 -1.2799 -1.3775
  687TMC3    C710167   2.110   4.269  16.458 -0.2376  0.5323  0.5454
  687TMC3    C810168   1.806   4.216  16.095  0.0858 -0.2499 -0.1440
  687TMC3    O110169   2.015   4.213  16.517  0.4215 -0.5904  0.1444
  687TMC3    O210170   1.734   4.171  16.181 -0.4882 -0.0671 -0.1462
  688MPD2     C10171   0.861   3.426  17.387 -0.2816  0.4333  0.0200
  688MPD2    C110172   0.926   3.316  17.448 -0.1401 -0.0786  0.0774
  688MPD2    C210173   1.025   3.256  17.372 -0.2143 -0.3511 -0.2710
  688MPD2    C310174   1.084   3.316  17.256 -0.1954  0.7806  0.4913
  688MPD2    C410175   1.027   3.428  17.209  0.1405  0.6186  0.6752
  688MPD2    C510176   0.912   3.470  17.271  0.2012 -0.2883  0.1055
  688MPD2     H10177   1.071   3.165  17.408  0.3174 -0.4194 -1.1278
  688MPD2    H110178   1.062   3.476  17.118  0.9638 -0.1892  0.5637
  688MPD2    H210179   0.767   3.475  17.411 -0.3665  0.1576  0.2565
  688MPD2    H310180   0.856   3.557  17.238  1.7117  0.5117 -0.3348
  688MPD2     N10181   1.195   3.261  17.190 -0.3313 -0.4640 -0.4753
  688MPD2    H510182   1.226   3.298  17.100 -0.3089  0.5193 -0.0634
  688MPD2    N110183   0.892   3.259  17.570 -0.5325  0.0120  0.3486
  688MPD2    H710184   0.942   3.181  17.610 -1.4148 -0.7424 -0.0142
  689TMC3    C110185   0.799   3.242   0.075  0.1297 -0.0925 -0.5240
  689TMC3    C210186   0.828   3.315   0.191 -0.6970  0.1780  0.1485
  689TMC3    C310187   0.871   3.249   0.308  0.1688 -0.1556  0.5923
  689TMC3    C410188   0.835   3.108   0.075  0.5626  1.0328  0.1500
  689TMC3    C510189   0.880   3.046   0.186  0.4053  0.3356  0.5119
  689TMC3    C610190   0.909   3.120   0.298  0.1407 -0.1078 -0.4227
  689TMC3     C10191   0.799   3.315  17.654  0.2883  0.2780  0.1325
  689TMC3     O10192   0.772   3.430  17.664 -0.1974 -0.1311 -0.3169
  689TMC3     H10193   0.828   3.423   0.183  0.1515  0.1644 -0.0439
  689TMC3    H110194   0.824   3.049  17.690 -1.0685  1.4332  0.0876
  689TMC3    H210195   0.937   3.062   0.385  0.0699  1.7585  0.8461
  689TMC3    C710196   0.851   2.901   0.198 -0.1096  0.0041  0.4581
  689TMC3    C810197   0.878   3.309   0.437 -0.4953  0.0422  0.2583
  689TMC3    O110198   0.905   2.840   0.292 -0.1951 -0.2343  0.0376
  689TMC3    O210199   0.924   3.242   0.529 -0.0376 -0.7024  0.4721
  690MPD2     C10200   2.733   0.611  15.290 -0.2096 -0.1034 -0.3833
  690MPD2    C110201   2.832   0.556  15.364  0.1540 -0.3382 -0.5145
  690MPD2    C210202   2.970   0.577  15.331  0.3459 -0.0393  0.5153
  690MPD2    C310203   3.001   0.661  15.223  0.8089  0.3832 -0.1221
  690MPD2    C410204   2.899   0.714  15.153 -0.4617 -0.0182  0.1283
  690MPD2    C510205   2.766   0.695  15.186  0.0500 -0.4827  0.2491
  690MPD2     H10206   3.048   0.536  15.394 -1.1749 -1.1217  1.6997
  690MPD2    H110207   2.925   0.784  15.074 -0.7050 -0.3043 -0.1999
  690MPD2    H210208   2.626   0.602  15.306 -0.2334  2.0063  0.6699
  690MPD2    H310209   2.700   0.748  15.118 -1.3109 -2.7383 -0.1864
  690MPD2     N10210   3.133   0.703  15.225 -0.6720 -0.4284 -0.0193
  690MPD2    H510211   3.187   0.650  15.293 -0.7953  1.0507  1.2253
  690MPD2    N110212   2.809   0.472  15.474  0.1767  0.1810  0.3843
  690MPD2    H710213   2.889   0.419  15.507  0.1559  0.3228  0.6589
  691TMC3    C110214   2.696   0.330  15.625  0.4814 -0.3173 -0.3172
  691TMC3    C210215   2.614   0.344  15.731 -0.2098  0.0299  0.6951
  691TMC3    C310216   2.615   0.255  15.830 -0.0042  0.1532 -0.5370
  691TMC3    C410217   2.788   0.229  15.620 -0.0322  0.1044 -0.4851
  691TMC3    C510218   2.764   0.128  15.708 -0.0872  0.5771  0.0508
  691TMC3    C610219   2.683   0.140  15.813  0.8161 -0.0380  0.1303
  691TMC3     C10220   2.688   0.435  15.527 -0.6627  0.2821 -0.0744
  691TMC3     O10221   2.578   0.476  15.501  0.3861  0.7204 -0.0258
  691TMC3     H10222   2.550   0.432  15.733  0.3958  0.4865  0.2817
  691TMC3    H110223   2.844   0.211  15.529  0.0909 -0.3624 -0.3146
  691TMC3    H210224   2.690   0.065  15.891  0.1902 -1.4544 -1.1752
  691TMC3    C710225   2.818   0.004  15.679  0.3700  0.4489  0.5246
  691TMC3    C810226   2.486   0.229  15.892 -0.1465  0.2423 -0.0542
  691TMC3    O110227   2.924   4.724  15.617 -0.0379  0.4079  0.0554
  691TMC3    O210228   2.467   0.109  15.917 -0.2204  0.0946 -0.4954
  692TMC3    C110229   0.219   1.863  15.989 -0.1890 -0.2546  1.0511
  692TMC3    C210230   0.335   1.905  16.039 -0.1345 -0.2194 -0.1998
  692TMC3    C310231   0.445   1.830  16.027 -0.6516 -0.2312 -0.4427
  692TMC3    C410232   0.201   1.750  15.914  0.3763  0.1621 -0.4731
  692TMC3    C510233   0.315   1.671  15.912  0.3664  0.2610 -0.1474
  692TMC3    C610234   0.431   1.706  15.979  0.6724  0.0079  0.3013
  692TMC3     C10235   0.099   1.934  16.017  0.2847 -0.1184  0.0214
  692TMC3     O10236   4.723   1.876  15.986 -0.3042 -0.0348 -0.0006
  692TMC3     H10237   0.336   1.996  16.099  0.4682  0.5833 -1.4232
  692TMC3    H110238   0.113   1.740  15.851 -0.1990 -0.9216  0.4840
  692TMC3    H210239   0.518   1.648  15.950 -0.0883 -0.9064 -0.1662
  692TMC3    C710240   0.284   1.534  15.871  0.6975 -0.5991  0.2865
  692TMC3    C810241   0.541   1.830  16.135  0.1613 -0.1566 -0.1217
  692TMC3    O110242   0.174   1.514  15.809  0.1482 -0.3623 -0.0276
  692TMC3    O210243   0.576   1.726  16.185  0.2403 -0.0145  0.0346
  693MPD2     C10244   4.666   4.407  10.750 -0.6874  0.1234 -0.9325
  693MPD2    C110245   4.648   4.283  10.793 -0.3030 -0.4742 -0.3525
  693MPD2    C210246   0.032   4.222  10.851 -0.5376 -0.7724 -0.1565
  693MPD2    C310247   0.152   4.283  10.857  0.3366 -0.3368 -0.3080
  693MPD2    C410248   0.170   4.407  10.815  0.2357  0.7441  0.2831
  693MPD2    C510249   0.058   4.476  10.768  0.0321  0.5519 -0.1046
  693MPD2     H10250   0.015   4.119  10.882  1.9395 -0.3505  2.5347
  693MPD2    H110251   0.264   4.460  10.823 -0.7418  2.8395 -2.3873
  693MPD2    H210252   4.579   4.462  10.714 -1.5683 -1.2003 -0.8027
  693MPD2    H310253   0.067   4.580  10.739  0.8771  0.1451 -1.3096
  693MPD2     N10254   0.249   4.202  10.914  0.5992  0.3502 -0.5271
  693MPD2    H510255   0.220   4.110  10.947 -1.4054  1.3634  0.5228
  693MPD2    N110256   4.516   4.224  10.801  0.7014 -0.6334  0.4505
  693MPD2    H710257   4.435   4.282  10.782  1.7253  1.1525  1.5874
  694TMC3    C110258   4.372   4.054  10.867  0.2119 -0.4158  0.3345
  694TMC3    C210259   4.301   3.954  10.809  0.0649 -0.0333 -0.3576
  694TMC3    C310260   4.192   3.895  10.876  0.2617 -0.1454  0.1721
  694TMC3    C410261   4.336   4.117  10.987  0.5483 -0.5182 -0.2197
  694TMC3    C510262   4.240   4.056  11.056  0.5397 -0.1595  0.5385
  694TMC3    C610263   4.168   3.949  11.000  0.2650  0.2208  0.1009
  694TMC3     C10264   4.500   4.088  10.813  0.0734  0.4916  0.1775
  694TMC3     O10265   4.581   3.998  10.783 -0.1605  0.4293 -0.0572
  694TMC3     H10266   4.344   3.932  10.712  0.5110  0.2034 -0.2118
  694TMC3    H110267   4.396   4.190  11.039 -1.8148 -0.7563  2.8607
  694TMC3    H210268   4.078   3.913  11.048  0.1538  0.0831 -0.2148
  694TMC3    C710269   4.235   4.083  11.199  0.7076 -0.2947 -0.1892
  694TMC3    C810270   4.117   3.795  10.810 -0.1455  0.6633  0.2659
  694TMC3    O110271   4.300   4.177  11.241  0.5619 -0.1482  0.1161
  694TMC3    O210272   4.041   3.730  10.879 -0.0724  0.5228 -0.1408
  695MPD2     C10273   0.366   1.121  13.982 -0.3755  0.7540 -0.1679
  695MPD2    C110274   0.408   1.243  14.033 -0.5042  0.5699 -0.4787
  695MPD2    C210275   0.307   1.334  14.073 -0.2543 -1.0982 -0.4837
  695MPD2    C310276   0.179   1.312  14.042  0.0432  0.3143 -0.3430
  695MPD2    C410277   0.144   1.194  13.979  0.0641 -0.6536 -0.4144
  695MPD2    C510278   0.235   1.102  13.953 -0.0662  0.4472  0.5753
  695MPD2     H10279   0.338   1.429  14.116 -1.6797  0.2379 -2.3745
  695MPD2    H110280   0.040   1.177  13.953 -0.0471  1.4323 -1.3438
  695MPD2    H210281   0.445   1.051  13.956 -2.0421 -0.6505 -1.4604
  695MPD2    H310282   0.206   1.004  13.916 -0.2238  0.5626  0.3984
  695MPD2     N10283   0.083   1.412  14.079 -0.2346 -0.4678 -0.0937
  695MPD2    H510284   0.124   1.496  14.118 -1.7653  0.9761 -1.6064
  695MPD2    N110285   0.539   1.286  14.053 -0.6617 -0.2553 -0.2007
  695MPD2    H710286   0.547   1.381  14.087 -0.9581 -0.9878  1.9773
  696TMC3    C110287   4.611   1.539  14.075 -0.0262  0.1149  0.4203
  696TMC3    C210288   4.631   1.587  14.196 -0.7356 -0.2679 -0.0999
  696TMC3    C310289   4.558   1.693  14.226  0.4808 -0.2718 -0.0499
  696TMC3    C410290   4.512   1.574  13.994 -0.1546 -0.3855 -0.3692
  696TMC3    C510291   4.443   1.684  14.012  0.0864 -0.8150  0.7000
  696TMC3    C610292   4.461   1.734  14.143  0.6017 -0.4895  0.5854
  696TMC3     C10293   4.679   1.415  14.038  0.2688 -0.2327  1.2164
  696TMC3     O10294   4.620   1.339  13.961 -0.4795  0.7975  0.1387
  696TMC3     H10295   4.712   1.547  14.255 -0.8439 -1.2190 -0.5976
  696TMC3    H110296   4.509   1.528  13.896 -1.3255  1.2811 -1.1081
  696TMC3    H210297   4.405   1.823  14.170  3.2113  0.8845  1.4708
  696TMC3    C710298   4.452   1.774  13.893 -1.2185 -0.2838 -0.3315
  696TMC3    C810299   4.629   1.803  14.287  1.0013  0.3194 -0.3010
  696TMC3    O110300   4.458   1.732  13.780 -0.3918 -0.0249  0.0121
  696TMC3    O210301   4.622   1.906  14.226 -0.6608 -0.0166 -0.5325
  697MPD2     C10302   4.351   3.520  15.782 -0.5834 -0.3038 -0.7822
  697MPD2    C110303   4.478   3.458  15.762  0.5472 -0.6006 -0.2386
  697MPD2    C210304   4.595   3.533  15.740  0.2760 -0.4321 -0.0414
  697MPD2    C310305   4.590   3.668  15.746  0.0770 -0.6081 -0.3775
  697MPD2    C410306   4.464   3.730  15.778  0.0550 -0.5026  0.0949
  697MPD2    C510307   4.351   3.657  15.780 -0.2523  0.0260  0.1272
  697MPD2     H10308   4.690   3.482  15.733  0.5839  0.3348 -1.5519
  697MPD2    H110309   4.444   3.836  15.765  0.0444 -0.6539 -1.1559
  697MPD2    H210310   4.259   3.469  15.810  0.0053 -1.3975 -0.8209
  697MPD2    H310311   4.256   3.707  15.789 -0.8758 -0.6645 -2.5994
  697MPD2     N10312   4.714   3.738  15.728 -0.1843  0.4350  0.0032
  697MPD2    H510313   0.070   3.677  15.720  0.3535  1.1972 -0.3356
  697MPD2    N110314   4.487   3.319  15.762 -0.4422 -0.5794  0.4859
  697MPD2    H710315   4.580   3.281  15.747  1.2208  2.8305  2.3325
  698TMC3    C110316   0.135   3.907  15.665  0.0096 -0.2238  0.3821
  698TMC3    C210317   0.171   4.043  15.660 -0.1299 -0.4558 -0.6524
  698TMC3    C310318   0.268   4.083  15.572 -0.0873 -0.4432  0.7394
  698TMC3    C410319   0.201   3.816  15.580 -0.3025  0.2844 -0.1000
  698TMC3    C510320   0.294   3.864  15.498  0.6938  0.7058 -0.2480
  698TMC3    C610321   0.342   3.994  15.503  0.3010  0.2349  0.3642
  698TMC3     C10322   0.001   3.874  15.716 -0.0737 -0.0198  0.1414
  698TMC3     O10323   4.644   3.964  15.737  0.0764 -0.4568 -0.0143
  698TMC3     H10324   0.111   4.127  15.694 -0.9042 -0.6938 -1.4213
  698TMC3    H110325   0.160   3.717  15.560  1.7777 -0.1586 -2.1984
  698TMC3    H210326   0.403   4.031  15.421  1.3030 -0.2683  0.8706
  698TMC3    C710327   0.277   3.818  15.366 -0.5752  0.0115 -0.0492
  698TMC3    C810328   0.219   4.181  15.479 -0.2807  0.4065 -0.6573
  698TMC3    O110329   0.210   3.891  15.296  0.2612 -0.0071 -0.0161
  698TMC3    O210330   0.097   4.199  15.479  0.3898  0.2953 -0.0024
  699TMC3    C110331   0.108   1.348  12.948  0.2527 -0.4608 -0.3346
  699TMC3    C210332   0.111   1.234  13.020  0.3647  0.6862 -0.7229
  699TMC3    C310333   0.036   1.232  13.135 -0.0960  0.3253 -0.2781
  699TMC3    C410334   0.033   1.463  12.984  0.7363  0.1476 -0.5752
  699TMC3    C510335   4.697   1.456  13.103  0.2004 -0.0593 -0.4203
  699TMC3    C610336   4.688   1.342  13.176 -0.2691 -0.3462 -0.2100
  699TMC3     C10337   0.193   1.367  12.827 -0.0150 -0.8800  0.4917
  699TMC3     O10338   0.162   1.444  12.737 -0.4331 -0.1739  0.1803
  699TMC3     H10339   0.171   1.149  12.988 -0.4077 -0.0459 -0.2227
  699TMC3    H110340   0.030   1.543  12.911  0.2983  0.8812  0.2363
  699TMC3    H210341   4.642   1.340  13.274  0.6013 -0.0418  0.2042
  699TMC3    C710342   4.619   1.559  13.165  0.3712 -0.1113 -0.3407
  699TMC3    C810343   0.032   1.117  13.221  0.0520  0.7334  0.0009
  699TMC3    O110344   4.565   1.532  13.272 -0.1793  0.0991 -0.3224
  699TMC3    O210345   4.681   1.134  13.314  0.6081 -0.2450 -0.0010
  700TMC3    C110346   3.565   3.470  17.587 -0.0712  0.0166 -0.9742
  700TMC3    C210347   3.668   3.424  17.512 -0.9216  0.3954  0.3818
  700TMC3    C310348   3.800   3.438  17.550 -0.0521  0.4642  0.3137
  700TMC3    C410349   3.594   3.528   0.000 -0.0177  0.7253 -0.8204
  700TMC3    C510350   3.726   3.534   0.043  0.6564  0.2653  0.1346
  700TMC3    C610351   3.829   3.487  17.671 -0.3262  0.0209 -0.6758
  700TMC3     C10352   3.469   3.544  17.517  0.0947 -0.4002  0.3626
  700TMC3     O10353   3.357   3.558  17.566  0.0092 -0.4113  0.2458
  700TMC3     H10354   3.636   3.368  17.425  0.6745  1.6708 -1.0254
  700TMC3    H110355   3.513   3.578   0.051 -0.9929 -0.1804 -1.4903
  700TMC3    H210356   3.933   3.499  17.702 -0.2249  0.6794 -1.2593
  700TMC3    C710357   3.754   3.658   0.110 -0.2133 -0.5037  0.0364
  700TMC3    C810358   3.902   3.394  17.456  0.1988  0.1099 -0.1320
  700TMC3    O110359   3.859   3.710   0.079 -0.1768  0.5387 -1.1263
  700TMC3    O210360   3.863   3.329  17.363  0.1081  0.5867  0.6408
  701TMC3    C110361   3.694   2.521  15.594  0.5905  0.0661 -0.3246
  701TMC3    C210362   3.728   2.470  15.474  0.4049  0.1793  0.3795
  701TMC3    C310363   3.843   2.523  15.407  0.5768  0.0018  0.2851
  701TMC3    C410364   3.777   2.614  15.660 -0.5448  1.2077 -0.3426
  701TMC3    C510365   3.889   2.660  15.598  0.3337 -0.2394  0.1935
  701TMC3    C610366   3.919   2.621  15.470 -0.5136  0.0376  0.1109
  701TMC3     C10367   3.576   2.476  15.665  0.2712 -0.6712  0.0671
  701TMC3     O10368   3.543   2.361  15.672 -0.6728 -0.1067  0.3629
  701TMC3     H10369   3.656   2.400  15.432  0.2769  0.3478  0.3168
  701TMC3    H110370   3.748   2.647  15.759 -1.6199 -0.0949 -0.2323
  701TMC3    H210371   3.999   2.661  15.410 -0.7911  1.6456  0.8230
  701TMC3    C710372   3.937   2.795  15.636  0.3271  0.1175 -0.1546
  701TMC3    C810373   3.864   2.509  15.264  1.4255 -0.2941  0.3226
  701TMC3    O110374   3.967   2.867  15.541  0.0628  0.2280  0.4119
  701TMC3    O210375   3.965   2.564  15.216 -0.6331  0.1720 -0.6074
  702MPD2     C10376   4.081   4.579  10.608  1.3326 -0.4078  0.7172
  702MPD2    C110377   3.944   4.552  10.622  0.0158  0.0646 -0.0926
  702MPD2    C210378   3.880   4.518  10.503  1.3212 -0.5661  0.1268
  702MPD2    C310379   3.940   4.504  10.383  0.5514  0.3453 -0.2832
  702MPD2    C410380   4.073   4.526  10.380  0.1955  0.3009 -0.0885
  702MPD2    C510381   4.142   4.551  10.491  0.0933 -0.1565 -0.1074
  702MPD2     H10382   3.773   4.502  10.503  0.7848  2.8575  0.3171
  702MPD2    H110383   4.120   4.503  10.286 -0.0886 -2.2825  0.3972
  702MPD2    H210384   4.152   4.603  10.687  0.4067 -0.6683  1.6219
  702MPD2    H310385   4.250   4.559  10.489 -0.0607  1.4891 -1.7273
  702MPD2     N10386   3.871   4.446  10.273 -0.1124  0.4640  0.4027
  702MPD2    H510387   3.930   4.409  10.199  1.8737  2.6631  0.8555
  702MPD2    N110388   3.869   4.573  10.741  0.0128 -0.2328 -0.3634
  702MPD2    H710389   3.777   4.530  10.740  0.6169 -1.5114 -0.4104
  703TMC3    C110390   3.649   4.547  10.303  0.3654  0.1685  0.3785
  703TMC3    C210391   3.521   4.516  10.337  0.0928  0.6117 -0.1217
  703TMC3    C310392   3.443   4.621  10.385  0.1733 -0.8424 -0.2345
  703TMC3    C410393   3.697   4.677  10.308  0.4401  0.5968  0.4074
  703TMC3    C510394   3.615   0.051  10.351  0.0400  0.1728  0.7466
  703TMC3    C610395   3.491   0.019  10.395 -0.4563 -0.7769 -0.1053
  703TMC3     C10396   3.733   4.439  10.254  0.1396  0.1913  0.0491
  703TMC3     O10397   3.681   4.368  10.175  0.1468  0.0766  0.8343
  703TMC3     H10398   3.463   4.429  10.308 -1.9439  1.7713  0.4442
  703TMC3    H110399   3.794   4.710  10.273  0.8603 -0.3575  0.6917
  703TMC3    H210400   3.415   0.086  10.433 -0.0238 -0.2526 -0.1543
  703TMC3    C710401   3.664   0.185  10.336  0.1045  0.1373  0.1882
  703TMC3    C810402   3.304   4.583  10.415  0.4194 -0.3387 -0.7556
  703TMC3    O110403   3.783   0.199  10.316  0.5373  0.3757  0.3752
  703TMC3    O210404   3.258   4.493  10.351  0.0899  1.1364 -0.2477
  704TMC3    C110405   1.242   2.855  12.383  0.0567 -0.1024 -0.1006
  704TMC3    C210406   1.379   2.864  12.360 -0.2270  0.3533  0.5385
  704TMC3    C310407   1.464   2.802  12.440  0.0940 -0.3012 -0.4018
  704TMC3    C410408   1.196   2.775  12.490  0.5056  0.0419 -0.0767
  704TMC3    C510409   1.286   2.702  12.560  0.0958  0.6258  0.0652
  704TMC3    C610410   1.420   2.719  12.537  0.6016  0.3375  1.4169
  704TMC3     C10411   1.151   2.928  12.297  0.3613 -0.0928 -0.4069
  704TMC3     O10412   1.043   2.967  12.337  0.0463  0.1210  0.1179
  704TMC3     H10413   1.419   2.931  12.284 -0.3379  0.4797  0.5907
  704TMC3    H110414   1.088   2.769  12.505  0.5927  0.2852  0.6289
  704TMC3    H210415   1.494   2.664  12.594 -0.8357 -2.2862  0.7097
  704TMC3    C710416   1.251   2.560  12.579  0.0405  0.9540  0.5959
  704TMC3    C810417   1.595   2.771  12.379 -0.0102 -0.2283 -0.2145
  704TMC3    O110418   1.349   2.492  12.584  0.0267 -0.1960  0.0698
  704TMC3    O210419   1.603   2.803  12.261  0.2445 -0.3731 -0.4360
  705MPD2     C10420   0.798   1.229  16.627  0.3253 -0.1146 -0.4627
  705MPD2    C110421   0.749   1.322  16.543 -0.0629  0.6521  0.2330
  705MPD2    C210422   0.622   1.372  16.568  0.3129  0.4327 -0.2163
  705MPD2    C310423   0.551   1.346  16.678 -0.1124 -0.0022 -0.2474
  705MPD2    C410424   0.608   1.265  16.775 -0.5213 -0.4594 -0.1665
  705MPD2    C510425   0.734   1.213  16.751 -0.5281 -0.0528 -0.4866
  705MPD2     H10426   0.584   1.443  16.496  1.0813  1.6254  0.5520
  705MPD2    H110427   0.563   1.240  16.871 -1.1721  1.2233 -0.0462
  705MPD2    H210428   0.895   1.184  16.612  0.1538 -0.3132 -0.9753
  705MPD2    H310429   0.771   1.143  16.826  0.7075  1.2647  0.1377
  705MPD2     N10430   0.424   1.389  16.696 -0.4475  0.9179 -0.0043
  705MPD2    H510431   0.377   1.364  16.782 -2.5063 -1.7244 -1.9234
  705MPD2    N110432   0.808   1.356  16.422  0.3349 -0.3199  0.1205
  705MPD2    H710433   0.754   1.418  16.362 -1.0670 -1.1947  0.4651
  706TMC3    C110434   1.068   1.394  16.051 -0.0007  0.2155 -0.8455
  706TMC3    C210435   0.992   1.508  16.011 -0.1229  0.1877 -0.4002
  706TMC3    C310436   0.928   1.569  16.110 -0.3426  0.6587  0.1516
  706TMC3    C410437   1.057   1.340  16.177  0.0289  0.8776  0.5162
  706TMC3    C510438   0.982   1.408  16.271 -0.0945  0.5459 -0.3706
  706TMC3    C610439   0.912   1.521  16.237  0.0217 -0.2158  0.3009
  706TMC3     C10440   1.188   1.353  15.975 -0.1303  0.2110 -0.0157
  706TMC3     O10441   1.290   1.304  16.021  0.6147  0.2720 -0.3978
  706TMC3     H10442   1.011   1.557  15.917  0.4130  0.3152 -0.2236
  706TMC3    H110443   1.126   1.268  16.219 -0.0912  0.6872  0.3856
  706TMC3    H210444   0.853   1.573  16.312 -0.1493 -0.2825  0.2135
  706TMC3    C710445   0.936   1.328  16.383 -0.0971  1.0471 -0.3893
  706TMC3    C810446   0.941   1.713  16.113 -0.6209  0.6013 -0.3715
  706TMC3    O110447   1.013   1.249  16.433  0.1130 -0.4912  0.1782
  706TMC3    O210448   0.950   1.779  16.011 -0.5815  0.1909 -0.0699
  707TMC3    C110449   2.543   0.798   1.700 -0.1323  0.2202  0.4879
  707TMC3    C210450   2.602   0.747   1.809  0.6023  0.4253  0.6249
  707TMC3    C310451   2.549   0.773   1.933 -0.0427  0.5886 -0.2633
  707TMC3    C410452   2.431   0.880   1.705 -0.3437 -0.3331 -0.8779
  707TMC3    C510453   2.378   0.903   1.826 -0.7846  0.4770  0.0137
  707TMC3    C610454   2.450   0.864   1.940  0.3056 -0.1002 -0.3146
  707TMC3     C10455   2.591   0.755   1.569  0.3364 -0.0807 -0.3615
  707TMC3     O10456   2.687   0.681   1.569  0.4623 -0.2774 -0.0344
  707TMC3     H10457   2.680   0.672   1.813 -0.2405 -0.5626 -1.1288
  707TMC3    H110458   2.398   0.932   1.616  1.3715  0.9613 -0.7803
  707TMC3    H210459   2.402   0.887   2.034  0.2771  0.2943 -0.4259
  707TMC3    C710460   2.251   0.974   1.835  0.2109 -0.1534  0.0827
  707TMC3    C810461   2.651   0.773   2.043 -0.0144  0.5689 -0.1195
  707TMC3    O110462   2.195   1.010   1.730  0.0975  0.2124 -0.5770
  707TMC3    O210463   2.638   0.862   2.128  0.0298  0.6746 -1.3252
  708MPD2     C10464   4.547   4.295  14.040 -0.7767  0.2482  0.1470
  708MPD2    C110465   4.471   4.360  13.951 -0.1547  0.0500  0.2296
  708MPD2    C210466   4.330   4.357  13.963  0.0222  0.6964  0.5325
  708MPD2    C310467   4.265   4.291  14.064 -0.0182 -0.4926 -0.7501
  708MPD2    C410468   4.349   4.226  14.160 -0.2466  0.5062 -0.6041
  708MPD2    C510469   4.484   4.238  14.153  0.1031 -0.3436  0.7551
  708MPD2     H10470   4.264   4.410  13.895 -0.2039  1.7340  1.5681
  708MPD2    H110471   4.305   4.174  14.245 -0.8408 -0.8086 -1.7158
  708MPD2    H210472   4.655   4.305  14.039 -0.4327 -3.1713  2.7787
  708MPD2    H310473   4.541   4.181  14.225  0.8170  0.0490  0.4995
  708MPD2     N10474   4.126   4.284  14.065 -0.1208 -0.2415 -0.1541
  708MPD2    H510475   4.082   4.347  13.999 -0.4557 -0.2589  0.0510
  708MPD2    N110476   4.542   4.427  13.854  0.4021  0.4687  0.1211
  708MPD2    H710477   4.642   4.426  13.873  0.7474 -1.2992 -1.7944
  709TMC3    C110478   4.587   4.578  13.692  0.2567  0.5436 -0.4940
  709TMC3    C210479   4.627   4.524  13.565 -0.0558  0.3809  0.1836
  709TMC3    C310480   4.638   4.605  13.456 -0.1693  0.5452  0.2163
  709TMC3    C410481   4.538   4.706  13.688  0.2529 -0.1067 -0.1608
  709TMC3    C510482   4.532   0.047  13.570  0.1391 -0.2865  0.2894
  709TMC3    C610483   4.591   0.006  13.455 -0.1063  0.3262  0.4705
  709TMC3     C10484   4.486   4.497  13.753 -0.8393  0.2576 -0.5723
  709TMC3     O10485   4.374   4.550  13.756 -0.6578  0.0663  0.5253
  709TMC3     H10486   4.655   4.420  13.554  0.1626  0.5478 -0.8198
  709TMC3    H110487   4.503   0.019  13.783 -1.1150 -2.0689  0.1575
  709TMC3    H210488   4.596   0.069  13.366  1.1002  0.7967  0.8683
  709TMC3    C710489   4.397   0.108  13.543  0.2998  0.8634  0.2750
  709TMC3    C810490   4.651   4.548  13.322  0.3933  0.4486 -0.2188
  709TMC3    O110491   4.374   0.181  13.448  0.6269  0.1208  0.0533
  709TMC3    O210492   4.711   4.441  13.311  0.0406 -0.4911  0.0206
  710TMC3    C110493   4.566   1.497   0.593  0.1886  0.1182 -0.5589
  710TMC3    C210494   4.600   1.529   0.466  0.2830 -0.1031 -0.2999
  710TMC3    C310495   0.002   1.484   0.429 -0.0272  0.2054  0.1016
  710TMC3    C410496   4.651   1.431   0.681  0.3092  0.5081  0.0206
  710TMC3    C510497   0.049   1.392   0.642 -0.4506  0.1159 -0.2010
  710TMC3    C610498   0.093   1.416   0.514 -0.1432  0.4467  0.4124
  710TMC3     C10499   4.446   1.573   0.636 -0.0930  0.3836  0.0210
  710TMC3     O10500   4.372   1.615   0.547 -0.0065  0.4681 -0.0987
  710TMC3     H10501   4.527   1.574   0.399 -0.8145 -0.4855  0.6458
  710TMC3    H110502   4.616   1.391   0.775 -1.7212 -0.8110 -1.2977
  710TMC3    H210503   0.178   1.365   0.470 -0.9174 -0.3607 -0.1276
  710TMC3    C710504   0.140   1.354   0.747  0.0616  0.2465 -1.1639
  710TMC3    C810505   0.027   1.463   0.287  0.3717 -0.2751  0.1031
  710TMC3    O110506   0.097   1.361   0.862  0.1148 -0.3295  0.0670
  710TMC3    O210507   0.108   1.377   0.261  0.6161 -0.2919 -0.2276
  711TMC3    C110508   4.505   2.493  15.288 -0.8353 -0.0217  0.7880
  711TMC3    C210509   4.563   2.550  15.397  0.7114 -0.1422  0.5418
  711TMC3    C310510   4.698   2.536  15.397  0.1152 -0.6734  0.2945
  711TMC3    C410511   4.573   2.442  15.174 -0.2104 -0.1300  0.0382
  711TMC3    C510512   4.712   2.444  15.174  0.2689  0.5361 -0.1106
  711TMC3    C610513   0.042   2.500  15.286 -0.5432  0.0252  0.0531
  711TMC3     C10514   4.378   2.423  15.299 -0.1655  0.0122  0.0876
  711TMC3     O10515   4.377   2.328  15.220 -0.2633  0.1540  0.5625
  711TMC3     H10516   4.515   2.588  15.487 -2.2982 -2.7352  0.0184
  711TMC3    H110517   4.531   2.405  15.081  1.0159  3.7971 -2.0695
  711TMC3    H210518   0.149   2.482  15.293 -0.0910  2.7076  0.1775
  711TMC3    C710519   0.042   2.311  15.148  0.5501 -0.8651 -0.3860
  711TMC3    C810520   0.024   2.480  15.517 -0.0168  0.7590  0.2864
  711TMC3    O110521   0.167   2.299  15.144 -0.4248 -0.5121 -0.7833
  711TMC3    O210522   0.037   2.561  15.606  0.1534  0.3130 -0.0836
  712MPD2     C10523   1.433   3.321  14.012  0.2144 -0.1059 -0.7480
  712MPD2    C110524   1.368   3.346  13.889 -0.7424  0.4031  0.3064
  712MPD2    C210525   1.432   3.416  13.794  0.6305 -0.9030 -0.5550
  712MPD2    C310526   1.562   3.472  13.816 -0.0395 -0.1995 -0.1112
  712MPD2    C410527   1.626   3.443  13.930 -0.5086 -0.4565  0.1580
  712MPD2    C510528   1.558   3.375  14.029 -0.0745 -0.6435 -0.5848
  712MPD2     H10529   1.389   3.427  13.695 -0.7102 -0.9619  0.0228
  712MPD2    H110530   1.728   3.472  13.956 -1.1926  0.0580  2.2157
  712MPD2    H210531   1.394   3.264  14.096 -0.9816 -1.2591 -2.0774
  712MPD2    H310532   1.609   3.354  14.122  0.2229  1.2936 -0.3071
  712MPD2     N10533   1.631   3.537  13.716 -0.3328  0.0963  0.1095
  712MPD2    H510534   1.729   3.546  13.742 -0.0557  0.0027 -0.9245
  712MPD2    N110535   1.237   3.300  13.864  0.1012 -0.1028  0.4462
  712MPD2    H710536   1.204   3.304  13.768  0.6845 -0.2981  0.2343
  713TMC3    C110537   1.654   3.684  13.527 -0.8773  0.1913  0.8809
  713TMC3    C210538   1.788   3.667  13.533  0.2818 -0.2969 -0.2201
  713TMC3    C310539   1.864   3.748  13.448 -0.4644 -0.0103  0.1820
  713TMC3    C410540   1.597   3.783  13.452 -0.2913  0.3991 -0.0730
  713TMC3    C510541   1.674   3.856  13.366  0.3298  0.2936  0.5034
  713TMC3    C610542   1.806   3.841  13.368 -0.3183  0.0714 -0.2910
  713TMC3     C10543   1.570   3.595  13.612 -0.2662  0.0553 -0.2957
  713TMC3     O10544   1.453   3.609  13.596  0.0144  0.3894 -0.0549
  713TMC3     H10545   1.842   3.583  13.576 -1.7464 -1.3819  0.1772
  713TMC3    H110546   1.489   3.787  13.461 -0.2698 -1.3941  1.0220
  713TMC3    H210547   1.865   3.899  13.299  1.4167  0.3705  1.4478
  713TMC3    C710548   1.624   3.949  13.260 -0.1451  0.0488 -0.3563
  713TMC3    C810549   2.011   3.746  13.448  0.8244 -0.5458 -0.8603
  713TMC3    O110550   1.700   4.006  13.184  0.1635  1.2553  0.1476
  713TMC3    O210551   2.061   3.825  13.373  0.0837 -0.0987 -0.2689
  714MPD2     C10552   3.157   2.226   1.767 -0.6965 -0.0164 -0.0390
  714MPD2    C110553   3.205   2.148   1.662 -0.1019  0.2150  0.3762
  714MPD2    C210554   3.141   2.149   1.542 -0.3766 -0.4938 -0.0184
  714MPD2    C310555   3.008   2.194   1.538  0.4538 -0.4006  0.0376
  714MPD2    C410556   2.950   2.262   1.650  0.5403 -0.1292  0.4224
  714MPD2    C510557   3.029   2.279   1.763  0.4670  0.2099 -0.4838
  714MPD2     H10558   3.186   2.112   1.451 -0.1444 -0.0704 -0.0740
  714MPD2    H110559   2.858   2.319   1.656  0.5754  0.2170 -2.6320
  714MPD2    H210560   3.210   2.226   1.862 -1.0330 -0.9617  0.1479
  714MPD2    H310561   2.988   2.322   1.854  0.7493 -1.5701  0.4805
  714MPD2     N10562   2.933   2.168   1.417 -0.2309  0.3770 -0.2664
  714MPD2    H510563   2.987   2.140   1.335 -0.5083  0.7460 -0.5738
  714MPD2    N110564   3.336   2.102   1.683  0.3248  0.1851  0.1287
  714MPD2    H710565   3.380   2.131   1.769  0.1560 -0.4029  0.4093
  715TMC3    C110566   3.537   1.985   1.657 -0.2408  0.1702  0.6712
  715TMC3    C210567   3.614   1.901   1.579  0.5224 -0.5199  0.1320
  715TMC3    C310568   3.735   1.858   1.631 -0.6664  0.0370 -0.6208
  715TMC3    C410569   3.573   2.040   1.778 -0.3326 -0.2885 -0.0356
  715TMC3    C510570   3.695   1.998   1.822 -0.1187  0.3879  0.1454
  715TMC3    C610571   3.776   1.910   1.754 -0.0109 -0.1558  0.1376
  715TMC3     C10572   3.405   2.017   1.602 -0.2970  0.4419 -0.3117
  715TMC3     O10573   3.363   1.954   1.508  0.7847  0.4258 -0.1896
  715TMC3     H10574   3.577   1.866   1.484  0.9008 -0.1063 -0.1686
  715TMC3    H110575   3.511   2.112   1.832  0.1336 -0.6968  1.0332
  715TMC3    H210576   3.865   1.871   1.801 -0.3111  0.4628  1.2276
  715TMC3    C710577   3.738   2.040   1.954  0.4334  0.1085 -0.0331
  715TMC3    C810578   3.844   1.811   1.542  0.5335  0.7473 -0.8664
  715TMC3    O110579   3.854   2.012   1.982  0.1375 -0.2296  0.0235
  715TMC3    O210580   3.801   1.747   1.447  0.3115  0.5563  0.1169
  716MPD2     C10581   4.208   4.187  10.139  0.2671 -0.3612  0.2078
  716MPD2    C110582   4.304   4.135  10.057 -0.0308 -0.0673  0.2120
  716MPD2    C210583   4.273   4.024   9.980 -0.3806  0.1398 -0.4089
  716MPD2    C310584   4.147   3.964   9.988  0.6758  0.2513 -0.4351
  716MPD2    C410585   4.056   4.021  10.073  0.2695 -1.0049 -0.0579
  716MPD2    C510586   4.080   4.134  10.146 -0.6169 -0.0221  0.2920
  716MPD2     H10587   4.352   3.975   9.924 -0.4235 -1.6804  1.1587
  716MPD2    H110588   3.958   3.979  10.091  0.7303 -2.1317 -0.2112
  716MPD2    H210589   4.226   4.276  10.198 -1.2197  1.2685 -1.8007
  716MPD2    H310590   4.001   4.173  10.209  0.1154 -1.9784  2.4448
  716MPD2     N10591   4.126   3.837   9.917  0.1538 -0.0676 -0.0756
  716MPD2    H510592   4.191   3.809   9.844  1.3596 -0.1658  1.0465
  716MPD2    N110593   4.426   4.206  10.043  0.0124  0.3841  0.6052
  716MPD2    H710594   4.429   4.301  10.079  1.8810  0.8044 -0.6804
  717TMC3    C110595   4.043   3.626   9.858 -0.0858  0.2233  0.1804
  717TMC3    C210596   3.933   3.543   9.843 -0.5170  0.0676 -0.5423
  717TMC3    C310597   3.933   3.445   9.757 -0.4242 -1.1066 -0.4576
  717TMC3    C410598   4.153   3.601   9.775 -0.0008 -0.0789 -0.1568
  717TMC3    C510599   4.139   3.495   9.683  0.1911  0.6855  0.0871
  717TMC3    C610600   4.034   3.408   9.682  0.2609 -0.0822 -0.3119
  717TMC3     C10601   4.024   3.752   9.938  0.0845  0.9273  1.0671
  717TMC3     O10602   3.937   3.759  10.026 -0.2335  0.1586 -0.2010
  717TMC3     H10603   3.840   3.553   9.898  0.0522 -3.5235  1.1210
  717TMC3    H110604   4.239   3.667   9.776 -0.5541  0.7121 -4.0510
  717TMC3    H210605   4.020   3.324   9.615  1.7324  0.2014 -0.9694
  717TMC3    C710606   4.242   3.466   9.584  0.4904 -0.3977  0.0104
  717TMC3    C810607   3.810   3.383   9.716  1.2437  0.2398  0.2001
  717TMC3    O110608   4.237   3.363   9.515  0.0993 -0.2235 -0.1910
  717TMC3    O210609   3.826   3.269   9.672 -0.3825 -0.4086 -0.0669
  718MPD2     C10610   2.837   3.562  13.224 -0.3059  0.0783  0.5735
  718MPD2    C110611   2.773   3.535  13.103  0.0577 -0.3118  0.3671
  718MPD2    C210612   2.738   3.408  13.072 -0.1987  0.0027 -0.1303
  718MPD2    C310613   2.776   3.301  13.161  0.7560 -0.5978 -0.1487
  718MPD2    C410614   2.852   3.320  13.274  0.5068  0.8629 -0.9290
  718MPD2    C510615   2.869   3.454  13.312  0.2686 -0.1996  0.5133
  718MPD2     H10616   2.675   3.385  12.987 -2.1787 -0.0985  1.3575
  718MPD2    H110617   2.888   3.239  13.336  0.8941  0.4560 -1.6871
  718MPD2    H210618   2.855   3.663  13.259 -2.1385 -0.2768  2.5307
  718MPD2    H310619   2.925   3.479  13.401  2.1730  0.8383 -0.9591
  718MPD2     N10620   2.742   3.171  13.126 -0.6024 -0.3135 -0.2526
  718MPD2    H510621   2.690   3.170  13.039 -0.8959 -0.5606 -0.0733
  718MPD2    N110622   2.730   3.650  13.028 -0.3042  0.1399 -0.1863
  718MPD2    H710623   2.752   3.737  13.076  0.0013  0.4436 -0.8790
  719TMC3    C110624   2.651   3.748  12.825 -0.1689  0.6239 -0.2764
  719TMC3    C210625   2.566   3.724  12.719 -0.2218  0.2337  0.2110
  719TMC3    C310626   2.618   3.735  12.586  0.3358 -0.1357  0.6408
  719TMC3    C410627   2.779   3.800  12.811  0.7755 -0.1583 -0.5376
  719TMC3    C510628   2.822   3.813  12.684  0.1422 -0.6566 -0.3894
  719TMC3    C610629   2.743   3.781  12.572  0.0364  0.0683  0.2460
  719TMC3     C10630   2.642   3.639  12.917  0.3173 -0.5577 -0.3642
  719TMC3     O10631   2.591   3.539  12.866  0.0544  1.0525 -0.9551
  719TMC3     H10632   2.466   3.689  12.740  0.2532 -0.7088  0.9033
  719TMC3    H110633   2.850   3.798  12.892 -1.0208 -2.4370  0.9936
  719TMC3    H210634   2.777   3.791  12.470 -0.9173 -1.4493 -0.2139
  719TMC3    C710635   2.945   3.878  12.655  0.3175  0.7193  1.3162
  719TMC3    C810636   2.590   3.616  12.506  0.1126  0.9514 -0.6670
  719TMC3    O110637   3.007   3.860  12.549 -0.0041  0.0197 -0.2168
  719TMC3    O210638   2.612   3.613  12.386 -0.2236 -0.4333 -0.3673
  720MPD2     C10639   0.999   0.465  14.086 -0.1813 -0.7670  0.0471
  720MPD2    C110640   1.071   0.427  13.975 -0.0118  0.2212 -0.1427
  720MPD2    C210641   1.175   0.341  13.996  0.0698  0.4668 -0.1130
  720MPD2    C310642   1.211   0.277  14.114 -0.2905  0.3580 -0.8210
  720MPD2    C410643   1.136   0.319  14.223  0.0289  0.3483 -0.8340
  720MPD2    C510644   1.033   0.409  14.205 -0.6485  0.1244 -0.5784
  720MPD2     H10645   1.235   0.309  13.912  0.5648  0.4385  0.2540
  720MPD2    H110646   1.154   0.292  14.326 -3.6953 -0.4994 -0.3944
  720MPD2    H210647   0.916   0.534  14.090 -0.6818 -1.3309 -0.6733
  720MPD2    H310648   0.974   0.443  14.289  0.3159  0.3756  0.0035
  720MPD2     N10649   1.327   0.199  14.128 -0.3989  0.2483 -0.3805
  720MPD2    H510650   1.392   0.190  14.051 -0.8755 -1.5380 -0.5559
  720MPD2    N110651   1.042   0.477  13.847  0.4722 -0.0513  0.5417
  720MPD2    H710652   1.096   0.429  13.776  0.9528  2.5572 -0.8597
  721TMC3    C110653   1.494   0.072  14.263  0.4113  0.6986 -0.6091
  721TMC3    C210654   1.513   4.684  14.329  0.2959 -0.2851  0.3896
  721TMC3    C310655   1.637   4.646  14.360  0.0516 -0.3782  0.1080
  721TMC3    C410656   1.607   0.139  14.221  0.2430 -0.1410 -0.1699
  721TMC3    C510657   1.729   0.110  14.264 -0.3109 -0.1953 -0.2232
  721TMC3    C610658   1.750   0.003  14.348  0.3736  0.2045  0.5344
  721TMC3     C10659   1.360   0.125  14.249  0.2386  0.0312  0.9986
  721TMC3     O10660   1.277   0.078  14.331  0.5578 -0.3106 -0.7536
  721TMC3     H10661   1.436   4.620  14.372 -0.0295 -0.5928 -0.6410
  721TMC3    H110662   1.595   0.230  14.164  0.5378  0.6447  1.0281
  721TMC3    H210663   1.839   4.708  14.407  0.4119  0.2224  0.4822
  721TMC3    C710664   1.834   0.204  14.230  0.2293 -0.0383 -0.0043
  721TMC3    C810665   1.633   4.520  14.430 -0.4460 -0.0386 -0.0759
  721TMC3    O110666   1.824   0.309  14.168  0.6121  0.1328 -0.2481
  721TMC3    O210667   1.660   4.420  14.367 -0.1575 -0.0555 -0.1412
  722MPD2     C10668   0.412   3.519  13.109  0.1826 -0.0895  0.3198
  722MPD2    C110669   0.360   3.647  13.113 -1.2899 -0.5497  0.1914
  722MPD2    C210670   0.220   3.663  13.137 -0.1245 -0.1127  0.6449
  722MPD2    C310671   0.148   3.547  13.152  0.5141 -0.6652  0.6299
  722MPD2    C410672   0.202   3.424  13.146  0.3881  0.7642  0.4906
  722MPD2    C510673   0.337   3.405  13.122 -0.4136  0.3140  0.0315
  722MPD2     H10674   0.169   3.759  13.133 -0.9745 -0.5127  1.7470
  722MPD2    H110675   0.147   3.332  13.164 -2.2618  1.9674 -1.4023
  722MPD2    H210676   0.516   3.504  13.080 -0.6427 -2.6078 -1.3336
  722MPD2    H310677   0.376   3.304  13.119  0.0188  0.4045  3.0362
  722MPD2     N10678   0.009   3.573  13.177  0.0508 -0.0739 -0.2485
  722MPD2    H510679   4.705   3.669  13.190 -1.5824 -0.3240 -2.2072
  722MPD2    N110680   0.442   3.765  13.111  0.3022 -0.7353  0.2016
  722MPD2    H710681   0.388   3.847  13.140 -1.8010 -1.3019 -2.0872
  723TMC3    C110682   4.515   3.538  13.227  0.4475 -0.2916 -0.4450
  723TMC3    C210683   4.397   3.497  13.168  0.4993  0.2469 -0.5371
  723TMC3    C310684   4.282   3.541  13.216  0.3387  0.4659  0.6357
  723TMC3    C410685   4.513   3.641  13.317 -0.2357 -0.7763 -0.7527
  723TMC3    C510686   4.393   3.679  13.366  0.9922 -0.0412  0.9358
  723TMC3    C610687   4.280   3.631  13.317 -0.0266 -0.9359 -0.0597
  723TMC3     C10688   4.640   3.474  13.183  0.0133 -1.4630 -0.4198
  723TMC3     O10689   4.639   3.358  13.148  0.4395 -0.3605  0.1646
  723TMC3     H10690   4.398   3.411  13.102 -0.6154  0.3076 -0.6285
  723TMC3    H110691   4.600   3.648  13.381 -0.8124  0.8442 -0.1388
  723TMC3    H210692   4.188   3.675  13.353  0.8043  1.9696 -1.4674
  723TMC3    C710693   4.385   3.767  13.479  0.1046  0.1171  0.0183
  723TMC3    C810694   4.158   3.491  13.177  0.2848  0.1944  0.8519
  723TMC3    O110695   4.275   3.792  13.531 -0.4163 -0.3846 -0.0224
  723TMC3    O210696   4.063   3.513  13.250 -0.5018  0.3218  0.1570
  724TMC3    C110697   4.160   2.464   9.372  0.1271  0.3713  0.7340
  724TMC3    C210698   4.208   2.543   9.278 -0.4427  0.0795  0.2363
  724TMC3    C310699   4.335   2.516   9.226  0.1991  0.2717  0.0259
  724TMC3    C410700   4.228   2.343   9.402  1.2206 -0.3513  0.6766
  724TMC3    C510701   4.354   2.323   9.348  0.1319 -0.3102 -0.4247
  724TMC3    C610702   4.405   2.404   9.255 -0.0952 -0.5635 -0.0454
  724TMC3     C10703   4.040   2.510   9.442  0.3949 -0.1876  0.1902
  724TMC3     O10704   3.964   2.425   9.482  0.0587 -0.1480  0.3054
  724TMC3     H10705   4.171   2.645   9.275 -0.3607  0.1305  1.0212
  724TMC3    H110706   4.184   2.275   9.474 -1.5393  2.5400  1.7128
  724TMC3    H210707   4.501   2.388   9.206 -0.2173 -1.4856  0.0021
  724TMC3    C710708   4.444   2.231   9.419 -0.8528  0.2082 -0.1691
  724TMC3    C810709   4.410   2.628   9.158  0.0669  0.0143 -0.8856
  724TMC3    O110710   4.562   2.240   9.386  0.4942  0.3189  0.0139
  724TMC3    O210711   4.338   2.705   9.101 -0.4126 -0.0991  0.2052
  725TMC3    C110712   1.662   0.396  12.570  0.0300 -0.3287  0.0284
  725TMC3    C210713   1.690   0.416  12.436 -0.5462  0.4308  0.7295
  725TMC3    C310714   1.749   0.315  12.367 -0.7757  0.2435  0.3356
  725TMC3    C410715   1.714   0.288  12.634 -0.3281 -0.2755 -0.0112
  725TMC3    C510716   1.775   0.184  12.562  0.6131  0.2283  0.5875
  725TMC3    C610717   1.774   0.190  12.424  0.5420 -0.6180 -0.3335
  725TMC3     C10718   1.631   0.507  12.645 -0.2866 -0.4588  0.3007
  725TMC3     O10719   1.651   0.615  12.593  0.3622  0.1011 -1.1440
  725TMC3     H10720   1.658   0.505  12.383 -1.6075 -0.5275 -0.2671
  725TMC3    H110721   1.726   0.291  12.742  0.7477 -2.4459 -0.0559
  725TMC3    H210722   1.831   0.123  12.361  1.6913 -1.7079  1.8630
  725TMC3    C710723   1.913   0.172  12.602 -0.0977  0.2427 -0.4541
  725TMC3    C810724   1.828   0.348  12.254 -0.5829  0.5129  0.1760
  725TMC3    O110725   1.997   0.201  12.521  0.0308 -0.0916  0.0639
  725TMC3    O210726   1.862   0.253  12.187 -0.7059  0.3356 -0.3883
  726MPD2     C10727   0.183   2.082  10.507 -0.4686 -0.2604  0.8577
  726MPD2    C110728   0.069   2.100  10.433  0.7251  0.3825  0.1880
  726MPD2    C210729   4.678   2.037  10.473 -0.3321  0.3078 -0.4301
  726MPD2    C310730   4.676   1.961  10.587 -0.1370 -0.3846 -0.9965
  726MPD2    C410731   0.066   1.942  10.654 -0.1990  1.0628  0.6642
  726MPD2    C510732   0.177   1.998  10.616 -0.5539 -0.7293  0.3543
  726MPD2     H10733   4.594   2.046  10.405 -0.7401  0.4696  0.0984
  726MPD2    H110734   0.064   1.881  10.744 -0.8604  1.4982  0.9468
  726MPD2    H210735   0.281   2.120  10.482 -0.9439  0.9809  0.9078
  726MPD2    H310736   0.267   1.980  10.674 -1.6148  0.1800  2.2573
  726MPD2     N10737   4.558   1.910  10.641  0.3374 -0.3168 -0.5040
  726MPD2    H510738   4.568   1.853  10.725 -0.5901  0.8240  0.3825
  726MPD2    N110739   0.060   2.181  10.319 -0.4849 -0.4315  0.6172
  726MPD2    H710740   4.701   2.181  10.263  2.7007  1.3022 -4.2157
  727TMC3    C110741   0.124   2.350  10.171  0.3800 -0.3344  0.1436
  727TMC3    C210742   0.212   2.445  10.132 -0.2746 -0.2411 -0.3304
  727TMC3    C310743   0.170   2.575  10.110 -0.0322  0.1941  0.5848
  727TMC3    C410744   4.721   2.379  10.159 -0.4310  0.1739 -0.2517
  727TMC3    C510745   4.682   2.502  10.112 -0.3469  0.3489 -0.1462
  727TMC3    C610746   0.037   2.608  10.105  0.7120 -0.2560  0.3033
  727TMC3     C10747   0.167   2.253  10.263 -0.6867  0.0595  0.3218
  727TMC3     O10748   0.282   2.260  10.301 -0.2262  0.2967 -0.5070
  727TMC3     H10749   0.319   2.425  10.131 -0.4950 -1.5036  1.6197
  727TMC3    H110750   4.647   2.299  10.166  1.0260 -1.1847 -0.3606
  727TMC3    H210751   0.001   2.709  10.087 -2.5922 -1.3822  0.6205
  727TMC3    C710752   4.543   2.527  10.116  0.9806  0.1208  0.4584
  727TMC3    C810753   0.265   2.679  10.138  0.0425 -0.1238 -0.1774
  727TMC3    O110754   4.482   2.461  10.200  0.2942 -0.6654 -0.0278
  727TMC3    O210755   0.379   2.642  10.148  0.6159 -0.3305 -0.6015
  728TMC3    C110756   3.336   0.804  15.153  0.2720  0.2365  0.0859
  728TMC3    C210757   3.397   0.762  15.270 -0.2878 -0.3686  0.0168
  728TMC3    C310758   3.525   0.801  15.286 -1.1558 -0.0712  0.2631
  728TMC3    C410759   3.407   0.879  15.057 -0.3269 -0.1533  0.8060
  728TMC3    C510760   3.529   0.929  15.087 -0.2432 -0.2398  0.9483
  728TMC3    C610761   3.596   0.882  15.199  0.6091  0.2326  0.0306
  728TMC3     C10762   3.196   0.781  15.130 -0.2218 -0.2484  0.1030
  728TMC3     O10763   3.148   0.821  15.025 -0.2778 -0.5834 -0.0605
  728TMC3     H10764   3.350   0.683  15.328  0.9942 -1.5485 -0.5768
  728TMC3    H110765   3.360   0.922  14.970  2.0453  0.7023 -0.0532
  728TMC3    H210766   3.698   0.916  15.212  0.8129  0.5353 -2.3338
  728TMC3    C710767   3.612   0.982  14.981  0.4657 -1.0204 -0.8665
  728TMC3    C810768   3.583   0.740  15.405 -0.1537  0.0867 -0.0228
  728TMC3    O110769   3.589   0.952  14.869 -0.3894  0.0182 -0.1585
  728TMC3    O210770   3.509   0.679  15.476  0.4499 -0.1091 -0.1995
  729MPD2     C10771   1.472   1.533  17.238  0.1670  0.1424  0.2604
  729MPD2    C110772   1.565   1.633  17.237  0.2054 -0.5658  0.1449
  729MPD2    C210773   1.587   1.697  17.359  0.9733  0.2778 -0.5581
  729MPD2    C310774   1.520   1.679  17.480 -0.1552 -0.1265 -0.2620
  729MPD2    C410775   1.425   1.579  17.467 -0.8697  0.8461  0.5181
  729MPD2    C510776   1.408   1.504  17.352  0.0032  0.2546 -0.0864
  729MPD2     H10777   1.664   1.774  17.358  1.1834  0.0928  1.2808
  729MPD2    H110778   1.353   1.558  17.545 -0.5364  2.5858  1.2916
  729MPD2    H210779   1.448   1.482  17.145 -2.4244  2.0941 -0.1511
  729MPD2    H310780   1.335   1.424  17.352 -1.4412  1.5858 -2.3990
  729MPD2     N10781   1.530   1.751  17.601  0.1139  0.2957  0.3019
  729MPD2    H510782   1.461   1.738  17.675  0.1808  0.5209  0.4028
  729MPD2    N110783   1.624   1.680  17.122 -0.2645 -0.0139  0.0754
  729MPD2    H710784   1.592   1.634  17.037 -1.0368  1.4203 -0.4244
  730TMC3    C110785   1.629   1.916   0.035 -0.1282  0.0044 -0.7405
  730TMC3    C210786   1.745   1.976   0.075 -0.7416  0.2612  0.5021
  730TMC3    C310787   1.741   2.090   0.151 -0.0688 -0.4423  0.2730
  730TMC3    C410788   1.506   1.958   0.082  0.0325 -0.8831 -0.3895
  730TMC3    C510789   1.506   2.055   0.177  0.1101  0.5098 -0.3498
  730TMC3    C610790   1.620   2.125   0.206 -0.3619  0.0081 -0.0443
  730TMC3     C10791   1.634   1.841  17.613 -0.3829  0.9329  0.6925
  730TMC3     O10792   1.736   1.853  17.547  0.7085  0.3224 -0.0738
  730TMC3     H10793   1.838   1.937   0.037  0.0724  3.4946 -0.8435
  730TMC3    H110794   1.408   1.922   0.053  0.1253  0.0407 -1.8639
  730TMC3    H210795   1.616   2.193   0.290  0.1138  0.5153 -0.4326
  730TMC3    C710796   1.405   2.153   0.184 -0.2982  0.0182  0.8980
  730TMC3    C810797   1.810   2.199   0.090 -0.0792 -0.0631  0.8450
  730TMC3    O110798   1.374   2.190   0.298 -0.0923  0.2705  0.5742
  730TMC3    O210799   1.901   2.166   0.015 -0.2307 -0.3863 -0.0886
  731MPD2     C10800   1.669   4.433  12.488 -0.2278 -1.0301 -0.2200
  731MPD2    C110801   1.793   4.491  12.472  0.4172  0.4393  0.2841
  731MPD2    C210802   1.881   4.499  12.581  0.0768 -0.3453  0.0152
  731MPD2    C310803   1.835   4.461  12.711 -0.0539 -0.2177  0.3250
  731MPD2    C410804   1.706   4.413  12.723 -0.0365  0.1431 -0.7069
  731MPD2    C510805   1.628   4.406  12.614 -0.6701  0.0620  0.5051
  731MPD2     H10806   1.979   4.546  12.573  0.2521 -0.8319 -0.6735
  731MPD2    H110807   1.658   4.384  12.815  1.1581  0.5379  0.0403
  731MPD2    H210808   1.595   4.429  12.409 -2.4437 -0.3466  1.8170
  731MPD2    H310809   1.529   4.367  12.629 -0.2237 -0.8860  0.9762
  731MPD2     N10810   1.928   4.468  12.817 -0.2016  0.2331  0.8730
  731MPD2    H510811   2.017   4.513  12.795 -1.2601  2.9372  2.1098
  731MPD2    N110812   1.827   4.529  12.340 -0.5441 -0.0396  0.5238
  731MPD2    H710813   1.747   4.532  12.277 -0.6003  1.4013  0.6766
  732TMC3    C110814   1.956   4.610  12.159 -0.4871 -0.7840  0.8363
  732TMC3    C210815   1.868   4.565  12.068 -0.7843  0.1132  1.1216
  732TMC3    C310816   1.892   4.602  11.940 -0.8592 -0.1459  0.5275
  732TMC3    C410817   2.054   4.702  12.133 -0.0072  0.3867  0.7245
  732TMC3    C510818   2.079   0.003  12.005 -0.4156 -0.3488 -0.1900
  732TMC3    C610819   1.993   4.693  11.906  0.0233 -0.0920 -0.1867
  732TMC3     C10820   1.950   4.578  12.300 -0.6327  0.0141 -0.0714
  732TMC3     O10821   2.052   4.601  12.362 -0.0859  0.2271  0.1578
  732TMC3     H10822   1.789   4.496  12.093 -1.2072  0.5642  1.0395
  732TMC3    H110823   2.121   0.022  12.205  1.5417  0.9233 -1.0560
  732TMC3    H210824   2.025   4.719  11.806 -0.0603 -0.2918 -0.2670
  732TMC3    C710825   2.208   0.072  11.967 -0.0195 -0.3113  0.1656
  732TMC3    C810826   1.787   4.595  11.841  0.3050 -0.0383 -0.6241
  732TMC3    O110827   2.207   0.138  11.866  0.3343  0.1451  0.8361
  732TMC3    O210828   1.808   4.601  11.723  0.0661  0.1895 -0.6760
  733TMC3    C110829   2.502   2.816  13.130  0.8139 -0.1313  0.1764
  733TMC3    C210830   2.626   2.850  13.180  0.2529  0.1034 -0.2249
  733TMC3    C310831   2.708   2.934  13.105  0.5908 -0.2707 -0.1195
  733TMC3    C410832   2.467   2.837  13.000 -0.4324  0.9718 -0.1882
  733TMC3    C510833   2.553   2.907  12.927 -0.4744 -0.2005  0.0073
  733TMC3    C610834   2.672   2.962  12.972  0.0999  0.0769  0.3246
  733TMC3     C10835   2.402   2.812  13.231  0.0314 -0.6135 -0.0449
  733TMC3     O10836   2.431   2.760  13.338 -0.1246 -0.2696  0.5837
  733TMC3     H10837   2.652   2.844  13.285 -3.6393 -0.9355  0.6526
  733TMC3    H110838   2.368   2.813  12.964 -0.4009  0.9917 -0.2892
  733TMC3    H210839   2.747   2.989  12.899 -0.5210 -0.4889 -0.5284
  733TMC3    C710840   2.513   2.941  12.789  0.1819 -0.4041 -0.1226
  733TMC3    C810841   2.771   3.048  13.180 -0.4657  0.1256  0.2839
  733TMC3    O110842   2.430   2.864  12.737 -0.0548  0.2763  0.4264
  733TMC3    O210843   2.843   3.019  13.277  0.1077  0.2507  0.1624
  734MPD2     C10844   4.301   1.046  12.681 -1.0093 -0.3536  0.2814
  734MPD2    C110845   4.263   0.933  12.615  0.4125  0.0228 -0.2225
  734MPD2    C210846   4.305   0.928  12.486  0.2167  0.0688 -0.6052
  734MPD2    C310847   4.353   1.031  12.415 -0.7612 -0.0711  0.3529
  734MPD2    C410848   4.386   1.148  12.480  0.2862  0.0725  0.1557
  734MPD2    C510849   4.355   1.155  12.612 -0.0691  0.4653  0.2285
  734MPD2     H10850   4.295   0.832  12.437  0.7032 -0.1089 -0.3654
  734MPD2    H110851   4.435   1.223  12.420  1.1134 -0.2150  0.4762
  734MPD2    H210852   4.285   1.062  12.787  0.2788  2.2936  0.0740
  734MPD2    H310853   4.379   1.248  12.664  0.2922  0.7674 -0.4835
  734MPD2     N10854   4.370   1.013  12.276  0.0375  0.0617 -0.3121
  734MPD2    H510855   4.357   0.917  12.245  1.1633 -0.0165 -0.5645
  734MPD2    N110856   4.209   0.826  12.688 -0.0457  0.4000 -0.4218
  734MPD2    H710857   4.191   0.830  12.788 -2.0033 -0.3702 -0.7535
  735TMC3    C110858   4.148   0.591  12.683  0.3134  0.1595 -0.3884
  735TMC3    C210859   4.060   0.514  12.608  0.0466  0.4804  0.0332
  735TMC3    C310860   4.079   0.380  12.594 -0.4028  0.0193 -0.3567
  735TMC3    C410861   4.272   0.542  12.726 -0.6741 -0.4270  0.1839
  735TMC3    C510862   4.280   0.407  12.723  0.2828 -0.1300  0.0161
  735TMC3    C610863   4.186   0.324  12.664  0.1473 -0.7970  0.2596
  735TMC3     C10864   4.155   0.719  12.617  0.4387  0.0267  0.4701
  735TMC3     O10865   4.119   0.713  12.501 -0.5659 -0.2517 -0.1492
  735TMC3     H10866   3.967   0.559  12.575  0.0442 -0.3408 -1.0825
  735TMC3    H110867   4.354   0.598  12.770 -0.6236  0.7484 -1.4017
  735TMC3    H210868   4.213   0.224  12.634 -2.1451 -1.4189  0.2717
  735TMC3    C710869   4.407   0.372  12.675 -0.0634 -1.0280  0.0289
  735TMC3    C810870   4.069   0.337  12.456 -0.0222 -0.2975  0.3840
  735TMC3    O110871   4.439   0.424  12.567 -0.3837 -0.1580  0.0712
  735TMC3    O210872   4.088   0.219  12.424  0.2707  0.1706  0.4227
  736MPD2     C10873   4.616   0.090  12.785  0.8430 -0.1046  0.7339
  736MPD2    C110874   4.576   0.192  12.700  0.7957 -1.0866 -0.4017
  736MPD2    C210875   4.642   0.215  12.580  0.4891  0.2263 -0.0332
  736MPD2    C310876   0.017   0.131  12.537  0.6119 -0.4979 -0.2357
  736MPD2    C410877   0.043   0.019  12.619  0.9992 -0.1280 -0.1599
  736MPD2    C510878   4.711   4.724  12.743  0.2539 -0.2181  0.2957
  736MPD2     H10879   4.616   0.298  12.515  0.7849  0.0665 -0.3589
  736MPD2    H110880   0.111   4.665  12.590 -0.4974 -1.8164  1.0318
  736MPD2    H210881   4.568   0.080  12.882  0.4708 -0.3293  0.5237
  736MPD2    H310882   0.007   4.632  12.796  1.9396 -0.3528 -0.6556
  736MPD2     N10883   0.071   0.132  12.409 -0.0928 -0.2007 -0.3906
  736MPD2    H510884   0.126   0.051  12.384  2.0339  0.7339  1.2415
  736MPD2    N110885   4.463   0.262  12.743 -0.8915  0.1375  0.0714
  736MPD2    H710886   4.417   0.233  12.828  0.7762 -1.1132  0.5446
  737TMC3    C110887   0.161   0.234  12.215 -0.7066  0.0141 -0.2226
  737TMC3    C210888   0.114   0.304  12.101  0.3572 -0.3751  0.0415
  737TMC3    C310889   0.173   0.285  11.984  0.7280  0.5893 -0.0399
  737TMC3    C410890   0.258   0.139  12.210  0.2375  0.3461  0.2487
  737TMC3    C510891   0.313   0.126  12.083 -0.4605  0.1822 -0.2255
  737TMC3    C610892   0.279   0.202  11.978 -0.1856  0.0887  0.1570
  737TMC3     C10893   0.088   0.251  12.340  0.1929 -0.0192 -0.3083
  737TMC3     O10894   0.031   0.358  12.357 -0.3400 -0.4992  0.6369
  737TMC3     H10895   0.030   0.372  12.107  1.8202  1.0437  4.5811
  737TMC3    H110896   0.293   0.078  12.292 -3.3014 -1.6019  0.3035
  737TMC3    H210897   0.330   0.194  11.882 -1.0374  0.8523 -0.3568
  737TMC3    C710898   0.345   4.716  12.047 -0.7724  0.2084  0.0433
  737TMC3    C810899   0.192   0.407  11.909 -0.2796 -0.4498  0.1259
  737TMC3    O110900   0.284   4.630  12.108 -0.0579  0.3258 -0.2957
  737TMC3    O210901   0.300   0.461  11.924 -0.0903  0.0589  0.1665
  738MPD2     C10902   0.177   4.376  15.261  0.1408 -0.3082  0.0307
  738MPD2    C110903   0.290   4.367  15.340 -0.4810  0.2290  0.5190
  738MPD2    C210904   0.389   4.461  15.326 -0.0360  0.5539 -0.2477
  738MPD2    C310905   0.388   4.569  15.237  0.6906  0.2959  0.5468
  738MPD2    C410906   0.276   4.579  15.162  0.5470  0.3797 -0.3733
  738MPD2    C510907   0.170   4.486  15.178  0.0810  0.2467 -0.5074
  738MPD2     H10908   0.479   4.451  15.386 -0.1112 -1.6526 -0.5077
  738MPD2    H110909   0.255   4.662  15.095 -0.4469 -0.8520 -1.5896
  738MPD2    H210910   0.095   4.305  15.258  1.5264 -1.9418  0.7989
  738MPD2    H310911   0.084   4.490  15.113  0.5638 -2.4464 -1.2876
  738MPD2     N10912   0.482   4.677  15.238 -0.3935 -0.9549  0.1107
  738MPD2    H510913   0.467   0.028  15.174 -1.3156 -3.0147 -2.1353
  738MPD2    N110914   0.320   4.259  15.427  0.1828  0.4075 -0.4170
  738MPD2    H710915   0.415   4.257  15.464 -0.3242 -0.2532  0.8497
  739TMC3    C110916   0.664   0.083  15.291 -0.3441  0.3670  0.7249
  739TMC3    C210917   0.694   0.114  15.161 -0.0153 -0.0260  0.3600
  739TMC3    C310918   0.808   0.188  15.141 -0.0447 -0.1992  0.0742
  739TMC3    C410919   0.746   0.115  15.395 -0.0078  0.6493 -0.2056
  739TMC3    C510920   0.836   0.216  15.367 -0.2051  0.5043  0.2635
  739TMC3    C610921   0.880   0.246  15.242  0.1739 -0.0334  0.2618
  739TMC3     C10922   0.596   4.684  15.308  0.0227  0.2729  0.8881
  739TMC3     O10923   0.643   4.611  15.394  0.2470  0.1036  0.0336
  739TMC3     H10924   0.635   0.071  15.082  3.1546 -0.2900 -1.8852
  739TMC3    H110925   0.716   0.085  15.494  0.0057  1.6960  0.1204
  739TMC3    H210926   0.961   0.314  15.220  0.5374 -0.4711  0.2350
  739TMC3    C710927   0.907   0.270  15.484 -0.4197  0.4243 -0.3905
  739TMC3    C810928   0.876   0.160  15.013 -0.1863 -0.5659  0.1619
  739TMC3    O110929   0.897   0.201  15.584  0.6661  0.4857  0.2107
  739TMC3    O210930   0.802   0.130  14.920 -0.1494 -0.7229  0.2791
  740TMC3    C110931   1.178   0.633  14.559  0.5409 -0.0020 -0.6486
  740TMC3    C210932   1.201   0.537  14.654  0.4414 -0.0023  0.0435
  740TMC3    C310933   1.286   0.438  14.618 -0.3053  0.0834 -0.3337
  740TMC3    C410934   1.244   0.638  14.444  0.7411 -0.3258  0.3222
  740TMC3    C510935   1.342   0.549  14.419  0.3536  0.5528 -0.0131
  740TMC3    C610936   1.358   0.444  14.504 -0.3625 -0.3699  0.3627
  740TMC3     C10937   1.109   0.752  14.593  0.2152 -0.2803 -0.0438
  740TMC3     O10938   1.148   0.854  14.541 -0.2719 -0.5085 -0.2895
  740TMC3     H10939   1.156   0.544  14.752  0.1837 -1.4142  0.0265
  740TMC3    H110940   1.239   0.722  14.375 -2.0165 -1.3337 -0.7091
  740TMC3    H210941   1.430   0.367  14.477 -1.3794 -0.3539 -2.3371
  740TMC3    C710942   1.415   0.532  14.290 -0.0939 -0.2192 -0.4543
  740TMC3    C810943   1.353   0.364  14.728 -0.4461  0.2267 -0.2663
  740TMC3    O110944   1.519   0.470  14.287  0.6561 -0.2756 -0.8602
  740TMC3    O210945   1.458   0.309  14.698  0.0810  0.7459 -0.2870
  741TMC3    C110946   0.683   0.425  14.425  0.2475  0.2078  0.1523
  741TMC3    C210947   0.616   0.308  14.417 -0.1821  0.7126  0.2803
  741TMC3    C310948   0.601   0.235  14.528  0.4342  0.6661  0.1065
  741TMC3    C410949   0.773   0.444  14.533 -0.1018  0.0727 -0.6248
  741TMC3    C510950   0.749   0.365  14.642 -0.0533 -0.4615 -0.3405
  741TMC3    C610951   0.662   0.266  14.644 -0.3906 -0.0331  0.0636
  741TMC3     C10952   0.684   0.516  14.319 -0.4113  0.4824  0.5766
  741TMC3     O10953   0.782   0.592  14.304 -0.1325  0.1081 -0.5823
  741TMC3     H10954   0.561   0.295  14.324 -3.1254  0.9790  1.9976
  741TMC3    H110955   0.817   0.542  14.544  1.4950 -0.8258  0.9354
  741TMC3    H210956   0.637   0.216  14.737  1.9811 -1.8254 -0.2566
  741TMC3    C710957   0.798   0.423  14.769 -0.6650 -0.1309  0.0326
  741TMC3    C810958   0.505   0.131  14.508 -0.8832 -0.2889  0.3103
  741TMC3    O110959   0.904   0.481  14.773  0.1704 -0.1625 -0.1323
  741TMC3    O210960   0.433   0.130  14.407 -0.6354  0.3198  0.3629
  742TMC3    C110961   0.186   3.129  15.604 -0.2347 -0.1888 -0.2816
  742TMC3    C210962   0.147   3.209  15.500  0.1349 -0.2437  0.2953
  742TMC3    C310963   0.239   3.223  15.398  0.0744  0.5887  0.1607
  742TMC3    C410964   0.300   3.064  15.613 -0.1778  0.0027 -0.1904
  742TMC3    C510965   0.390   3.091  15.520 -0.1337  0.1371  0.0461
  742TMC3    C610966   0.364   3.167  15.413 -0.2091  0.3089  0.3891
  742TMC3     C10967   0.105   3.133  15.720  0.6124 -0.5064 -0.3457
  742TMC3     O10968   0.031   3.232  15.730 -0.3837 -0.3567  0.5216
  742TMC3     H10969   0.040   3.222  15.490  0.4788  1.0756 -1.7240
  742TMC3    H110970   0.318   3.004  15.702  1.4307 -0.3542 -0.7606
  742TMC3    H210971   0.438   3.177  15.335  0.8596 -2.9758  1.0031
  742TMC3    C710972   0.501   3.001  15.516 -0.0797  0.3149 -0.5498
  742TMC3    C810973   0.186   3.219  15.262 -0.3295 -0.0625 -0.0152
  742TMC3    O110974   0.606   3.050  15.475 -0.0421  0.3692 -0.0791
  742TMC3    O210975   0.254   3.155  15.181 -0.1493 -0.4898  0.1034
  743MPD2     C10976   3.806   0.645   2.058 -0.2322  0.3386 -0.0979
  743MPD2    C110977   3.793   0.529   1.977 -0.1328  0.0893 -0.5858
  743MPD2    C210978   3.913   0.474   1.925 -0.2843  0.1146 -0.6350
  743MPD2    C310979   4.027   0.546   1.943 -0.2165  0.1520 -0.6490
  743MPD2    C410980   4.036   0.660   2.021  0.3289  0.2193 -0.2209
  743MPD2    C510981   3.923   0.704   2.078  0.5990  0.1338 -0.4059
  743MPD2     H10982   3.911   0.380   1.871  1.8155 -0.5508  0.4398
  743MPD2    H110983   4.132   0.709   2.032 -0.0968  1.3921 -1.7680
  743MPD2    H210984   3.714   0.686   2.099 -1.0552 -1.3045 -0.3052
  743MPD2    H310985   3.929   0.804   2.117 -0.8273  0.0825 -0.0280
  743MPD2     N10986   4.140   0.483   1.883  0.1801 -0.0507 -0.4698
  743MPD2    H510987   4.116   0.392   1.847  2.9330 -1.5304  1.4265
  743MPD2    N110988   3.668   0.465   1.963 -0.3183  0.4540  0.4156
  743MPD2    H710989   3.588   0.515   2.000  0.4892  0.2384  2.4610
  744TMC3    C110990   3.510   0.288   1.901  0.1895  0.4820 -0.1530
  744TMC3    C210991   3.405   0.358   1.954  0.3541  0.0982 -0.4216
  744TMC3    C310992   3.288   0.293   1.978 -0.2539  0.0517  0.2628
  744TMC3    C410993   3.497   0.148   1.891 -0.0287 -0.4068 -0.0098
  744TMC3    C510994   3.383   0.088   1.929 -1.1209  0.0903  0.1253
  744TMC3    C610995   3.274   0.157   1.967  0.2794 -0.0978  0.3883
  744TMC3     C10996   3.645   0.340   1.908 -0.3595  0.3196  1.0349
  744TMC3     O10997   3.731   0.267   1.855  0.3583 -0.4634 -0.1211
  744TMC3     H10998   3.415   0.465   1.963  3.0219 -0.3074  1.5224
  744TMC3    H110999   3.591   0.096   1.878  0.4459  0.4377  0.0025
  744TMC3    H211000   3.174   0.117   1.957  0.5655 -1.1141  1.6065
  744TMC3    C711001   3.348   4.699   1.860 -0.3245 -0.5899  0.1439
  744TMC3    C811002   3.169   0.363   2.014 -0.4628 -0.5667  0.5281
  744TMC3    O111003   3.306   4.603   1.923  0.6139  0.5808  0.0307
  744TMC3    O211004   3.071   0.334   1.947  0.0285 -0.3802  0.1478
  745TMC3    C111005   1.035   3.189  13.912 -0.7398  0.5881 -0.3115
  745TMC3    C211006   0.930   3.201  13.996  0.1162 -0.0209  1.0282
  745TMC3    C311007   0.808   3.208  13.931  0.4062 -0.2826 -0.4385
  745TMC3    C411008   1.022   3.166  13.778 -1.1106  0.3097  0.1294
  745TMC3    C511009   0.901   3.183  13.716  0.0376  0.2787 -0.5019
  745TMC3    C611010   0.792   3.206  13.794  0.2455 -0.0561 -0.4032
  745TMC3     C11011   1.150   3.264  13.961  0.5569  0.1784  0.1233
  745TMC3     O11012   1.153   3.299  14.075 -0.1286 -0.0008 -0.5404
  745TMC3     H11013   0.937   3.207  14.104  0.8182 -0.3962  1.0061
  745TMC3    H111014   1.112   3.144  13.722 -0.8472 -0.2902  0.7840
  745TMC3    H211015   0.691   3.204  13.754  0.2191 -2.1070 -0.2706
  745TMC3    C711016   0.876   3.149  13.579 -0.3045 -0.0285 -0.0977
  745TMC3    C811017   0.726   3.311  13.987  0.5371 -0.0106  0.2925
  745TMC3    O111018   0.767   3.102  13.552 -0.3765 -0.1331  0.1299
  745TMC3    O211019   0.609   3.314  13.960  0.3670  0.2805 -0.1721
  746TMC3    C111020   3.727   0.014  11.145 -0.0313  0.0458  0.4711
  746TMC3    C211021   3.835   4.706  11.066 -0.3874  0.1328 -0.5625
  746TMC3    C311022   3.818   4.615  10.968 -0.3115 -0.1687  0.0428
  746TMC3    C411023   3.603   4.694  11.109 -0.1878  0.7853 -0.9221
  746TMC3    C511024   3.588   4.597  11.012 -0.2061 -0.5603  0.1614
  746TMC3    C611025   3.701   4.548  10.954  0.6367  0.5974 -0.1923
  746TMC3     C11026   3.728   0.131  11.228  0.2732  0.1911  0.7219
  746TMC3     O11027   3.628   0.201  11.215  0.5587 -0.1717 -0.3140
  746TMC3     H11028   3.922   0.045  11.065 -0.4737  0.2406 -1.4175
  746TMC3    H111029   3.521   0.003  11.171  0.2601  0.0795  0.0637
  746TMC3    H211030   3.695   4.460  10.892  2.8001  0.5601 -0.3589
  746TMC3    C711031   3.451   4.547  10.995  0.1866  0.4547  0.2162
  746TMC3    C811032   3.918   4.610  10.863 -0.3999 -0.3681  0.2003
  746TMC3    O111033   3.430   4.481  10.892  0.3468  0.4813  0.3603
  746TMC3    O211034   4.032   4.656  10.889 -0.3318  0.2778  0.0593
  747TMC3    C111035   0.840   4.475  11.150 -0.2998 -0.3039  0.4439
  747TMC3    C211036   0.742   4.479  11.256  0.3307  0.3831  0.4163
  747TMC3    C311037   0.787   4.499  11.384 -0.0012  0.1046 -0.2877
  747TMC3    C411038   0.974   4.501  11.179  0.5443 -0.6340 -0.1489
  747TMC3    C511039   1.013   4.509  11.314 -0.5972  0.4146  0.1865
  747TMC3    C611040   0.920   4.504  11.414 -0.1236  0.5061  0.0528
  747TMC3     C11041   0.784   4.512  11.021 -0.0472  0.0323  0.9550
  747TMC3     O11042   0.697   4.597  11.021  0.0500 -0.1979  0.3167
  747TMC3     H11043   0.637   4.486  11.229  0.5724  2.3177 -0.0672
  747TMC3    H111044   1.048   4.509  11.100  1.5485  2.1666  1.0996
  747TMC3    H211045   0.963   4.497  11.513 -2.1189  0.7953  0.9456
  747TMC3    C711046   1.157   4.521  11.344  0.1769  0.4875 -0.5502
  747TMC3    C811047   0.697   4.441  11.483 -0.1155 -0.4738 -0.1853
  747TMC3    O111048   1.185   4.545  11.460  0.1386 -0.2249 -0.9881
  747TMC3    O211049   0.636   4.342  11.444  0.3734  0.2280  0.1630
  748MPD2     C11050   1.799   1.304   1.528  0.0012  0.3174  0.5509
  748MPD2    C111051   1.841   1.181   1.500  0.1685  0.7757  1.0921
  748MPD2    C211052   1.974   1.154   1.508 -0.2938 -0.3499  0.3158
  748MPD2    C311053   2.065   1.250   1.546 -0.2573  0.2655  0.1723
  748MPD2    C411054   2.022   1.378   1.568  0.6997  0.2727 -0.4295
  748MPD2    C511055   1.887   1.403   1.555 -0.0597 -0.5387 -0.0162
  748MPD2     H11056   2.020   1.061   1.475  0.0033 -1.0409  2.6029
  748MPD2    H111057   2.093   1.456   1.590 -0.1136  1.5120 -2.2328
  748MPD2    H211058   1.699   1.338   1.505 -0.0170 -0.8720 -1.1057
  748MPD2    H311059   1.860   1.508   1.556 -0.2266 -0.5723 -1.0119
  748MPD2     N11060   2.203   1.227   1.535  0.3340  0.1291 -0.1874
  748MPD2    H511061   2.228   1.136   1.496 -1.3418 -1.0550  1.4934
  748MPD2    N111062   1.747   1.091   1.444  0.4422  0.7045  0.2941
  748MPD2    H711063   1.654   1.123   1.418 -0.0204 -1.5207 -0.8146
  749TMC3    C111064   2.420   1.239   1.567  1.2761 -0.0211 -0.1795
  749TMC3    C211065   2.506   1.196   1.662 -0.2558  0.4387  0.1910
  749TMC3    C311066   2.634   1.150   1.631  0.4130  0.0302  0.1497
  749TMC3    C411067   2.460   1.254   1.437  0.9905 -0.5715  0.1778
  749TMC3    C511068   2.587   1.209   1.409  0.4714  0.8805  0.0905
  749TMC3    C611069   2.679   1.159   1.498  0.2957  0.1612 -0.0552
  749TMC3     C11070   2.301   1.302   1.598 -0.3481 -0.3923  0.1822
  749TMC3     O11071   2.292   1.377   1.693 -0.0291  0.1277  0.2677
  749TMC3     H11072   2.470   1.190   1.764 -0.0731 -2.3891  0.0856
  749TMC3    H111073   2.397   1.288   1.356  1.9453 -1.0141 -0.7449
  749TMC3    H211074   2.780   1.134   1.467  1.6466  2.1983  2.7238
  749TMC3    C711075   2.619   1.195   1.265 -0.4833  0.0907 -0.0717
  749TMC3    C811076   2.708   1.095   1.736 -0.0641 -0.6506  0.4948
  749TMC3    O111077   2.581   1.289   1.192  0.1332  0.7623  0.1656
  749TMC3    O211078   2.658   1.100   1.849  0.0626  0.1589  0.0958
  750MPD2     C11079   3.628   1.876  11.529 -0.1433  0.8694 -0.0117
  750MPD2    C111080   3.509   1.819  11.485 -0.3541  0.3425  1.1383
  750MPD2    C211081   3.505   1.685  11.448 -0.8053  0.4562 -0.2240
  750MPD2    C311082   3.611   1.608  11.456  0.2611 -0.1488 -0.7025
  750MPD2    C411083   3.732   1.666  11.498 -0.7734 -0.5478  0.2815
  750MPD2    C511084   3.739   1.801  11.530  0.3933 -0.7208  1.1199
  750MPD2     H11085   3.416   1.647  11.399 -0.2160 -1.3275  0.0777
  750MPD2    H111086   3.819   1.603  11.512 -0.4209  0.1044  1.0401
  750MPD2    H211087   3.638   1.980  11.556 -0.5120  0.1375  2.9821
  750MPD2    H311088   3.825   1.839  11.582  0.5401  0.2937  0.1454
  750MPD2     N11089   3.614   1.475  11.425 -0.3129  0.2070 -0.3026
  750MPD2    H511090   3.705   1.432  11.421 -1.3858 -1.9697 -0.9947
  750MPD2    N111091   3.404   1.912  11.453 -0.3850  0.2864  0.3091
  750MPD2    H711092   3.416   2.010  11.477  0.1722 -0.5046  3.1515
  751TMC3    C111093   3.513   1.271  11.357  0.0033  0.2351 -0.6225
  751TMC3    C211094   3.411   1.184  11.373 -0.0707  0.1544  0.1578
  751TMC3    C311095   3.413   1.062  11.319 -0.3664 -0.1103  0.5656
  751TMC3    C411096   3.600   1.258  11.257  0.5418  0.0636 -0.4363
  751TMC3    C511097   3.596   1.138  11.188 -0.0757 -0.0866 -0.1143
  751TMC3    C611098   3.507   1.040  11.217 -0.2866 -0.0382 -0.0419
  751TMC3     C11099   3.500   1.399  11.417 -0.7972 -0.4321  0.4568
  751TMC3     O11100   3.386   1.430  11.455 -0.2121 -0.3265 -0.0713
  751TMC3     H11101   3.343   1.208  11.455 -0.2415  2.0254 -0.5177
  751TMC3    H111102   3.691   1.316  11.251  0.6488 -0.1961 -1.3439
  751TMC3    H211103   3.517   0.940  11.176 -0.4904 -0.5436  1.1136
  751TMC3    C711104   3.670   1.135  11.065  0.6080 -0.5234 -0.3767
  751TMC3    C811105   3.304   0.971  11.325 -0.1813 -0.0325  0.5098
  751TMC3    O111106   3.753   1.221  11.044 -0.2556  0.1701  0.0618
  751TMC3    O211107   3.312   0.885  11.237  0.0192  0.3981  0.9932
  752TMC3    C111108   2.733   1.699  17.306  0.2102  0.3669  0.0877
  752TMC3    C211109   2.857   1.724  17.360  0.0791  0.1060 -0.0121
  752TMC3    C311110   2.895   1.644  17.464 -0.1900 -0.0883 -0.2385
  752TMC3    C411111   2.643   1.606  17.351 -0.2166  0.4158 -0.4471
  752TMC3    C511112   2.689   1.532  17.461  1.1014  0.8738 -0.6785
  752TMC3    C611113   2.808   1.554  17.519  0.1001 -0.5535  0.0516
  752TMC3     C11114   2.711   1.768  17.185  0.6002  0.0829  0.4545
  752TMC3     O11115   2.811   1.812  17.130  0.3293 -0.1696 -0.0358
  752TMC3     H11116   2.923   1.799  17.318 -1.3261  1.3150 -0.0538
  752TMC3    H111117   2.552   1.584  17.296  0.0504  0.7562 -1.0258
  752TMC3    H211118   2.840   1.502  17.609 -2.3368 -2.1835 -0.0156
  752TMC3    C711119   2.597   1.447  17.532  1.1992 -0.0365 -0.1232
  752TMC3    C811120   3.037   1.655  17.504  0.1782 -0.5178 -1.0449
  752TMC3    O111121   2.485   1.482  17.505  0.6136  0.1258 -0.2738
  752TMC3    O211122   3.098   1.745  17.446 -1.4094 -0.4080 -0.2378
  753TMC3    C111123   0.152   3.240  13.515 -0.2004  0.3828  0.4167
  753TMC3    C211124   0.088   3.237  13.634  0.5043  0.2311  0.3334
  753TMC3    C311125   4.700   3.161  13.654 -0.0055  0.2174 -0.0074
  753TMC3    C411126   0.093   3.178  13.403  0.2894  0.6870  0.2018
  753TMC3    C511127   4.705   3.105  13.425 -0.0996  0.0880 -0.1048
  753TMC3    C611128   4.651   3.092  13.547  0.5365 -0.3566 -0.3701
  753TMC3     C11129   0.263   3.338  13.506 -0.5496  0.2656 -0.1179
  753TMC3     O11130   0.273   3.423  13.597  0.7794 -0.7299  0.5512
  753TMC3     H11131   0.127   3.302  13.713  0.8810  0.8958 -0.3938
  753TMC3    H111132   0.131   3.188  13.302 -1.6735 -0.6386 -0.6728
  753TMC3    H211133   4.570   3.023  13.565 -0.3754  1.2028  1.4744
  753TMC3    C711134   4.612   3.064  13.329 -0.7584  1.0905 -0.3017
  753TMC3    C811135   4.596   3.199  13.755  0.0343  0.0789 -0.0296
  753TMC3    O111136   4.649   2.968  13.256  0.1163 -0.2280  0.3064
  753TMC3    O211137   4.482   3.160  13.736 -0.8386 -0.6492  0.1802
  754MPD2     C11138   2.685   1.057  12.856 -0.1986 -0.1141  0.3463
  754MPD2    C111139   2.632   1.141  12.951  0.1689  0.0040 -0.2904
  754MPD2    C211140   2.493   1.148  12.965 -0.5060 -0.2567 -0.3476
  754MPD2    C311141   2.409   1.064  12.893  0.0523  0.0999  0.2166
  754MPD2    C411142   2.468   0.970  12.805  0.0830 -0.7960  0.1950
  754MPD2    C511143   2.608   0.972  12.784  0.1808 -0.0614  0.5754
  754MPD2     H11144   2.454   1.208  13.047  0.7777  1.5395 -1.0657
  754MPD2    H111145   2.410   0.905  12.740 -0.2581  0.8322 -1.1362
  754MPD2    H211146   2.793   1.045  12.846 -0.3606 -0.8188 -0.6274
  754MPD2    H311147   2.647   0.904  12.709 -0.1965  0.7458 -0.3502
  754MPD2     N11148   2.267   1.058  12.913 -0.7913  0.4448 -0.0534
  754MPD2    H511149   2.216   0.972  12.895  1.3869 -0.5917 -1.3307
  754MPD2    N111150   2.718   1.204  13.047 -0.5046 -0.3990  0.3924
  754MPD2    H711151   2.819   1.191  13.046 -0.5558 -0.7640 -0.1201
  755MPD2     C11152   1.632   1.744  13.130  0.4661  0.3638 -0.0833
  755MPD2    C111153   1.689   1.697  13.246 -0.4068 -0.2106 -0.2396
  755MPD2    C211154   1.731   1.568  13.261 -0.1159 -0.0870 -0.2725
  755MPD2    C311155   1.711   1.481  13.158 -0.3311  0.7473 -0.2298
  755MPD2    C411156   1.636   1.521  13.048 -0.9066  0.3822  0.0026
  755MPD2    C511157   1.608   1.652  13.029  0.0057 -0.9062 -0.3926
  755MPD2     H11158   1.792   1.544  13.348  0.4642  1.8862 -0.1297
  755MPD2    H111159   1.619   1.459  12.960 -0.3807 -1.1448  0.9770
  755MPD2    H211160   1.621   1.850  13.111  2.2597  0.5429 -0.0681
  755MPD2    H311161   1.569   1.680  12.932 -1.2805 -1.5406 -0.0711
  755MPD2     N11162   1.755   1.350  13.143 -0.5926 -0.3352  0.4685
  755MPD2    H511163   1.716   1.294  13.067  1.9412 -1.2191 -0.1718
  755MPD2    N111164   1.700   1.787  13.359  0.2394  0.5783 -0.1189
  755MPD2    H711165   1.726   1.742  13.447 -1.4402  1.1656  0.6704
  756MPD2     C11166   3.704   2.456   9.830  0.2443  0.3581  0.5367
  756MPD2    C111167   3.582   2.416   9.891 -1.0304  0.3032  1.0720
  756MPD2    C211168   3.477   2.376   9.806 -0.1098  0.2543 -0.2782
  756MPD2    C311169   3.484   2.393   9.669 -0.1654  0.0861  0.4634
  756MPD2    C411170   3.606   2.429   9.617 -0.1703 -0.5370 -0.0180
  756MPD2    C511171   3.711   2.453   9.698  1.0111  0.2336  0.2534
  756MPD2     H11172   3.388   2.345   9.860  0.9570 -3.5890 -0.7373
  756MPD2    H111173   3.630   2.429   9.511 -2.3135  0.8586 -0.5012
  756MPD2    H211174   3.798   2.490   9.873  0.6546 -0.3978  0.2172
  756MPD2    H311175   3.807   2.471   9.651 -0.6904  0.5616 -3.0950
  756MPD2     N11176   3.377   2.373   9.595 -0.4051 -0.0676  0.1527
  756MPD2    H511177   3.292   2.345   9.644 -0.5869 -0.4032 -0.3594
  756MPD2    N111178   3.574   2.399  10.034 -0.0124  0.0243  0.0245
  756MPD2    H711179   3.487   2.367  10.075 -0.4843 -2.0838 -2.6243
  757MPD2     C11180   3.162   1.508   9.379  0.0972 -0.0371  0.0381
  757MPD2    C111181   3.118   1.565   9.493 -0.4108 -0.0494  0.1003
  757MPD2    C211182   3.109   1.699   9.497  0.6159  0.3384  0.0246
  757MPD2    C311183   3.143   1.769   9.380  0.1320 -0.3987 -0.0080
  757MPD2    C411184   3.179   1.704   9.258 -0.2972 -0.0573  0.3492
  757MPD2    C511185   3.184   1.570   9.267 -0.0937  0.6432 -0.7826
  757MPD2     H11186   3.084   1.756   9.586  2.6244  0.4340  0.5181
  757MPD2    H111187   3.187   1.749   9.160  0.2867 -0.1127  0.3747
  757MPD2    H211188   3.176   1.401   9.375  0.3505 -0.1103  3.4842
  757MPD2    H311189   3.205   1.507   9.182  1.7156 -1.7888  1.4732
  757MPD2     N11190   3.144   1.915   9.386  0.1583  0.1274 -0.2805
  757MPD2    H511191   3.132   1.960   9.476 -2.3536  1.6455 -1.3572
  757MPD2    N111192   3.087   1.482   9.610 -0.4845 -0.0848 -0.3995
  757MPD2    H711193   3.113   1.385   9.596 -0.4704 -0.1849  0.3436
  758MPD2     C11194   2.828   1.363  16.024  0.2098 -0.1010 -0.7381
  758MPD2    C111195   2.839   1.294  16.143  0.7020 -0.1768  0.3517
  758MPD2    C211196   2.775   1.348  16.256  0.2173 -0.0685 -0.8764
  758MPD2    C311197   2.694   1.459  16.252 -0.7592  0.2308 -0.3900
  758MPD2    C411198   2.691   1.524  16.135 -0.0227 -0.4037  0.2576
  758MPD2    C511199   2.760   1.479  16.020  0.2148  0.5214  0.5264
  758MPD2     H11200   2.783   1.297  16.351 -1.0373  0.8256 -0.2995
  758MPD2    H111201   2.638   1.619  16.131 -0.1930 -0.5800 -2.1310
  758MPD2    H211202   2.873   1.326  15.933  0.9160 -0.2988 -0.3123
  758MPD2    H311203   2.765   1.544  15.933 -0.0779  0.5712  0.5447
  758MPD2     N11204   2.635   1.521  16.366 -0.0063  0.1612  0.5624
  758MPD2    H511205   2.582   1.607  16.354  3.8020  2.5050  0.5197
  758MPD2    N111206   2.924   1.182  16.152 -0.2853  0.2697 -0.3768
  758MPD2    H711207   2.954   1.137  16.067  0.9561  2.3331 -1.0502
  759MPD2     C11208   2.527   3.936   9.552 -0.0875  0.4002  0.1494
  759MPD2    C111209   2.401   3.889   9.524 -0.5675 -0.7716 -0.3026
  759MPD2    C211210   2.382   3.806   9.410 -0.0190  0.1716 -0.7891
  759MPD2    C311211   2.482   3.772   9.328 -0.1400 -0.0726  0.0049
  759MPD2    C411212   2.605   3.816   9.357  0.0084 -0.6127 -0.4325
  759MPD2    C511213   2.626   3.908   9.461 -0.0965 -0.4400  0.0871
  759MPD2     H11214   2.286   3.764   9.384  0.1547  1.1560 -3.0425
  759MPD2    H111215   2.689   3.797   9.291  0.1973 -0.3016 -0.2809
  759MPD2    H211216   2.553   4.008   9.629  0.4233  0.5760 -0.1914
  759MPD2    H311217   2.725   3.948   9.478 -0.1813  0.4673 -1.5890
  759MPD2     N11218   2.449   3.695   9.214  0.6600 -0.3428  0.5726
  759MPD2    H511219   2.352   3.683   9.188  0.0196  1.4493  2.1692
  759MPD2    N111220   2.299   3.906   9.610 -0.6350  0.0888  0.0343
  759MPD2    H711221   2.214   3.852   9.595 -1.3708  0.6804  2.0398
  760MPD2     C11222   1.663   1.565  11.786 -0.7469  0.8066  0.3141
  760MPD2    C111223   1.761   1.634  11.855 -0.6708  0.5037  0.0871
  760MPD2    C211224   1.832   1.553  11.947 -0.2500  0.4141 -0.0379
  760MPD2    C311225   1.819   1.420  11.971 -0.0820  0.0384  0.0112
  760MPD2    C411226   1.712   1.355  11.909 -0.4127 -0.1022  0.0735
  760MPD2    C511227   1.632   1.437  11.827  0.5448 -0.4024  0.3844
  760MPD2     H11228   1.915   1.598  12.001  2.1805 -1.6789 -2.0384
  760MPD2    H111229   1.696   1.249  11.923  0.3548 -0.1718  0.4181
  760MPD2    H211230   1.594   1.607  11.713 -1.6685 -1.3970 -0.0680
  760MPD2    H311231   1.541   1.399  11.781  0.6242 -0.2257  0.0811
  760MPD2     N11232   1.898   1.339  12.060  0.2261  0.6443 -0.2138
  760MPD2    H511233   1.889   1.239  12.043  2.3446  0.5251 -0.6423
  760MPD2    N111234   1.803   1.763  11.821  0.6074 -0.0507  0.3662
  760MPD2    H711235   1.886   1.787  11.873  1.0303  1.0919 -0.8355
  761MPD2     C11236   2.913   0.717  11.522 -0.0505  0.0017  0.5938
  761MPD2    C111237   2.996   0.680  11.427  0.5841 -0.2519  0.0251
  761MPD2    C211238   3.088   0.772  11.379  1.4491 -0.7944 -0.3342
  761MPD2    C311239   3.102   0.894  11.443  0.0079 -0.3183  0.5651
  761MPD2    C411240   3.007   0.929  11.540 -0.7818  0.0368 -0.5645
  761MPD2    C511241   2.908   0.841  11.573  0.1988 -0.1060 -0.0973
  761MPD2     H11242   3.159   0.740  11.304  0.5888  0.8940 -1.8996
  761MPD2    H111243   3.002   1.026  11.588 -3.2329 -0.2799 -0.1585
  761MPD2    H211244   2.835   0.652  11.560  0.7053 -0.7397  0.8741
  761MPD2    H311245   2.828   0.859  11.644  2.0283  1.1949  1.6352
  761MPD2     N11246   3.214   0.983  11.424 -0.0950 -0.5378  0.1101
  761MPD2    H511247   3.219   1.060  11.490 -0.5091 -1.1542  0.8646
  761MPD2    N111248   2.995   0.546  11.381 -0.0637 -0.1239  0.1093
  761MPD2    H711249   2.935   0.476  11.424 -1.4248  0.6941 -0.4843
  762MPD2     C11250   2.918   4.583  10.750 -1.3450  0.3326  0.7310
  762MPD2    C111251   3.003   4.688  10.778 -0.6362 -0.2676 -0.0237
  762MPD2    C211252   3.108   4.704  10.691  0.0351 -1.0623  0.5992
  762MPD2    C311253   3.137   4.621  10.593  0.0252  0.6216 -0.1535
  762MPD2    C411254   3.065   4.507  10.575  0.4718  0.6193 -0.3593
  762MPD2    C511255   2.960   4.489  10.660 -0.4383 -0.3216 -0.5125
  762MPD2     H11256   3.179   0.058  10.710  0.7044 -1.5080 -0.0404
  762MPD2    H111257   3.084   4.429  10.503 -1.3277 -1.2994  1.2598
  762MPD2    H211258   2.834   4.562  10.816 -2.1898  0.7226 -0.2163
  762MPD2    H311259   2.904   4.396  10.651 -0.1332 -0.4638 -0.9543
  762MPD2     N11260   3.257   4.652  10.529 -0.2726 -0.3610 -0.2105
  762MPD2    H511261   3.314   4.725  10.570 -0.2232 -1.0838  0.9894
  762MPD2    N111262   2.978   0.043  10.896 -0.2910  0.2023  0.1229
  762MPD2    H711263   2.899   0.012  10.952  0.4377  0.4119  1.2517
  763MPD2     C11264   0.212   1.681  16.347  0.3970 -0.4051 -0.2010
  763MPD2    C111265   0.083   1.729  16.320  1.1680  1.1390 -0.1322
  763MPD2    C211266   0.050   1.852  16.374 -0.1538 -0.1686  0.0141
  763MPD2    C311267   0.140   1.930  16.440  0.6495 -0.0379  0.0934
  763MPD2    C411268   0.266   1.877  16.472 -0.5124  0.4324  0.2206
  763MPD2    C511269   0.306   1.759  16.416  0.6957 -0.5087  0.5005
  763MPD2     H11270   4.680   1.897  16.349  0.2489  0.6630 -0.0343
  763MPD2    H111271   0.328   1.935  16.540  0.4385  2.8321 -2.6781
  763MPD2    H211272   0.247   1.597  16.289 -0.4214 -1.0508  0.2510
  763MPD2    H311273   0.405   1.722  16.437  1.3202 -0.3798 -2.2183
  763MPD2     N11274   0.116   2.065  16.481  0.1499  0.1341  0.3172
  763MPD2    H511275   0.197   2.106  16.525  2.9371 -0.8426 -3.9539
  763MPD2    N111276   4.715   1.657  16.242  0.3299  0.9235 -0.4131
  763MPD2    H711277   4.631   1.707  16.217 -0.7107 -0.7617 -0.2938
  764MPD2     C11278   2.483   3.015   0.158  0.1079  0.5639  0.2066
  764MPD2    C111279   2.347   3.032   0.123  0.4595  0.1547 -0.5094
  764MPD2    C211280   2.250   2.991   0.213 -0.0227  0.5565 -0.4173
  764MPD2    C311281   2.290   2.950   0.342 -0.4053  0.6751 -0.1641
  764MPD2    C411282   2.426   2.928   0.373 -0.1519  0.0052 -0.0488
  764MPD2    C511283   2.518   2.951   0.273  0.3452  0.3028 -0.3073
  764MPD2     H11284   2.146   2.996   0.184 -0.2948 -1.7712  0.1591
  764MPD2    H111285   2.459   2.903   0.473 -0.6551  1.6625  0.5372
  764MPD2    H211286   2.564   3.038   0.090  0.0528  0.5041  0.1198
  764MPD2    H311287   2.622   2.944   0.303  0.5046 -0.3782 -1.0470
  764MPD2     N11288   2.182   2.910   0.428 -0.1856 -0.1414  0.0628
  764MPD2    H511289   2.089   2.909   0.388 -0.1385  0.1704 -0.0524
  764MPD2    N111290   2.300   3.075  17.700  0.1794 -0.1955  0.2516
  764MPD2    H711291   2.201   3.084  17.678 -0.2190 -1.2195  1.6149
  765MPD2     C11292   2.028   0.347  16.111  1.1680  0.4258  0.5379
  765MPD2    C111293   2.100   0.461  16.089  0.0426  0.1939 -0.5066
  765MPD2    C211294   2.217   0.454  16.015  0.5400 -0.2912 -0.0522
  765MPD2    C311295   2.282   0.335  15.987 -0.4079 -0.7615 -1.1976
  765MPD2    C411296   2.221   0.215  16.029 -0.1189  0.7019 -0.1459
  765MPD2    C511297   2.092   0.227  16.079 -0.0201  0.5446 -0.7009
  765MPD2     H11298   2.276   0.539  15.984 -0.2896  0.2182 -0.2568
  765MPD2    H111299   2.253   0.114  16.005 -1.9306  0.6182 -2.1760
  765MPD2    H211300   1.928   0.345  16.150  0.2801  0.0641 -1.7212
  765MPD2    H311301   2.037   0.134  16.093  0.4988  0.1091 -1.5098
  765MPD2     N11302   2.411   0.336  15.919 -0.7545 -0.1794 -0.1820
  765MPD2    H511303   2.451   0.428  15.901  1.4091 -0.3548  3.7689
  765MPD2    N111304   2.032   0.576  16.109 -0.2461  0.1297 -0.1604
  765MPD2    H711305   1.934   0.563  16.133 -0.5171  0.4636 -1.0839
  766MPD2     C11306   1.629   0.685  15.643 -0.2909 -0.0086 -0.1412
  766MPD2    C111307   1.737   0.767  15.642  0.1409  0.7300 -0.2523
  766MPD2    C211308   1.790   0.801  15.520  0.3527  0.4861 -0.3746
  766MPD2    C311309   1.757   0.732  15.405  0.0945  0.6605 -0.1863
  766MPD2    C411310   1.667   0.632  15.412 -0.2858  0.7617 -0.4736
  766MPD2    C511311   1.608   0.611  15.537 -0.2447 -1.0168  0.1081
  766MPD2     H11312   1.869   0.875  15.519  0.6647  0.1704  1.1502
  766MPD2    H111313   1.631   0.576  15.326 -3.8142  1.5612  0.4957
  766MPD2    H211314   1.598   0.635  15.734 -0.2153  0.0014 -0.1095
  766MPD2    H311315   1.529   0.538  15.549 -0.5110 -0.3230  2.4992
  766MPD2     N11316   1.821   0.785  15.288  0.6393  0.0336 -0.1909
  766MPD2    H511317   1.894   0.855  15.303  1.6160 -1.0541  0.1674
  766MPD2    N111318   1.787   0.836  15.758  0.1404  0.7667 -0.9667
  766MPD2    H711319   1.879   0.876  15.741  1.3487 -1.5094  0.1867
  767MPD2     C11320   1.410   1.020  15.551  0.0526  0.4926 -0.2653
  767MPD2    C111321   1.516   1.039  15.461 -0.0792  0.6278 -0.1509
  767MPD2    C211322   1.504   0.977  15.340  0.9143  0.3041 -0.3450
  767MPD2    C311323   1.399   0.898  15.310 -0.0779  0.2114  0.4417
  767MPD2    C411324   1.296   0.884  15.405 -0.1131 -0.4171  0.1683
  767MPD2    C511325   1.301   0.943  15.524  0.1915 -0.8243  0.8202
  767MPD2     H11326   1.582   0.978  15.264  0.9233 -0.9492 -0.3675
  767MPD2    H111327   1.215   0.812  15.399 -0.1262 -0.3495 -0.5106
  767MPD2    H211328   1.425   1.049  15.655 -0.8798 -0.6919  0.1928
  767MPD2    H311329   1.221   0.939  15.597  0.3981 -1.2130  1.0211
  767MPD2     N11330   1.399   0.843  15.181  0.3896 -0.5231 -0.0699
  767MPD2    H511331   1.478   0.861  15.119  0.9661  0.0818  0.8373
  767MPD2    N111332   1.635   1.110  15.501 -0.8718 -0.1338 -0.5082
  767MPD2    H711333   1.652   1.130  15.599  1.1140 -1.7785 -0.5241
  768MPD2     C11334   3.368   4.170  10.761  0.1952  0.5440  0.0997
  768MPD2    C111335   3.314   4.078  10.848 -0.1821 -0.6714  0.1146
  768MPD2    C211336   3.391   4.043  10.960  0.2025  0.1923  0.0105
  768MPD2    C311337   3.512   4.094  10.986  0.4711  0.7341  0.4916
  768MPD2    C411338   3.571   4.175  10.891  0.5322  0.0219  0.0827
  768MPD2    C511339   3.500   4.211  10.776 -0.4919  0.1487 -0.1154
  768MPD2     H11340   3.341   3.968  11.021 -1.2401 -0.0253 -1.4520
  768MPD2    H111341   3.665   4.226  10.907  0.3505  0.4709 -0.2879
  768MPD2    H211342   3.321   4.219  10.677 -1.7731 -0.8905  0.3647
  768MPD2    H311343   3.542   4.295  10.722 -0.4027  1.6788  2.2837
  768MPD2     N11344   3.583   4.061  11.107 -0.0330 -0.5682  0.0880
  768MPD2    H511345   3.673   4.105  11.126  1.0380 -2.5513 -0.4176
  768MPD2    N111346   3.182   4.025  10.834 -0.0380  0.5518  0.1839
  768MPD2    H711347   3.144   3.960  10.903 -0.0247 -0.5773 -0.8802
  769MPD2     C11348   3.685   2.372  14.793  0.2771  0.3935  0.0174
  769MPD2    C111349   3.618   2.303  14.895  0.2783  1.1811 -0.2920
  769MPD2    C211350   3.645   2.333  15.028 -0.2954 -0.1111 -0.0720
  769MPD2    C311351   3.748   2.418  15.060 -0.4159 -0.1465 -0.3279
  769MPD2    C411352   3.817   2.490  14.965  0.4198  0.0620  0.2212
  769MPD2    C511353   3.789   2.456  14.829 -0.5108 -0.2597  0.2428
  769MPD2     H11354   3.576   2.298  15.103  1.7469  0.2987  1.9867
  769MPD2    H111355   3.899   2.558  14.987  0.0538  0.7758 -0.6684
  769MPD2    H211356   3.669   2.341  14.690 -0.3588 -0.3843  0.3484
  769MPD2    H311357   3.844   2.511  14.753  1.7493 -0.9941  1.3323
  769MPD2     N11358   3.771   2.429  15.202 -0.8010  0.6995 -0.4460
  769MPD2    H511359   3.698   2.389  15.261  1.0136  0.3466  1.5548
  769MPD2    N111360   3.505   2.228  14.859 -0.5200 -0.5751 -0.1037
  769MPD2    H711361   3.480   2.231  14.760  2.0540 -1.0524 -0.7734
  770MPD2     C11362   2.850   1.628  15.412 -0.4538  0.3646 -0.1368
  770MPD2    C111363   2.950   1.577  15.339 -0.2056 -0.5058  0.5978
  770MPD2    C211364   3.026   1.657  15.260 -0.5833  0.3953  0.8930
  770MPD2    C311365   2.997   1.788  15.236  0.0629  0.2110  0.2817
  770MPD2    C411366   2.887   1.837  15.302  0.5603 -0.1460 -0.0468
  770MPD2    C511367   2.823   1.764  15.400  0.2791 -0.3557 -0.2785
  770MPD2     H11368   3.113   1.611  15.213  0.6728  1.3945  2.2248
  770MPD2    H111369   2.863   1.942  15.284  1.1198  0.1908  1.1957
  770MPD2    H211370   2.785   1.575  15.481 -0.4253  0.5028 -0.0013
  770MPD2    H311371   2.745   1.810  15.460  2.1417  0.1870  1.7368
  770MPD2     N11372   3.067   1.857  15.135 -0.5081 -0.2662  0.3446
  770MPD2    H511373   3.145   1.809  15.091 -0.5579  0.3114 -0.3698
  770MPD2    N111374   2.983   1.444  15.361 -1.1467  0.1695  0.0165
  770MPD2    H711375   2.931   1.398  15.435 -0.3485  1.1727  1.2161
  771MPD2     C11376   4.542   0.086  14.046 -0.3013  0.4293  0.1482
  771MPD2    C111377   4.638   0.167  13.992 -0.3759  0.2649  0.2874
  771MPD2    C211378   0.025   0.109  13.941  0.8648  0.6619  0.1635
  771MPD2    C311379   0.054   4.702  13.958  1.0484 -0.4140  0.5874
  771MPD2    C411380   4.693   4.629  14.040 -0.2112  0.0778  0.9603
  771MPD2    C511381   4.570   4.681  14.072  0.3707 -0.1608 -0.8246
  771MPD2     H11382   0.096   0.166  13.881  0.3149 -0.5815 -1.6691
  771MPD2    H111383   4.708   4.525  14.064  1.1692 -0.2701 -1.4012
  771MPD2    H211384   4.444   0.120  14.078  0.1588  2.3338 -0.4245
  771MPD2    H311385   4.501   4.618  14.128  0.8163 -0.3544 -0.4944
  771MPD2     N11386   0.153   4.639  13.878 -0.4528 -0.3721 -0.0150
  771MPD2    H511387   0.222   4.695  13.828  0.3858 -1.5548 -0.1947
  771MPD2    N111388   4.622   0.304  13.968 -1.0852  0.0172  0.1999
  771MPD2    H711389   4.711   0.350  13.951 -1.2546  0.7237  1.2585
  772MPD2     C11390   4.130   1.043  13.679 -0.0018  0.2463  0.1199
  772MPD2    C111391   4.120   0.928  13.754 -0.1962 -0.0461 -0.7543
  772MPD2    C211392   3.990   0.896  13.804  0.1706  0.1377  0.0380
  772MPD2    C311393   3.882   0.987  13.786  0.2933 -0.3419  0.3133
  772MPD2    C411394   3.901   1.111  13.723 -0.1482  0.0821 -0.1562
  772MPD2    C511395   4.020   1.130  13.667  0.1317 -0.2323  0.3469
  772MPD2     H11396   3.974   0.800  13.852 -0.4872  0.7057  0.9538
  772MPD2    H111397   3.821   1.183  13.706  1.2728  1.7077  0.0701
  772MPD2    H211398   4.218   1.061  13.619  1.4692  1.7691  2.7051
  772MPD2    H311399   4.027   1.215  13.601 -0.8077 -1.9851 -1.9974
  772MPD2     N11400   3.758   0.975  13.848  0.0293  0.1035  0.5509
  772MPD2    H511401   3.690   1.050  13.833  0.8955  0.4529 -1.6509
  772MPD2    N111402   4.241   0.847  13.759  0.4781 -0.6510 -0.5141
  772MPD2    H711403   4.316   0.868  13.693  0.8718  1.7869  0.7222
  773MPD2     C11404   3.796   1.870   0.396 -0.6357  0.3974 -0.4525
  773MPD2    C111405   3.710   1.766   0.360 -0.4994 -0.6680 -0.4464
  773MPD2    C211406   3.741   1.636   0.371 -0.2681  0.6592 -0.5986
  773MPD2    C311407   3.860   1.594   0.431 -0.0068  0.7036 -0.1335
  773MPD2    C411408   3.949   1.696   0.466  0.0214  0.2667  0.2859
  773MPD2    C511409   3.919   1.829   0.451  0.5941 -0.1186  0.3988
  773MPD2     H11410   3.677   1.557   0.331  0.7539 -0.1209 -0.6915
  773MPD2    H111411   4.045   1.661   0.503 -0.2572 -1.3473 -0.5447
  773MPD2    H211412   3.771   1.974   0.379 -0.8889  0.3376 -0.4488
  773MPD2    H311413   3.994   1.906   0.462  0.8035 -0.6181  2.4455
  773MPD2     N11414   3.893   1.455   0.434 -0.1929  0.1808 -0.4350
  773MPD2    H511415   3.817   1.395   0.400  0.5653  0.1425 -2.0859
  773MPD2    N111416   3.583   1.779   0.298  0.7376  0.4469  0.8026
  773MPD2    H711417   3.528   1.694   0.292 -1.1426  1.5048  3.0113
  774MPD2     C11418   2.696   0.681  13.781  0.2058 -0.3519  0.0230
  774MPD2    C111419   2.651   0.801  13.828 -0.3219  0.0927 -0.7764
  774MPD2    C211420   2.691   0.913  13.766 -0.2961  0.4752 -0.1570
  774MPD2    C311421   2.775   0.917  13.658  0.0098 -0.2831  0.6526
  774MPD2    C411422   2.817   0.796  13.607  0.8973 -0.9526 -0.4552
  774MPD2    C511423   2.780   0.682  13.678  0.5291 -0.0704  0.1321
  774MPD2     H11424   2.649   1.011  13.788 -0.5362  0.6006 -1.1296
  774MPD2    H111425   2.878   0.781  13.519  0.7151  0.0924 -0.7632
  774MPD2    H211426   2.662   0.585  13.818  0.0899 -0.1555  0.4265
  774MPD2    H311427   2.821   0.590  13.639 -2.3924 -1.0294 -0.6501
  774MPD2     N11428   2.800   1.047  13.602  0.1093  0.1752  0.2893
  774MPD2    H511429   2.746   1.126  13.637  0.5236  0.2737  0.7144
  774MPD2    N111430   2.574   0.804  13.948 -0.2023  0.8380 -0.1338
  774MPD2    H711431   2.543   0.714  13.981 -0.0338  1.4968  1.8251
  775MPD2     C11432   4.133   2.289  15.948  0.1238 -0.1149 -0.6960
  775MPD2    C111433   4.065   2.407  15.967 -0.5388  0.5559  0.2458
  775MPD2    C211434   4.138   2.525  15.949 -0.2021 -0.4194 -0.1571
  775MPD2    C311435   4.267   2.528  15.900  0.3553  0.2001  0.4026
  775MPD2    C411436   4.329   2.410  15.879 -0.2379  0.2833  0.3926
  775MPD2    C511437   4.265   2.292  15.922 -1.0890 -0.2561  0.1489
  775MPD2     H11438   4.085   2.619  15.961 -0.8709 -0.5678 -1.8544
  775MPD2    H111439   4.424   2.396  15.829 -0.7450 -1.6084 -0.0546
  775MPD2    H211440   4.081   2.197  15.968 -0.8336  0.1593 -1.8987
  775MPD2    H311441   4.324   2.201  15.924 -0.0266  0.3801 -1.9344
  775MPD2     N11442   4.343   2.644  15.862  0.3183 -0.0125 -0.1878
  775MPD2    H511443   4.438   2.635  15.828 -0.4887 -0.0186 -2.3986
  775MPD2    N111444   3.933   2.408  16.024  0.9334 -0.4973  0.9329
  775MPD2    H711445   3.880   2.322  16.032  0.6324 -0.3919  0.1029
  776MPD2     C11446   3.117   2.589  11.030 -0.1548  0.5620 -0.8029
  776MPD2    C111447   3.205   2.531  11.121 -0.2996 -1.0085 -0.5896
  776MPD2    C211448   3.321   2.595  11.145  0.1028  0.0586 -0.6688
  776MPD2    C311449   3.354   2.724  11.088 -0.4961 -0.0791 -0.5958
  776MPD2    C411450   3.258   2.783  11.003  0.1050  0.3936 -0.6601
  776MPD2    C511451   3.145   2.712  10.973  0.0412  0.1653  0.0796
  776MPD2     H11452   3.391   2.550  11.214 -1.3492  3.4144  2.9676
  776MPD2    H111453   3.266   2.882  10.960 -0.5885  1.0256  0.6910
  776MPD2    H211454   3.026   2.535  11.005 -0.6574  1.3150 -0.6047
  776MPD2    H311455   3.062   2.754  10.917  2.6137  2.6802 -1.8541
  776MPD2     N11456   3.470   2.791  11.116  0.1441 -0.1545 -0.5982
  776MPD2    H511457   3.471   2.890  11.094  1.0105  0.1686  0.9163
  776MPD2    N111458   3.172   2.411  11.181 -0.2797  0.2394 -0.5830
  776MPD2    H711459   3.079   2.376  11.160 -1.2666  2.5889 -0.0826
  777MPD2     C11460   3.433   0.771   0.956  0.5726  0.0896  0.6860
  777MPD2    C111461   3.518   0.734   1.057 -0.0121 -0.0287 -1.0234
  777MPD2    C211462   3.572   0.607   1.061 -0.1931 -0.0535  0.6615
  777MPD2    C311463   3.538   0.515   0.960 -0.3871 -0.4819 -0.1650
  777MPD2    C411464   3.439   0.542   0.869 -0.5537 -0.4707 -0.3904
  777MPD2    C511465   3.393   0.674   0.864  0.3088  0.7874  0.3185
  777MPD2     H11466   3.636   0.564   1.137  0.8744 -0.7880 -0.6466
  777MPD2    H111467   3.393   0.469   0.805 -1.2936 -1.7967  1.6491
  777MPD2    H211468   3.400   0.873   0.939  0.6725  0.0119  0.0048
  777MPD2    H311469   3.330   0.712   0.784  2.1996  0.7340 -1.2063
  777MPD2     N11470   3.598   0.385   0.967  0.1781  0.2219  0.3868
  777MPD2    H511471   3.657   0.358   1.045  1.6692 -1.1696 -1.2276
  777MPD2    N111472   3.549   0.832   1.157  0.0555  0.1159  0.6702
  777MPD2    H711473   3.492   0.916   1.158  0.0483  0.1206 -0.3419
  778MPD2     C11474   4.410   0.162  15.506  0.4417  0.5981  0.0081
  778MPD2    C111475   4.355   0.139  15.380 -0.1722 -0.0706 -0.0561
  778MPD2    C211476   4.404   0.221  15.273  0.4614 -0.1291  0.2941
  778MPD2    C311477   4.488   0.330  15.306 -0.0593 -0.1875  0.2162
  778MPD2    C411478   4.533   0.354  15.431 -0.0206  0.5597 -0.0642
  778MPD2    C511479   4.490   0.268  15.537  0.0521  0.0251  0.0034
  778MPD2     H11480   4.388   0.195  15.169 -1.9360  1.2674  0.3173
  778MPD2    H111481   4.607   0.426  15.464 -0.7539  1.6194 -0.7594
  778MPD2    H211482   4.377   0.096  15.586 -3.1401  2.2625 -0.0909
  778MPD2    H311483   4.532   0.282  15.636 -2.6939  1.9101  0.9030
  778MPD2     N11484   4.530   0.410  15.195 -0.0329 -1.0676  0.8441
  778MPD2    H511485   4.503   0.369  15.106  2.1663  2.6004 -1.5038
  778MPD2    N111486   4.256   0.036  15.357 -0.6038 -0.0744  0.2904
  778MPD2    H711487   4.225   0.030  15.260 -0.9192  0.1728  0.3783
  779MPD2     C11488   4.279   3.944  14.626 -0.5551  1.1995  0.4776
  779MPD2    C111489   4.404   3.974  14.583  1.4325 -0.3115 -0.9407
  779MPD2    C211490   4.434   4.096  14.530  0.3092 -0.2103  0.0405
  779MPD2    C311491   4.342   4.196  14.517  0.5804  0.4955 -0.1995
  779MPD2    C411492   4.214   4.177  14.564 -0.0716  0.3602  0.3064
  779MPD2    C511493   4.189   4.050  14.611  0.1045 -0.5853 -0.1080
  779MPD2     H11494   4.535   4.125  14.501 -0.1251  1.1966 -0.0826
  779MPD2    H111495   4.136   4.251  14.572 -1.8192 -1.6977  2.3231
  779MPD2    H211496   4.248   3.845  14.657  1.4574  0.3054 -0.3843
  779MPD2    H311497   4.089   4.042  14.652 -0.4064 -2.6926 -1.7680
  779MPD2     N11498   4.383   4.321  14.474 -1.0233 -0.4695 -0.1507
  779MPD2    H511499   4.483   4.338  14.469 -0.5069 -3.9529 -1.2894
  779MPD2    N111500   4.511   3.878  14.582  0.1775 -0.1820 -0.2697
  779MPD2    H711501   4.590   3.906  14.525 -0.6066  3.1314  0.2870
  780MPD2     C11502   3.545   3.764   1.311 -0.0944  0.4584 -0.6397
  780MPD2    C111503   3.638   3.666   1.278  0.7287  0.0798 -0.3289
  780MPD2    C211504   3.705   3.677   1.161 -0.1274 -0.7967 -0.1079
  780MPD2    C311505   3.674   3.766   1.063 -0.1638  0.5589  0.8980
  780MPD2    C411506   3.575   3.862   1.087 -0.2801  0.2876  0.5255
  780MPD2    C511507   3.510   3.860   1.210  0.3762  0.0192 -0.8690
  780MPD2     H11508   3.785   3.605   1.147  0.9494  0.4870 -0.5562
  780MPD2    H111509   3.545   3.936   1.013  2.9046  0.0579 -0.9821
  780MPD2    H211510   3.491   3.764   1.405 -1.4765 -0.3048 -1.4255
  780MPD2    H311511   3.430   3.928   1.240  1.3285  0.0431  1.6026
  780MPD2     N11512   3.762   3.768   0.959  0.2668  0.0495  0.2440
  780MPD2    H511513   3.825   3.689   0.948  0.2424 -0.0607  0.8396
  780MPD2    N111514   3.670   3.571   1.382  0.0968  0.0020 -0.1324
  780MPD2    H711515   3.625   3.585   1.471  0.2996 -1.8742  0.2579
  781MPD2     C11516   1.653   0.761  12.071 -0.8529  0.0166  0.2563
  781MPD2    C111517   1.592   0.640  12.093  1.1942 -0.1176  0.5944
  781MPD2    C211518   1.628   0.533  12.005 -0.3111 -0.3396  0.0239
  781MPD2    C311519   1.730   0.554  11.917 -0.1003  0.1416 -0.4103
  781MPD2    C411520   1.796   0.671  11.907 -0.0209 -0.3448  0.1221
  781MPD2    C511521   1.754   0.776  11.985 -0.7575 -0.1838 -0.2323
  781MPD2     H11522   1.581   0.437  12.018  0.3813 -0.7736 -0.6304
  781MPD2    H111523   1.873   0.690  11.834  1.3890 -0.6993  1.5245
  781MPD2    H211524   1.618   0.848  12.125  0.7736  0.9198 -0.1267
  781MPD2    H311525   1.799   0.873  11.968  1.0650 -1.0616 -0.3968
  781MPD2     N11526   1.772   0.446  11.833 -0.4641 -0.2170 -0.2881
  781MPD2    H511527   1.840   0.474  11.764 -1.6638  0.8601 -1.0504
  781MPD2    N111528   1.501   0.615  12.201 -0.6253  0.6083  0.3830
  781MPD2    H711529   1.464   0.520  12.205 -1.6613  1.0455  1.2825
  782MPD2     C11530   3.765   1.585  10.268  0.0082 -0.3223 -0.3219
  782MPD2    C111531   3.900   1.586  10.252 -0.1455 -0.1309  0.4088
  782MPD2    C211532   3.975   1.662  10.338 -0.1294  0.7522  0.0194
  782MPD2    C311533   3.919   1.738  10.437 -0.3416  0.2896  0.8990
  782MPD2    C411534   3.784   1.741  10.446 -0.3196  0.3084  0.2412
  782MPD2    C511535   3.704   1.665  10.360 -0.1337 -0.1686 -0.4116
  782MPD2     H11536   4.083   1.665  10.335 -0.1375  0.2936 -0.6140
  782MPD2    H111537   3.742   1.786  10.535 -0.0453  0.8377  0.0984
  782MPD2    H211538   3.696   1.521  10.214  0.2715  0.4120 -1.5175
  782MPD2    H311539   3.597   1.657  10.379  0.2215 -1.2230  1.1777
  782MPD2     N11540   4.002   1.809  10.528  0.0352 -0.0569 -0.2168
  782MPD2    H511541   4.100   1.792  10.507 -0.4786 -1.0511 -1.8562
  782MPD2    N111542   3.954   1.492  10.166  0.0477 -0.5720 -0.3623
  782MPD2    H711543   3.894   1.419  10.130 -2.6633  1.3443  0.2761
  783MPD2     C11544   3.581   0.921  10.783  0.3154 -0.0775  0.2464
  783MPD2    C111545   3.658   1.014  10.847  0.0714 -0.1250 -0.5686
  783MPD2    C211546   3.781   1.068  10.792  0.6335 -0.2115 -0.1113
  783MPD2    C311547   3.811   1.040  10.664 -0.1986 -0.2707 -0.5424
  783MPD2    C411548   3.727   0.948  10.595  0.4885 -0.5125  0.6883
  783MPD2    C511549   3.622   0.887  10.659 -0.0105  0.0964  0.3455
  783MPD2     H11550   3.838   1.144  10.845  0.2051  0.0912 -0.0868
  783MPD2    H111551   3.752   0.905  10.499 -0.7062  0.2808  0.0204
  783MPD2    H211552   3.493   0.876  10.828  0.7936 -0.6413  0.6157
  783MPD2    H311553   3.565   0.811  10.606 -1.1009  0.6617  0.7145
  783MPD2     N11554   3.924   1.107  10.601  0.0072  0.0927  0.1156
  783MPD2    H511555   3.970   1.185  10.648  0.0147  0.8389 -1.1299
  783MPD2    N111556   3.612   1.048  10.977 -0.5865 -0.3738 -0.5775
  783MPD2    H711557   3.523   1.010  11.007  0.2885 -0.7957  1.4798
  784MPD2     C11558   1.934   1.708   1.215  0.7357  0.4783  0.1559
  784MPD2    C111559   1.920   1.810   1.300 -0.5192 -0.2666 -1.1113
  784MPD2    C211560   1.808   1.895   1.273 -1.3417 -0.0454 -0.4087
  784MPD2    C311561   1.710   1.870   1.184  0.0870 -0.8125  0.1476
  784MPD2    C411562   1.720   1.750   1.115 -0.3752 -0.1932 -1.2873
  784MPD2    C511563   1.834   1.672   1.129 -0.4001 -0.2237 -0.0080
  784MPD2     H11564   1.794   1.989   1.327 -1.0505  0.5052 -1.2987
  784MPD2    H111565   1.648   1.706   1.046 -0.4799 -0.8506 -0.7579
  784MPD2    H211566   2.016   1.637   1.225 -0.3031 -0.6035  0.9229
  784MPD2    H311567   1.843   1.581   1.071 -1.1190 -1.0544  1.2038
  784MPD2     N11568   1.597   1.957   1.171  0.4348 -0.0305  0.2606
  784MPD2    H511569   1.598   2.036   1.235  0.8094 -0.6491  1.0230
  784MPD2    N111570   2.017   1.845   1.393 -0.8156 -0.4143 -0.1034
  784MPD2    H711571   1.997   1.929   1.446  1.0807 -0.1617  0.2108
  785MPD2     C11572   2.407   4.592  11.192 -0.7471 -0.1013 -0.6064
  785MPD2    C111573   2.286   4.615  11.133 -0.1716 -0.3837  0.4462
  785MPD2    C211574   2.227   4.521  11.053  0.1551 -0.2168  0.3189
  785MPD2    C311575   2.298   4.406  11.031  0.5214  0.7835 -0.3854
  785MPD2    C411576   2.422   4.384  11.092 -0.3633 -0.0792  0.0441
  785MPD2    C511577   2.481   4.488  11.161 -0.5068  0.5036 -0.0044
  785MPD2     H11578   2.124   4.524  11.020  0.6303  0.4559 -1.1149
  785MPD2    H111579   2.483   4.295  11.082 -2.8782 -1.6703 -0.8501
  785MPD2    H211580   2.452   4.669  11.253  0.4874 -0.1431 -1.4679
  785MPD2    H311581   2.574   4.475  11.215 -0.4498 -1.7488 -0.6717
  785MPD2     N11582   2.237   4.304  10.965  0.1642 -0.1877  0.1553
  785MPD2    H511583   2.139   4.319  10.941  0.3770  0.3183 -0.4292
  785MPD2    N111584   2.221   0.013  11.157 -0.2337 -0.2397 -0.3391
  785MPD2    H711585   2.263   0.074  11.227  1.2282 -0.6300 -0.8806
  786MPD2     C11586   4.591   3.390  14.894 -0.3335  0.0014 -0.2975
  786MPD2    C111587   4.694   3.301  14.889  0.8341  0.7363 -0.4552
  786MPD2    C211588   0.042   3.275  15.003  0.1784 -0.3047 -0.0952
  786MPD2    C311589   0.012   3.325  15.125  0.0680 -1.2865 -0.3485
  786MPD2    C411590   4.632   3.406  15.129  0.4476  0.9998  0.2905
  786MPD2    C511591   4.564   3.446  15.012 -0.6371  0.4871 -0.4459
  786MPD2     H11592   0.125   3.206  14.992 -1.6322 -2.6222  0.7894
  786MPD2    H111593   4.603   3.446  15.226 -2.6011  0.0329 -0.2420
  786MPD2    H211594   4.537   3.420  14.805 -2.0087 -1.8935  0.0674
  786MPD2    H311595   4.470   3.499  15.014 -2.1152 -2.1820  1.7446
  786MPD2     N11596   0.076   3.300  15.247  0.0099  0.2700  0.4193
  786MPD2    H511597   0.048   3.354  15.328  1.2996 -0.9987  1.7169
  786MPD2    N111598   0.009   3.229  14.770 -0.4064 -0.3255  0.3869
  786MPD2    H711599   0.085   3.162  14.777  0.4561  0.6484  0.4116
  787MPD2     C11600   0.403   2.765  14.748 -0.3915 -0.3256 -0.0539
  787MPD2    C111601   0.425   2.829  14.630  0.7707 -0.2597 -0.0401
  787MPD2    C211602   0.540   2.805  14.560 -0.4831  0.1340 -0.7449
  787MPD2    C311603   0.631   2.713  14.599 -0.7354 -0.6036 -0.1759
  787MPD2    C411604   0.623   2.677  14.731  0.2030  0.2993 -0.3705
  787MPD2    C511605   0.503   2.692  14.799 -0.2907  1.1202 -0.2179
  787MPD2     H11606   0.553   2.860  14.467 -0.2946 -0.1079 -0.8616
  787MPD2    H111607   0.699   2.616  14.779  2.5374  2.8055 -0.9427
  787MPD2    H211608   0.320   2.789  14.814 -0.1058 -0.0777  0.2135
  787MPD2    H311609   0.495   2.660  14.903  0.8549  1.7390  0.0571
  787MPD2     N11610   0.730   2.667  14.513  1.0437 -0.2090 -0.1526
  787MPD2    H511611   0.799   2.601  14.548 -0.9529 -1.2018  1.9182
  787MPD2    N111612   0.330   2.926  14.586  0.4496  0.6424 -0.2408
  787MPD2    H711613   0.261   2.950  14.656  0.4114  0.3748 -0.1854
  788MPD2     C11614   1.861   0.953   1.101  0.4561  0.8321  0.2686
  788MPD2    C111615   1.791   0.884   1.004  0.0295 -0.2954 -0.0392
  788MPD2    C211616   1.736   0.947   0.901 -1.3959 -0.2555 -0.5032
  788MPD2    C311617   1.754   1.079   0.873  0.0262  0.5282  0.0432
  788MPD2    C411618   1.826   1.148   0.969  0.3943  0.0257 -0.2256
  788MPD2    C511619   1.876   1.087   1.080 -0.6336 -0.6582  0.4694
  788MPD2     H11620   1.680   0.883   0.833 -1.4953  0.1594 -0.8106
  788MPD2    H111621   1.850   1.250   0.943 -0.6787  0.2853 -0.2182
  788MPD2    H211622   1.915   0.907   1.183 -0.3621 -1.2979 -0.3783
  788MPD2    H311623   1.946   1.143   1.141 -1.0268  1.3768 -0.9393
  788MPD2     N11624   1.720   1.135   0.748 -0.0623  0.2922 -0.2417
  788MPD2    H511625   1.743   1.234   0.740  0.1804  0.2227 -0.4112
  788MPD2    N111626   1.755   0.743   1.009 -0.8619  0.1307  0.2928
  788MPD2    H711627   1.695   0.719   0.932 -0.4972 -1.6802  0.5660
  789MPD2     C11628   2.540   1.061  16.150 -0.9959  0.0278 -0.5326
  789MPD2    C111629   2.488   0.971  16.231 -0.8882  0.4038 -0.1933
  789MPD2    C211630   2.388   1.002  16.323  0.2273 -0.0939  0.1282
  789MPD2    C311631   2.352   1.135  16.338  0.9331  0.2110 -0.7293
  789MPD2    C411632   2.424   1.226  16.269 -0.4790  0.0378 -0.2412
  789MPD2    C511633   2.502   1.191  16.171 -0.8890  0.4527  0.2739
  789MPD2     H11634   2.347   0.926  16.389  1.3503  0.0629  1.0075
  789MPD2    H111635   2.412   1.334  16.277 -0.7262 -0.1221  1.5645
  789MPD2    H211636   2.618   1.035  16.078  1.1156  0.5915  1.5491
  789MPD2    H311637   2.534   1.270  16.103 -0.9760 -0.2274 -0.5623
  789MPD2     N11638   2.257   1.189  16.424 -0.2543  0.1020 -0.1528
  789MPD2    H511639   2.225   1.281  16.395  0.3114  0.0289 -1.0129
  789MPD2    N111640   2.523   0.831  16.232 -0.0900 -0.3818  0.1664
  789MPD2    H711641   2.478   0.766  16.296  0.8653 -1.1015  0.1090
  790MPD2     C11642   2.847   2.638  13.869 -0.0722  0.3447 -0.2182
  790MPD2    C111643   2.982   2.677  13.857  0.2496  0.3125  0.4140
  790MPD2    C211644   3.034   2.677  13.728  0.1807 -0.4083 -0.5549
  790MPD2    C311645   2.963   2.664  13.612  0.4311 -0.7869  0.0734
  790MPD2    C411646   2.827   2.647  13.629  0.6695 -0.1013 -0.2684
  790MPD2    C511647   2.767   2.631  13.755  0.0591 -0.5371  0.5461
  790MPD2     H11648   3.138   2.705  13.729 -0.0233  0.2421  2.2215
  790MPD2    H111649   2.754   2.642  13.548 -0.1208 -2.2006  0.5635
  790MPD2    H211650   2.798   2.624  13.964 -0.7975  2.5412 -0.2739
  790MPD2    H311651   2.663   2.599  13.755 -0.0329 -0.2428  1.3313
  790MPD2     N11652   3.030   2.664  13.488 -0.4729  0.4826  0.0690
  790MPD2    H511653   3.129   2.686  13.493 -0.9760  2.3694  1.5839
  790MPD2    N111654   3.056   2.692  13.973  0.3468  0.8732 -0.5570
  790MPD2    H711655   3.002   2.688  14.059  0.0296  2.1752 -0.6991
  791MPD2     C11656   2.854   2.820  12.653 -0.0211  0.4151  0.5401
  791MPD2    C111657   2.868   2.718  12.740  0.3226 -0.0858 -1.0490
  791MPD2    C211658   2.784   2.603  12.729 -0.1906 -0.1119 -0.2040
  791MPD2    C311659   2.700   2.591  12.620  0.8288  0.4487 -0.5139
  791MPD2    C411660   2.684   2.701  12.533  0.1655 -0.3636 -0.0066
  791MPD2    C511661   2.761   2.809  12.554  0.1596  0.5905  0.2093
  791MPD2     H11662   2.801   2.525  12.802 -0.4221 -1.4641 -1.6153
  791MPD2    H111663   2.626   2.710  12.442 -0.4304 -0.0126  0.4075
  791MPD2    H211664   2.925   2.901  12.666  0.1035  0.2712  0.7395
  791MPD2    H311665   2.750   2.892  12.485 -0.4864  0.1685 -0.1884
  791MPD2     N11666   2.627   2.469  12.608 -0.2501  0.4617 -0.1865
  791MPD2    H511667   2.656   2.405  12.681  0.2367  0.2959 -0.5290
  791MPD2    N111668   2.966   2.735  12.848  0.4402  0.4522 -0.0869
  791MPD2    H711669   2.996   2.826  12.881 -0.3245 -0.7983  3.9757
  792MPD2     C11670   4.077   2.090  11.333 -0.0649 -0.9313 -0.4303
  792MPD2    C111671   3.970   2.140  11.251 -0.1085  0.2603 -0.5613
  792MPD2    C211672   3.885   2.044  11.200 -0.0197  0.5273  0.6650
  792MPD2    C311673   3.901   1.909  11.221  0.3124 -0.5592  0.0929
  792MPD2    C411674   4.009   1.867  11.296 -0.7476  0.5175  0.2987
  792MPD2    C511675   4.098   1.961  11.345 -0.3909  0.5019 -0.1553
  792MPD2     H11676   3.812   2.067  11.123  1.4071 -4.1476 -2.1211
  792MPD2    H111677   4.025   1.762  11.316 -1.1043  0.4065 -0.0164
  792MPD2    H211678   4.157   2.152  11.372  0.6362 -0.7069 -2.1979
  792MPD2    H311679   4.173   1.929  11.417 -0.7340 -0.8324 -0.3885
  792MPD2     N11680   3.812   1.805  11.178  0.0627 -0.8977 -0.2577
  792MPD2    H511681   3.840   1.708  11.189  0.6814 -1.2631 -5.0716
  792MPD2    N111682   3.956   2.278  11.227 -0.6028  0.1994  0.5500
  792MPD2    H711683   4.042   2.328  11.248 -0.0727  0.3451 -1.8935
  793MPD2     C11684   3.184   2.029  10.571  0.5891  0.0465 -0.2799
  793MPD2    C111685   3.308   2.057  10.626 -0.2403  0.1205  0.1236
  793MPD2    C211686   3.340   2.003  10.748  0.4230  0.2316 -0.0455
  793MPD2    C311687   3.266   1.899  10.802  0.0967  0.3130 -0.0966
  793MPD2    C411688   3.147   1.865  10.737  0.4370  0.0949  0.3693
  793MPD2    C511689   3.109   1.931  10.621 -0.9573  0.0647 -0.5726
  793MPD2     H11690   3.434   2.026  10.796  0.3050 -1.6782  1.0940
  793MPD2    H111691   3.072   1.800  10.779 -0.0285  0.1794 -0.3421
  793MPD2    H211692   3.137   2.090  10.494  2.6682  1.7491 -0.2011
  793MPD2    H311693   3.017   1.906  10.570  0.3370 -2.2918 -1.7383
  793MPD2     N11694   3.315   1.835  10.922  0.3123 -0.2385  0.3616
  793MPD2    H511695   3.411   1.857  10.946  0.1861  1.0496 -0.2994
  793MPD2    N111696   3.404   2.147  10.573 -0.4019  0.6414  0.6382
  793MPD2    H711697   3.486   2.161  10.631 -0.0216  0.9721  0.0187
  794MPD2     C11698   3.072   2.278  17.511  1.1474  0.0200 -0.0067
  794MPD2    C111699   3.070   2.148  17.457  0.0449  0.1064 -0.3704
  794MPD2    C211700   2.992   2.115  17.350 -0.3052  1.0730  0.1363
  794MPD2    C311701   2.919   2.219  17.289  0.8539 -0.2237  0.4324
  794MPD2    C411702   2.923   2.345  17.336  0.1375 -0.0633  0.4217
  794MPD2    C511703   3.008   2.380  17.441  0.5722  0.1205  0.6113
  794MPD2     H11704   2.998   2.012  17.316  2.2573  1.4438 -0.5759
  794MPD2    H111705   2.857   2.421  17.297 -0.3698 -0.9919 -0.5091
  794MPD2    H211706   3.113   2.308  17.607  2.2185  1.6546 -0.9870
  794MPD2    H311707   3.014   2.482  17.478  0.8241  0.7351 -1.1147
  794MPD2     N11708   2.835   2.217  17.176 -0.1682 -0.3213 -0.3920
  794MPD2    H511709   2.785   2.303  17.158 -0.6726 -0.4267  0.4943
  794MPD2    N111710   3.142   2.037  17.518  0.0861 -0.0990 -0.3449
  794MPD2    H711711   3.123   1.940  17.495 -0.3833 -0.0796 -0.0408
  795MPD2     C11712   1.245   4.076  12.944  0.5792  0.2435  0.1567
  795MPD2    C111713   1.184   3.998  13.045 -0.1404 -0.4385 -0.3315
  795MPD2    C211714   1.272   3.959  13.147 -0.3914  0.1972 -0.3249
  795MPD2    C311715   1.408   3.999  13.146 -0.5814 -0.4423  0.8286
  795MPD2    C411716   1.451   4.087  13.050 -0.2222  0.0492  0.0364
  795MPD2    C511717   1.367   4.126  12.952 -0.0774  0.3261 -0.2933
  795MPD2     H11718   1.235   3.891  13.223 -0.8374  1.4713  0.6097
  795MPD2    H111719   1.549   4.132  13.037  1.1616 -2.4584  1.7939
  795MPD2    H211720   1.190   4.114  12.859  2.5497  0.1297 -1.1616
  795MPD2    H311721   1.393   4.194  12.872  0.8143 -0.9055 -1.0406
  795MPD2     N11722   1.489   3.943  13.251 -0.5632  0.0396  0.6233
  795MPD2    H511723   1.442   3.888  13.322  0.1857  0.9781  1.8542
  795MPD2    N111724   1.046   3.964  13.049  0.5838 -0.1521 -0.4907
  795MPD2    H711725   1.013   3.911  13.130  3.7489 -0.7755  0.3760
  796MPD2     C11726   0.401   1.020  15.862  0.0684 -0.6732  1.2708
  796MPD2    C111727   0.508   1.093  15.927 -0.0284 -0.7811 -0.0986
  796MPD2    C211728   0.501   1.233  15.938  0.2648 -0.6511 -0.2247
  796MPD2    C311729   0.386   1.304  15.895  0.4293 -0.1939  0.3375
  796MPD2    C411730   0.287   1.229  15.837  0.7207 -0.3930 -0.5281
  796MPD2    C511731   0.294   1.095  15.824  0.1653  0.1447 -0.9193
  796MPD2     H11732   0.571   1.281  16.006  2.0794 -2.8982 -0.5124
  796MPD2    H111733   0.199   1.283  15.803  0.0531 -1.2921 -0.2140
  796MPD2    H211734   0.396   0.912  15.855  0.8649 -0.5063 -1.9284
  796MPD2    H311735   0.215   1.038  15.776 -1.4213  1.3418  0.2665
  796MPD2     N11736   0.377   1.443  15.925 -0.4416 -0.3888  0.1007
  796MPD2    H511737   0.441   1.486  15.991  0.5313  0.6556 -1.5393
  796MPD2    N111738   0.621   1.017  15.961  0.0554  0.1522  0.0072
  796MPD2    H711739   0.620   0.916  15.955 -0.7917 -0.0034  2.7230
  797MPD2     C11740   1.305   0.370  16.822  0.0337  0.7327 -0.6074
  797MPD2    C111741   1.293   0.372  16.954 -0.2458  0.7725  0.1307
  797MPD2    C211742   1.180   0.428  16.999 -0.2020  0.3436  0.1109
  797MPD2    C311743   1.071   0.457  16.920  0.4071 -0.0716 -0.3945
  797MPD2    C411744   1.081   0.440  16.782 -0.0090 -0.0549  0.7874
  797MPD2    C511745   1.201   0.396  16.733 -0.0665  0.3328  0.2380
  797MPD2     H11746   1.180   0.440  17.107 -0.7901 -1.2105  0.2817
  797MPD2    H111747   1.003   0.465  16.710  1.4874  1.9895 -0.1333
  797MPD2    H211748   1.390   0.325  16.771 -0.0157 -0.7300  0.6105
  797MPD2    H311749   1.207   0.381  16.625  1.5193 -0.8624  0.4850
  797MPD2     N11750   0.949   0.503  16.972 -0.8270 -0.0792  0.1105
  797MPD2    H511751   0.875   0.541  16.914 -1.4777 -0.9876  0.3470
  797MPD2    N111752   1.388   0.346  17.050 -0.3146 -0.1793 -0.4526
  797MPD2    H711753   1.342   0.339  17.140  0.9699 -0.5566  0.1776
  798MPD2     C11754   0.990   0.352  17.631 -0.1039 -0.2061  0.7500
  798MPD2    C111755   1.024   0.461  17.557 -0.5820 -0.1900  0.0926
  798MPD2    C211756   1.159   0.475  17.518  0.2837 -0.3536  0.0627
  798MPD2    C311757   1.253   0.379  17.544  0.5027  0.1316  0.4050
  798MPD2    C411758   1.211   0.273  17.617  0.0317 -0.4137 -0.5621
  798MPD2    C511759   1.086   0.258  17.667 -0.0727 -0.1870 -0.6414
  798MPD2     H11760   1.189   0.554  17.450 -1.6613  1.6001  1.4570
  798MPD2    H111761   1.283   0.200  17.654 -1.2837 -0.4768  1.8488
  798MPD2    H211762   0.889   0.340  17.670  0.3777  0.4436  2.1734
  798MPD2    H311763   1.070   0.182   0.036 -1.5490 -1.1392 -1.9463
  798MPD2     N11764   1.381   0.389  17.491  0.1851 -0.1664 -0.0819
  798MPD2    H511765   1.402   0.468  17.431 -0.4604  1.5558  1.9308
  798MPD2    N111766   0.923   0.544  17.509  0.3956  0.1880  0.0425
  798MPD2    H711767   0.827   0.511  17.517 -0.5597  3.2316  1.2896
  799MPD2     C11768   0.440   2.316  14.748 -1.2757  0.7404 -0.1905
  799MPD2    C111769   0.306   2.291  14.724  0.3313 -0.1067  0.4793
  799MPD2    C211770   0.241   2.360  14.627  0.6586  0.8991  0.1698
  799MPD2    C311771   0.302   2.445  14.539  0.2675  0.6415  0.0180
  799MPD2    C411772   0.442   2.455  14.549 -0.0981 -0.1650 -0.2207
  799MPD2    C511773   0.505   2.388  14.647  0.2889 -0.6763  0.0891
  799MPD2     H11774   0.135   2.343  14.610  0.8758  0.3818 -0.6539
  799MPD2    H111775   0.505   2.523  14.493 -0.3472 -0.6650 -1.1084
  799MPD2    H211776   0.513   2.270  14.813 -2.2815  0.8266  0.9924
  799MPD2    H311777   0.612   2.403  14.659 -0.0043  1.8252 -0.5130
  799MPD2     N11778   0.232   2.536  14.449  0.2063 -0.3087 -0.8237
  799MPD2    H511779   0.285   2.590  14.382 -0.3550  1.0305 -0.1924
  799MPD2    N111780   0.224   2.203  14.794  0.0500  0.1309 -0.3726
  799MPD2    H711781   0.139   2.176  14.745  0.0940 -1.6105  0.4795
  800MPD2     C11782   0.716   3.799  14.181 -0.3306  0.2495 -0.2159
  800MPD2    C111783   0.844   3.749  14.185  0.8882  0.1223 -0.8236
  800MPD2    C211784   0.871   3.614  14.142  0.2805  0.9777 -0.1074
  800MPD2    C311785   0.775   3.538  14.080 -0.4718 -0.0506 -0.3515
  800MPD2    C411786   0.648   3.591  14.072  0.2954 -0.3281 -0.1859
  800MPD2    C511787   0.617   3.716  14.130 -0.3482 -0.7701 -0.0102
  800MPD2     H11788   0.969   3.567  14.151 -1.9005 -2.6051  5.2025
  800MPD2    H111789   0.561   3.540  14.032  1.0917 -1.9811  0.1786
  800MPD2    H211790   0.698   3.902  14.207 -0.8119  0.6402 -2.1105
  800MPD2    H311791   0.520   3.758  14.110 -0.3536 -0.7527  0.0544
  800MPD2     N11792   0.811   3.407  14.036 -0.1283  0.3195 -0.7543
  800MPD2    H511793   0.911   3.387  14.038 -0.4833 -1.1759  2.3525
  800MPD2    N111794   0.947   3.830  14.237  0.0034 -0.3077  0.6328
  800MPD2    H711795   0.921   3.906  14.298 -1.9043 -0.5660  0.1183
  801MPD2     C11796   0.932   4.431  14.610  0.4209 -0.2037 -0.2727
  801MPD2    C111797   0.884   4.331  14.528  0.5711  0.3643  0.2710
  801MPD2    C211798   0.761   4.337  14.456 -0.4851  0.6359 -0.1212
  801MPD2    C311799   0.684   4.448  14.467  0.3944  0.1768  0.8123
  801MPD2    C411800   0.732   4.546  14.549 -0.0689  0.0565  0.1903
  801MPD2    C511801   0.853   4.541  14.599 -0.1293  0.1821  0.2553
  801MPD2     H11802   0.723   4.251  14.401 -1.5391  0.3480  1.0534
  801MPD2    H111803   0.678   4.637  14.569 -1.3364 -0.6845  0.1363
  801MPD2    H211804   1.032   4.430  14.653  0.3752  2.4650 -0.1315
  801MPD2    H311805   0.876   4.631  14.656 -0.5124 -1.2811  2.7328
  801MPD2     N11806   0.557   4.464  14.410  0.6391 -0.1770  0.0603
  801MPD2    H511807   0.517   4.555  14.431  0.4662 -0.1608 -0.3509
  801MPD2    N111808   0.951   4.209  14.517  0.6191 -0.0940 -0.0926
  801MPD2    H711809   0.903   4.133  14.470  0.5275  1.6712 -2.8807
  802MPD2     C11810   0.572   4.323   0.348 -0.6536 -0.2471  0.4604
  802MPD2    C111811   0.450   4.257   0.352 -0.1616  0.4835 -0.9395
  802MPD2    C211812   0.392   4.210   0.229  0.8322  0.0945  0.4310
  802MPD2    C311813   0.460   4.231   0.109 -0.1423 -0.2206  0.2249
  802MPD2    C411814   0.586   4.291   0.114 -0.5393  0.4768 -0.6722
  802MPD2    C511815   0.646   4.339   0.230  0.8005  0.2913  0.2972
  802MPD2     H11816   0.297   4.160   0.241 -0.3026  2.5312  1.8082
  802MPD2    H111817   0.650   4.289   0.026 -0.3764 -1.1600 -0.5109
  802MPD2    H211818   0.620   4.369   0.434  0.1833 -2.0511  0.9551
  802MPD2    H311819   0.746   4.380   0.232 -0.6624  3.8226 -0.8660
  802MPD2     N11820   0.409   4.175  17.694 -0.2287 -0.1949  0.6665
  802MPD2    H511821   0.315   4.135  17.692  0.2009 -1.2629  1.8498
  802MPD2    N111822   0.381   4.243   0.475 -0.0593  0.5285 -0.0103
  802MPD2    H711823   0.295   4.192   0.460  0.7545 -1.0163  0.5803
  803MPD2     C11824   1.578   2.189  11.673 -0.1728  0.3971  0.2114
  803MPD2    C111825   1.671   2.181  11.776  0.3140  0.2891  0.1157
  803MPD2    C211826   1.650   2.099  11.888 -0.1818 -0.4426  0.4062
  803MPD2    C311827   1.525   2.037  11.905 -0.3690 -1.0143  0.0016
  803MPD2    C411828   1.436   2.046  11.802 -0.4261  0.5889 -0.4202
  803MPD2    C511829   1.458   2.121  11.686  0.0779  0.0378  0.4170
  803MPD2     H11830   1.720   2.096  11.970  1.1209 -0.8002 -0.7323
  803MPD2    H111831   1.337   2.009  11.823 -0.3477  1.5211  1.5733
  803MPD2    H211832   1.597   2.248  11.584  0.7127 -0.3048 -0.0643
  803MPD2    H311833   1.377   2.131  11.614 -1.2646  0.0428  1.9260
  803MPD2     N11834   1.478   1.976  12.029 -0.1210  0.3355 -0.3814
  803MPD2    H511835   1.391   1.924  12.024  0.9185 -1.1769 -2.9217
  803MPD2    N111836   1.793   2.258  11.773 -0.4581  0.1358  0.5538
  803MPD2    H711837   1.851   2.243  11.855  1.1185  1.0736 -0.3671
  804MPD2     C11838   0.499   3.617  17.146 -0.4924 -0.5721 -0.1649
  804MPD2    C111839   0.499   3.574  17.279  0.2602  0.1650  0.6865
  804MPD2    C211840   0.554   3.659  17.373 -0.2584  1.3151 -0.0388
  804MPD2    C311841   0.608   3.784  17.344 -0.3705  0.7714  0.3914
  804MPD2    C411842   0.610   3.823  17.215  0.5900  0.5661 -0.9724
  804MPD2    C511843   0.548   3.744  17.121  0.1136  1.0034 -0.0678
  804MPD2     H11844   0.555   3.636  17.479 -1.7903 -0.3426 -0.3801
  804MPD2    H111845   0.623   3.923  17.175  1.0113  0.2355 -1.6729
  804MPD2    H211846   0.472   3.547  17.069 -0.3529  0.8080 -1.4755
  804MPD2    H311847   0.560   3.779  17.019  2.0833 -1.5428 -0.7235
  804MPD2     N11848   0.665   3.864  17.451 -0.4381  0.2053 -0.2443
  804MPD2    H511849   0.645   3.832  17.546 -1.4529  0.5104 -0.3515
  804MPD2    N111850   0.459   3.435  17.315  0.3069 -0.8453 -0.2040
  804MPD2    H711851   0.472   3.420  17.415 -0.0948  1.9008  0.2843
  805MPD2     C11852   0.134   2.132  15.586 -0.0736  1.0934  0.2296
  805MPD2    C111853   0.138   2.265  15.586  0.4104  0.4683 -0.7295
  805MPD2    C211854   0.228   2.326  15.670  0.3691  0.1531  0.1552
  805MPD2    C311855   0.314   2.255  15.755  0.3462  0.3053 -0.3817
  805MPD2    C411856   0.311   2.120  15.749  0.0955 -0.4195  0.2005
  805MPD2    C511857   0.222   2.059  15.658  0.3503  0.1683 -0.0051
  805MPD2     H11858   0.234   2.434  15.670 -1.9434  0.2807 -0.1760
  805MPD2    H111859   0.363   2.055  15.818 -1.2729  2.2861  3.7722
  805MPD2    H211860   0.066   2.070  15.529  0.1580  2.2040 -1.2570
  805MPD2    H311861   0.201   1.953  15.664  0.5043  0.0551 -1.4899
  805MPD2     N11862   0.391   2.325  15.850 -0.0002 -0.5866  0.4869
  805MPD2    H511863   0.395   2.425  15.835  0.4855 -0.4494  1.5435
  805MPD2    N111864   0.040   2.337  15.510  0.5743 -0.1224 -0.0438
  805MPD2    H711865   4.721   2.291  15.433  0.8231 -2.0088  0.9288
  806MPD2     C11866   0.215   1.775   0.171 -0.3914 -0.1964 -0.7977
  806MPD2    C111867   0.303   1.696   0.246 -0.2529 -0.5857  0.1237
  806MPD2    C211868   0.402   1.626   0.184 -0.1569  0.2038  0.3048
  806MPD2    C311869   0.415   1.618   0.046  0.7555  0.1645 -1.2547
  806MPD2    C411870   0.329   1.697  17.677  0.5717 -0.7650  0.0040
  806MPD2    C511871   0.229   1.766   0.033  0.1375  0.2137  0.2658
  806MPD2     H11872   0.485   1.583   0.238  1.2563  0.2540 -1.8115
  806MPD2    H111873   0.344   1.701  17.570  0.0674  0.6057 -0.0140
  806MPD2    H211874   0.139   1.838   0.216 -0.8139 -0.9681 -0.4312
  806MPD2    H311875   0.165   1.825  17.674  0.1609  0.7473  0.7372
  806MPD2     N11876   0.520   1.545  17.700 -0.4118 -0.1880  0.6685
  806MPD2    H511877   0.582   1.504   0.064 -0.6038 -1.1686  0.2502
  806MPD2    N111878   0.287   1.702   0.384  0.2027  0.2229 -0.7315
  806MPD2    H711879   0.222   1.772   0.417  1.3046  0.7423  0.3324
  807MPD2     C11880   0.047   1.888   1.134  0.6812 -0.0359 -0.0514
  807MPD2    C111881   0.173   1.822   1.143 -0.0695 -0.0406  0.0157
  807MPD2    C211882   0.231   1.802   1.264 -0.4047 -0.6266 -0.4289
  807MPD2    C311883   0.175   1.822   1.380 -0.7499 -0.5268  0.4189
  807MPD2    C411884   0.055   1.890   1.378  0.2654 -0.0834 -0.0418
  807MPD2    C511885   4.720   1.928   1.261  0.4308 -1.1826 -0.1580
  807MPD2     H11886   0.329   1.755   1.258 -0.1392 -0.0912 -0.2893
  807MPD2    H111887   0.005   1.927   1.466  0.6806  2.1859 -0.7616
  807MPD2    H211888   4.714   1.911   1.046 -0.0016  2.6033  1.0776
  807MPD2    H311889   4.625   1.979   1.267 -0.8569 -3.6855  0.6262
  807MPD2     N11890   0.257   1.798   1.494 -0.1755 -0.8870  0.6106
  807MPD2    H511891   0.353   1.773   1.474 -0.6270 -1.6294 -0.6577
  807MPD2    N111892   0.251   1.796   1.029 -0.1744  0.1559 -0.5506
  807MPD2    H711893   0.331   1.737   1.050  0.6067  0.9789 -1.2814
  808MPD2     C11894   0.818   3.190   9.623 -0.4470 -0.5143 -0.0395
  808MPD2    C111895   0.874   3.077   9.571 -0.0755  0.0129  0.6204
  808MPD2    C211896   1.015   3.064   9.580 -0.3333  0.3472 -0.0039
  808MPD2    C311897   1.101   3.154   9.640 -0.4505 -0.5781 -0.2455
  808MPD2    C411898   1.041   3.267   9.694  0.4519 -0.2844 -0.6434
  808MPD2    C511899   0.906   3.275   9.679  0.2480  0.0499  0.2913
  808MPD2     H11900   1.058   2.974   9.538 -0.0210  0.1801  0.6576
  808MPD2    H111901   1.099   3.346   9.742 -0.5204  0.5628 -0.8763
  808MPD2    H211902   0.715   3.224   9.627 -0.6205 -1.0776  0.2010
  808MPD2    H311903   0.854   3.362   9.717 -1.9992 -1.2169  0.1234
  808MPD2     N11904   1.239   3.139   9.661 -0.1983  1.1725  0.0186
  808MPD2    H511905   1.291   3.213   9.706 -1.9084  0.2076  3.5474
  808MPD2    N111906   0.798   2.975   9.498  0.3129 -0.0086  0.3880
  808MPD2    H711907   0.855   2.913   9.441 -1.5045 -1.6495  0.3690
  809MPD2     C11908   1.814   2.394   9.998 -0.6635  0.1371  0.2656
  809MPD2    C111909   1.904   2.491   9.951 -0.4547  0.3903  0.1664
  809MPD2    C211910   1.854   2.612   9.911 -0.1151 -0.1740  0.3964
  809MPD2    C311911   1.713   2.636   9.911 -0.0372  0.5149  0.4173
  809MPD2    C411912   1.632   2.536   9.961  0.2185 -0.4032  0.2298
  809MPD2    C511913   1.681   2.415  10.001  0.1139  0.4351  0.0795
  809MPD2     H11914   1.931   2.685   9.891 -3.1871  3.0490  0.2632
  809MPD2    H111915   1.524   2.542   9.953  0.1686 -0.1558  1.0205
  809MPD2    H211916   1.856   2.299  10.032  1.4927  1.2114  0.5813
  809MPD2    H311917   1.615   2.340  10.044 -1.0426  1.7471  0.5988
  809MPD2     N11918   1.645   2.754   9.872  0.2787  0.2035  0.3852
  809MPD2    H511919   1.544   2.753   9.882  0.1184 -2.0370 -1.4281
  809MPD2    N111920   2.042   2.455   9.940  0.4730  0.4639  0.3133
  809MPD2    H711921   2.097   2.524   9.891  0.0539  0.7361  0.2258
  810MPD2     C11922   1.039   2.377  10.034  0.4000  0.1538 -0.9576
  810MPD2    C111923   0.992   2.378  10.163  0.3412 -0.0820 -0.1404
  810MPD2    C211924   1.005   2.491  10.240  0.8941  0.1436 -0.0987
  810MPD2    C311925   1.047   2.606  10.174 -0.4367 -0.3180  0.0339
  810MPD2    C411926   1.093   2.603  10.047 -0.8257 -0.1794 -0.5459
  810MPD2    C511927   1.093   2.488   9.979  0.0231  0.1308 -0.4451
  810MPD2     H11928   0.974   2.486  10.344 -0.3125 -0.7668 -0.5038
  810MPD2    H111929   1.132   2.689   9.994 -1.3556 -0.9971 -2.2434
  810MPD2    H211930   1.023   2.288   9.974  0.7707  0.4411 -1.4822
  810MPD2    H311931   1.134   2.488   9.879  0.9716  2.9768 -0.0512
  810MPD2     N11932   1.057   2.738  10.222  0.2006 -0.2187 -0.6523
  810MPD2    H511933   1.096   2.811  10.163  2.4854  1.1995  2.6286
  810MPD2    N111934   0.924   2.263  10.208 -0.6965  0.2613  0.6213
  810MPD2    H711935   0.912   2.191  10.138 -2.3522 -2.0478  3.3095
  811MPD2     C11936   0.169   1.968  10.048  0.4774 -0.3474  0.1317
  811MPD2    C111937   0.282   2.037  10.023  0.2776 -0.2169  0.2059
  811MPD2    C211938   0.288   2.135   9.923 -0.2847 -0.8023  0.3091
  811MPD2    C311939   0.169   2.173   9.869  0.3470 -0.1148 -0.0485
  811MPD2    C411940   0.052   2.119   9.907 -0.1364 -0.1766 -0.0569
  811MPD2    C511941   0.053   2.004   9.993 -0.5031 -0.3862  0.2845
  811MPD2     H11942   0.377   2.191   9.898 -1.7369  1.9347  1.1763
  811MPD2    H111943   4.683   2.156   9.868 -1.4754 -1.6974  1.7466
  811MPD2    H211944   0.158   1.887  10.119  0.9076 -0.8880 -0.4234
  811MPD2    H311945   4.691   1.943  10.008 -0.7422 -0.4211 -1.2796
  811MPD2     N11946   0.172   2.298   9.797  0.1823  0.2707 -0.3750
  811MPD2    H511947   0.267   2.327   9.776  0.6879 -1.1007 -0.0381
  811MPD2    N111948   0.388   2.014  10.108  0.1444 -0.7373 -0.4347
  811MPD2    H711949   0.360   1.969  10.194 -0.1419  1.1872  0.4654
  812MPD2     C11950   4.186   2.440  12.370  0.2006 -0.1318 -0.2502
  812MPD2    C111951   4.065   2.423  12.438  0.0382  0.0336 -0.0285
  812MPD2    C211952   4.058   2.329  12.541 -0.1887  0.3127 -0.2375
  812MPD2    C311953   4.167   2.250  12.555  0.3335  0.0599  0.6025
  812MPD2    C411954   4.282   2.261  12.487 -0.0788 -0.1310 -0.1403
  812MPD2    C511955   4.288   2.358  12.389  0.2096  0.4319  0.3439
  812MPD2     H11956   3.972   2.303  12.602 -1.7614  5.2424 -0.3292
  812MPD2    H111957   4.372   2.202  12.499  0.1661  0.5886  1.5076
  812MPD2    H211958   4.193   2.519  12.296 -0.7671  2.1720  2.1068
  812MPD2    H311959   4.376   2.378  12.329 -0.0819  0.8840  0.0662
  812MPD2     N11960   4.158   2.165  12.667 -0.0107 -0.0602  0.0608
  812MPD2    H511961   4.079   2.178  12.730 -0.2973 -1.2640 -0.0557
  812MPD2    N111962   3.961   2.499  12.385  0.3581 -0.1016 -0.1484
  812MPD2    H711963   3.986   2.541  12.296 -1.7023 -0.0875 -0.7352
  813MPD2     C11964   3.804   4.421  13.420 -0.5960 -0.7742  0.0471
  813MPD2    C111965   3.747   4.540  13.374  0.1675  0.3699 -0.2309
  813MPD2    C211966   3.658   4.598  13.462 -0.1009  0.0099  0.3496
  813MPD2    C311967   3.630   4.555  13.585  0.0041  0.8329 -0.3783
  813MPD2    C411968   3.696   4.441  13.634  0.0921  0.1999 -0.0058
  813MPD2    C511969   3.783   4.376  13.551  0.1565 -0.0259 -0.4223
  813MPD2     H11970   3.597   4.680  13.425 -2.4574 -0.2441  3.6391
  813MPD2    H111971   3.692   4.397  13.733 -2.0698  0.4954  0.0413
  813MPD2    H211972   3.873   4.367  13.357  1.4635 -1.6682  3.0376
  813MPD2    H311973   3.841   4.291  13.584  1.0221  0.1599 -1.4539
  813MPD2     N11974   3.543   4.642  13.662 -0.1662 -0.2587 -0.3164
  813MPD2    H511975   3.517   0.000  13.613 -0.3100  0.0918  0.3569
  813MPD2    N111976   3.766   4.585  13.241 -0.3034  0.6247  0.0584
  813MPD2    H711977   3.707   4.660  13.205  0.9537  2.0974  1.1258
  814MPD2     C11978   3.907   1.046  12.536  0.7568 -0.1963  0.2089
  814MPD2    C111979   3.882   1.106  12.412 -0.5223 -0.4981  0.0311
  814MPD2    C211980   3.940   1.226  12.378  0.0596 -0.4360  0.2096
  814MPD2    C311981   4.015   1.297  12.472 -0.4674  0.1710  0.2224
  814MPD2    C411982   4.027   1.249  12.599  0.1427  0.4570 -0.1551
  814MPD2    C511983   3.980   1.123  12.628  0.2747 -0.6249 -0.2447
  814MPD2     H11984   3.934   1.268  12.278  0.5753 -2.8191 -0.8025
  814MPD2    H111985   4.079   1.301  12.679 -0.8481 -0.5159  1.1187
  814MPD2    H211986   3.871   0.953  12.577 -1.2958  0.2072 -0.6686
  814MPD2    H311987   3.993   1.083  12.728  0.6973  1.0665  0.3742
  814MPD2     N11988   4.092   1.404  12.444  0.1079  0.0393 -0.2372
  814MPD2    H511989   4.137   1.446  12.525 -1.8338  1.1212  0.2857
  814MPD2    N111990   3.821   1.031  12.307  0.0721  1.2420 -0.0168
  814MPD2    H711991   3.821   1.062  12.211 -2.3419 -0.3674 -0.5166
  815MPD2     C11992   4.409   4.231  12.160 -0.2691  0.0492 -0.1103
  815MPD2    C111993   4.342   4.118  12.126  0.1904  0.0499  0.0859
  815MPD2    C211994   4.213   4.105  12.169 -0.2157  0.1700 -0.0396
  815MPD2    C311995   4.146   4.208  12.234 -1.3265 -0.3683 -0.2493
  815MPD2    C411996   4.212   4.320  12.268  0.4083 -0.0865 -0.3384
  815MPD2    C511997   4.343   4.325  12.238 -0.4355  0.0463 -0.3584
  815MPD2     H11998   4.156   4.016  12.144  1.3899 -0.6761 -0.6698
  815MPD2    H111999   4.166   4.406  12.317  0.4993 -1.5196  2.2950
  815MPD2    H212000   4.515   4.250  12.150  0.0208 -0.1679  2.7836
  815MPD2    H312001   4.401   4.412  12.266  0.7119 -0.3506 -1.4949
  815MPD2     N12002   4.012   4.175  12.264 -0.1732 -0.3904 -0.5346
  815MPD2    H512003   3.984   4.079  12.248 -1.0085  0.2282 -2.9066
  815MPD2    N112004   4.403   4.018  12.040  0.0722  0.3145  0.2141
  815MPD2    H712005   4.489   4.039  11.990  0.4887 -1.9818 -0.0285
  816MPD2     C12006   4.264   3.431  17.510 -0.3601  0.6012  1.1546
  816MPD2    C112007   4.154   3.368  17.451 -0.4495 -0.1524  0.0497
  816MPD2    C212008   4.168   3.297  17.334 -0.3748 -0.0873  0.0975
  816MPD2    C312009   4.294   3.268  17.284  0.4288 -0.3319  0.7911
  816MPD2    C412010   4.405   3.308  17.358 -0.0119 -0.3237  0.4924
  816MPD2    C512011   4.390   3.393  17.462  0.1942  0.4638  0.0094
  816MPD2     H12012   4.076   3.267  17.285 -1.0891  0.0829  1.3242
  816MPD2    H112013   4.509   3.288  17.336  0.2667  0.6120  0.9505
  816MPD2    H212014   4.250   3.506  17.587 -0.0543  0.8169  0.9968
  816MPD2    H312015   4.478   3.426  17.516 -1.2192  2.9702  0.8093
  816MPD2     N12016   4.309   3.202  17.160  0.0693  0.0477  0.1045
  816MPD2    H512017   4.224   3.162  17.121  0.3109 -0.6582  0.3106
  816MPD2    N112018   4.029   3.420  17.504  0.2068  0.2826 -0.1582
  816MPD2    H712019   4.039   3.471  17.591 -1.2497 -2.6009  1.7034
  817MPD2     C12020   3.969   0.271  10.079  0.1398 -0.4591 -0.3793
  817MPD2    C112021   4.087   0.315  10.028  0.2167 -0.4117  0.0343
  817MPD2    C212022   4.085   0.425   9.940 -0.3450 -0.7310 -0.1280
  817MPD2    C312023   3.972   0.501   9.924 -0.5090  0.3716 -0.5388
  817MPD2    C412024   3.858   0.461   9.991  1.0605 -0.7388  0.1233
  817MPD2    C512025   3.859   0.345  10.063 -0.3877 -0.0422 -0.3717
  817MPD2     H12026   4.184   0.449   9.903  0.2440 -0.6112  1.5393
  817MPD2    H112027   3.764   0.515   9.995  0.6257 -1.3894 -1.5345
  817MPD2    H212028   3.973   0.197  10.158 -0.3568 -2.6421 -2.4102
  817MPD2    H312029   3.771   0.316  10.119 -1.0860  0.4291 -1.2105
  817MPD2     N12030   3.977   0.617   9.844  0.0501  0.2436 -0.1107
  817MPD2    H512031   4.061   0.641   9.794  0.0394 -2.1298 -1.2790
  817MPD2    N112032   4.209   0.247  10.053  0.0721 -0.2513 -0.5498
  817MPD2    H712033   4.291   0.297  10.023  0.6072 -0.3233  0.7740
  818MPD2     C12034   3.428   0.098  10.082 -0.2630 -0.2378 -0.0385
  818MPD2    C112035   3.317   0.015  10.092 -0.0355 -0.7168 -0.0540
  818MPD2    C212036   3.324   4.614  10.047 -0.1118  0.2309  0.0985
  818MPD2    C312037   3.451   4.566  10.003 -0.3885  0.3001  0.3683
  818MPD2    C412038   3.560   4.643   9.992 -0.2679  0.0120 -0.2788
  818MPD2    C512039   3.549   0.045  10.041 -0.6377 -0.2232 -0.3494
  818MPD2     H12040   3.238   4.550  10.060  0.1405 -0.3648 -1.1713
  818MPD2    H112041   3.660   4.614   9.960 -0.3757  0.2163 -0.7970
  818MPD2    H212042   3.423   0.201  10.117  0.6497 -0.1156 -0.2750
  818MPD2    H312043   3.634   0.112  10.044 -0.1447 -0.8394 -0.6083
  818MPD2     N12044   3.462   4.437   9.958  0.0280 -0.2976  0.0295
  818MPD2    H512045   3.558   4.423   9.926 -0.3307 -3.6421  0.3757
  818MPD2    N112046   3.197   0.056  10.146 -1.1317  0.7263 -0.6363
  818MPD2    H712047   3.113   0.014  10.108  0.1266 -2.2591 -0.0563
  819MPD2     C12048   0.762   2.221  15.761 -0.1677 -0.4963  0.1169
  819MPD2    C112049   0.769   2.080  15.769 -0.0473 -0.0830 -0.0191
  819MPD2    C212050   0.876   2.018  15.834 -0.5158  0.0500  0.2954
  819MPD2    C312051   0.971   2.097  15.897 -0.6886 -0.2443  0.3485
  819MPD2    C412052   0.964   2.232  15.877  0.7919  0.5015  0.1941
  819MPD2    C512053   0.858   2.297  15.815 -0.3605  0.2236  0.7087
  819MPD2     H12054   0.893   1.912  15.831  1.0801  0.2564  2.2572
  819MPD2    H112055   1.043   2.302  15.900  1.3939 -1.0881  2.8943
  819MPD2    H212056   0.680   2.274  15.714  0.9731  0.5281 -0.7026
  819MPD2    H312057   0.873   2.404  15.801  0.6083  0.0751  0.5878
  819MPD2     N12058   1.073   2.026  15.961  0.3215 -0.1545 -0.0625
  819MPD2    H512059   1.062   1.925  15.969  1.2297 -0.3957 -1.8122
  819MPD2    N112060   0.666   2.001  15.710  0.5470 -0.2767  0.4086
  819MPD2    H712061   0.602   2.045  15.644  0.5728 -0.3534  0.3309
  820MPD2     C12062   4.572   2.019  15.220 -0.4249  0.4434 -0.1098
  820MPD2    C112063   4.685   2.091  15.206  0.1619  0.1287  0.0879
  820MPD2    C212064   0.079   2.046  15.257 -0.4140 -0.1332 -0.5704
  820MPD2    C312065   0.071   1.917  15.313  0.7999 -0.0712 -0.2506
  820MPD2    C412066   4.681   1.844  15.313 -0.5360  0.3811  0.0641
  820MPD2    C512067   4.568   1.894  15.257 -0.5631  0.0272  0.0073
  820MPD2     H12068   0.169   2.107  15.257 -0.1356 -0.5300  0.5922
  820MPD2    H112069   4.673   1.742  15.349 -1.0657  0.6921  0.8241
  820MPD2    H212070   4.477   2.061  15.188  0.2620  0.3316 -2.3264
  820MPD2    H312071   4.475   1.838  15.261  0.4153 -1.7436 -1.8993
  820MPD2     N12072   0.186   1.851  15.374  0.6680  0.6164  0.3568
  820MPD2    H512073   0.161   1.766  15.425  2.7244  0.9847  2.0013
  820MPD2    N112074   4.666   2.226  15.170  0.5934 -0.3953  0.4666
  820MPD2    H712075   4.574   2.266  15.155  1.8690  1.7115 -1.7513
  821MPD2     C12076   0.873   3.089  13.287 -0.1886 -0.1763 -0.4893
  821MPD2    C112077   0.993   3.117  13.356  0.0415 -0.2656 -0.3025
  821MPD2    C212078   1.114   3.123  13.293 -0.0504  0.0672  0.0116
  821MPD2    C312079   1.123   3.118  13.154 -0.1474 -1.0788  0.3371
  821MPD2    C412080   1.008   3.105  13.078 -0.2649 -0.1876  0.9633
  821MPD2    C512081   0.889   3.091  13.143 -0.1393  1.0223 -0.1531
  821MPD2     H12082   1.198   3.153  13.355 -1.6918  0.5712  1.9868
  821MPD2    H112083   1.020   3.103  12.971 -2.2206  2.4631  0.6884
  821MPD2    H212084   0.775   3.083  13.332 -0.3760 -0.1777 -0.8940
  821MPD2    H312085   0.806   3.082  13.074 -0.7024  1.0402  0.5145
  821MPD2     N12086   1.247   3.130  13.086  0.7012 -0.0332 -0.0305
  821MPD2    H512087   1.244   3.169  12.992 -0.2325  0.1535  0.0790
  821MPD2    N112088   0.990   3.155  13.495  0.6868 -0.2811  0.0911
  821MPD2    H712089   1.077   3.185  13.539  0.2487  0.2103  0.6389
  822MPD2     C12090   1.454   3.027  15.884  0.1781 -0.4980 -0.2162
  822MPD2    C112091   1.405   2.964  16.007  0.4973  0.5738  0.7648
  822MPD2    C212092   1.323   3.035  16.089 -0.2822  0.5619 -0.0893
  822MPD2    C312093   1.293   3.162  16.057  0.0420  0.5013 -0.6041
  822MPD2    C412094   1.346   3.225  15.946 -0.7564  0.7948  0.2157
  822MPD2    C512095   1.410   3.153  15.851  0.0689 -0.3178 -0.1174
  822MPD2     H12096   1.273   2.996  16.178 -0.1636 -1.1949 -0.7821
  822MPD2    H112097   1.313   3.323  15.912  0.8162  1.0572 -0.5319
  822MPD2    H212098   1.522   2.970  15.822 -0.9375 -1.6681 -0.3692
  822MPD2    H312099   1.428   3.210  15.761 -0.5231  1.3342  0.7974
  822MPD2     N12100   1.216   3.237  16.150  0.5206 -0.7233 -0.3467
  822MPD2    H512101   1.185   3.177  16.225  0.4206 -0.3573 -0.0988
  822MPD2    N112102   1.442   2.840  16.050 -0.5682 -0.3058  0.7768
  822MPD2    H712103   1.426   2.816  16.148 -0.8662 -2.2424  0.2581
  823MPD2     C12104   0.809   3.275  16.884  0.0837 -0.3378  0.1981
  823MPD2    C112105   0.897   3.209  16.800  0.0866 -0.5000 -0.0572
  823MPD2    C212106   0.968   3.100  16.840  0.4710  0.1940  0.0846
  823MPD2    C312107   0.952   3.056  16.971 -0.3328 -0.8465  0.6407
  823MPD2    C412108   0.871   3.123  17.058  0.2086 -0.1408 -0.7272
  823MPD2    C512109   0.810   3.239  17.013 -0.1392  0.2359 -0.1445
  823MPD2     H12110   1.033   3.044  16.773  0.0981 -0.6327  0.4096
  823MPD2    H112111   0.860   3.093  17.161  0.9863 -0.4616 -0.7465
  823MPD2    H212112   0.752   3.363  16.857 -2.1510 -0.9820  2.7382
  823MPD2    H312113   0.741   3.282  17.084  0.2423 -2.2684  1.7373
  823MPD2     N12114   1.021   2.945  17.021 -0.0042  0.2797  0.1442
  823MPD2    H512115   1.008   2.916  17.117 -1.9186  1.4968  0.2553
  823MPD2    N112116   0.919   3.267  16.674 -0.5689  0.3480  0.0134
  823MPD2    H712117   0.876   3.359  16.670 -1.8745 -0.2834 -0.7406
  824MPD2     C12118   1.636   2.046  15.953 -0.6393  0.1557 -0.3133
  824MPD2    C112119   1.726   2.155  15.952  0.0522  0.5025 -0.3942
  824MPD2    C212120   1.846   2.141  15.888  0.6276  0.1013 -0.0674
  824MPD2    C312121   1.889   2.017  15.839 -0.4476  0.3084 -0.1167
  824MPD2    C412122   1.803   1.905  15.857 -0.7183  0.3774 -0.2481
  824MPD2    C512123   1.678   1.925  15.910  0.0877 -0.3124 -1.1334
  824MPD2     H12124   1.917   2.222  15.878 -0.9385  1.5817  0.6518
  824MPD2    H112125   1.826   1.806  15.821 -0.5583  0.8582 -1.4801
  824MPD2    H212126   1.534   2.051  15.989  0.0956  0.7399  1.6603
  824MPD2    H312127   1.608   1.844  15.925  0.1992  0.4874  3.6284
  824MPD2     N12128   2.022   2.010  15.787  0.0041 -0.0000 -0.0389
  824MPD2    H512129   2.081   2.093  15.785 -1.0777  0.8170  2.5067
  824MPD2    N112130   1.686   2.274  15.998  0.3121 -0.3259  0.3168
  824MPD2    H712131   1.741   2.355  15.970  0.9491 -0.7178  0.4572
  825MPD2     C12132   2.583   1.966  15.151 -0.4394 -0.3195 -0.6166
  825MPD2    C112133   2.565   2.048  15.260 -0.3916  0.7633  0.2162
  825MPD2    C212134   2.592   2.183  15.246  0.3844 -0.5758 -0.0574
  825MPD2    C312135   2.643   2.234  15.126 -0.4027  0.1281  0.2003
  825MPD2    C412136   2.672   2.144  15.022 -0.2233 -0.2181  0.6024
  825MPD2    C512137   2.635   2.011  15.034  0.6883  0.4341  0.0022
  825MPD2     H12138   2.574   2.245  15.334  1.3888  0.0922 -0.3197
  825MPD2    H112139   2.726   2.183  14.936 -2.1440  0.6716 -0.2083
  825MPD2    H212140   2.578   1.857  15.152 -0.2266 -0.3045  1.0255
  825MPD2    H312141   2.653   1.938  14.956  0.8409  0.1231  0.3276
  825MPD2     N12142   2.668   2.373  15.106 -0.0697  0.0019 -0.4278
  825MPD2    H512143   2.706   2.401  15.015 -0.4995  1.5227 -0.1389
  825MPD2    N112144   2.511   1.996  15.378 -0.2114  0.8012  0.1455
  825MPD2    H712145   2.506   1.895  15.389  0.0028  0.6077 -1.5727
  826MPD2     C12146   2.235   2.540  13.691  0.8068 -0.0101  0.2658
  826MPD2    C112147   2.126   2.496  13.624  0.3271 -0.6140  0.0736
  826MPD2    C212148   1.998   2.541  13.655 -0.2559 -0.0353 -0.3412
  826MPD2    C312149   1.977   2.635  13.753 -0.2089 -0.6528 -0.1314
  826MPD2    C412150   2.081   2.665  13.839  0.6288  0.4471 -0.2949
  826MPD2    C512151   2.204   2.617  13.798  0.6841 -0.4063  0.2400
  826MPD2     H12152   1.911   2.516  13.595 -0.0812  2.4310 -1.5966
  826MPD2    H112153   2.066   2.731  13.923  2.0733  2.2780 -1.4654
  826MPD2    H212154   2.335   2.501  13.677  1.5545  1.6669  0.9216
  826MPD2    H312155   2.282   2.656  13.862 -0.8147 -0.9167  2.3877
  826MPD2     N12156   1.853   2.691  13.780  0.3501 -0.2225 -0.5845
  826MPD2    H512157   1.837   2.730  13.872  2.3433  0.6594 -0.6125
  826MPD2    N112158   2.150   2.402  13.522 -0.3270  0.2331  0.8719
  826MPD2    H712159   2.242   2.360  13.530  0.1742  1.4218  1.4328
  827MPD2     C12160   3.383   3.409  10.109  0.7570  0.1914  0.2075
  827MPD2    C112161   3.338   3.303  10.188 -0.0374  0.6617  0.3302
  827MPD2    C212162   3.227   3.230  10.141  0.1686  0.5496 -0.5022
  827MPD2    C312163   3.169   3.262  10.018  0.1673 -0.5354  0.3632
  827MPD2    C412164   3.210   3.375   9.942 -0.4965  0.5900  0.4345
  827MPD2    C512165   3.317   3.449   9.992 -0.0572  0.4262 -0.5282
  827MPD2     H12166   3.196   3.142  10.196 -0.4777  0.3080 -1.2438
  827MPD2    H112167   3.162   3.408   9.851 -0.3730  0.8575  0.4675
  827MPD2    H212168   3.473   3.464  10.137  0.0930  1.2372  0.2975
  827MPD2    H312169   3.341   3.541   9.940  1.7550 -0.3897 -1.1312
  827MPD2     N12170   3.063   3.176   9.974 -0.2801  0.3356  0.3254
  827MPD2    H512171   3.026   3.111  10.042  0.7375  1.2073  1.6926
  827MPD2    N112172   3.406   3.278  10.309 -0.1429 -0.0884  0.1095
  827MPD2    H712173   3.471   3.352  10.331  1.0809 -1.1836  0.1821
  828MPD2     C12174   1.871   2.968  12.639  0.4380 -0.9004 -0.6935
  828MPD2    C112175   1.843   3.023  12.516  0.1174 -0.1382 -0.5905
  828MPD2    C212176   1.934   3.019  12.419  0.2422 -0.8663  0.2446
  828MPD2    C312177   2.054   2.956  12.443 -0.5560 -0.6568 -0.8217
  828MPD2    C412178   2.089   2.918  12.571 -0.0311  0.3491  0.0511
  828MPD2    C512179   1.995   2.922  12.665  0.1939  0.3234  0.1587
  828MPD2     H12180   1.907   3.065  12.324 -0.8858 -1.2901  0.3571
  828MPD2    H112181   2.189   2.889  12.601 -0.4908 -0.9138  0.3717
  828MPD2    H212182   1.801   2.970  12.721 -1.6686  3.1908 -2.6013
  828MPD2    H312183   2.015   2.873  12.759  0.6361  0.9185  0.3773
  828MPD2     N12184   2.145   2.923  12.339  0.5598 -0.7489  0.5887
  828MPD2    H512185   2.236   2.888  12.366  0.8518  0.6989  1.4451
  828MPD2    N112186   1.719   3.082  12.486  0.2217 -0.0943  0.2260
  828MPD2    H712187   1.710   3.129  12.397  1.7445  0.7097  0.4848
  829MPD2     C12188   1.073   3.505  11.845 -0.4661 -0.1163  0.3565
  829MPD2    C112189   0.987   3.474  11.948 -0.2483 -0.3458 -0.5890
  829MPD2    C212190   1.057   3.432  12.066  0.0436  0.0790 -0.0888
  829MPD2    C312191   1.197   3.414  12.070 -0.0742 -0.5804  0.3029
  829MPD2    C412192   1.274   3.433  11.964 -0.2861 -0.1956  0.2271
  829MPD2    C512193   1.208   3.481  11.856  0.4981 -0.1294 -1.0775
  829MPD2     H12194   0.992   3.394  12.145  0.1092 -0.7128 -0.4155
  829MPD2    H112195   1.382   3.421  11.961 -0.4558 -1.6853 -0.4620
  829MPD2    H212196   1.032   3.539  11.750  0.2346 -0.5478 -0.1001
  829MPD2    H312197   1.286   3.498  11.783  1.5126  1.0712  0.2994
  829MPD2     N12198   1.249   3.354  12.187  0.4366  0.2076  0.4122
  829MPD2    H512199   1.177   3.339  12.256 -1.1043  1.1444 -0.9897
  829MPD2    N112200   0.848   3.481  11.934 -0.0921 -0.1757 -0.3688
  829MPD2    H712201   0.803   3.503  11.845 -0.0250 -0.5124 -0.4903
  830MPD2     C12202   1.717   1.483  15.985  0.3361  0.0609 -0.7118
  830MPD2    C112203   1.619   1.540  15.908  0.0589 -0.5478 -0.4689
  830MPD2    C212204   1.650   1.570  15.774  0.9150 -0.6560 -0.4348
  830MPD2    C312205   1.773   1.551  15.724  0.3160  0.3801  0.8882
  830MPD2    C412206   1.871   1.496  15.805 -0.7296 -0.7393 -0.3476
  830MPD2    C512207   1.844   1.460  15.936  0.1511 -0.6977  0.3668
  830MPD2     H12208   1.578   1.620  15.711  0.6441 -0.2525  0.1866
  830MPD2    H112209   1.973   1.495  15.768 -0.8641 -0.2432 -0.7182
  830MPD2    H212210   1.701   1.479  16.092 -2.7936 -1.0520 -1.2185
  830MPD2    H312211   1.928   1.450  16.004 -0.1879 -1.8230  0.6018
  830MPD2     N12212   1.822   1.613  15.608 -0.4918  0.2044 -0.3472
  830MPD2    H512213   1.923   1.627  15.604 -0.2349 -1.8052 -0.7196
  830MPD2    N112214   1.501   1.577  15.974  0.0463  0.3697 -0.0517
  830MPD2    H712215   1.492   1.554  16.073  0.1679  0.8759  0.0743
  831MPD2     C12216   1.529   3.288  16.482 -0.6932  0.7225 -0.1430
  831MPD2    C112217   1.548   3.192  16.387  0.1041 -1.4248  0.0004
  831MPD2    C212218   1.484   3.070  16.402  0.7753 -0.4972  0.2197
  831MPD2    C312219   1.392   3.052  16.500  0.1431  0.7012  0.0639
  831MPD2    C412220   1.381   3.149  16.597  0.0166  0.0400  0.5889
  831MPD2    C512221   1.450   3.264  16.590 -0.4946 -0.5978 -0.0650
  831MPD2     H12222   1.503   2.993  16.327 -0.6711  0.1223 -0.7888
  831MPD2    H112223   1.318   3.129  16.684 -1.2979  0.1492 -0.3483
  831MPD2    H212224   1.577   3.386  16.482  0.8727 -0.0246 -2.3846
  831MPD2    H312225   1.439   3.330  16.675  1.9179 -0.5614  0.2008
  831MPD2     N12226   1.317   2.927  16.521  0.2218 -0.2271 -0.7149
  831MPD2    H512227   1.245   2.927  16.594  0.2177 -2.8703 -0.7131
  831MPD2    N112228   1.645   3.222  16.287 -0.4864 -0.0915  0.0338
  831MPD2    H712229   1.674   3.319  16.286  0.4649 -0.3753 -0.3943
  832MPD2     C12230   4.462   4.308  17.347  0.1960 -0.5907  0.5408
  832MPD2    C112231   4.395   4.399  17.271 -0.2180  0.3680 -0.2703
  832MPD2    C212232   4.288   4.364  17.195 -0.2616 -0.2529  0.0269
  832MPD2    C312233   4.253   4.237  17.178 -0.1720  0.5794  0.0263
  832MPD2    C412234   4.319   4.147  17.254 -0.5379  0.2036  0.0721
  832MPD2    C512235   4.415   4.182  17.342 -0.4468  0.8667  0.3794
  832MPD2     H12236   4.244   4.436  17.127  1.1657 -0.5376 -1.1670
  832MPD2    H112237   4.275   4.048  17.259  0.3056 -0.1488  0.5579
  832MPD2    H212238   4.551   4.329  17.405 -0.1269  1.9558  0.1170
  832MPD2    H312239   4.457   4.103  17.402  0.3369  0.5232 -0.6286
  832MPD2     N12240   4.131   4.197  17.116  0.4169  0.3432 -0.2820
  832MPD2    H512241   4.118   4.097  17.108 -0.2471  0.5897 -2.2058
  832MPD2    N112242   4.434   4.531  17.299  0.4984  0.0137 -0.4933
  832MPD2    H712243   4.491   4.551  17.380 -0.7965 -1.2862  0.7542
  833MPD2     C12244   2.121   0.924  12.528  0.0381  0.7014  0.8903
  833MPD2    C112245   2.190   1.043  12.529  0.1772  0.0569 -0.1088
  833MPD2    C212246   2.323   1.050  12.488  0.0585  0.1913  0.9087
  833MPD2    C312247   2.394   0.934  12.467  0.3803  0.1154  0.7826
  833MPD2    C412248   2.324   0.813  12.475  0.1220 -0.1023 -0.3690
  833MPD2    C512249   2.191   0.811  12.507 -0.2745  0.5343 -0.1689
  833MPD2     H12250   2.372   1.146  12.483  0.2622  0.1329  1.8825
  833MPD2    H112251   2.378   0.719  12.465 -0.9267 -0.7241 -0.2332
  833MPD2    H212252   2.013   0.923  12.544 -0.3854  1.3646 -1.9622
  833MPD2    H312253   2.146   0.714  12.519 -0.3585  1.1639  4.8532
  833MPD2     N12254   2.532   0.930  12.424  0.0115  0.7916  0.0995
  833MPD2    H512255   2.569   0.836  12.411  0.9759  1.2338 -0.3657
  833MPD2    N112256   2.119   1.155  12.571  0.3150 -0.0725  0.3897
  833MPD2    H712257   2.019   1.138  12.583  0.8472 -2.0091  1.9344
  834MPD2     C12258   2.529   0.951  11.495  0.4274  0.1545 -0.7051
  834MPD2    C112259   2.564   0.841  11.577 -0.1038 -0.1949  0.4862
  834MPD2    C212260   2.579   0.861  11.712 -1.0002  0.2378  0.0747
  834MPD2    C312261   2.585   0.992  11.761 -0.3486 -0.8133 -0.0657
  834MPD2    C412262   2.561   1.094  11.676 -0.4917 -0.6523 -0.4439
  834MPD2    C512263   2.532   1.072  11.549 -0.1294  0.3251  0.7628
  834MPD2     H12264   2.589   0.772  11.774 -0.7673 -0.3591 -0.8330
  834MPD2    H112265   2.576   1.195  11.713 -1.5372 -0.8574  0.5345
  834MPD2    H212266   2.501   0.927  11.393 -2.1016  0.0173  0.0212
  834MPD2    H312267   2.534   1.154  11.479 -1.8962  0.1714  0.5303
  834MPD2     N12268   2.620   1.025  11.893 -0.1691  0.0987 -0.0685
  834MPD2    H512269   2.614   1.122  11.922  1.6252  0.4689 -0.9503
  834MPD2    N112270   2.557   0.713  11.514  0.3124  0.1313  0.0484
  834MPD2    H712271   2.546   0.711  11.413 -2.3807  0.5784  0.3188
  835MPD2     C12272   2.338   3.264  10.844 -0.0228 -0.2167  0.1777
  835MPD2    C112273   2.203   3.292  10.848 -0.0933 -0.1042 -0.6621
  835MPD2    C212274   2.136   3.291  10.965 -0.5951  0.2580  0.8260
  835MPD2    C312275   2.203   3.272  11.086  0.4295 -0.3524 -0.2187
  835MPD2    C412276   2.345   3.249  11.075  0.3847  0.0550 -0.9008
  835MPD2    C512277   2.409   3.247  10.953 -0.0084  0.1275 -0.2531
  835MPD2     H12278   2.033   3.324  10.974 -1.0959 -0.8709 -0.6639
  835MPD2    H112279   2.402   3.213  11.160  0.6473  0.2220 -1.0061
  835MPD2    H212280   2.386   3.268  10.747 -1.7672 -1.2024 -0.7086
  835MPD2    H312281   2.517   3.241  10.947  0.0604  0.8467  0.1938
  835MPD2     N12282   2.141   3.277  11.217 -0.1289 -0.7333 -0.1008
  835MPD2    H512283   2.206   3.264  11.294 -2.5215  1.1895  2.2925
  835MPD2    N112284   2.130   3.321  10.737  0.4815  0.7007  0.1313
  835MPD2    H712285   2.029   3.327  10.749  0.5411 -1.6665  1.8209
  836MPD2     C12286   1.528   3.765  11.431  0.3948  0.2828  0.4245
  836MPD2    C112287   1.574   3.686  11.536  0.8045  1.1541  0.9772
  836MPD2    C212288   1.516   3.697  11.659 -0.4597  0.5113 -0.1344
  836MPD2    C312289   1.411   3.781  11.683  0.1685  0.0476 -0.3032
  836MPD2    C412290   1.352   3.848  11.576  0.2022 -0.3156  1.1432
  836MPD2    C512291   1.416   3.842  11.456  0.4820  0.1453  0.4052
  836MPD2     H12292   1.551   3.631  11.737 -0.2824 -0.5857 -1.1492
  836MPD2    H112293   1.265   3.913  11.578 -1.0650 -2.0657  2.2823
  836MPD2    H212294   1.572   3.765  11.332  0.3438  1.9691  0.3909
  836MPD2    H312295   1.372   3.893  11.371 -1.2533  2.7691  2.9208
  836MPD2     N12296   1.354   3.796  11.810 -0.0226  0.0354  0.3288
  836MPD2    H512297   1.279   3.863  11.827  0.0922  0.2342  0.0488
  836MPD2    N112298   1.673   3.595  11.507  0.0350 -0.2951  0.5293
  836MPD2    H712299   1.709   3.603  11.412  2.4704 -0.9785  1.3844
  837MPD2     C12300   0.703   2.840   9.808 -0.3421  0.1647 -0.7169
  837MPD2    C112301   0.573   2.896   9.806  0.4837  0.8893  0.2290
  837MPD2    C212302   0.549   3.023   9.849  0.5017 -0.0972 -0.0366
  837MPD2    C312303   0.655   3.098   9.907 -0.2109 -0.2185  0.0890
  837MPD2    C412304   0.779   3.036   9.929 -0.6259  0.0315  0.1910
  837MPD2    C512305   0.800   2.908   9.870 -0.3932  0.1331  0.4829
  837MPD2     H12306   0.450   3.066   9.846 -0.2561 -1.7941  0.3510
  837MPD2    H112307   0.868   3.083   9.969 -1.7411  0.5661  2.0079
  837MPD2    H212308   0.727   2.748   9.754 -0.1021 -0.5515  0.6169
  837MPD2    H312309   0.900   2.868   9.872 -0.9765 -1.3047  1.0988
  837MPD2     N12310   0.629   3.232   9.937 -0.2988 -0.4094 -0.2762
  837MPD2    H512311   0.535   3.255   9.907 -0.0533 -0.5230 -1.1491
  837MPD2    N112312   0.456   2.832   9.758 -0.0984 -1.0436  0.1199
  837MPD2    H712313   0.371   2.886   9.763  0.0256 -0.8768  0.4861
  838MPD2     C12314   3.697   2.047  11.940 -0.1345  0.8576  0.6182
  838MPD2    C112315   3.699   1.918  11.990  0.0287 -0.1044 -0.0627
  838MPD2    C212316   3.597   1.883  12.075 -0.4136  0.5652 -0.3988
  838MPD2    C312317   3.495   1.970  12.113  0.5954 -0.2275  0.2511
  838MPD2    C412318   3.494   2.096  12.053  0.0925  0.1616 -0.5846
  838MPD2    C512319   3.598   2.128  11.967 -0.0895 -0.2785 -0.1733
  838MPD2     H12320   3.593   1.785  12.121  0.3769  1.4399  1.5300
  838MPD2    H112321   3.420   2.176  12.060  1.3800  1.1174  1.9892
  838MPD2    H212322   3.768   2.091  11.870 -1.5860 -1.7214 -2.5027
  838MPD2    H312323   3.591   2.215  11.904  0.8323  1.4869  2.1595
  838MPD2     N12324   3.392   1.921  12.188  0.3306 -0.3701 -0.0496
  838MPD2    H512325   3.383   1.824  12.216  2.9754 -0.4093  0.7085
  838MPD2    N112326   3.807   1.834  11.966 -0.6435  0.1513  0.0122
  838MPD2    H712327   3.797   1.743  12.009  0.1168 -1.1540 -2.5880
  839MPD2     C12328   3.515   1.061  12.049 -0.1983 -0.4193  0.3632
  839MPD2    C112329   3.561   1.062  11.915  0.0177 -0.5944 -0.5007
  839MPD2    C212330   3.664   1.149  11.882  0.1434  1.2280  0.1533
  839MPD2    C312331   3.692   1.263  11.966 -0.4182 -0.5176  0.9522
  839MPD2    C412332   3.632   1.269  12.087  0.1348 -0.3500  0.2937
  839MPD2    C512333   3.549   1.169  12.127 -0.1470 -0.1476 -1.0349
  839MPD2     H12334   3.697   1.144  11.779  0.1864 -0.1362  0.2242
  839MPD2    H112335   3.659   1.342  12.163  1.0299  0.3578 -0.7046
  839MPD2    H212336   3.456   0.976  12.080 -0.5198 -0.3886 -0.1657
  839MPD2    H312337   3.509   1.179  12.227  0.5337 -0.1838 -0.7608
  839MPD2     N12338   3.783   1.360  11.930  0.4843 -0.7018  0.2938
  839MPD2    H512339   3.800   1.436  11.996 -0.0139  0.0342 -0.4349
  839MPD2    N112340   3.507   0.965  11.828  0.4582 -0.0037  0.1188
  839MPD2    H712341   3.549   0.962  11.736 -0.3368 -0.1330 -0.2376
  840MPD2     C12342   3.844   3.663  10.390 -0.4497 -0.3419 -0.7685
  840MPD2    C112343   3.831   3.616  10.523  0.0126 -0.1411 -0.6908
  840MPD2    C212344   3.927   3.661  10.616  0.2392 -0.2693  0.3016
  840MPD2    C312345   4.006   3.769  10.580 -0.2719 -0.0557 -0.2202
  840MPD2    C412346   3.996   3.830  10.454  0.2157  0.9873 -0.1263
  840MPD2    C512347   3.912   3.773  10.363  0.3687 -0.5160  0.1588
  840MPD2     H12348   3.910   3.620  10.715  1.2340 -0.9982  0.1723
  840MPD2    H112349   4.057   3.915  10.426 -0.6576  0.7956 -2.6055
  840MPD2    H212350   3.776   3.627  10.314 -2.0145 -2.6980  1.7788
  840MPD2    H312351   3.910   3.813  10.262 -0.6422 -0.9080  0.0241
  840MPD2     N12352   4.096   3.825  10.672  0.3304 -0.4471 -0.5486
  840MPD2    H512353   4.147   3.908  10.645 -1.1928  1.1355  1.3542
  840MPD2    N112354   3.738   3.510  10.543 -0.3611  0.3632  0.0025
  840MPD2    H712355   3.702   3.467  10.459  1.7077  1.0387 -1.2197
  841MPD2     C12356   2.763   3.676  15.061 -0.0087  0.1831  0.3798
  841MPD2    C112357   2.805   3.656  14.933  0.1659  0.0040 -0.6514
  841MPD2    C212358   2.857   3.763  14.858 -0.1025 -0.2371  0.2681
  841MPD2    C312359   2.873   3.883  14.917 -0.3066  0.1667  0.4007
  841MPD2    C412360   2.810   3.909  15.035 -0.3717 -0.1026  0.2162
  841MPD2    C512361   2.762   3.805  15.112  0.7207 -0.5639 -0.6814
  841MPD2     H12362   2.894   3.741  14.759  0.6752  1.3055  0.2217
  841MPD2    H112363   2.808   4.008  15.080  0.0524 -0.2772  0.6074
  841MPD2    H212364   2.714   3.600  15.121  1.9038 -0.3793  1.2115
  841MPD2    H312365   2.711   3.816  15.207  0.3586  1.6712 -1.1493
  841MPD2     N12366   2.943   3.981  14.844 -0.2033  0.3772 -0.5292
  841MPD2    H512367   2.997   3.943  14.766 -1.0440  1.2715 -1.5405
  841MPD2    N112368   2.801   3.532  14.863  0.2329  0.3597  0.8159
  841MPD2    H712369   2.823   3.534  14.764 -0.5476 -2.8758  0.5550
  842MPD2     C12370   3.531   4.552  16.834  0.0526 -0.5048  0.1587
  842MPD2    C112371   3.500   4.437  16.904  0.6111  0.3029 -0.2639
  842MPD2    C212372   3.577   4.415  17.021  0.1890  0.3734 -0.9712
  842MPD2    C312373   3.668   4.508  17.061  0.4951  0.5760  0.0981
  842MPD2    C412374   3.693   4.612  16.979  0.5912  0.4040 -0.3862
  842MPD2    C512375   3.630   4.629  16.863  0.3524 -0.3613 -0.0116
  842MPD2     H12376   3.549   4.328  17.079  0.5251 -0.0651 -1.4698
  842MPD2    H112377   3.767   4.687  17.005 -0.7429  1.3034  0.7893
  842MPD2    H212378   3.475   4.568  16.743 -1.9047  0.0877  1.4724
  842MPD2    H312379   3.668   4.712  16.805 -0.7350 -0.5733 -1.0160
  842MPD2     N12380   3.723   4.518  17.189 -0.5189 -0.3637  0.3491
  842MPD2    H512381   3.770   4.606  17.207 -1.2170  0.1682 -0.4032
  842MPD2    N112382   3.390   4.373  16.867  0.1569  0.1745 -0.0012
  842MPD2    H712383   3.347   4.404  16.780  1.1564 -0.2297 -0.6502
  843MPD2     C12384   1.296   4.105   0.556  0.5402 -0.1651 -0.7329
  843MPD2    C112385   1.220   4.206   0.609 -0.3447  0.4227  0.4947
  843MPD2    C212386   1.254   4.339   0.579  0.6310  0.5380  0.4769
  843MPD2    C312387   1.369   4.366   0.502  0.1651 -1.4456  0.4791
  843MPD2    C412388   1.441   4.255   0.457 -0.2112 -0.1547 -0.2847
  843MPD2    C512389   1.404   4.131   0.479  0.5301 -0.2302 -0.5221
  843MPD2     H12390   1.208   4.421   0.633 -2.8308 -0.4136 -1.0486
  843MPD2    H112391   1.534   4.282   0.408  0.3654 -0.3788  0.7088
  843MPD2    H212392   1.281   4.005   0.595 -0.5269 -0.2004 -1.2396
  843MPD2    H312393   1.464   4.046   0.449  2.7292  0.8929  0.6514
  843MPD2     N12394   1.421   4.492   0.483  0.0683  0.0865  0.2616
  843MPD2    H512395   1.518   4.502   0.455 -0.0031 -0.0719 -0.0346
  843MPD2    N112396   1.122   4.173   0.707  0.0453 -0.1089 -0.1639
  843MPD2    H712397   1.114   4.073   0.725  1.7681 -0.1892  0.1534
  844MPD2     C12398   3.759   3.739  16.710 -0.0295  0.1763  0.0956
  844MPD2    C112399   3.780   3.804  16.591 -1.1974 -1.0195 -0.1104
  844MPD2    C212400   3.869   3.911  16.598 -0.2561 -0.3936  0.1936
  844MPD2    C312401   3.941   3.943  16.707 -0.2888  0.7837  0.2761
  844MPD2    C412402   3.924   3.864  16.819  0.7744 -0.5126 -0.2077
  844MPD2    C512403   3.832   3.767  16.824  0.1600  0.1849  0.0814
  844MPD2     H12404   3.900   3.961  16.507  1.4563  1.3518  1.7525
  844MPD2    H112405   3.984   3.871  16.909  0.8751 -0.8831 -0.2439
  844MPD2    H212406   3.696   3.652  16.703  0.4129  0.0251 -2.2106
  844MPD2    H312407   3.826   3.702  16.911 -0.4370  0.1570  0.0196
  844MPD2     N12408   4.040   4.038  16.694 -0.2752 -0.0888 -0.1149
  844MPD2    H512409   4.028   4.101  16.615  0.6908  0.4112  0.1405
  844MPD2    N112410   3.729   3.749  16.473  0.8453  0.1974  0.5925
  844MPD2    H712411   3.691   3.655  16.480 -1.3942  1.0204 -0.5175
  845MPD2     C12412   3.992   0.284  16.815  0.0233  0.5371  0.0521
  845MPD2    C112413   4.060   0.239  16.929  0.0754  0.1456 -0.3632
  845MPD2    C212414   4.113   0.110  16.941 -0.4242  0.2340 -0.1389
  845MPD2    C312415   4.086   0.018  16.840 -0.3460  0.8389 -0.1224
  845MPD2    C412416   4.023   0.065  16.726  0.0066 -0.0744  0.2679
  845MPD2    C512417   3.977   0.199  16.712 -0.4034  0.0874 -0.1311
  845MPD2     H12418   4.167   0.088  17.032  0.8300  1.3457 -0.6268
  845MPD2    H112419   4.003   4.721  16.645  0.3361 -2.1744  2.0256
  845MPD2    H212420   3.963   0.388  16.808  1.2050  0.9000  0.6642
  845MPD2    H312421   3.936   0.244  16.622 -0.4263 -1.8235 -1.0807
  845MPD2     N12422   4.146   4.611  16.850 -1.1379  0.3318 -0.1719
  845MPD2    H512423   4.208   4.586  16.927 -0.6344  0.3285 -0.5797
  845MPD2    N112424   4.062   0.333  17.034 -0.0372  0.6367 -0.8511
  845MPD2    H712425   4.022   0.423  17.011  2.1221  2.1588  1.4947
  846MPD2     C12426   1.432   0.550  13.771 -0.0852 -0.1602  0.4315
  846MPD2    C112427   1.347   0.648  13.820  1.0875 -0.2065 -0.1997
  846MPD2    C212428   1.314   0.655  13.956 -0.1523 -0.5815  0.2923
  846MPD2    C312429   1.385   0.577  14.047 -0.7039  0.3584  0.6345
  846MPD2    C412430   1.483   0.489  14.003  0.4242 -0.7982 -0.0021
  846MPD2    C512431   1.500   0.478  13.868 -0.1267 -0.4176  0.0975
  846MPD2     H12432   1.237   0.720  13.996  0.5763  0.2716  0.3007
  846MPD2    H112433   1.530   0.418  14.070  3.8224  0.2319 -1.2750
  846MPD2    H212434   1.471   0.554  13.671 -0.1402 -0.2873  0.4045
  846MPD2    H312435   1.574   0.406  13.837  0.2025  0.0321 -0.1629
  846MPD2     N12436   1.343   0.586  14.180  0.1142  0.4564 -0.2652
  846MPD2    H512437   1.269   0.652  14.201  0.5375  0.9234 -0.2425
  846MPD2    N112438   1.283   0.749  13.741 -0.0351 -0.1537 -0.3897
  846MPD2    H712439   1.248   0.830  13.791  0.8214  0.1466 -0.2829
  847MPD2     C12440   1.530   2.367  14.352  0.2382  0.4242 -0.2500
  847MPD2    C112441   1.653   2.300  14.336 -0.0775 -0.1659 -0.5004
  847MPD2    C212442   1.656   2.168  14.351 -0.4519  0.1943 -0.2036
  847MPD2    C312443   1.547   2.090  14.390  0.7158  0.4033 -0.0616
  847MPD2    C412444   1.430   2.159  14.405 -0.7538  0.6363 -0.4342
  847MPD2    C512445   1.423   2.291  14.377  0.9348 -0.5316  0.0791
  847MPD2     H12446   1.746   2.109  14.336  0.4708  1.3330  0.7934
  847MPD2    H112447   1.345   2.108  14.450  0.6423 -0.0982  1.4066
  847MPD2    H212448   1.516   2.474  14.341 -0.5136  0.2936 -0.5454
  847MPD2    H312449   1.326   2.337  14.391  0.7632 -0.6856 -0.5901
  847MPD2     N12450   1.567   1.958  14.428 -0.5589  0.4260  1.2924
  847MPD2    H512451   1.667   1.940  14.437 -0.5348  0.3164  0.7639
  847MPD2    N112452   1.773   2.368  14.309  0.5007  0.1135  0.0063
  847MPD2    H712453   1.854   2.309  14.297 -0.6484 -0.8420 -3.1432
  848MPD2     C12454   3.722   4.354  16.431 -0.1818  0.3695  0.2875
  848MPD2    C112455   3.749   4.432  16.540 -0.9575  0.3526 -0.1986
  848MPD2    C212456   3.733   4.569  16.530 -0.2831 -0.6817  0.0052
  848MPD2    C312457   3.686   4.626  16.412  0.0707  0.7947 -0.0537
  848MPD2    C412458   3.662   4.544  16.304  0.1997  0.0232  0.2346
  848MPD2    C512459   3.680   4.411  16.315 -0.1047 -0.0188  1.3189
  848MPD2     H12460   3.766   4.626  16.615 -1.4382 -1.4709  0.9779
  848MPD2    H112461   3.632   4.597  16.214 -1.3616 -1.0543  0.1223
  848MPD2    H212462   3.736   4.246  16.432 -1.0134  0.2527 -0.8615
  848MPD2    H312463   3.653   4.345  16.233 -2.1839  0.0302  1.9563
  848MPD2     N12464   3.673   0.040  16.392  0.6563 -0.0998 -0.4842
  848MPD2    H512465   3.649   0.080  16.302 -0.5698  2.0356  0.7922
  848MPD2    N112466   3.770   4.374  16.672 -0.0367  0.6191 -0.2872
  848MPD2    H712467   3.837   4.418  16.733  1.4233  0.2276 -1.6070
  849MPD2     C12468   4.106   0.180  13.575  0.5768  0.0665 -0.1786
  849MPD2    C112469   4.166   0.069  13.636  0.1279  0.3255  0.3941
  849MPD2    C212470   4.092   4.712  13.722 -0.0120 -0.5160 -0.7825
  849MPD2    C312471   3.961   4.725  13.746  0.4600 -0.5128 -0.5428
  849MPD2    C412472   3.904   0.101  13.677 -0.7847  0.0343  0.8052
  849MPD2    C512473   3.974   0.182  13.598 -0.6404  0.1460 -0.2480
  849MPD2     H12474   4.144   4.636  13.778  0.4014  0.4138  0.1039
  849MPD2    H112475   3.797   0.117  13.684 -1.0229 -1.4520  0.4944
  849MPD2    H212476   4.160   0.257  13.521  0.0547 -0.1254 -0.9575
  849MPD2    H312477   3.920   0.259  13.544 -0.6659  1.2651  1.3833
  849MPD2     N12478   3.890   4.646  13.835 -0.0677 -0.6473  0.4520
  849MPD2    H512479   3.802   4.685  13.868  1.8094  2.1317  2.1911
  849MPD2    N112480   4.304   0.049  13.633  0.2329  0.3808  0.1042
  849MPD2    H712481   4.351   4.703  13.686 -1.1091 -0.0661  0.6752
  850MPD2     C12482   1.532   2.424  15.146 -0.1006  0.4318  0.2188
  850MPD2    C112483   1.587   2.507  15.243  0.0577  0.6372  0.8038
  850MPD2    C212484   1.722   2.509  15.253  0.1511  0.4421 -0.1021
  850MPD2    C312485   1.798   2.437  15.166 -0.8053  0.0385  0.3108
  850MPD2    C412486   1.749   2.361  15.068 -0.0871  0.3852 -0.0061
  850MPD2    C512487   1.613   2.359  15.054  0.3548 -0.5973  0.4992
  850MPD2     H12488   1.765   2.560  15.339  0.5443 -1.3725  0.7835
  850MPD2    H112489   1.813   2.301  15.005 -2.8655 -1.1280 -1.4053
  850MPD2    H212490   1.426   2.416  15.124 -0.3150 -2.7291  2.4542
  850MPD2    H312491   1.573   2.295  14.976  1.2237  0.5849 -0.9073
  850MPD2     N12492   1.940   2.432  15.174  0.1401  0.0485 -0.2635
  850MPD2    H512493   1.997   2.371  15.118 -0.8603 -0.6211 -0.5607
  850MPD2    N112494   1.516   2.601  15.318 -0.0508 -0.2144  0.1669
  850MPD2    H712495   1.560   2.657  15.390 -1.6590 -0.0614  1.0276
  851MPD2     C12496   1.789   2.525  15.685 -0.0706 -0.0021 -0.7916
  851MPD2    C112497   1.677   2.452  15.652  0.8211 -0.1846 -0.5983
  851MPD2    C212498   1.680   2.327  15.591 -0.1288  0.6128 -0.2983
  851MPD2    C312499   1.798   2.278  15.546  0.1545 -0.1684 -0.7129
  851MPD2    C412500   1.911   2.349  15.591  0.1241 -0.4007  0.0776
  851MPD2    C512501   1.906   2.475  15.646  0.2111  0.4534 -0.0234
  851MPD2     H12502   1.581   2.288  15.573  0.2643 -0.8571  0.7328
  851MPD2    H112503   2.009   2.310  15.567  0.1154  0.4840 -1.3500
  851MPD2    H212504   1.779   2.617  15.742  1.0877  0.3980 -1.2310
  851MPD2    H312505   1.992   2.539  15.663  0.8102 -0.3666  0.0733
  851MPD2     N12506   1.804   2.152  15.485 -0.3587  0.1078  0.3144
  851MPD2    H512507   1.713   2.109  15.473 -0.1113 -0.1933 -0.4507
  851MPD2    N112508   1.557   2.526  15.673 -0.8002 -0.0397 -0.4591
  851MPD2    H712509   1.569   2.618  15.714 -0.2628 -0.5561  0.5552
  852MPD2     C12510   2.222   4.275  10.231  0.2875  1.1374 -0.1782
  852MPD2    C112511   2.211   4.354  10.344 -0.2341  0.1504 -0.6545
  852MPD2    C212512   2.270   4.480  10.348  0.4006 -0.5491 -0.4632
  852MPD2    C312513   2.334   4.532  10.236  0.0069 -0.1404  0.1726
  852MPD2    C412514   2.355   4.447  10.127 -0.5012  0.0665  0.7249
  852MPD2    C512515   2.300   4.321  10.128  0.7027 -0.1674 -0.1262
  852MPD2     H12516   2.257   4.534  10.441  0.2450 -0.1004 -0.7447
  852MPD2    H112517   2.411   4.474  10.038  0.5881 -2.2719  0.7068
  852MPD2    H212518   2.180   4.176  10.221  4.5272 -0.6369 -0.4245
  852MPD2    H312519   2.303   4.261  10.038 -1.1676  1.3792 -1.2308
  852MPD2     N12520   2.394   4.665  10.248  0.2182 -0.1031 -0.1012
  852MPD2    H512521   2.375   4.713  10.336 -1.1774  0.4512 -0.7026
  852MPD2    N112522   2.163   4.304  10.462  0.1655  0.1833  0.8766
  852MPD2    H712523   2.141   4.375  10.532  0.8187  1.2227  0.0170
  853MPD2     C12524   3.687   0.447  12.417  0.5272 -0.4739 -0.3152
  853MPD2    C112525   3.591   0.380  12.491 -0.4297 -0.1639 -0.4332
  853MPD2    C212526   3.538   0.263  12.445  0.6349 -0.3166 -0.3806
  853MPD2    C312527   3.579   0.222  12.320 -0.2372  0.2320  0.2611
  853MPD2    C412528   3.684   0.277  12.253  0.4034 -0.3642 -0.3934
  853MPD2    C512529   3.747   0.390  12.304  0.1745 -0.0501 -0.0709
  853MPD2     H12530   3.472   0.199  12.503  0.8388 -0.3337 -0.1665
  853MPD2    H112531   3.726   0.236  12.162  1.9356 -0.5644  0.4172
  853MPD2    H212532   3.734   0.538  12.453  1.1669 -1.1644  0.5846
  853MPD2    H312533   3.831   0.440  12.258  0.3808 -0.1562  0.1872
  853MPD2     N12534   3.535   0.102  12.264 -0.2151 -0.7560  0.2042
  853MPD2    H512535   3.592   0.064  12.189 -0.0451 -0.2341  0.0681
  853MPD2    N112536   3.552   0.433  12.617  0.5881  0.1659  0.0113
  853MPD2    H712537   3.611   0.509  12.647  0.0976  0.5892 -0.0965
  854MPD2     C12538   0.312   0.353  12.572 -0.2322 -0.4791  0.1491
  854MPD2    C112539   0.270   0.376  12.699 -1.1566 -0.2120  0.0035
  854MPD2    C212540   0.338   0.316  12.804  0.6821 -0.0500  0.4081
  854MPD2    C312541   0.460   0.241  12.784 -0.5301  0.7855 -0.0127
  854MPD2    C412542   0.508   0.228  12.653 -0.0881 -0.3793 -0.8749
  854MPD2    C512543   0.432   0.286  12.555  0.9215 -0.3354 -0.5145
  854MPD2     H12544   0.299   0.337  12.903 -2.0190 -1.6004 -0.3343
  854MPD2    H112545   0.600   0.182  12.618 -0.0616 -0.2251 -1.0081
  854MPD2    H212546   0.267   0.409  12.490 -0.0947 -0.2100  0.2563
  854MPD2    H312547   0.473   0.264  12.457 -1.4101  0.0992 -1.5651
  854MPD2     N12548   0.545   0.197  12.884 -0.0807  0.1356  0.0858
  854MPD2    H512549   0.625   0.145  12.848  0.8805  0.8072  1.2707
  854MPD2    N112550   0.154   0.449  12.715  0.2802  0.2016 -0.3909
  854MPD2    H712551   0.121   0.489  12.628 -0.7743  0.8917  0.3290
  855MPD2     C12552   0.702   0.353  13.870  0.2976  0.0651  0.6922
  855MPD2    C112553   0.763   0.232  13.834  0.1271  0.3552  0.1175
  855MPD2    C212554   0.767   0.191  13.702  0.1169  0.2301 -0.1829
  855MPD2    C312555   0.683   0.259  13.610  0.2462 -0.4206  0.5990
  855MPD2    C412556   0.627   0.378  13.647  0.4916 -0.7868 -0.3360
  855MPD2    C512557   0.643   0.427  13.774  0.2053  0.1417 -0.1734
  855MPD2     H12558   0.828   0.106  13.674 -1.3823 -0.8006 -0.3254
  855MPD2    H112559   0.579   0.434  13.568 -1.4361  0.7924  1.9810
  855MPD2    H212560   0.713   0.395  13.970  2.8749 -0.3608  0.5995
  855MPD2    H312561   0.599   0.523  13.800  0.5977  0.3436 -0.2593
  855MPD2     N12562   0.669   0.203  13.484 -0.0767  0.1335 -0.9842
  855MPD2    H512563   0.628   0.256  13.407 -1.2623  0.2607 -0.2651
  855MPD2    N112564   0.824   0.149  13.931 -0.3676 -0.3852 -0.3080
  855MPD2    H712565   0.885   0.074  13.898  2.0911  0.4514  2.3062
  856MPD2     C12566   2.796   1.237  14.695 -0.1922  0.6328 -0.9555
  856MPD2    C112567   2.843   1.305  14.587  0.4069 -0.2128 -0.4767
  856MPD2    C212568   2.774   1.308  14.465  0.6206  0.1630  0.5449
  856MPD2    C312569   2.653   1.246  14.451  0.0587  0.0519  0.1434
  856MPD2    C412570   2.609   1.168  14.557  0.2921  0.7933 -0.2351
  856MPD2    C512571   2.683   1.164  14.675  0.5172  0.1110 -0.4480
  856MPD2     H12572   2.810   1.381  14.393  1.1738 -1.5032 -0.8666
  856MPD2    H112573   2.513   1.118  14.548 -0.2754  1.6491  1.0235
  856MPD2    H212574   2.856   1.223  14.784  0.7354  1.5917 -1.4374
  856MPD2    H312575   2.663   1.092  14.753 -0.1816  0.0378 -0.6885
  856MPD2     N12576   2.563   1.262  14.346  0.4185 -0.7916 -0.2964
  856MPD2    H512577   2.478   1.206  14.350 -0.3566  0.5830  2.4341
  856MPD2    N112578   2.953   1.393  14.593  0.5773  0.7126  0.1922
  856MPD2    H712579   2.989   1.426  14.504 -0.9267 -0.9234 -1.0305
  857MPD2     C12580   3.869   3.171  12.916  0.1141 -0.1279  0.0021
  857MPD2    C112581   4.004   3.137  12.900  0.3248 -0.1208 -0.4417
  857MPD2    C212582   4.101   3.220  12.949  0.0510 -0.6385 -0.1954
  857MPD2    C312583   4.063   3.330  13.017 -0.0640 -0.6745 -0.4706
  857MPD2    C412584   3.928   3.369  13.027 -0.5824 -0.4758 -0.2290
  857MPD2    C512585   3.831   3.286  12.976 -0.0030 -0.2193 -0.1203
  857MPD2     H12586   4.206   3.196  12.933  0.6218  1.0975  0.9376
  857MPD2    H112587   3.891   3.457  13.079 -1.1195 -0.9933  0.2607
  857MPD2    H212588   3.795   3.107  12.870  0.0898  0.1217 -0.3071
  857MPD2    H312589   3.726   3.312  12.987 -0.3359 -1.4083 -0.5679
  857MPD2     N12590   4.161   3.421  13.060  0.7102  0.6618 -0.6815
  857MPD2    H512591   4.254   3.403  13.024  0.3265  1.0293 -1.8344
  857MPD2    N112592   4.032   3.011  12.839 -0.4097 -0.0625 -0.0171
  857MPD2    H712593   3.959   2.948  12.808 -0.0867  0.0578 -1.0292
  858MPD2     C12594   4.553   2.461  17.068 -0.1462 -0.4320  0.3340
  858MPD2    C112595   4.689   2.416  17.064  0.0619 -0.1764  0.8041
  858MPD2    C212596   0.041   2.410  17.173 -0.0737 -0.3565 -0.4241
  858MPD2    C312597   4.720   2.459  17.288 -0.4218 -0.4594  0.4258
  858MPD2    C412598   4.583   2.496  17.298  0.3911 -0.5494 -0.3411
  858MPD2    C512599   4.499   2.480  17.190 -0.5704 -0.0814  0.0117
  858MPD2     H12600   0.147   2.392  17.160  0.3364 -0.0453  2.3125
  858MPD2    H112601   4.538   2.526  17.392  1.7042 -1.9436  0.7283
  858MPD2    H212602   4.488   2.458  16.982 -1.4401 -2.0065  1.3778
  858MPD2    H312603   4.395   2.509  17.198 -0.0641  1.3073  1.5686
  858MPD2     N12604   0.074   2.502  17.394 -0.2691 -0.3163 -1.3794
  858MPD2    H512605   0.033   2.574  17.453 -0.4146 -1.1498 -0.4676
  858MPD2    N112606   0.001   2.390  16.931 -0.5421  0.6021  0.0012
  858MPD2    H712607   4.654   2.408  16.863  0.0556  0.4920 -0.6777
  859MPD2     C12608   2.920   4.355  15.293  0.4471 -0.1970  0.3490
  859MPD2    C112609   3.041   4.345  15.233 -0.3017 -0.1681  0.2508
  859MPD2    C212610   3.106   4.222  15.227 -0.4981 -0.1097  0.1537
  859MPD2    C312611   3.035   4.106  15.248  0.7728  0.4626 -0.3650
  859MPD2    C412612   2.907   4.116  15.300 -0.0469 -0.2067  0.3920
  859MPD2    C512613   2.853   4.241  15.325  1.1253  0.3060  0.5367
  859MPD2     H12614   3.199   4.212  15.173  0.5807  0.8874  1.8432
  859MPD2    H112615   2.849   4.030  15.330  1.0919  0.0753  3.3862
  859MPD2    H212616   2.875   4.451  15.318  1.3405  0.6856 -1.3883
  859MPD2    H312617   2.757   4.243  15.374  1.4194 -0.0809  1.1259
  859MPD2     N12618   3.080   3.969  15.236  0.0800 -0.2031 -0.5166
  859MPD2    H512619   3.020   3.892  15.264 -1.9096  1.7636  0.5521
  859MPD2    N112620   3.113   4.456  15.188  0.2606 -0.1181 -0.2619
  859MPD2    H712621   3.064   4.545  15.186  1.4115  0.4785 -2.0181
  860MPD2     C12622   1.536   4.483  11.727 -0.0116  0.3089 -0.3194
  860MPD2    C112623   1.546   4.535  11.856  0.5467  0.4576 -0.4013
  860MPD2    C212624   1.436   4.542  11.940  0.3606 -0.0184  0.2795
  860MPD2    C312625   1.314   4.512  11.885  0.0003  0.3143 -0.4574
  860MPD2    C412626   1.308   4.450  11.768 -0.4079 -0.4091  0.8470
  860MPD2    C512627   1.419   4.428  11.689 -0.0707 -0.2174  0.2064
  860MPD2     H12628   1.433   4.589  12.037  0.4255  2.9571 -1.1713
  860MPD2    H112629   1.214   4.421  11.722 -0.7915  0.5477  1.0338
  860MPD2    H212630   1.620   4.487  11.659 -0.0897  0.2693 -0.4171
  860MPD2    H312631   1.404   4.382  11.592 -1.2194  0.6565 -0.0271
  860MPD2     N12632   1.200   4.544  11.963  0.2041 -0.5571  0.0259
  860MPD2    H512633   1.216   4.608  12.040  0.2731 -2.3889  1.5300
  860MPD2    N112634   1.662   4.594  11.903  0.3253  0.7989 -0.1576
  860MPD2    H712635   1.654   4.627  11.999 -0.9037  1.6183 -0.5452
  861MPD2     C12636   0.231   2.898  11.144  0.0932 -0.2816  0.4166
  861MPD2    C112637   0.108   2.900  11.203 -0.6636  0.4225 -0.2270
  861MPD2    C212638   0.001   2.962  11.147  0.1681 -0.6537 -0.1353
  861MPD2    C312639   0.021   3.031  11.026  0.2026 -0.6581  0.4307
  861MPD2    C412640   0.139   3.022  10.963 -0.4945  0.0592  0.3577
  861MPD2    C512641   0.252   2.962  11.019  0.3832 -0.1661  0.5395
  861MPD2     H12642   4.625   2.949  11.181  0.2069 -0.0418  0.1955
  861MPD2    H112643   0.147   3.067  10.864 -1.3665 -1.3216 -0.3503
  861MPD2    H212644   0.314   2.836  11.177 -1.2912 -2.2209  0.2289
  861MPD2    H312645   0.341   2.946  10.961 -0.3232  2.1268 -1.1753
  861MPD2     N12646   4.642   3.099  10.962  0.0258 -0.0739  0.5302
  861MPD2    H512647   4.659   3.139  10.871 -0.6389  1.3141  1.0122
  861MPD2    N112648   0.096   2.845  11.331  0.4475  0.4377  0.4634
  861MPD2    H712649   0.187   2.815  11.363  0.8390  0.2161 -0.8382
  862MPD2     C12650   4.312   3.061  10.346  0.0057 -0.6717  0.1242
  862MPD2    C112651   4.430   3.048  10.423 -0.2533 -0.2872  0.5102
  862MPD2    C212652   4.500   2.927  10.424 -0.0655  0.2262 -0.7776
  862MPD2    C312653   4.442   2.819  10.370  0.3406 -0.3224 -0.4251
  862MPD2    C412654   4.324   2.829  10.296  0.6237 -0.4613 -0.0746
  862MPD2    C512655   4.266   2.952  10.287 -0.5604  0.6357 -0.1517
  862MPD2     H12656   4.575   2.926  10.502 -0.1590 -0.2195 -0.6916
  862MPD2    H112657   4.270   2.745  10.256 -1.3811  1.5506 -1.5828
  862MPD2    H212658   4.269   3.160  10.337  2.0128  0.1703 -0.0698
  862MPD2    H312659   4.172   2.965  10.235 -1.9791  1.7726  2.6940
  862MPD2     N12660   4.483   2.691  10.412  0.3117  0.6406  0.0162
  862MPD2    H512661   4.415   2.621  10.384  1.3091  0.1379 -1.1585
  862MPD2    N112662   4.456   3.134  10.532 -0.7309  0.2972  0.2961
  862MPD2    H712663   4.533   3.111  10.594 -1.1081  0.4338  0.8210
  863MPD2     C12664   2.553   1.182  17.177  0.8000 -0.4453  0.0422
  863MPD2    C112665   2.633   1.280  17.125 -0.3646 -0.6136 -0.6671
  863MPD2    C212666   2.764   1.302  17.165 -0.5186 -0.6419  0.4396
  863MPD2    C312667   2.815   1.235  17.269  0.0181  0.2362  0.3170
  863MPD2    C412668   2.730   1.156  17.339 -0.2393  0.1849  0.0329
  863MPD2    C512669   2.603   1.123  17.284 -0.2806 -0.1179  0.3151
  863MPD2     H12670   2.830   1.372  17.115 -1.1619  0.7293  1.5277
  863MPD2    H112671   2.759   1.107  17.430 -0.2408  1.2514  0.6086
  863MPD2    H212672   2.452   1.158  17.145  0.2855  2.7497 -0.7635
  863MPD2    H312673   2.551   1.043  17.335 -0.9313 -1.1304 -1.9123
  863MPD2     N12674   2.949   1.241  17.313  0.2847  0.3222  0.1835
  863MPD2    H512675   2.978   1.180  17.389 -0.0039 -0.0387  0.0047
  863MPD2    N112676   2.570   1.353  17.010 -0.3270  0.2886  0.4901
  863MPD2    H712677   2.482   1.319  16.973  0.1224 -0.6177  0.2451
  864MPD2     C12678   3.143   2.764  17.270  0.1589  0.1528 -0.7116
  864MPD2    C112679   3.192   2.676  17.176  0.1365 -0.0422  0.1737
  864MPD2    C212680   3.235   2.723  17.053 -0.5145  0.2430 -0.0324
  864MPD2    C312681   3.232   2.858  17.023 -0.7814  0.0759 -0.0152
  864MPD2    C412682   3.177   2.941  17.116  0.1319  0.2290  0.2843
  864MPD2    C512683   3.134   2.902  17.236 -0.4864  0.2213  0.2343
  864MPD2     H12684   3.281   2.657  16.980  1.3214  0.2413  1.1151
  864MPD2    H112685   3.178   3.049  17.102  3.3066 -0.1438 -2.2908
  864MPD2    H212686   3.115   2.741  17.372  1.5602  1.4675 -0.0415
  864MPD2    H312687   3.113   2.975  17.314 -1.5525  0.4957 -0.3200
  864MPD2     N12688   3.291   2.918  16.909  0.0512  0.3567 -0.5699
  864MPD2    H512689   3.250   3.009  16.894  0.9457  0.7250 -0.7929
  864MPD2    N112690   3.206   2.542  17.218 -0.3322 -0.4823  0.3925
  864MPD2    H712691   3.209   2.518  17.317 -0.8246  1.4909  0.8940
  865MPD2     C12692   3.437   2.983  16.011  0.2867 -0.1686 -0.2758
  865MPD2    C112693   3.422   2.914  16.129  0.2396 -1.1525  0.4946
  865MPD2    C212694   3.370   2.987  16.239  0.1280 -0.1583 -0.6404
  865MPD2    C312695   3.334   3.124  16.228  0.4504  0.0164  0.4716
  865MPD2    C412696   3.364   3.186  16.105  0.5824  0.4524 -0.1692
  865MPD2    C512697   3.413   3.118  16.000  0.0395  0.2417  0.5121
  865MPD2     H12698   3.343   2.934  16.329  0.0579  1.0177  0.0302
  865MPD2    H112699   3.344   3.293  16.100  0.3045  0.4054 -0.0359
  865MPD2    H212700   3.462   2.934  15.918  2.1057  1.4947 -0.6743
  865MPD2    H312701   3.431   3.162  15.903 -0.0758 -2.3936 -0.6943
  865MPD2     N12702   3.266   3.201  16.329  0.6099  0.0364 -0.5800
  865MPD2    H512703   3.220   3.286  16.299 -2.3196 -0.8489  1.4041
  865MPD2    N112704   3.458   2.781  16.139  0.0080 -0.0313 -0.0489
  865MPD2    H712705   3.509   2.744  16.059  0.2971  1.6837 -0.6506
  866MPD2     C12706   0.709   2.975  11.715 -0.0338 -0.5774  1.0527
  866MPD2    C112707   0.720   2.998  11.577 -0.1634  0.2760 -0.0034
  866MPD2    C212708   0.615   3.066  11.517 -0.2343 -0.0805 -0.3721
  866MPD2    C312709   0.495   3.089  11.583 -0.1469 -0.0362 -0.4641
  866MPD2    C412710   0.486   3.049  11.713 -0.6055  0.0948  0.4380
  866MPD2    C512711   0.591   2.993  11.775  0.1272  0.1859 -0.6647
  866MPD2     H12712   0.624   3.082  11.410  0.7175 -0.1414 -0.3057
  866MPD2    H112713   0.391   3.054  11.764 -0.3735  2.7062  0.6178
  866MPD2    H212714   0.790   2.936  11.775  0.0392 -0.4830  1.0157
  866MPD2    H312715   0.578   2.944  11.871  2.1640 -0.1300 -0.5387
  866MPD2     N12716   0.373   3.139  11.530 -0.3539 -0.3249 -0.0304
  866MPD2    H512717   0.297   3.165  11.592  2.0071  0.8201  2.3619
  866MPD2    N112718   0.837   2.956  11.504  0.7956  0.6056 -0.7458
  866MPD2    H712719   0.904   2.896  11.550 -2.1113 -1.2541  1.0882
  867MPD2     C12720   2.138   2.512  16.833 -0.3327 -0.2281 -0.3273
  867MPD2    C112721   2.262   2.511  16.903  0.2246 -0.2410 -0.6459
  867MPD2    C212722   2.286   2.619  16.988  0.5653  0.0191  0.1679
  867MPD2    C312723   2.189   2.724  17.004  0.4044 -0.1731  0.5390
  867MPD2    C412724   2.073   2.715  16.928 -1.0200  0.0762 -0.2626
  867MPD2    C512725   2.044   2.611  16.845 -0.2743  0.6752  1.0643
  867MPD2     H12726   2.368   2.625  17.058  2.4663  2.4982 -2.2536
  867MPD2    H112727   1.996   2.792  16.932 -1.8740 -0.7378 -0.7945
  867MPD2    H212728   2.128   2.437  16.756  1.2453 -0.3471 -0.4212
  867MPD2    H312729   1.958   2.625  16.780  0.0359 -2.0003  0.0395
  867MPD2     N12730   2.190   2.834  17.097  0.3353  0.2852 -1.1582
  867MPD2    H512731   2.116   2.904  17.101 -1.0673 -1.3050  0.8687
  867MPD2    N112732   2.342   2.396  16.892  0.4837  1.1440 -0.2077
  867MPD2    H712733   2.299   2.320  16.840 -0.8358 -0.4779  3.1969
  868MPD2     C12734   4.559   1.896  13.002  0.0447 -0.6655 -0.3065
  868MPD2    C112735   4.549   1.800  13.104 -0.4086  0.5624  0.3429
  868MPD2    C212736   4.481   1.823  13.221  0.5171 -0.4225  0.2184
  868MPD2    C312737   4.422   1.943  13.242 -0.4640 -0.8719 -0.0993
  868MPD2    C412738   4.434   2.041  13.149  0.0999 -0.6968 -0.0659
  868MPD2    C512739   4.512   2.025  13.035  0.2892 -0.0116 -0.2775
  868MPD2     H12740   4.476   1.745  13.296  1.3442 -1.5967 -0.9499
  868MPD2    H112741   4.389   2.139  13.162  1.5340  0.2601 -2.2074
  868MPD2    H212742   4.601   1.873  12.905  1.5917 -0.1010  0.2196
  868MPD2    H312743   4.507   2.103  12.959  0.2765 -1.2789 -1.5875
  868MPD2     N12744   4.360   1.954  13.368  0.0213  0.2208  0.4463
  868MPD2    H512745   4.337   1.865  13.411 -1.1386  0.0261 -0.5882
  868MPD2    N112746   4.607   1.668  13.080 -0.0261  0.0169  0.1278
  868MPD2    H712747   4.662   1.657  12.995  0.2496  0.9987  0.1780
  869MPD2     C12748   0.486   0.306   2.337  0.4041 -0.0467  0.3959
  869MPD2    C112749   0.441   0.205   2.252  1.2124 -0.3015  0.4627
  869MPD2    C212750   0.510   0.183   2.136  0.7436 -0.6866  0.1202
  869MPD2    C312751   0.626   0.258   2.110 -0.7989 -0.0635 -0.0282
  869MPD2    C412752   0.660   0.364   2.191 -0.2967  0.0762  0.3823
  869MPD2    C512753   0.596   0.384   2.308 -0.5814  0.2030  0.5295
  869MPD2     H12754   0.490   0.097   2.072  3.0387 -1.0225 -0.1254
  869MPD2    H112755   0.746   0.428   2.170 -0.1958  0.3744  1.7135
  869MPD2    H212756   0.439   0.328   2.432  0.6820  1.0841  0.2692
  869MPD2    H312757   0.624   0.461   2.378  4.6734 -0.4961 -0.7717
  869MPD2     N12758   0.709   0.243   1.999  0.8409  0.8420  0.3205
  869MPD2    H512759   0.774   0.319   1.982  0.6473  0.9949  0.2687
  869MPD2    N112760   0.337   0.111   2.288  0.1937 -0.0612  0.0782
  869MPD2    H712761   0.310   0.048   2.214 -1.8659 -0.8297  1.5076
  870MPD2     C12762   0.605   3.295   2.202 -0.2144  0.0953  0.0955
  870MPD2    C112763   0.694   3.261   2.108 -0.0054 -0.1865 -0.4193
  870MPD2    C212764   0.701   3.335   1.994 -0.1307  0.6152  0.7221
  870MPD2    C312765   0.618   3.450   1.969 -0.8569  0.2151  0.0929
  870MPD2    C412766   0.524   3.480   2.068 -0.4600 -0.1968 -0.3938
  870MPD2    C512767   0.522   3.402   2.183  0.2782  0.3927  0.2561
  870MPD2     H12768   0.774   3.300   1.922 -2.5127 -1.6372 -0.5724
  870MPD2    H112769   0.448   3.557   2.061  0.4998  0.7253 -0.7206
  870MPD2    H212770   0.584   3.218   2.276  3.1229 -1.7679 -0.8878
  870MPD2    H312771   0.439   3.420   2.251 -0.1645  1.1381 -0.4835
  870MPD2     N12772   0.626   3.510   1.836 -0.0750  0.6733 -0.1843
  870MPD2    H512773   0.708   3.483   1.782  1.1088  0.2179  1.8090
  870MPD2    N112774   0.738   3.129   2.112 -0.6726  0.1851  0.3208
  870MPD2    H712775   0.687   3.059   2.165 -1.5301  2.2442  2.2013
  871MPD2     C12776   1.286   2.336  16.630  0.4966  0.3362 -0.5072
  871MPD2    C112777   1.318   2.327  16.764  0.0913 -0.9292  0.2857
  871MPD2    C212778   1.405   2.228  16.804  0.0198 -0.0229 -0.2856
  871MPD2    C312779   1.455   2.130  16.722  0.5785  0.1436  0.7510
  871MPD2    C412780   1.422   2.139  16.587 -0.0649 -0.0708  0.2016
  871MPD2    C512781   1.344   2.241  16.547 -0.3700  0.6831 -0.9918
  871MPD2     H12782   1.433   2.217  16.908  2.0971  0.4332 -0.7965
  871MPD2    H112783   1.465   2.068  16.516 -0.4789 -1.2814  1.1775
  871MPD2    H212784   1.212   2.407  16.595 -1.2521 -0.6689  1.1421
  871MPD2    H312785   1.323   2.242  16.440 -0.5964  1.6729 -0.9416
  871MPD2     N12786   1.548   2.041  16.774  0.7208  0.0536  0.4316
  871MPD2    H512787   1.562   2.049  16.874  0.2206 -0.4825  0.5456
  871MPD2    N112788   1.259   2.413  16.859 -0.0222 -0.0347 -0.0560
  871MPD2    H712789   1.201   2.491  16.831 -0.1584 -0.3830 -0.7624
  872MPD2     C12790   2.361   0.259  14.258 -0.3966 -0.2140 -0.1202
  872MPD2    C112791   2.259   0.356  14.238 -1.3500  0.3926 -0.3271
  872MPD2    C212792   2.125   0.313  14.239 -0.0640  0.0096  0.1344
  872MPD2    C312793   2.090   0.183  14.253 -0.7847  1.0817  0.1505
  872MPD2    C412794   2.190   0.089  14.276  0.2402 -0.1507 -0.5411
  872MPD2    C512795   2.324   0.128  14.271 -0.2396 -0.3030  0.1312
  872MPD2     H12796   2.048   0.388  14.230  0.9423  0.8782 -1.1269
  872MPD2    H112797   2.171   4.709  14.282 -1.3008  0.3532  3.7193
  872MPD2    H212798   2.464   0.290  14.268 -1.6586  2.8727  2.9392
  872MPD2    H312799   2.403   0.056  14.282 -0.1241 -0.2402 -0.3192
  872MPD2     N12800   1.954   0.135  14.250 -0.4805  0.5770 -0.1837
  872MPD2    H512801   1.945   0.035  14.268 -1.2900  0.8602  1.0385
  872MPD2    N112802   2.292   0.495  14.238  0.1581 -0.0428 -0.5333
  872MPD2    H712803   2.212   0.557  14.228  0.3375  0.4680  1.2972
  873MPD2     C12804   3.758   1.271   1.288 -0.4426 -0.1912  0.1076
  873MPD2    C112805   3.879   1.231   1.331 -0.0716 -0.3859  0.3519
  873MPD2    C212806   3.957   1.155   1.245 -0.3101 -0.4986  0.4794
  873MPD2    C312807   3.918   1.125   1.116 -0.4246 -0.3012  0.0965
  873MPD2    C412808   3.787   1.163   1.073  0.0233  0.2754  0.1835
  873MPD2    C512809   3.715   1.231   1.162  0.1005 -0.6230  0.3261
  873MPD2     H12810   4.053   1.112   1.271 -0.6702 -0.1409  2.4281
  873MPD2    H112811   3.744   1.128   0.980  0.6749 -0.9249  0.3278
  873MPD2    H212812   3.682   1.316   1.352  0.5893 -0.2461  1.3763
  873MPD2    H312813   3.620   1.268   1.125  0.4967  2.0861  1.9578
  873MPD2     N12814   4.000   1.048   1.028  0.0796  0.2806  0.3298
  873MPD2    H512815   3.969   1.039   0.932 -1.2901 -1.0998  0.8893
  873MPD2    N112816   3.918   1.263   1.462 -0.0133 -0.2729 -0.4506
  873MPD2    H712817   3.852   1.321   1.513 -0.6764 -0.8944 -0.6076
  874MPD2     C12818   2.907   4.684  16.452 -0.1919 -0.2320 -1.1204
  874MPD2    C112819   3.022   4.645  16.518 -0.4336  0.2319 -0.1541
  874MPD2    C212820   3.127   0.000  16.513 -0.0354  0.2936 -0.3931
  874MPD2    C312821   3.121   0.124  16.448  0.0194  0.0332  0.0662
  874MPD2    C412822   3.010   0.165  16.385  0.7733 -0.9668  0.6440
  874MPD2    C512823   2.903   0.079  16.384 -0.4590 -0.4121  0.2420
  874MPD2     H12824   3.228   4.698  16.539  0.4651  0.4846 -2.1207
  874MPD2    H112825   3.000   0.256  16.327 -0.4932 -1.0506  0.7249
  874MPD2    H212826   2.812   4.632  16.460  0.8811 -2.1583 -0.8033
  874MPD2    H312827   2.811   0.105  16.332  0.3878 -0.1296 -1.1089
  874MPD2     N12828   3.243   0.202  16.442  0.2865 -0.1933 -0.4606
  874MPD2    H512829   3.324   0.171  16.494 -0.0094  1.6492  1.1040
  874MPD2    N112830   3.017   4.522  16.585  0.4594 -0.7732  0.0511
  874MPD2    H712831   2.938   4.459  16.582 -1.5687  1.7211  0.4310
  875MPD2     C12832   0.355   3.460  15.008  0.2846  0.0638  0.4675
  875MPD2    C112833   0.266   3.567  15.005  0.4918 -0.4099  0.4880
  875MPD2    C212834   0.267   3.650  15.119  0.2655  0.2838  0.5354
  875MPD2    C312835   0.350   3.632  15.225 -0.4954  0.3434  0.4082
  875MPD2    C412836   0.445   3.533  15.219 -0.2279 -0.0680 -0.0078
  875MPD2    C512837   0.441   3.443  15.118 -0.4942  0.4648 -0.1326
  875MPD2     H12838   0.191   3.727  15.123 -1.6643 -1.4981 -1.8805
  875MPD2    H112839   0.520   3.519  15.296  1.0416  0.1551 -1.2022
  875MPD2    H212840   0.359   3.379  14.936  0.6718 -1.2497  1.9580
  875MPD2    H312841   0.509   3.359  15.120  0.0142  0.8699 -0.2417
  875MPD2     N12842   0.349   3.704  15.344  0.0040  1.0060  0.2353
  875MPD2    H512843   0.399   3.666  15.424 -1.6566 -2.7066 -0.5124
  875MPD2    N112844   0.181   3.588  14.893  0.3982  0.5003  0.2893
  875MPD2    H712845   0.113   3.663  14.900  0.1350  0.2671  0.2391
  876MPD2     C12846   3.347   0.273  15.936 -0.4132 -0.0469 -0.0421
  876MPD2    C112847   3.441   0.183  15.883 -0.3078 -0.9348  0.9465
  876MPD2    C212848   3.451   0.055  15.932  0.0848 -0.2650  0.8555
  876MPD2    C312849   3.366   0.011  16.031 -0.0219 -0.0306  0.8322
  876MPD2    C412850   3.269   0.093  16.080  0.4844  0.0873 -0.2460
  876MPD2    C512851   3.257   0.228  16.036 -0.3971  0.5165 -0.2568
  876MPD2     H12852   3.536   4.716  15.913 -1.2898 -1.4999 -1.0058
  876MPD2    H112853   3.208   0.072  16.167  0.9669 -1.2941 -0.2432
  876MPD2    H212854   3.331   0.376  15.910  2.8775  0.5887  0.4229
  876MPD2    H312855   3.184   0.300  16.074  0.2963  1.1344 -0.0973
  876MPD2     N12856   3.401   4.609  16.087  0.4319  0.1375 -0.2116
  876MPD2    H512857   3.485   4.563  16.053  1.0419 -0.8947  2.7047
  876MPD2    N112858   3.526   0.234  15.784 -0.2765 -0.0304  0.1407
  876MPD2    H712859   3.512   0.329  15.751 -0.2142 -0.0336  0.1060
  877MPD2     C12860   3.416   0.500  15.069  0.5358 -0.6888  0.2417
  877MPD2    C112861   3.550   0.497  15.091  0.2641  0.5476  0.3447
  877MPD2    C212862   3.640   0.552  14.998 -0.1934  0.4013  1.5424
  877MPD2    C312863   3.588   0.601  14.882  0.8643 -0.4645  0.0982
  877MPD2    C412864   3.456   0.580  14.842 -0.1676  0.0741 -0.2567
  877MPD2    C512865   3.370   0.541  14.946 -0.3267 -0.0734  0.1110
  877MPD2     H12866   3.747   0.549  15.014 -0.0717  0.3206  0.7430
  877MPD2    H112867   3.409   0.627  14.756  0.2057 -0.7368 -0.9066
  877MPD2    H212868   3.340   0.478  15.142 -0.5148  1.8805 -0.1046
  877MPD2    H312869   3.264   0.563  14.951 -0.1295  0.4832  2.0186
  877MPD2     N12870   3.664   0.670  14.791 -0.4477  0.2643 -0.3882
  877MPD2    H512871   3.621   0.699  14.703  1.3697 -0.8275 -1.6186
  877MPD2    N112872   3.604   0.453  15.214  0.0288  0.0180 -0.7555
  877MPD2    H712873   3.705   0.441  15.212  0.3102  2.2999 -0.4221
  878MPD2     C12874   4.437   4.475  12.854  0.5009 -0.6143  0.1236
  878MPD2    C112875   4.363   4.571  12.927  0.2302 -0.2758  0.0831
  878MPD2    C212876   4.407   4.614  13.049 -0.0843  0.1766  0.4462
  878MPD2    C312877   4.520   4.553  13.109  0.9520 -0.7443  0.2587
  878MPD2    C412878   4.587   4.448  13.042 -0.0947 -0.2626  0.5433
  878MPD2    C512879   4.549   4.419  12.914 -0.2161 -0.0775 -0.0699
  878MPD2     H12880   4.352   4.692  13.099 -2.2441 -1.4657  0.6296
  878MPD2    H112881   4.680   4.403  13.074  0.6165  0.5529 -0.4139
  878MPD2    H212882   4.402   4.445  12.756 -0.9455 -0.0327  0.4631
  878MPD2    H312883   4.607   4.348  12.855  0.1017 -0.1658  0.3520
  878MPD2     N12884   4.554   4.597  13.237 -0.2103  0.6777 -0.0439
  878MPD2    H512885   4.502   4.677  13.273 -0.9294  0.5430 -0.7902
  878MPD2    N112886   4.250   4.635  12.869  0.8439  0.8872 -0.1242
  878MPD2    H712887   4.198   4.589  12.795  0.7738  0.3488  0.2669
  879MPD2     C12888   3.760   1.584  16.872 -0.0594 -0.2311  0.3052
  879MPD2    C112889   3.854   1.506  16.943 -0.5033 -0.8449  0.4818
  879MPD2    C212890   3.806   1.387  17.000  0.3756 -0.7092 -1.1913
  879MPD2    C312891   3.677   1.340  16.991  0.2091  0.0997  0.3625
  879MPD2    C412892   3.595   1.414  16.913 -1.0473 -0.3385  0.4275
  879MPD2    C512893   3.636   1.533  16.859  0.2475  0.2409  0.3088
  879MPD2     H12894   3.869   1.324  17.061  0.3894 -0.5380 -1.0296
  879MPD2    H112895   3.491   1.385  16.904 -0.5216 -2.0919 -0.0314
  879MPD2    H212896   3.790   1.682  16.837 -0.9731 -0.6178 -1.5862
  879MPD2    H312897   3.564   1.590  16.801  0.2121  0.6472  0.7553
  879MPD2     N12898   3.622   1.219  17.047 -0.2776  0.0241  0.7164
  879MPD2    H512899   3.535   1.193  17.002 -1.7399  4.2057  1.0855
  879MPD2    N112900   3.985   1.544  16.958 -0.0784  0.7745 -0.2328
  879MPD2    H712901   4.010   1.642  16.954 -0.0119  0.8250  1.3088
  880MPD2     C12902   0.954   2.500   0.449  0.1045 -0.1600  0.2993
  880MPD2    C112903   0.952   2.557   0.571  0.4049  0.4204 -0.3852
  880MPD2    C212904   1.013   2.497   0.680 -0.2041  0.6253 -0.2516
  880MPD2    C312905   1.077   2.373   0.666  0.2748  0.3435  0.5794
  880MPD2    C412906   1.070   2.308   0.546  0.1274  0.1614 -0.5541
  880MPD2    C512907   1.014   2.372   0.438 -0.5847 -0.6993  0.1189
  880MPD2     H12908   1.005   2.532   0.782 -4.1732 -0.8052 -0.0762
  880MPD2    H112909   1.107   2.208   0.523  0.9802  0.1885  0.6890
  880MPD2    H212910   0.926   2.553   0.359 -1.3173  0.0736  0.8895
  880MPD2    H312911   1.029   2.328   0.340 -2.1592 -0.9582 -0.0051
  880MPD2     N12912   1.162   2.328   0.779  0.3064  0.3000  0.4083
  880MPD2    H512913   1.163   2.381   0.866  0.1423  0.3288  0.3926
  880MPD2    N112914   0.880   2.677   0.584 -0.2565  0.5770 -0.6444
  880MPD2    H712915   0.858   2.722   0.496  0.1386 -3.1488 -2.6512
  881MPD2     C12916   0.299   3.342   0.155  0.2821  0.0919 -0.7131
  881MPD2    C112917   0.355   3.220   0.129 -0.5012 -0.5376  0.2199
  881MPD2    C212918   0.442   3.168   0.223 -0.1028  0.0645 -0.6137
  881MPD2    C312919   0.443   3.223   0.352  0.2275 -0.3323  0.0293
  881MPD2    C412920   0.361   3.331   0.377 -0.3592  0.5575  0.6050
  881MPD2    C512921   0.298   3.394   0.276 -0.6819  0.4151 -0.3385
  881MPD2     H12922   0.514   3.094   0.192  0.1050  0.7728 -1.7970
  881MPD2    H112923   0.362   3.385   0.471 -0.8480  0.7467  0.5033
  881MPD2    H212924   0.231   3.383   0.081  1.0249 -3.8419 -3.5610
  881MPD2    H312925   0.245   3.486   0.297 -2.5058 -0.9674  1.0929
  881MPD2     N12926   0.526   3.170   0.458 -0.0283  0.1066 -0.1967
  881MPD2    H512927   0.529   3.226   0.542 -1.0583  0.2877 -0.2878
  881MPD2    N112928   0.366   3.180  17.699  0.1410 -0.2305 -0.0420
  881MPD2    H712929   0.320   3.250  17.641  0.4441  0.7242  0.8660
  882MPD2     C12930   3.473   0.407  14.211  0.3360  0.2594  0.0563
  882MPD2    C112931   3.464   0.504  14.304  0.1243 -0.3190  0.0327
  882MPD2    C212932   3.351   0.505  14.384  0.0163  0.0599 -0.3233
  882MPD2    C312933   3.248   0.418  14.371  0.1052  0.5191 -0.1152
  882MPD2    C412934   3.266   0.315  14.277 -0.6630  0.2921  0.3116
  882MPD2    C512935   3.375   0.318  14.195 -0.2999 -0.1176  0.3397
  882MPD2     H12936   3.348   0.585  14.458  1.5051  1.3787 -1.6873
  882MPD2    H112937   3.190   0.240  14.258 -0.6940  0.4130 -0.0421
  882MPD2    H212938   3.565   0.409  14.155  0.7431 -2.0238  0.6528
  882MPD2    H312939   3.378   0.235  14.125  2.3949  0.6096 -0.4155
  882MPD2     N12940   3.131   0.422  14.443  0.6433  0.2543 -0.2555
  882MPD2    H512941   3.058   0.360  14.410  1.8383  0.0971 -2.6594
  882MPD2    N112942   3.577   0.585  14.322 -0.1138 -0.2904 -0.6811
  882MPD2    H712943   3.654   0.571  14.257 -0.0350  2.2084 -1.1246
  883MPD2     C12944   1.347   0.666  16.768 -0.3085 -0.1344 -0.4926
  883MPD2    C112945   1.453   0.628  16.692 -0.6585  0.2171 -0.1078
  883MPD2    C212946   1.574   0.607  16.752 -0.2153  0.1533  0.5122
  883MPD2    C312947   1.594   0.624  16.884 -0.1532  0.1958  0.7266
  883MPD2    C412948   1.490   0.671  16.964 -0.4183  0.2160  0.6438
  883MPD2    C512949   1.363   0.685  16.902 -0.4291 -0.8997  0.2784
  883MPD2     H12950   1.645   0.565  16.681  0.3901  1.4285  0.3632
  883MPD2    H112951   1.500   0.697  17.069  0.9291  2.5784 -0.0737
  883MPD2    H212952   1.250   0.683  16.723 -1.0670 -1.0150  0.7862
  883MPD2    H312953   1.274   0.718  16.954 -0.6821  0.6462 -1.1272
  883MPD2     N12954   1.726   0.610  16.939 -0.6214 -0.3693 -0.0073
  883MPD2    H512955   1.799   0.577  16.876  0.3440 -1.0347  1.4690
  883MPD2    N112956   1.464   0.621  16.554 -0.0144 -0.6637  0.7426
  883MPD2    H712957   1.555   0.614  16.510 -1.2542 -3.0011 -1.4641
  884MPD2     C12958   2.559   0.847  15.482 -0.0158 -0.6619  0.1569
  884MPD2    C112959   2.577   0.982  15.482  0.4141 -0.2227 -0.5512
  884MPD2    C212960   2.469   1.052  15.520 -0.6405 -0.2137  0.2413
  884MPD2    C312961   2.339   1.004  15.543  0.4950 -0.1532  0.2870
  884MPD2    C412962   2.326   0.867  15.538  0.3827  0.1203  0.3320
  884MPD2    C512963   2.439   0.791  15.517  0.8409 -0.3583 -0.4496
  884MPD2     H12964   2.486   1.158  15.537 -0.8143  0.4062 -3.3718
  884MPD2    H112965   2.228   0.823  15.550  0.0675  0.9109  0.6095
  884MPD2    H212966   2.639   0.786  15.442 -0.9454 -1.0972 -1.0391
  884MPD2    H312967   2.421   0.685  15.506  0.1946 -0.5461  2.4807
  884MPD2     N12968   2.234   1.091  15.562  0.4608 -1.2672  0.4561
  884MPD2    H512969   2.254   1.191  15.558 -0.0742 -1.2016 -0.8031
  884MPD2    N112970   2.701   1.044  15.455  0.0208  0.9111 -0.6128
  884MPD2    H712971   2.701   1.144  15.438 -2.2519  0.9025 -0.6621
  885MPD2     C12972   0.676   1.020  17.690  0.2787 -0.1471  0.1408
  885MPD2    C112973   0.808   1.053  17.688  0.0122  0.4553 -0.2591
  885MPD2    C212974   0.871   1.114  17.579  0.1982  0.3201  0.2668
  885MPD2    C312975   0.793   1.151  17.469 -0.1159 -0.6101  0.2538
  885MPD2    C412976   0.655   1.128  17.484  0.7578 -0.1940 -0.1831
  885MPD2    C512977   0.599   1.055  17.585  0.2898  0.9465 -0.6877
  885MPD2     H12978   0.978   1.126  17.567 -0.0616  2.2231 -0.0729
  885MPD2    H112979   0.585   1.161  17.407  2.0100 -0.7925 -1.5654
  885MPD2    H212980   0.633   0.977   0.074 -2.4939 -0.3452 -1.3026
  885MPD2    H312981   0.493   1.039  17.602  0.2188  1.3425 -0.7458
  885MPD2     N12982   0.857   1.199  17.351 -0.0307  0.3222 -0.5874
  885MPD2    H512983   0.958   1.205  17.360  0.0700 -1.1027 -0.7820
  885MPD2    N112984   0.876   1.037   0.104  0.4343  0.2518 -0.2683
  885MPD2    H712985   0.825   0.989   0.176 -0.3698  0.0041 -1.0014
  886MPD2     C12986   1.898   4.332  15.498  0.0034  0.5179 -0.9629
  886MPD2    C112987   2.037   4.349  15.515 -0.2780  0.0774  0.2008
  886MPD2    C212988   2.098   4.442  15.434  0.0836 -0.4426 -0.7616
  886MPD2    C312989   2.026   4.510  15.337 -0.9371  0.0489 -0.3695
  886MPD2    C412990   1.895   4.485  15.322 -0.2576  0.5669  0.2643
  886MPD2    C512991   1.830   4.406  15.411 -0.0603  0.2451  0.1778
  886MPD2     H12992   2.205   4.453  15.434 -0.1330  1.7364 -1.0406
  886MPD2    H112993   1.841   4.524  15.237 -0.0737 -0.7571 -0.4635
  886MPD2    H212994   1.831   4.277  15.563  3.0459 -1.9998  0.0783
  886MPD2    H312995   1.722   4.402  15.403  0.0040  2.6127 -1.8244
  886MPD2     N12996   2.082   4.615  15.255  0.1662 -0.0368 -0.6544
  886MPD2    H512997   2.015   4.656  15.190 -0.8530 -0.6120  0.0435
  886MPD2    N112998   2.117   4.262  15.584  0.0450 -0.0538  0.4458
  886MPD2    H712999   2.217   4.267  15.571 -0.3181  1.5060 -1.8043
  887MPD2     C13000   2.781   4.205  15.728 -0.1034 -0.1248  0.7605
  887MPD2    C113001   2.661   4.264  15.754  0.0963  0.5139  0.3205
  887MPD2    C213002   2.656   4.401  15.742 -0.2328  0.3257  0.0893
  887MPD2    C313003   2.762   4.488  15.712 -0.2598  0.2081 -0.3850
  887MPD2    C413004   2.874   4.430  15.673  0.1806 -0.0919 -0.3468
  887MPD2    C513005   2.880   4.293  15.689 -0.2719  0.5232  0.6408
  887MPD2     H13006   2.558   4.444  15.758 -0.8761 -0.1965 -2.3731
  887MPD2    H113007   2.962   4.479  15.634 -0.2613  1.2193  0.3086
  887MPD2    H213008   2.803   4.102  15.753  1.3670 -0.1631 -0.7088
  887MPD2    H313009   2.974   4.243  15.669  0.2045  1.3655  0.7725
  887MPD2     N13010   2.732   4.625  15.710 -0.4117  0.6258  0.2850
  887MPD2    H513011   2.638   4.652  15.737 -1.3156 -1.4140 -0.8127
  887MPD2    N113012   2.542   4.199  15.773 -0.4603  0.6383 -0.7864
  887MPD2    H713013   2.461   4.259  15.779 -0.9030 -0.0668  0.3034
  888MPD2     C13014   0.024   0.075  15.123 -0.9067  0.2264  0.4305
  888MPD2    C113015   0.059   0.122  15.249  0.0154  0.0326 -0.2283
  888MPD2    C213016   0.110   0.252  15.263 -0.1219  0.2079 -0.1946
  888MPD2    C313017   0.137   0.326  15.147 -0.0822  0.2520 -0.2711
  888MPD2    C413018   0.101   0.281  15.022  0.0655 -0.1851 -0.1904
  888MPD2    C513019   0.049   0.150  15.010  0.4455 -1.0456 -0.4530
  888MPD2     H13020   0.132   0.286  15.363  0.3454  1.8623 -0.8475
  888MPD2    H113021   0.120   0.336  14.931  1.8181  0.4291  0.5337
  888MPD2    H213022   0.005   4.695  15.114  1.5583 -0.4640  3.6020
  888MPD2    H313023   0.021   0.110  14.913 -0.6587  1.2121 -1.0739
  888MPD2     N13024   0.198   0.456  15.163  0.4864 -0.0645  0.3317
  888MPD2    H513025   0.196   0.497  15.256 -1.7086  0.4371  0.0711
  888MPD2    N113026   0.048   0.036  15.358 -0.1542  0.3939  0.0895
  888MPD2    H713027   0.099   0.053  15.444 -0.6847  0.3824  0.4048
  889MPD2     C13028   4.459   3.932  13.703  0.2404  0.4701 -0.4291
  889MPD2    C113029   4.527   3.936  13.587  0.4775  0.4472  0.2852
  889MPD2    C213030   4.641   4.013  13.576 -0.1163  0.5052 -0.5694
  889MPD2    C313031   4.693   4.085  13.679 -0.8445 -0.3222 -0.6103
  889MPD2    C413032   4.622   4.083  13.794  0.2051 -0.5895 -0.4021
  889MPD2    C513033   4.504   4.013  13.799 -0.1271 -0.6031  0.1446
  889MPD2     H13034   4.685   4.014  13.477  0.9276 -1.8313 -0.1351
  889MPD2    H113035   4.644   4.133  13.888 -1.9667 -2.3426  1.0561
  889MPD2    H213036   4.379   3.865  13.732  2.4880 -1.7198  0.7161
  889MPD2    H313037   4.441   4.026  13.886 -0.9469  0.2697 -0.5869
  889MPD2     N13038   0.082   4.167  13.680 -0.1197  0.0583  0.4201
  889MPD2    H513039   0.100   4.219  13.765  1.8413 -0.9763  0.6562
  889MPD2    N113040   4.494   3.850  13.481 -0.0794 -0.3284  0.1584
  889MPD2    H713041   4.558   3.845  13.403 -2.2336 -1.2458 -1.5522
  890MPD2     C13042   3.899   1.350  14.783  0.2638 -0.0779 -0.1617
  890MPD2    C113043   3.836   1.396  14.897  0.1151 -0.0897 -0.6423
  890MPD2    C213044   3.773   1.311  14.991  0.5867 -0.4710 -0.2866
  890MPD2    C313045   3.747   1.182  14.948  0.3875 -0.1380  1.0849
  890MPD2    C413046   3.807   1.137  14.829  0.5816  0.3684  0.2651
  890MPD2    C513047   3.878   1.220  14.747  0.5443  0.2119 -0.4885
  890MPD2     H13048   3.717   1.347  15.077  1.4669 -1.5672  0.7425
  890MPD2    H113049   3.792   1.040  14.783  0.5463  0.7048 -0.4370
  890MPD2    H213050   3.953   1.413  14.714  1.9020 -3.2022 -1.7171
  890MPD2    H313051   3.921   1.187  14.653  2.0330  1.3702 -0.1982
  890MPD2     N13052   3.676   1.090  15.029  0.7416  0.0015 -0.3826
  890MPD2    H513053   3.665   1.118  15.126  0.2581 -3.3708  0.5425
  890MPD2    N113054   3.857   1.536  14.928  0.1742 -0.5713 -0.3973
  890MPD2    H713055   3.909   1.593  14.861  0.3294 -0.4836 -0.2019
  891MPD2     C13056   1.676   4.263  17.016 -0.9466 -0.3262 -0.2752
  891MPD2    C113057   1.584   4.236  17.114  0.0240  0.0433  0.5542
  891MPD2    C213058   1.614   4.136  17.212 -0.3853  0.1700  0.2226
  891MPD2    C313059   1.728   4.060  17.201  0.3329 -0.2252 -0.3356
  891MPD2    C413060   1.808   4.075  17.089  0.2541  0.3748 -0.1781
  891MPD2    C513061   1.773   4.166  16.989  0.2070  0.5256 -0.4936
  891MPD2     H13062   1.539   4.113  17.287 -2.8551  1.9791 -1.7026
  891MPD2    H113063   1.889   4.005  17.069 -0.1465  0.0374 -0.6207
  891MPD2    H213064   1.653   4.326  16.931 -0.2299  0.4747  0.1232
  891MPD2    H313065   1.826   4.174  16.895 -0.1272  1.2454 -0.6224
  891MPD2     N13066   1.755   3.967  17.300  0.4455 -0.5711 -0.1402
  891MPD2    H513067   1.679   3.946  17.365 -2.2651  1.1951 -2.7876
  891MPD2    N113068   1.465   4.314  17.120  0.1004 -0.3063  0.3946
  891MPD2    H713069   1.473   4.385  17.048  0.4894 -1.3804 -0.6157
  892MPD2     C13070   2.512   0.996  15.030  0.1827 -0.8645 -0.0677
  892MPD2    C113071   2.434   0.932  14.939  0.3239 -0.4656 -0.2826
  892MPD2    C213072   2.494   0.861  14.841 -0.3623 -0.0048 -0.3895
  892MPD2    C313073   2.631   0.844  14.833  0.4493 -0.2190 -0.2808
  892MPD2    C413074   2.709   0.922  14.913 -0.1899  0.8114 -0.5754
  892MPD2    C513075   2.650   1.003  15.011 -0.0441 -0.6324  0.5435
  892MPD2     H13076   2.424   0.808  14.777 -1.4061  0.6633  0.1972
  892MPD2    H113077   2.817   0.931  14.915 -0.2235  0.8895  1.6223
  892MPD2    H213078   2.464   1.060  15.103  2.1563 -0.7474  1.1332
  892MPD2    H313079   2.707   1.071  15.072 -0.4638  0.2419 -0.0402
  892MPD2     N13080   2.702   0.745  14.760  0.0540  0.0295 -0.0536
  892MPD2    H513081   2.803   0.742  14.768  0.1264  0.5572 -0.7341
  892MPD2    N113082   2.292   0.925  14.945 -0.3148  1.2757 -0.9854
  892MPD2    H713083   2.239   0.906  14.861  0.3069 -1.8209 -0.7069
  893MPD2     C13084   0.309   3.923   0.975 -0.4441 -0.5727  0.3642
  893MPD2    C113085   0.228   4.018   1.027 -0.1134 -0.4683  0.0458
  893MPD2    C213086   0.095   4.020   0.989 -0.8989  0.2068 -0.0872
  893MPD2    C313087   0.043   3.917   0.914 -0.7902 -0.3564  0.1061
  893MPD2    C413088   0.124   3.814   0.874  0.6706  0.1554 -0.2700
  893MPD2    C513089   0.260   3.823   0.889  0.1429 -0.3919 -0.2025
  893MPD2     H13090   0.027   4.094   1.030 -0.4289  0.2790  0.5757
  893MPD2    H113091   0.076   3.736   0.816  0.8272 -1.2951  1.5495
  893MPD2    H213092   0.416   3.926   0.996 -0.4203  0.5247  0.1161
  893MPD2    H313093   0.326   3.742   0.860 -0.0328 -0.4745 -0.3714
  893MPD2     N13094   4.630   3.899   0.878 -0.5475 -0.0988 -0.0208
  893MPD2    H513095   4.602   3.820   0.821 -3.2156  0.2642  0.7734
  893MPD2    N113096   0.279   4.115   1.122  0.1758  0.4999 -0.2218
  893MPD2    H713097   0.379   4.125   1.133  0.0369 -0.0908  1.6566
  894MPD2     C13098   3.233   1.882   0.918  0.5681  0.3159 -0.3999
  894MPD2    C113099   3.128   1.813   0.979 -0.6611  0.6878  0.0833
  894MPD2    C213100   3.005   1.874   1.004 -0.0232  0.0839 -0.1636
  894MPD2    C313101   2.975   1.988   0.938 -0.1470  0.1289 -0.4465
  894MPD2    C413102   3.075   2.058   0.871 -0.0672  0.2277 -0.4136
  894MPD2    C513103   3.202   2.005   0.863  0.2087 -0.0814  0.3424
  894MPD2     H13104   2.923   1.824   1.055  1.6911 -1.4584  1.1048
  894MPD2    H113105   3.053   2.151   0.821  0.8135  1.1603  0.9626
  894MPD2    H213106   3.332   1.841   0.902  0.2127 -0.0158 -1.7628
  894MPD2    H313107   3.277   2.054   0.802  2.3808 -3.0431  0.6339
  894MPD2     N13108   2.849   2.041   0.968  0.1719 -0.1552 -0.3224
  894MPD2    H513109   2.795   1.987   1.035 -0.2759 -1.4672 -1.7297
  894MPD2    N113110   3.150   1.686   1.042 -0.2185  0.4727 -0.4859
  894MPD2    H713111   3.072   1.637   1.084  1.2213 -1.6084 -0.1983
  895MPD2     C13112   2.828   4.242  13.944  0.3203 -0.7976 -0.3393
  895MPD2    C113113   2.769   4.307  13.837  0.6776 -0.0630  0.4866
  895MPD2    C213114   2.794   4.262  13.712  0.5767  0.4710  0.1000
  895MPD2    C313115   2.876   4.157  13.685 -0.0959  0.1662 -0.6401
  895MPD2    C413116   2.920   4.083  13.791 -0.4538  0.7654  0.2708
  895MPD2    C513117   2.906   4.127  13.918 -0.2519  0.2481 -0.0374
  895MPD2     H13118   2.776   4.324  13.624 -0.2417 -1.0129 -0.7703
  895MPD2    H113119   2.981   3.997  13.768  0.7391  0.9006  2.9727
  895MPD2    H213120   2.826   4.277  14.046 -1.4848  1.1108 -1.0398
  895MPD2    H313121   2.958   4.071  13.994  0.7499  1.6705  0.3147
  895MPD2     N13122   2.916   4.118  13.559 -0.7746  0.3540 -0.9976
  895MPD2    H513123   2.957   4.025  13.563 -2.5464 -0.3325  0.8925
  895MPD2    N113124   2.686   4.424  13.854 -0.0665 -0.1500 -0.9182
  895MPD2    H713125   2.633   4.461  13.776 -0.5860 -0.0290 -0.5072
  896MPD2     C13126   0.047   2.209   0.815 -0.9313 -0.5044  0.5726
  896MPD2    C113127   4.714   2.220   0.936  0.1584 -0.2906  0.5350
  896MPD2    C213128   4.577   2.212   0.946  0.1573 -0.4881 -0.1878
  896MPD2    C313129   4.497   2.199   0.837 -0.2230 -0.3861 -0.2581
  896MPD2    C413130   4.559   2.199   0.715  0.3715 -0.3515  0.2609
  896MPD2    C513131   4.697   2.202   0.704 -0.4902 -0.1330 -0.3531
  896MPD2     H13132   4.537   2.216   1.047  0.3717  3.9580 -0.2732
  896MPD2    H113133   4.507   2.189   0.621  2.2637 -1.1436 -0.6898
  896MPD2    H213134   0.155   2.208   0.806 -0.8930 -1.1502  1.1528
  896MPD2    H313135   0.010   2.199   0.603  1.6576 -1.4610  0.5192
  896MPD2     N13136   4.358   2.185   0.850  0.4157  0.3914  0.4452
  896MPD2    H513137   4.322   2.193   0.944  1.3344 -0.2209  0.8443
  896MPD2    N113138   0.074   2.214   1.044  0.1962 -0.0326  0.1748
  896MPD2    H713139   0.171   2.209   1.015  0.9773  3.2869  2.1655
  897MPD2     C13140   0.728   3.616  10.519 -0.3935 -1.0073 -0.5483
  897MPD2    C113141   0.808   3.717  10.568 -0.3496  0.5958 -0.4407
  897MPD2    C213142   0.792   3.763  10.691  0.4706  0.1105 -0.4116
  897MPD2    C313143   0.689   3.714  10.767  0.3143  0.0932  0.3694
  897MPD2    C413144   0.609   3.612  10.715  0.2349 -0.0818  0.3440
  897MPD2    C513145   0.631   3.564  10.595 -0.3844  0.5530  0.2756
  897MPD2     H13146   0.840   3.855  10.722 -0.5985  0.0398  1.5178
  897MPD2    H113147   0.537   3.565  10.780 -1.7190  2.0374 -0.3152
  897MPD2    H213148   0.735   3.588  10.414  0.3551  0.1090 -0.8030
  897MPD2    H313149   0.571   3.480  10.559 -1.7226  1.6004  0.0680
  897MPD2     N13150   0.630   3.786  10.873  0.5629 -0.5889  0.0758
  897MPD2    H513151   0.541   3.751  10.905 -0.0640 -1.7456 -2.8481
  897MPD2    N113152   0.896   3.789  10.488  0.0932 -0.7309  0.3732
  897MPD2    H713153   0.933   3.875  10.527  0.5124 -0.3120 -0.9395
  898MPD2     C13154   2.590   4.456   0.278  0.5654 -0.0569  0.1244
  898MPD2    C113155   2.677   4.548   0.216  0.8969 -0.8328 -0.5181
  898MPD2    C213156   2.617   4.632   0.129  0.2322 -0.0019 -0.6616
  898MPD2    C313157   2.486   4.644   0.101  0.1796 -1.4483  0.0775
  898MPD2    C413158   2.407   4.553   0.170  0.1171  0.2795 -0.6772
  898MPD2    C513159   2.457   4.460   0.250 -0.5555  0.1182  0.1264
  898MPD2     H13160   2.677   4.704   0.074  2.6874  0.7505  2.9432
  898MPD2    H113161   2.301   4.539   0.150  0.0746  1.5130 -1.3040
  898MPD2    H213162   2.623   4.379   0.346 -2.1977  0.1730  1.7223
  898MPD2    H313163   2.390   4.395   0.305  1.2363 -1.6170  0.2446
  898MPD2     N13164   2.433   0.012   0.008  0.0026  0.0674 -0.4026
  898MPD2    H513165   2.498   0.052  17.647 -2.0012  2.5172 -0.8738
  898MPD2    N113166   2.821   4.542   0.222  0.5411  0.3363  0.2080
  898MPD2    H713167   2.873   4.588   0.148 -1.2339  0.5054 -0.9377
  899MPD2     C13168   3.178   0.732  17.537  0.4431 -0.4018 -0.3429
  899MPD2    C113169   3.266   0.831  17.569  0.4723  0.6912 -0.2578
  899MPD2    C213170   3.311   0.838  17.701 -0.1815  0.0326 -0.3268
  899MPD2    C313171   3.271   0.754   0.095  0.3451 -0.6966  0.4267
  899MPD2    C413172   3.202   0.638   0.054  0.1918  0.8753 -0.3387
  899MPD2    C513173   3.162   0.628  17.629  0.1367 -0.9281  0.0795
  899MPD2     H13174   3.370   0.924   0.026  1.2505 -1.0713  0.0340
  899MPD2    H113175   3.169   0.561   0.122  0.7389 -0.1104 -1.1865
  899MPD2    H213176   3.142   0.714  17.437 -0.5625 -2.1855  0.3376
  899MPD2    H313177   3.113   0.538  17.594  0.0812 -1.2432  0.9761
  899MPD2     N13178   3.288   0.774   0.230 -0.0888  0.1783  0.0888
  899MPD2    H513179   3.231   0.715   0.289 -0.6073  0.4078 -0.1773
  899MPD2    N113180   3.283   0.931  17.474 -0.6963  0.2378  0.7632
  899MPD2    H713181   3.226   0.924  17.391 -0.6571 -1.1951  0.8575
  900MPD2     C13182   3.310   2.717  12.657 -0.2691  0.1234 -0.1129
  900MPD2    C113183   3.257   2.590  12.655  0.0118 -0.7578 -0.9907
  900MPD2    C213184   3.150   2.557  12.568 -0.2706  0.4468  0.1807
  900MPD2    C313185   3.121   2.642  12.466 -0.6190 -0.2906  0.0365
  900MPD2    C413186   3.176   2.770  12.464 -1.1156  0.5394 -0.3517
  900MPD2    C513187   3.256   2.806  12.570  0.0518  0.2038 -0.3848
  900MPD2     H13188   3.108   2.458  12.553  0.5819  0.2597 -0.9624
  900MPD2    H113189   3.145   2.852  12.400 -2.0196  1.6731  1.5473
  900MPD2    H213190   3.383   2.752  12.728  0.7882 -1.1279 -0.5936
  900MPD2    H313191   3.309   2.901  12.564  1.1720 -0.4767 -1.2637
  900MPD2     N13192   3.029   2.597  12.374 -0.2634  0.4031 -0.3410
  900MPD2    H513193   3.006   2.498  12.367 -0.0527  0.3254  0.0635
  900MPD2    N113194   3.329   2.488  12.720 -0.1794  0.6784 -0.3775
  900MPD2    H713195   3.428   2.508  12.730 -0.7940  2.2640  2.4703
  901MPD2     C13196   3.418   1.543  13.238  0.0426 -0.0486  0.0197
  901MPD2    C113197   3.491   1.527  13.123 -0.4275  0.5087 -0.1383
  901MPD2    C213198   3.513   1.644  13.051 -0.4667  0.4976  0.5277
  901MPD2    C313199   3.461   1.769  13.097 -0.5284 -0.9964  0.0697
  901MPD2    C413200   3.381   1.779  13.213 -0.7119  0.4012 -0.8611
  901MPD2    C513201   3.375   1.660  13.286  0.1830 -0.2958  0.2348
  901MPD2     H13202   3.553   1.640  12.950 -0.2056  0.2777  0.6391
  901MPD2    H113203   3.331   1.868  13.250  0.1446  0.0888  1.0501
  901MPD2    H213204   3.406   1.458  13.304 -1.5916  0.1582 -0.0036
  901MPD2    H313205   3.333   1.667  13.386  0.4440  0.4177  0.2972
  901MPD2     N13206   3.483   1.878  13.010  0.0322 -0.5341 -0.0668
  901MPD2    H513207   3.545   1.860  12.931 -0.1504 -0.0132 -0.3283
  901MPD2    N113208   3.525   1.400  13.077  0.2311  0.9933  0.0925
  901MPD2    H713209   3.476   1.329  13.130 -0.2724  1.4154  0.1988
  902MPD2     C13210   2.023   0.095  12.942  0.3819  0.3793  0.5067
  902MPD2    C113211   2.035   0.136  12.810 -0.1224  0.3539 -0.3826
  902MPD2    C213212   2.157   0.187  12.771 -0.3516 -0.4026  0.7317
  902MPD2    C313213   2.264   0.193  12.855 -0.7480 -0.4459 -0.1273
  902MPD2    C413214   2.250   0.137  12.978 -0.4596  0.6053 -0.3223
  902MPD2    C513215   2.129   0.092  13.023  0.6012 -0.0638  0.5868
  902MPD2     H13216   2.159   0.235  12.673 -0.6092  0.4057  1.1262
  902MPD2    H113217   2.336   0.119  13.041 -1.6831 -0.9067  0.9360
  902MPD2    H213218   1.928   0.074  12.990 -1.7199  2.0702 -2.9456
  902MPD2    H313219   2.118   0.057  13.125 -2.2729 -1.1106 -0.0791
  902MPD2     N13220   2.381   0.252  12.800  0.2171  0.0873  0.7239
  902MPD2    H513221   2.378   0.270  12.700 -0.0753 -1.2351  0.4970
  902MPD2    N113222   1.918   0.141  12.733  0.1324  0.1519  0.4864
  902MPD2    H713223   1.831   0.121  12.780 -0.1766  0.6513  0.1178
  903MPD2     C13224   2.575   0.363  12.170 -0.4240  0.6162  0.0148
  903MPD2    C113225   2.548   0.253  12.251 -0.4286  0.3747  0.5940
  903MPD2    C213226   2.467   0.150  12.213 -0.3539  0.8093 -0.2380
  903MPD2    C313227   2.404   0.164  12.093 -0.2347  0.4216 -0.0011
  903MPD2    C413228   2.427   0.272  12.012 -0.2645 -0.3117  0.8259
  903MPD2    C513229   2.524   0.360  12.044 -0.2345  0.0508 -0.5885
  903MPD2     H13230   2.460   0.060  12.273  0.9575  0.1642 -1.0773
  903MPD2    H113231   2.379   0.289  11.917 -2.3744 -2.1880  1.5379
  903MPD2    H213232   2.637   0.447  12.199 -0.7291 -0.4778  3.8637
  903MPD2    H313233   2.534   0.443  11.974 -0.1153  1.4789  1.1145
  903MPD2     N13234   2.300   0.071  12.066 -0.7925  0.7722  0.0386
  903MPD2    H513235   2.292   4.713  12.123  0.0582  0.5620 -0.1462
  903MPD2    N113236   2.601   0.255  12.382  0.1577  0.2093  0.0611
  903MPD2    H713237   2.566   0.183  12.445  0.9857  0.3579  0.6933
  904MPD2     C13238   2.710   3.916  14.152 -0.0204  0.2320  0.0369
  904MPD2    C113239   2.626   4.028  14.134 -0.3139 -0.4408 -0.1338
  904MPD2    C213240   2.626   4.118  14.235  0.8967  0.0209 -0.2008
  904MPD2    C313241   2.680   4.091  14.359  0.2933 -0.4988 -0.0463
  904MPD2    C413242   2.748   3.971  14.380 -0.1122 -0.3348  0.1467
  904MPD2    C513243   2.770   3.887  14.273  0.3274 -0.0067 -0.7335
  904MPD2     H13244   2.566   4.205  14.212  0.6547 -0.3790 -1.0847
  904MPD2    H113245   2.782   3.944  14.480 -0.3808  2.0478  0.8784
  904MPD2    H213246   2.735   3.854  14.067 -0.3489  1.1445 -0.7378
  904MPD2    H313247   2.835   3.802  14.288 -1.8207 -0.9919  3.0889
  904MPD2     N13248   2.670   4.192  14.463  0.2812 -0.0842 -0.4189
  904MPD2    H513249   2.629   4.280  14.434 -1.4752 -0.5307  0.6768
  904MPD2    N113250   2.549   4.045  14.020 -0.5956 -0.5598  0.1234
  904MPD2    H713251   2.509   4.138  14.009 -0.1631 -0.3723  0.1374
  905MPD2     C13252   2.165   4.023  13.166 -0.6566  1.5159 -0.5358
  905MPD2    C113253   2.274   4.048  13.241  0.3412  0.3173 -0.5625
  905MPD2    C213254   2.398   4.062  13.181  0.3157 -0.5578 -0.1034
  905MPD2    C313255   2.421   4.035  13.047 -0.1033 -0.2333  0.7322
  905MPD2    C413256   2.310   4.000  12.976 -0.0925  0.6802 -0.4526
  905MPD2    C513257   2.185   4.009  13.031 -0.3993 -0.3592  0.2271
  905MPD2     H13258   2.473   4.109  13.243 -2.7756  1.0822  2.3630
  905MPD2    H113259   2.314   3.976  12.870  0.0228 -1.7449  0.1021
  905MPD2    H213260   2.068   3.997  13.206 -0.5341  0.6648 -0.7992
  905MPD2    H313261   2.096   3.986  12.973  0.3398  2.0460 -1.8559
  905MPD2     N13262   2.555   4.036  12.982  0.2274  0.3150 -0.4942
  905MPD2    H513263   2.542   4.032  12.881  2.2776 -1.0826 -0.6971
  905MPD2    N113264   2.257   4.045  13.382 -0.0046 -0.1173  0.2237
  905MPD2    H713265   2.162   4.024  13.411 -0.2889 -0.5712 -1.0283
  906MPD2     C13266   4.200   4.072  11.497  0.2496 -1.3166 -0.4010
  906MPD2    C113267   4.148   3.979  11.403 -0.2132  0.1178  0.7724
  906MPD2    C213268   4.100   3.858  11.450 -0.4451  0.1352 -0.0684
  906MPD2    C313269   4.087   3.837  11.586  0.4710 -0.7573 -0.3360
  906MPD2    C413270   4.138   3.928  11.676  0.1371 -0.3983 -0.0285
  906MPD2    C513271   4.198   4.043  11.631 -0.1262 -0.1270 -0.1919
  906MPD2     H13272   4.064   3.789  11.375 -0.2837 -0.4052  0.3526
  906MPD2    H113273   4.132   3.907  11.783 -1.3542  1.0646  0.1776
  906MPD2    H213274   4.243   4.164  11.460  2.1006 -1.9767  0.1003
  906MPD2    H313275   4.251   4.101  11.705  0.1890 -0.9624  0.2306
  906MPD2     N13276   4.015   3.730  11.636  0.5815 -0.1721 -0.5237
  906MPD2    H513277   4.008   3.716  11.736 -1.3164 -0.1198 -0.6517
  906MPD2    N113278   4.151   3.995  11.264 -0.2480 -0.6741 -0.1170
  906MPD2    H713279   4.106   3.927  11.204 -1.0992 -0.0441 -0.1888
  907MPD2     C13280   2.466   3.097  15.495 -0.4232 -0.1804 -0.0242
  907MPD2    C113281   2.571   3.008  15.513 -0.1043  0.5265  1.2223
  907MPD2    C213282   2.635   3.019  15.638 -0.2975 -0.0150 -0.3051
  907MPD2    C313283   2.592   3.092  15.747 -0.0253  0.1308 -0.0045
  907MPD2    C413284   2.483   3.169  15.728 -1.0984 -0.7182 -0.0325
  907MPD2    C513285   2.423   3.172  15.600  0.5439  0.5174 -0.2516
  907MPD2     H13286   2.726   2.961  15.651  0.8432  2.4828  2.7747
  907MPD2    H113287   2.452   3.244  15.800 -0.8730 -0.7222  0.0679
  907MPD2    H213288   2.416   3.116  15.401  0.5303 -1.0098 -0.7032
  907MPD2    H313289   2.352   3.250  15.576  0.7729  0.5876 -0.7053
  907MPD2     N13290   2.655   3.085  15.876  1.1042  0.8441  0.0771
  907MPD2    H513291   2.751   3.053  15.870  0.4948 -1.3477  1.7980
  907MPD2    N113292   2.628   2.933  15.411 -1.0092 -0.3408 -0.7137
  907MPD2    H713293   2.711   2.881  15.434  0.3292  1.5372 -1.2903
  908MPD2     C13294   1.341   3.828   9.554 -0.0984  0.2889  0.6051
  908MPD2    C113295   1.231   3.746   9.582  0.0078 -0.1010  0.1167
  908MPD2    C213296   1.163   3.770   9.702 -0.7438 -1.0390  0.2547
  908MPD2    C313297   1.196   3.876   9.781 -0.2100 -0.1071  0.0556
  908MPD2    C413298   1.299   3.960   9.743 -0.2663  0.0052  0.1381
  908MPD2    C513299   1.384   3.926   9.638 -0.5006  0.0519  1.0899
  908MPD2     H13300   1.077   3.708   9.724 -0.2569 -1.7934  0.0226
  908MPD2    H113301   1.330   4.051   9.793  1.5119 -0.0207 -0.9335
  908MPD2    H213302   1.397   3.817   9.462 -0.8093 -1.8369  0.4270
  908MPD2    H313303   1.468   3.990   9.611 -0.1437 -0.4761  0.9458
  908MPD2     N13304   1.115   3.897   9.905 -0.1060  0.4359  0.0731
  908MPD2    H513305   1.029   3.845   9.917  1.3745 -2.2225 -0.8238
  908MPD2    N113306   1.196   3.636   9.504 -0.8882 -0.1410 -0.4917
  908MPD2    H713307   1.262   3.617   9.430 -2.6929 -2.2243 -1.5667
  909MPD2     C13308   1.284   1.620  11.704  0.5824 -0.1740  0.0598
  909MPD2    C113309   1.254   1.744  11.654  1.0048  0.4913 -0.0965
  909MPD2    C213310   1.159   1.820  11.723 -0.2390  0.5885 -0.8025
  909MPD2    C313311   1.114   1.780  11.841 -0.2809 -0.0702  0.2333
  909MPD2    C413312   1.151   1.654  11.893 -0.5258 -0.4695 -0.7909
  909MPD2    C513313   1.231   1.577  11.818 -1.0970  0.0967  0.3976
  909MPD2     H13314   1.131   1.915  11.679  0.7415  1.3025  0.1020
  909MPD2    H113315   1.118   1.615  11.989  2.9612 -0.5688  0.3783
  909MPD2    H213316   1.345   1.549  11.648 -1.1749 -0.4968 -1.4362
  909MPD2    H313317   1.253   1.478  11.856  0.3810 -0.2616 -1.4062
  909MPD2     N13318   1.056   1.881  11.920  0.2571 -0.8328  0.4201
  909MPD2    H513319   1.045   1.970  11.874  2.2971 -0.5142  0.5531
  909MPD2    N113320   1.307   1.807  11.535  0.1180  0.9214 -0.2606
  909MPD2    H713321   1.271   1.899  11.509  0.8960  2.0022  2.4853
  910MPD2     C13322   1.620   3.675  16.160 -0.2082  0.2199  0.3382
  910MPD2    C113323   1.722   3.693  16.072 -0.0645 -0.1707  0.4040
  910MPD2    C213324   1.691   3.767  15.958 -0.3927  0.0416 -0.7042
  910MPD2    C313325   1.573   3.838  15.942  0.3813 -0.4739 -0.3483
  910MPD2    C413326   1.476   3.822  16.035 -0.3498 -0.0750  0.2173
  910MPD2    C513327   1.495   3.735  16.144 -0.0791 -0.0417  1.1773
  910MPD2     H13328   1.767   3.771  15.881 -1.4582  1.1307 -1.6934
  910MPD2    H113329   1.383   3.878  16.025 -1.2878 -1.3907  1.5731
  910MPD2    H213330   1.629   3.623  16.254  3.2387 -1.0376 -0.6899
  910MPD2    H313331   1.410   3.720  16.210 -2.7256  0.3465 -2.1490
  910MPD2     N13332   1.538   3.918  15.824  0.0542  0.0437  0.4116
  910MPD2    H513333   1.456   3.978  15.830 -0.0172  0.1407 -1.6890
  910MPD2    N113334   1.844   3.628  16.079 -0.4685 -0.7784  0.1839
  910MPD2    H713335   1.923   3.656  16.022 -1.1493 -0.0834 -0.4097
  911MPD2     C13336   4.523   4.113  16.436 -0.4712  0.1108  0.5119
  911MPD2    C113337   4.556   4.227  16.513  0.3014 -0.4872  0.4943
  911MPD2    C213338   4.470   4.333  16.519  0.5176 -0.9011 -0.3871
  911MPD2    C313339   4.355   4.325  16.447 -0.9435 -0.2331 -0.3148
  911MPD2    C413340   4.316   4.212  16.382  0.3168  0.6924  0.1566
  911MPD2    C513341   4.403   4.110  16.366 -0.5409  0.3590  0.5025
  911MPD2     H13342   4.496   4.421  16.575  1.2622 -0.8116 -0.8710
  911MPD2    H113343   4.220   4.206  16.332 -0.7575  0.8621  2.1966
  911MPD2    H213344   4.598   4.034  16.431 -0.2181  0.2420  2.2362
  911MPD2    H313345   4.375   4.026  16.304 -0.2099 -0.1202  1.0052
  911MPD2     N13346   4.267   4.434  16.442  0.2686 -0.0510  0.2448
  911MPD2    H513347   4.180   4.411  16.395  0.6125  1.8579 -1.3264
  911MPD2    N113348   4.682   4.218  16.582 -0.2302  0.7659 -0.1805
  911MPD2    H713349   4.724   4.126  16.575  2.4432  1.8982  0.9323
  912MPD2     C13350   3.895   4.378  15.848  0.3233 -0.4346  0.3494
  912MPD2    C113351   3.913   4.364  15.985 -0.3169  0.1900 -0.4846
  912MPD2    C213352   3.878   4.235  16.037 -0.1521 -0.1834  0.2840
  912MPD2    C313353   3.850   4.128  15.951  0.0692  0.1009  0.3681
  912MPD2    C413354   3.838   4.148  15.813 -1.2353  0.2708 -0.6380
  912MPD2    C513355   3.848   4.277  15.768 -0.3151 -0.3236 -0.0068
  912MPD2     H13356   3.877   4.227  16.145 -1.4713  1.0157  0.3598
  912MPD2    H113357   3.800   4.071  15.746 -0.8316  0.0242 -0.5841
  912MPD2    H213358   3.923   4.470  15.797 -0.0971 -0.1457  0.6419
  912MPD2    H313359   3.828   4.287  15.662 -1.9710 -0.4780  0.2980
  912MPD2     N13360   3.821   4.000  16.013  0.3468  0.1858 -0.3995
  912MPD2    H513361   3.814   3.988  16.114 -0.6561  0.4031 -0.4516
  912MPD2    N113362   3.958   4.477  16.054  0.1804  0.0487 -0.4933
  912MPD2    H713363   3.957   4.567  16.008 -1.8172 -0.5918 -1.6987
  913MPD2     C13364   4.439   0.361  11.140 -0.5854  0.0771  0.0906
  913MPD2    C113365   4.559   0.434  11.141 -0.1343  0.8560  0.2036
  913MPD2    C213366   4.600   0.499  11.028 -0.4893 -0.4827 -0.0643
  913MPD2    C313367   4.541   0.466  10.904  0.7407 -0.1041  0.1015
  913MPD2    C413368   4.422   0.401  10.908 -0.0854 -0.2812 -0.5605
  913MPD2    C513369   4.377   0.345  11.020 -0.9845  0.4308 -0.2579
  913MPD2     H13370   4.694   0.553  11.031 -1.2185  0.7889 -0.0043
  913MPD2    H113371   4.377   0.374  10.814  4.0238  0.4297 -2.7663
  913MPD2    H213372   4.417   0.303  11.229 -1.0900 -2.2578 -1.5605
  913MPD2    H313373   4.292   0.277  11.027  0.4132 -1.5784 -2.9670
  913MPD2     N13374   4.595   0.508  10.786  0.1897 -0.7813 -0.0768
  913MPD2    H513375   4.536   0.509  10.703  1.4426 -0.7418 -0.9714
  913MPD2    N113376   4.630   0.428  11.258  0.0427  0.5390 -0.3131
  913MPD2    H713377   4.614   0.351  11.323  1.5878  1.7241  1.4554
  914MPD2     C13378   3.207   1.213  12.257  0.7012  1.0365  0.2260
  914MPD2    C113379   3.223   1.316  12.349 -0.6103 -0.5847 -0.9044
  914MPD2    C213380   3.297   1.299  12.467 -0.2474  0.2676  0.0402
  914MPD2    C313381   3.358   1.178  12.496 -0.0629 -0.2098 -0.5048
  914MPD2    C413382   3.350   1.078  12.392 -0.6979 -0.4976  0.3837
  914MPD2    C513383   3.268   1.094  12.279  0.2479  0.1217  0.0161
  914MPD2     H13384   3.290   1.378  12.541 -0.2867 -2.0396  2.4879
  914MPD2    H113385   3.401   0.983  12.405  1.9560  0.9138  0.3174
  914MPD2    H213386   3.147   1.218  12.167  0.2626 -1.0125  0.3946
  914MPD2    H313387   3.257   1.018  12.203 -2.6930 -0.8366  1.4185
  914MPD2     N13388   3.443   1.162  12.610 -0.1257 -0.0562  0.4294
  914MPD2    H513389   3.450   1.244  12.669 -1.8092 -0.6537  1.4537
  914MPD2    N113390   3.171   1.439  12.313  0.8240 -0.5294  0.1968
  914MPD2    H713391   3.122   1.448  12.225  0.3082  2.2741  0.7529
  915MPD2     C13392   1.402   1.365  15.518 -0.1311  0.2835  0.3458
  915MPD2    C113393   1.262   1.349  15.498  0.0449  0.0430  0.0504
  915MPD2    C213394   1.177   1.346  15.602 -0.7865 -0.2700 -0.6999
  915MPD2    C313395   1.228   1.364  15.731  0.2058 -0.2561  0.1814
  915MPD2    C413396   1.367   1.380  15.742  0.0339 -0.4301 -0.2493
  915MPD2    C513397   1.450   1.381  15.636  0.0498 -0.5170  0.0187
  915MPD2     H13398   1.071   1.324  15.605 -0.4923 -1.5229  0.5881
  915MPD2    H113399   1.422   1.397  15.834 -0.4100  0.6531 -0.1726
  915MPD2    H213400   1.468   1.370  15.432 -0.1785  0.1057  0.2990
  915MPD2    H313401   1.557   1.389  15.651 -0.1234 -1.9922  2.0273
  915MPD2     N13402   1.148   1.354  15.844 -0.4000 -0.4478  0.1537
  915MPD2    H513403   1.048   1.361  15.833 -0.3166  1.7568  0.8920
  915MPD2    N113404   1.228   1.315  15.367  0.5170  0.2783 -0.3695
  915MPD2    H713405   1.300   1.282  15.303 -0.4357 -2.6805  0.0663
  916MPD2     C13406   3.483   4.219  15.619 -0.9641 -0.3427  0.3247
  916MPD2    C113407   3.490   4.133  15.720  0.3304  0.1994 -0.6749
  916MPD2    C213408   3.550   4.010  15.693  0.1378  1.2685 -0.3802
  916MPD2    C313409   3.602   3.976  15.572  0.6422 -0.0728 -0.5110
  916MPD2    C413410   3.582   4.063  15.468 -0.2154 -0.1958 -0.3146
  916MPD2    C513411   3.511   4.179  15.490 -0.0625 -0.2471  0.5296
  916MPD2     H13412   3.564   3.944  15.777 -2.1941 -0.9336 -1.7118
  916MPD2    H113413   3.633   4.050  15.374 -0.0313 -0.6548 -0.1539
  916MPD2    H213414   3.465   4.325  15.634  0.0590 -0.3531  1.6559
  916MPD2    H313415   3.509   4.254  15.412 -1.5549 -0.1571  0.6593
  916MPD2     N13416   3.678   3.862  15.566  0.1012  0.2241  0.4152
  916MPD2    H513417   3.695   3.814  15.654  0.4193  0.2577  0.3721
  916MPD2    N113418   3.455   4.184  15.847  0.4360  0.1968 -0.2173
  916MPD2    H713419   3.404   4.272  15.841  1.0674  0.5676 -0.2231
  917MPD2     C13420   4.566   1.500  11.262  0.0819 -0.0009 -0.1444
  917MPD2    C113421   4.642   1.514  11.379 -0.0167 -0.0332 -0.1923
  917MPD2    C213422   0.043   1.570  11.357  0.6738 -0.3028 -0.9553
  917MPD2    C313423   0.085   1.628  11.241 -0.0062  0.2775  0.3904
  917MPD2    C413424   4.724   1.618  11.136  0.4127  0.2660  0.4874
  917MPD2    C513425   4.607   1.546  11.143 -0.3370  0.1429  0.4026
  917MPD2     H13426   0.118   1.573  11.436  0.6750  0.3656 -0.9803
  917MPD2    H113427   0.016   1.682  11.050  0.0081  2.0432  1.7375
  917MPD2    H213428   4.471   1.447  11.259 -0.0403  0.1941  0.2332
  917MPD2    H313429   4.539   1.549  11.059 -0.1761  0.9125  0.3033
  917MPD2     N13430   0.212   1.688  11.222  0.2249 -0.1509  0.2590
  917MPD2    H513431   0.216   1.728  11.128 -1.4891 -1.7999 -0.5060
  917MPD2    N113432   4.598   1.460  11.501 -0.1265  0.5454  0.7999
  917MPD2    H713433   4.503   1.423  11.496  0.7097 -1.3054 -1.5055
  918MPD2     C13434   4.701   2.027  12.259 -0.3713  0.0124  0.1749
  918MPD2    C113435   0.045   1.908  12.258  0.0707 -0.6741 -0.0621
  918MPD2    C213436   4.719   1.801  12.187 -0.0666  0.9428  0.6933
  918MPD2    C313437   4.600   1.811  12.130 -1.1161  0.2801  0.6142
  918MPD2    C413438   4.517   1.922  12.138 -0.5074 -0.2728 -0.0399
  918MPD2    C513439   4.569   2.032  12.203  1.1158  0.0607  0.4072
  918MPD2     H13440   0.054   1.711  12.184  1.1365  1.8274 -1.1382
  918MPD2    H113441   4.417   1.929  12.096 -0.4799 -1.2761 -0.2758
  918MPD2    H213442   0.015   2.114  12.309  2.8313 -1.0067 -0.5806
  918MPD2    H313443   4.501   2.112  12.228 -0.1195 -0.3540 -1.6483
  918MPD2     N13444   4.568   1.701  12.048 -0.4564  0.8788 -0.7173
  918MPD2    H513445   4.631   1.622  12.056 -2.6929 -0.6381  1.7423
  918MPD2    N113446   0.170   1.899  12.317  0.4168 -0.4494  0.1940
  918MPD2    H713447   0.221   1.811  12.320 -0.7591 -1.1201  0.2045
  919MPD2     C13448   0.135   0.672  11.801 -0.0084  0.7817  1.1651
  919MPD2    C113449   0.053   0.566  11.789 -0.0475 -0.2312 -0.0568
  919MPD2    C213450   4.667   0.576  11.705  0.1052  0.2358 -0.5632
  919MPD2    C313451   4.658   0.682  11.618 -0.0379 -0.8870 -0.1803
  919MPD2    C413452   0.032   0.779  11.619 -0.0709  0.4883  0.6215
  919MPD2    C513453   0.121   0.778  11.723  0.7123 -0.0822  0.1904
  919MPD2     H13454   4.591   0.500  11.695 -1.3065  1.3593  1.5607
  919MPD2    H113455   0.020   0.871  11.563  1.9346  0.2662 -0.1821
  919MPD2    H213456   0.225   0.665  11.862  1.4865  1.0449 -0.9923
  919MPD2    H313457   0.196   0.855  11.709  1.1499 -0.2857  1.4739
  919MPD2     N13458   4.548   0.707  11.534 -0.2551 -0.6489  0.5880
  919MPD2    H513459   4.541   0.801  11.497 -0.1606 -0.3070  1.4527
  919MPD2    N113460   0.070   0.453  11.858  0.5223  0.0649  0.2109
  919MPD2    H713461   4.716   0.392  11.859  0.6869 -0.1651 -1.0679
  920MPD2     C13462   4.516   0.968  10.620 -0.1276  0.5906 -0.5889
  920MPD2    C113463   4.405   0.887  10.619 -0.7964 -0.3490  0.1201
  920MPD2    C213464   4.371   0.823  10.738 -0.1849  0.6836 -0.2932
  920MPD2    C313465   4.442   0.851  10.852  0.1186 -0.5926 -0.1613
  920MPD2    C413466   4.556   0.936  10.849  0.2887  0.4191  0.0795
  920MPD2    C513467   4.593   0.989  10.728  0.6929  0.0409 -0.7962
  920MPD2     H13468   4.285   0.757  10.738  0.9003 -0.7060 -2.8174
  920MPD2    H113469   4.621   0.949  10.935  0.8197  2.1690 -0.6049
  920MPD2    H213470   4.547   1.003  10.522  2.1646  2.0275  0.6326
  920MPD2    H313471   4.685   1.047  10.737  0.4349 -0.0071  2.2359
  920MPD2     N13472   4.394   0.800  10.973  0.1966  0.3006 -0.2776
  920MPD2    H513473   4.312   0.741  10.972  0.9816 -0.8140  0.7883
  920MPD2    N113474   4.329   0.862  10.502 -0.3770  0.6676 -0.1374
  920MPD2    H713475   4.245   0.810  10.524  0.7427 -2.0352 -2.2662
  921MPD2     C13476   0.673   4.504  17.288  0.3026 -0.1335  0.2071
  921MPD2    C113477   0.678   4.394  17.211  0.3096 -0.1787  0.7209
  921MPD2    C213478   0.590   4.375  17.111  0.3200  0.7845 -0.0263
  921MPD2    C313479   0.494   4.478  17.076 -0.0187  0.4727 -0.7961
  921MPD2    C413480   0.495   4.597  17.150 -0.3395 -0.5914  0.4778
  921MPD2    C513481   0.583   4.605  17.260  0.4985  0.3006 -0.3453
  921MPD2     H13482   0.602   4.294  17.041 -2.6133  0.0872  0.2826
  921MPD2    H113483   0.421   4.676  17.141  1.4085  1.1083  1.1473
  921MPD2    H213484   0.742   4.531  17.367 -2.7498  2.5309  1.9447
  921MPD2    H313485   0.582   4.692  17.324  1.5510 -1.8503  2.6151
  921MPD2     N13486   0.413   4.463  16.957  0.4957 -0.4718 -0.7456
  921MPD2    H513487   0.354   4.542  16.933  2.1446  0.8033 -0.5989
  921MPD2    N113488   0.792   4.312  17.201 -0.1267 -0.3251  0.2966
  921MPD2    H713489   0.791   4.239  17.131  3.8768  1.5297 -1.6996
  922MPD2     C13490   1.698   2.634  17.530 -0.2163  0.1726 -0.2917
  922MPD2    C113491   1.603   2.609  17.629  0.3666  0.1301  0.4876
  922MPD2    C213492   1.618   2.499   0.013  0.0819 -0.0085 -0.0279
  922MPD2    C313493   1.723   2.413   0.006 -0.1523 -0.1120 -0.4336
  922MPD2    C413494   1.819   2.442  17.623 -0.1465 -0.4328  0.4491
  922MPD2    C513495   1.802   2.548  17.533 -0.1376 -0.5450 -0.2026
  922MPD2     H13496   1.533   2.488   0.080 -0.7823 -1.4962 -1.3699
  922MPD2    H113497   1.910   2.383  17.621 -0.1178 -0.4003  0.9110
  922MPD2    H213498   1.702   2.721  17.465 -0.5786  0.3735 -0.0533
  922MPD2    H313499   1.880   2.561  17.459  0.9160 -0.7922  0.8504
  922MPD2     N13500   1.729   2.304   0.099 -0.3692  0.2406 -0.9833
  922MPD2    H513501   1.649   2.297   0.161 -1.1862  0.1262 -2.0438
  922MPD2    N113502   1.490   2.691  17.645  0.1961 -0.4027  0.0595
  922MPD2    H713503   1.441   2.691   0.028 -0.5170 -0.2973 -0.3382
  923MPD2     C13504   3.310   3.412   9.587  0.5193  0.3458  0.0913
  923MPD2    C113505   3.402   3.309   9.563  0.2869 -0.0680  0.0317
  923MPD2    C213506   3.530   3.320   9.616  0.2711 -0.2213  0.3822
  923MPD2    C313507   3.571   3.441   9.666  0.1487  0.4015 -0.1134
  923MPD2    C413508   3.483   3.545   9.682  0.0906  0.6603 -0.2148
  923MPD2    C513509   3.356   3.526   9.640 -0.4409  0.4235  0.5007
  923MPD2     H13510   3.597   3.235   9.609 -0.9546 -1.2598  1.0047
  923MPD2    H113511   3.510   3.636   9.735  1.4656  1.4608 -2.3078
  923MPD2    H213512   3.205   3.410   9.558 -0.1480  3.3940  2.3759
  923MPD2    H313513   3.276   3.596   9.661 -1.6640 -0.8480  0.0772
  923MPD2     N13514   3.710   3.478   9.704  0.1834 -0.0309 -1.2962
  923MPD2    H513515   3.731   3.572   9.736 -0.3244 -1.5027  3.3829
  923MPD2    N113516   3.345   3.203   9.487  0.3877 -0.3813  0.3625
  923MPD2    H713517   3.244   3.209   9.476  0.6066 -0.0136 -1.4207
  924MPD2     C13518   3.021   2.793  16.745  0.4791 -0.1144  0.2501
  924MPD2    C113519   2.953   2.915  16.752  0.0354  0.1995 -0.4920
  924MPD2    C213520   2.925   2.988  16.643 -0.0016  0.4849  0.2297
  924MPD2    C313521   2.971   2.949  16.518 -0.1193 -0.3493  0.0910
  924MPD2    C413522   3.047   2.829  16.508  0.6383 -0.3233  0.1140
  924MPD2    C513523   3.070   2.753  16.621  0.0903  0.6496 -0.4234
  924MPD2     H13524   2.855   3.070  16.640  0.1752  0.7176  2.3969
  924MPD2    H113525   3.085   2.792  16.414  1.0764 -1.3042  0.6829
  924MPD2    H213526   3.036   2.727  16.830  3.9870 -1.2710 -1.2856
  924MPD2    H313527   3.116   2.655  16.610 -0.7764  0.3855 -1.7169
  924MPD2     N13528   2.944   3.036  16.410 -0.2651  0.3114  0.1273
  924MPD2    H513529   2.903   3.127  16.426  0.6934  1.1259 -1.9948
  924MPD2    N113530   2.893   2.929  16.880 -0.0493 -0.0052  0.2671
  924MPD2    H713531   2.912   2.857  16.949  2.5019  0.8042  0.4226
  925MPD2     C13532   1.584   4.305  14.631 -0.4731  0.0296 -0.0040
  925MPD2    C113533   1.586   4.441  14.661  0.2016 -0.0356 -0.0877
  925MPD2    C213534   1.573   4.484  14.793  0.0103  0.2012  0.6959
  925MPD2    C313535   1.547   4.383  14.893  0.1452  0.2088 -0.5435
  925MPD2    C413536   1.556   4.252  14.862 -0.7741 -0.3659 -0.0882
  925MPD2    C513537   1.576   4.214  14.733  0.1056  0.3753 -0.2118
  925MPD2     H13538   1.571   4.590  14.817  2.2286  0.4624 -0.2759
  925MPD2    H113539   1.553   4.177  14.940 -1.0961 -0.4107 -0.1427
  925MPD2    H213540   1.612   4.259  14.537 -1.9306 -0.0173 -0.4265
  925MPD2    H313541   1.591   4.110  14.707 -0.1447  0.6311 -1.3526
  925MPD2     N13542   1.528   4.414  15.033  0.5054 -0.0223  0.0232
  925MPD2    H513543   1.525   4.336  15.098  3.7364  0.2309  0.4753
  925MPD2    N113544   1.610   4.539  14.566 -0.6390 -0.0617 -0.2204
  925MPD2    H713545   1.593   4.632  14.605 -0.3233 -0.2173  0.2974
  926MPD2     C13546   1.061   3.456  13.304 -0.0830 -0.0268 -0.4161
  926MPD2    C113547   1.149   3.549  13.345  0.1317  0.4664 -0.4308
  926MPD2    C213548   1.221   3.625  13.259  0.0667  0.2604  0.0262
  926MPD2    C313549   1.217   3.589  13.130 -0.7751  0.3866  0.3896
  926MPD2    C413550   1.112   3.508  13.085  0.2440 -0.2539 -0.4025
  926MPD2    C513551   1.029   3.444  13.169 -0.3457 -0.4707  0.1408
  926MPD2     H13552   1.295   3.697  13.292 -0.5699 -0.2387  2.5463
  926MPD2    H113553   1.108   3.483  12.979 -2.8883  1.4610 -0.6982
  926MPD2    H213554   1.005   3.398  13.376 -0.7411  0.9216 -0.1717
  926MPD2    H313555   0.954   3.383  13.120 -1.4796  0.9908  0.0481
  926MPD2     N13556   1.300   3.640  13.037  0.9794 -0.2939  0.1700
  926MPD2    H513557   1.275   3.627  12.939 -2.6729  1.4728  0.8533
  926MPD2    N113558   1.169   3.583  13.483  0.6007 -0.2793  0.2446
  926MPD2    H713559   1.217   3.671  13.496  0.2496 -0.5390  3.2950
  927MPD2     C13560   4.598   1.613  17.699 -0.1369  0.0895  0.0053
  927MPD2    C113561   4.690   1.538   0.062  0.2457 -0.6967 -0.2442
  927MPD2    C213562   0.045   1.460  17.686  0.2733  0.4218 -0.4093
  927MPD2    C313563   0.040   1.462  17.546  0.1211  0.0301 -0.3446
  927MPD2    C413564   4.675   1.548  17.483 -0.0441  0.3350 -0.0688
  927MPD2    C513565   4.599   1.633  17.562  0.6867  0.1336  0.2850
  927MPD2     H13566   0.135   1.415   0.022 -0.5142  0.4239  1.3273
  927MPD2    H113567   4.669   1.544  17.375 -2.0820 -0.4562  0.0888
  927MPD2    H213568   4.534   1.676   0.055  0.5943 -0.2730  1.1400
  927MPD2    H313569   4.527   1.700  17.516  0.3632 -1.0763 -0.9699
  927MPD2     N13570   0.130   1.391  17.468  0.3351 -0.3179  0.5567
  927MPD2    H513571   0.141   1.414  17.370 -1.7244 -1.2135  0.1284
  927MPD2    N113572   4.680   1.541   0.205 -0.3642  0.3426 -0.6012
  927MPD2    H713573   4.613   1.606   0.245 -0.5294  0.1370 -0.5439
  928MPD2     C13574   3.388   4.463   1.669 -0.0887 -0.1329 -0.6701
  928MPD2    C113575   3.412   4.597   1.639 -0.0669 -0.2002  0.2493
  928MPD2    C213576   3.438   4.640   1.512 -0.0853 -0.2461 -0.1852
  928MPD2    C313577   3.460   4.554   1.406 -0.7563 -0.4433  0.1099
  928MPD2    C413578   3.429   4.421   1.432  0.0424  0.1635  0.3101
  928MPD2    C513579   3.393   4.378   1.558  0.4640 -0.8122  0.5651
  928MPD2     H13580   3.448   0.022   1.502  1.7578 -0.3750  0.4777
  928MPD2    H113581   3.444   4.353   1.349  1.0884  2.0300 -1.0456
  928MPD2    H213582   3.363   4.424   1.767 -0.7750  0.5085 -0.5925
  928MPD2    H313583   3.352   4.278   1.568  0.1234 -0.6246  1.0962
  928MPD2     N13584   3.506   4.588   1.274 -0.3085 -0.0678  0.3695
  928MPD2    H513585   3.512   4.511   1.208  0.0861  0.3763 -0.1207
  928MPD2    N113586   3.403   4.699   1.731 -0.7152 -0.4592 -0.1536
  928MPD2    H713587   3.429   0.067   1.700 -0.5528 -0.7810 -1.0019
  929MPD2     C13588   3.705   3.995  10.633 -0.2916  0.4139  0.2771
  929MPD2    C113589   3.602   3.925  10.581  0.4856  0.1736  0.4216
  929MPD2    C213590   3.575   3.934  10.443  0.1350 -0.3712  0.6753
  929MPD2    C313591   3.649   4.028  10.365  0.1107 -0.3999 -0.2396
  929MPD2    C413592   3.741   4.105  10.423  0.1934  0.0296  0.2383
  929MPD2    C513593   3.780   4.081  10.553  0.0683 -0.6341  0.2236
  929MPD2     H13594   3.484   3.885  10.408 -0.6113  0.1830  1.8189
  929MPD2    H113595   3.797   4.183  10.373  1.4043  0.6822  2.6111
  929MPD2    H213596   3.731   3.988  10.738  0.6919  1.0189  0.0771
  929MPD2    H313597   3.857   4.149  10.586  0.5744 -2.5165  2.9463
  929MPD2     N13598   3.620   4.052  10.232  0.2255 -0.1427 -0.5753
  929MPD2    H513599   3.639   4.145  10.196 -2.5895  0.3733 -0.7273
  929MPD2    N113600   3.521   3.850  10.676 -0.1284 -0.4650  0.3145
  929MPD2    H713601   3.558   3.860  10.770 -1.7402  1.7918  0.6985
  930MPD2     C13602   0.289   1.987  14.584  0.6283 -0.6120  0.7684
  930MPD2    C113603   0.243   2.032  14.461  0.7015  0.0229 -0.0284
  930MPD2    C213604   0.138   1.961  14.395 -0.9841 -0.1825 -0.1726
  930MPD2    C313605   0.077   1.846  14.455  0.3832 -0.1054 -0.3007
  930MPD2    C413606   0.133   1.801  14.569 -0.2390 -0.1748 -0.0084
  930MPD2    C513607   0.235   1.868  14.637 -0.0864 -0.2179  0.8415
  930MPD2     H13608   0.109   1.994  14.296 -1.8319 -1.8594 -0.4803
  930MPD2    H113609   0.098   1.712  14.620 -0.9187  0.5358  0.7488
  930MPD2    H213610   0.365   2.033  14.646  0.9395  0.8423 -0.6947
  930MPD2    H313611   0.283   1.818  14.720  1.2049 -1.5554 -0.6994
  930MPD2     N13612   4.700   1.767  14.395 -0.1108  0.7870 -0.1342
  930MPD2    H513613   4.678   1.675  14.432  0.9344  0.3403 -0.6304
  930MPD2    N113614   0.310   2.136  14.398 -0.1039  0.4177  0.6493
  930MPD2    H713615   0.402   2.165  14.429 -0.4732  0.3826  1.7609
  931MPD2     C13616   0.503   1.313   0.716 -0.7847  0.0559  0.4280
  931MPD2    C113617   0.379   1.314   0.780  0.3669 -0.5058  0.6878
  931MPD2    C213618   0.373   1.282   0.916 -0.4435 -0.7920 -0.4045
  931MPD2    C313619   0.483   1.251   0.990 -0.2751  0.2909 -0.2553
  931MPD2    C413620   0.602   1.252   0.929  0.1787 -0.4311  0.0507
  931MPD2    C513621   0.609   1.281   0.796  0.0123 -0.2087  0.7759
  931MPD2     H13622   0.276   1.248   0.952 -0.0250  0.5284  1.9403
  931MPD2    H113623   0.695   1.241   0.984 -0.1659  0.6340  0.8540
  931MPD2    H213624   0.514   1.343   0.613  1.0353 -2.2442 -0.0326
  931MPD2    H313625   0.709   1.282   0.754  0.4443 -1.7013  1.7255
  931MPD2     N13626   0.488   1.195   1.121 -0.3169  0.3909  0.1616
  931MPD2    H513627   0.576   1.154   1.150 -1.0521 -0.1552  1.6336
  931MPD2    N113628   0.267   1.321   0.699  0.0922  0.1626 -0.3730
  931MPD2    H713629   0.276   1.316   0.598  0.7082  0.7687 -0.3498
  932MPD2     C13630   2.229   4.647  11.507  0.3105 -0.0420 -0.2724
  932MPD2    C113631   2.334   4.682  11.590 -0.1847 -0.1157 -0.0395
  932MPD2    C213632   2.346   4.622  11.714 -0.0472 -0.2320 -0.6912
  932MPD2    C313633   2.260   4.524  11.753 -0.1140 -0.5197  0.2957
  932MPD2    C413634   2.154   4.484  11.668  0.0712  0.8024 -0.0101
  932MPD2    C513635   2.142   4.546  11.551 -0.1846 -0.1308 -0.0244
  932MPD2     H13636   2.432   4.649  11.774 -3.2185  0.3644  3.5703
  932MPD2    H113637   2.074   4.414  11.689  0.6652 -0.1922 -1.1019
  932MPD2    H213638   2.215   4.696  11.411 -0.4214  0.6535  0.1873
  932MPD2    H313639   2.056   4.541  11.484  0.0194 -0.7281 -0.2391
  932MPD2     N13640   2.274   4.461  11.879 -0.3187  0.3170  0.3202
  932MPD2    H513641   2.348   4.494  11.941  1.9720  0.1708 -2.3062
  932MPD2    N113642   2.425   0.062  11.561  0.3035 -0.4539 -0.0047
  932MPD2    H713643   2.496   0.089  11.629  0.9005  0.9944 -1.2128
  933MPD2     C13644   3.110   0.646   2.232  0.2174  0.3613  0.0728
  933MPD2    C113645   3.070   0.549   2.148  0.2504 -0.1927 -0.2763
  933MPD2    C213646   2.947   0.557   2.089 -0.4534  0.1690  1.0422
  933MPD2    C313647   2.858   0.656   2.120  0.1033  0.3541  0.3334
  933MPD2    C413648   2.896   0.754   2.205  0.1616 -0.5536  0.5772
  933MPD2    C513649   3.023   0.747   2.266  0.0020  0.1418  0.1861
  933MPD2     H13650   2.917   0.490   2.009  3.3801  0.1604 -0.3988
  933MPD2    H113651   2.829   0.837   2.226  0.9117 -0.4331  2.4921
  933MPD2    H213652   3.203   0.637   2.287  0.2673  1.6688  0.2037
  933MPD2    H313653   3.037   0.816   2.349  0.6315  0.6367 -0.3349
  933MPD2     N13654   2.735   0.666   2.045 -0.0543  0.2990 -0.2768
  933MPD2    H513655   2.718   0.598   1.972  0.6987  0.2104 -0.3774
  933MPD2    N113656   3.180   0.460   2.112 -0.2313 -0.4472 -0.0491
  933MPD2    H713657   3.261   0.475   2.171  0.8023  1.4229 -1.9625
  934MPD2     C13658   3.716   2.255   2.414 -0.0161 -0.6528 -0.1648
  934MPD2    C113659   3.822   2.241   2.329  0.2673  0.1540 -0.4772
  934MPD2    C213660   3.800   2.199   2.196 -0.4458 -0.8743 -0.3820
  934MPD2    C313661   3.668   2.158   2.160 -0.4477  0.6767  0.6189
  934MPD2    C413662   3.564   2.177   2.248 -0.1331 -0.0011  0.2595
  934MPD2    C513663   3.589   2.221   2.378 -0.1913 -0.1677  0.4577
  934MPD2     H13664   3.873   2.198   2.117 -1.0873 -0.0929 -0.9906
  934MPD2    H113665   3.463   2.149   2.218 -0.5854 -0.7819  2.5349
  934MPD2    H213666   3.727   2.278   2.519 -0.6851 -1.7250  0.1434
  934MPD2    H313667   3.507   2.230   2.448 -0.3844  1.2655  0.0551
  934MPD2     N13668   3.643   2.102   2.030 -0.7881  0.1254  0.3334
  934MPD2    H513669   3.545   2.079   2.014 -0.2002 -2.7124  0.8020
  934MPD2    N113670   3.959   2.277   2.368  0.4305  0.1824 -0.9747
  934MPD2    H713671   4.035   2.261   2.304  1.7608  1.0270  0.3909
  935MPD2     C13672   4.270   1.540   1.512 -0.0152 -0.2539  0.3411
  935MPD2    C113673   4.179   1.559   1.416 -0.1646 -0.6365 -0.1958
  935MPD2    C213674   4.078   1.649   1.443 -0.4110  0.0724  0.2582
  935MPD2    C313675   4.077   1.726   1.561 -0.3356 -0.3532 -0.1986
  935MPD2    C413676   4.180   1.705   1.661 -0.6483 -0.3479  0.1017
  935MPD2    C513677   4.276   1.606   1.631 -0.7566  0.1878  0.2875
  935MPD2     H13678   4.002   1.662   1.367 -1.6378 -1.8595  1.1346
  935MPD2    H113679   4.180   1.751   1.759 -1.5093 -1.0099  0.4167
  935MPD2    H213680   4.348   1.465   1.501  0.5364  0.6623 -1.9886
  935MPD2    H313681   4.351   1.562   1.696 -1.3627 -1.2479  0.0181
  935MPD2     N13682   3.969   1.802   1.601 -0.0945 -0.2082  0.2991
  935MPD2    H513683   3.980   1.853   1.688 -1.0942  0.2584  0.1597
  935MPD2    N113684   4.172   1.480   1.296 -0.0297 -0.2625 -0.0982
  935MPD2    H713685   4.093   1.508   1.238  0.8667  0.9237 -0.7366
  936MPD2     C13686   2.537   3.104  12.514 -0.2738 -0.0202  0.4221
  936MPD2    C113687   2.546   3.151  12.636  0.0899 -0.1166 -0.4545
  936MPD2    C213688   2.561   3.290  12.658 -0.4850  0.3300 -0.3200
  936MPD2    C313689   2.556   3.378  12.552 -0.2273 -0.3670  0.4336
  936MPD2    C413690   2.549   3.328  12.425  0.7759  0.5596  0.2980
  936MPD2    C513691   2.546   3.188  12.408  0.6476  0.3068  0.0363
  936MPD2     H13692   2.565   3.337  12.756  1.1158  0.5504 -0.4885
  936MPD2    H113693   2.552   3.394  12.339  1.6238 -0.1439 -0.2159
  936MPD2    H213694   2.532   2.998  12.491  1.7631 -0.0506  0.0378
  936MPD2    H313695   2.531   3.149  12.308 -1.4285  1.7838 -0.2324
  936MPD2     N13696   2.558   3.510  12.587 -0.0060  0.0758 -0.2800
  936MPD2    H513697   2.550   3.534  12.685  1.1585 -0.8272  0.0316
  936MPD2    N113698   2.552   3.072  12.758  0.0921 -0.3323 -0.4243
  936MPD2    H713699   2.579   3.132  12.835  1.3257 -0.4756 -0.7364
  937MPD2     C13700   0.417   4.468  11.896  0.1500  0.3341  0.6852
  937MPD2    C113701   0.493   4.584  11.887  0.1199 -0.0862 -0.6295
  937MPD2    C213702   0.579   4.605  11.777  0.0905  0.3208 -0.1555
  937MPD2    C313703   0.599   4.499  11.692  0.2081  0.1180  0.3928
  937MPD2    C413704   0.536   4.378  11.706 -0.0910 -0.6709  0.0468
  937MPD2    C513705   0.440   4.368  11.808  0.2787 -0.3283 -0.0972
  937MPD2     H13706   0.617   4.706  11.762  0.1724  0.4863  1.1385
  937MPD2    H113707   0.535   4.293  11.639 -0.6917 -0.8211  0.2442
  937MPD2    H213708   0.347   4.439  11.973  1.3913  0.8163  2.0063
  937MPD2    H313709   0.388   4.273  11.804 -0.9213  0.3465 -0.3821
  937MPD2     N13710   0.692   4.525  11.588 -0.3900  0.1571  0.9536
  937MPD2    H513711   0.740   4.614  11.595  2.3422 -1.3231  1.0046
  937MPD2    N113712   0.440   4.700  11.939 -0.2951  0.4823 -0.1565
  937MPD2    H713713   0.470   0.066  11.906 -1.3347  0.7175 -0.4589
  938MPD2     C13714   3.004   1.104   0.942 -0.7829  0.4652 -0.4979
  938MPD2    C113715   2.937   1.221   0.968 -0.0456  1.1227  0.7559
  938MPD2    C213716   2.842   1.215   1.063 -0.8682 -0.3583 -0.3193
  938MPD2    C313717   2.818   1.108   1.143  0.0424 -0.2121 -0.0465
  938MPD2    C413718   2.897   0.995   1.117 -0.2769 -0.2281 -0.1380
  938MPD2    C513719   2.993   0.999   1.025  0.3989  0.1604  0.7196
  938MPD2     H13720   2.779   1.302   1.080  0.4785  0.2107  1.7133
  938MPD2    H113721   2.881   0.908   1.179 -2.3022 -0.0057 -0.3435
  938MPD2    H213722   3.074   1.082   0.863 -1.9549  1.2712 -1.7656
  938MPD2    H313723   3.038   0.905   0.993 -0.4006 -0.7868  2.3333
  938MPD2     N13724   2.719   1.098   1.244  0.0494 -0.0997  0.1028
  938MPD2    H513725   2.713   1.018   1.307  0.1157 -1.0994 -1.1487
  938MPD2    N113726   2.942   1.334   0.885  0.0059  0.6189  0.6120
  938MPD2    H713727   2.871   1.404   0.902 -0.1200 -0.3920  4.1927
  939MPD2     C13728   0.591   3.110   1.756  0.2033  0.1748 -0.2546
  939MPD2    C113729   0.483   3.169   1.703  0.0195 -0.3055  0.0302
  939MPD2    C213730   0.454   3.149   1.567  0.0036 -0.1212 -0.2312
  939MPD2    C313731   0.539   3.076   1.490 -0.2984 -0.1271  0.2578
  939MPD2    C413732   0.651   3.016   1.548 -0.3787 -0.3008  0.0158
  939MPD2    C513733   0.684   3.039   1.676 -0.2560  0.4999 -0.0371
  939MPD2     H13734   0.366   3.186   1.517  0.8269  0.1674 -1.4711
  939MPD2    H113735   0.724   2.953   1.498  0.5830  2.3146 -1.8562
  939MPD2    H213736   0.609   3.128   1.861  0.4742  1.9997 -0.6225
  939MPD2    H313737   0.771   2.989   1.717 -0.6652  0.2111  0.4698
  939MPD2     N13738   0.500   3.047   1.357  0.2742  0.6771 -0.2345
  939MPD2    H513739   0.415   3.090   1.321 -1.0707  0.2538  2.4476
  939MPD2    N113740   0.400   3.238   1.794  0.4385  0.0807  0.2185
  939MPD2    H713741   0.425   3.252   1.891 -1.2183 -1.4596  0.8796
  940MPD2     C13742   3.141   3.875  13.273 -0.0862  0.4188  0.0291
  940MPD2    C113743   3.128   3.746  13.297  0.6348  0.4453 -0.3305
  940MPD2    C213744   3.115   3.661  13.186  0.2786 -0.1881 -0.2380
  940MPD2    C313745   3.106   3.705  13.062 -0.2293  0.4465  0.1754
  940MPD2    C413746   3.110   3.841  13.040 -0.1399  0.3223  0.2675
  940MPD2    C513747   3.139   3.923  13.142 -0.7987  0.4166  0.5035
  940MPD2     H13748   3.109   3.554  13.196  0.2146 -0.1851 -0.2466
  940MPD2    H113749   3.116   3.879  12.939  0.0166  0.4692  0.3304
  940MPD2    H213750   3.137   3.953  13.348 -2.6213  1.8022 -1.5750
  940MPD2    H313751   3.147   4.029  13.120 -2.1011 -0.1426 -2.7112
  940MPD2     N13752   3.103   3.602  12.964 -0.3696 -0.0282  0.2303
  940MPD2    H513753   3.095   3.506  12.994 -2.5958 -0.7656 -2.6725
  940MPD2    N113754   3.151   3.701  13.433  0.4926  0.2279  0.2375
  940MPD2    H713755   3.180   3.604  13.441 -0.5343  0.0013  1.2430
  941MPD2     C13756   2.929   1.195   9.252 -0.4535  0.0510 -0.1339
  941MPD2    C113757   2.847   1.211   9.360 -0.2506  0.6266  0.4055
  941MPD2    C213758   2.803   1.095   9.427 -0.0567 -0.2071  0.4944
  941MPD2    C313759   2.843   0.967   9.383  0.1974  1.0255 -0.0997
  941MPD2    C413760   2.916   0.952   9.273 -0.0732 -0.0397  0.4844
  941MPD2    C513761   2.963   1.069   9.214  0.2531  0.0511 -0.3954
  941MPD2     H13762   2.736   1.108   9.511  0.0335  0.9064  0.3945
  941MPD2    H113763   2.937   0.855   9.229 -0.0886 -1.0134  2.6511
  941MPD2    H213764   2.979   1.275   9.199 -0.2221 -0.6092 -0.8996
  941MPD2    H313765   3.024   1.064   9.125  0.3651 -1.2139 -0.2510
  941MPD2     N13766   2.801   0.854   9.456 -0.0835 -0.1461 -0.3368
  941MPD2    H513767   2.846   0.767   9.430 -0.5559  0.1099 -2.0322
  941MPD2    N113768   2.802   1.333   9.417  0.8779  0.3420  0.2526
  941MPD2    H713769   2.749   1.335   9.503  1.8636 -2.3764  0.9151
  942MPD2     C13770   1.471   2.593   9.366  0.2169  0.4169 -0.5809
  942MPD2    C113771   1.585   2.635   9.442 -0.3329 -0.5239  0.6456
  942MPD2    C213772   1.614   2.771   9.449 -0.0999 -0.0685  0.1328
  942MPD2    C313773   1.559   2.860   9.358  0.2231 -0.4042 -0.2660
  942MPD2    C413774   1.450   2.820   9.284 -0.3725  0.1035 -0.0510
  942MPD2    C513775   1.406   2.691   9.293 -0.3385  1.2553  0.3862
  942MPD2     H13776   1.695   2.804   9.514  0.7232 -1.1637 -0.3282
  942MPD2    H113777   1.403   2.887   9.212  1.1969  2.1192  0.8166
  942MPD2    H213778   1.438   2.489   9.374 -2.6315  1.4110  0.6422
  942MPD2    H313779   1.315   2.681   9.235  1.7670  0.6611 -2.8288
  942MPD2     N13780   1.613   2.987   9.327  0.7581  0.0278 -0.4455
  942MPD2    H513781   1.565   3.041   9.255  0.4609 -0.5894 -0.7062
  942MPD2    N113782   1.657   2.537   9.515  1.1345  0.3070  0.1102
  942MPD2    H713783   1.744   2.569   9.557  0.3620  2.1718  0.2753
  943MPD2     C13784   0.941   1.861  10.199  1.3678  0.2787 -0.5833
  943MPD2    C113785   0.835   1.776  10.212  0.7846  0.0409  0.5846
  943MPD2    C213786   0.744   1.757  10.108 -0.5705  0.4270  0.3270
  943MPD2    C313787   0.753   1.838   9.996  0.4151 -0.0099  0.5548
  943MPD2    C413788   0.851   1.935   9.988  0.3217  0.2958 -0.1824
  943MPD2    C513789   0.948   1.937  10.086 -0.2114  1.0365  0.0224
  943MPD2     H13790   0.662   1.687  10.122  0.1769 -0.7623 -1.1936
  943MPD2    H113791   0.866   2.009   9.910  0.4993  0.1282 -0.3065
  943MPD2    H213792   1.025   1.867  10.267 -1.3974  1.6744  2.7576
  943MPD2    H313793   1.035   2.000  10.073 -0.6201  1.2942 -1.4878
  943MPD2     N13794   0.662   1.840   9.893  0.1836 -0.6856  0.3150
  943MPD2    H513795   0.664   1.926   9.840 -0.7222 -0.1925  1.0958
  943MPD2    N113796   0.828   1.716  10.341  0.2997  0.3375  0.6973
  943MPD2    H713797   0.899   1.737  10.410  1.5349  0.8011 -0.7281
  944MPD2     C13798   0.841   0.765  11.143  0.2740  0.3081  0.5974
  944MPD2    C113799   0.863   0.866  11.057  0.2197  0.1908 -0.6713
  944MPD2    C213800   0.911   0.987  11.110 -0.9128 -0.5449 -0.1154
  944MPD2    C313801   0.943   1.004  11.248 -0.1382 -0.6448 -0.6229
  944MPD2    C413802   0.896   0.906  11.330 -0.3232  0.2972 -0.8933
  944MPD2    C513803   0.857   0.786  11.277 -0.2407  0.2133  0.4065
  944MPD2     H13804   0.932   1.073  11.047 -0.2165 -0.3421  0.3948
  944MPD2    H113805   0.891   0.921  11.437 -1.3695 -3.5964 -0.3997
  944MPD2    H213806   0.780   0.681  11.112 -2.8582  2.5327  0.7221
  944MPD2    H313807   0.807   0.709  11.333 -0.3287  0.1293  0.2107
  944MPD2     N13808   0.986   1.138  11.300  0.0803  0.4702 -0.2464
  944MPD2    H513809   1.015   1.211  11.235  0.3411  0.3176 -0.2999
  944MPD2    N113810   0.825   0.855  10.926 -0.2543  0.0311 -0.0430
  944MPD2    H713811   0.775   0.769  10.906 -0.7386  0.3544 -0.2136
    1TCq1    O113812   3.449   2.254  14.124 -0.0784  0.1022 -0.0330
    1TCq1    C113813   3.519   2.373  14.120  0.4651 -0.5204  0.1598
    1TCq1    O213814   3.586   2.419  14.026  0.2733 -0.0398 -0.1638
    1TCq1    C213815   3.534   2.412  14.258 -0.3847 -0.1228 -0.1720
    1TCq1    C313816   3.438   2.401  14.361  0.2863 -0.0249  0.2017
    1TCq1    C413817   3.472   2.453  14.481  0.4887 -0.5038 -0.0981
    1TCq1    C513818   3.595   2.515  14.510  0.5202 -0.3810 -0.0550
    1TCq1    C613819   3.684   2.524  14.404  0.0590 -0.3337  0.2039
    1TCq1    C713820   3.649   2.475  14.277 -0.3769  0.0295  0.1658
    1TCq1    C813821   3.809   2.586  14.423 -0.0026  0.1572  0.1413
    1TCq1    O413822   3.891   2.576  14.336 -0.0287  0.1013 -0.4459
    1TCq1    C913823   3.375   2.447  14.592  0.7095  0.1646 -0.4971
    1TCq1    O513824   3.257   2.408  14.559 -0.1812 -0.2472 -0.2875
    1TCq1    O613825   3.402   2.511  14.693  0.1627 -0.0311  0.0383
    1TCq1    H113826   3.414   2.224  14.210  0.7216 -0.8092 -0.0280
    1TCq1    H213827   3.340   2.360  14.340 -0.1254  0.4447  1.2091
    1TCq1    H313828   3.617   2.534  14.615  0.7322 -2.2646  0.2557
    1TCq1    H413829   3.721   2.481  14.196  0.4895  1.9298  1.0946
    2MPD2     C13830   4.191   2.765  14.708  0.8137  0.1187  0.0599
    2MPD2    C113831   4.068   2.775  14.777  0.5577  0.5968 -0.2694
    2MPD2    C213832   3.952   2.755  14.709  0.1773 -0.1069 -0.6720
    2MPD2    C313833   3.950   2.699  14.588 -0.1009  0.7667 -0.6148
    2MPD2    C413834   4.070   2.676  14.525 -0.4433  0.0800  0.3741
    2MPD2    C513835   4.189   2.716  14.577 -0.0349  0.6995 -0.6385
    2MPD2     H13836   3.855   2.766  14.755  0.5935 -2.0145  0.6730
    2MPD2    H113837   4.079   2.630  14.427  0.6883 -0.8087  0.8907
    2MPD2    H213838   4.280   2.794  14.762  0.4840  1.7762 -0.2668
    2MPD2    H313839   4.283   2.700  14.525 -0.0047  0.5680 -0.5418
    2MPD2     N13840   3.829   2.653  14.538 -0.6551 -0.4284 -0.3005
    2MPD2    H513841   3.745   2.675  14.591  0.0487 -1.2105  1.1408
    2MPD2    N113842   4.078   2.807  14.912  0.0958  0.1108 -0.2656
    2MPD2    H713843   4.165   2.791  14.963 -0.4380 -0.0580  0.5932
    3TMC2    C113844   4.003   2.893  15.123  1.1090 -1.2368 -0.3992
    3TMC2    C213845   4.113   2.847  15.189  0.5253 -0.8059  0.0726
    3TMC2    C313846   4.149   2.914  15.303 -0.2166 -0.5625  0.7163
    3TMC2    C413847   3.918   2.995  15.168 -0.2126  0.6399  0.0108
    3TMC2    C513848   3.963   3.065  15.279  0.1130  0.5810  0.3189
    3TMC2    C613849   4.084   3.032  15.344  0.4952 -0.6227 -0.3787
    3TMC2     C13850   3.969   2.843  14.990  0.2516 -0.2118 -0.4636
    3TMC2     O13851   3.853   2.865  14.966  0.3411 -0.0157 -0.4962
    3TMC2     H13852   4.177   2.763  15.166 -0.6811 -2.3319  2.2279
    3TMC2    H113853   3.828   3.028  15.116  2.4708  2.8600 -3.3021
    3TMC2    H213854   4.129   3.092  15.422  1.2307  0.4530 -1.6337
    3TMC2    C713855   3.888   3.185  15.317  0.2099 -0.3299  0.4648
    3TMC2    C813856   4.254   2.853  15.379  0.1767 -0.2961  0.7014
    3TMC2    O113857   3.872   3.203  15.438  0.8602  0.2996 -0.1963
    3TMC2    O213858   4.335   2.781  15.327 -0.6093 -0.3494 -0.1410
    3TMC2    O513859   4.217   2.842  15.509 -0.1634  0.2079  0.2415
    3TMC2    H513860   4.131   2.886  15.524 -0.7107 -0.7421 -0.1216
    4MPD2     C13861   3.552   4.420  14.216 -0.7706 -0.0780 -0.6733
    4MPD2    C113862   3.542   4.291  14.163  0.1070 -0.6259  0.3070
    4MPD2    C213863   3.550   4.185  14.245 -0.0786  0.3808  0.1713
    4MPD2    C313864   3.556   4.190  14.380 -0.2608  0.8060  0.4335
    4MPD2    C413865   3.574   4.316  14.435  0.1874 -0.5173 -0.0441
    4MPD2    C513866   3.578   4.428  14.351 -0.2095 -0.2564  0.2041
    4MPD2     H13867   3.534   4.089  14.198 -0.9003  0.9170 -0.6721
    4MPD2    H113868   3.581   4.337  14.541  0.2527 -1.1777  0.0813
    4MPD2    H213869   3.546   4.512  14.160  0.4241 -0.1399 -0.9106
    4MPD2    H313870   3.592   4.524  14.400 -1.8392  0.3912 -0.5782
    4MPD2     N13871   3.543   4.070  14.447 -0.1820 -0.3048  0.1877
    4MPD2    H513872   3.510   3.996  14.385  2.0553  0.4648 -1.8718
    4MPD2    N113873   3.529   4.286  14.026 -1.0338 -0.6881  0.0946
    4MPD2    H713874   3.526   4.370  13.969 -0.7771 -0.4013  0.5060
    5TCq2    C113875   3.573   4.053  14.580  0.5639 -0.4326 -0.1496
    5TCq2    O213876   3.595   4.137  14.669 -0.4379  0.0841  0.2308
    5TCq2    C213877   3.568   3.915  14.628 -0.1438  0.3597 -0.6450
    5TCq2    C313878   3.530   3.806  14.543 -0.2816  0.3279 -0.4471
    5TCq2    C413879   3.526   3.681  14.606 -1.2192 -0.2874  0.2002
    5TCq2    C513880   3.551   3.661  14.739 -0.1076  0.0678  0.4586
    5TCq2    C613881   3.581   3.769  14.808  0.3912  0.9974 -0.0199
    5TCq2    C713882   3.587   3.896  14.761 -0.2453 -0.1270  0.4387
    5TCq2    C813883   3.594   3.742  14.951 -0.2463  0.0555 -0.3364
    5TCq2    O413884   3.586   3.842  15.022 -0.0247  0.0667 -0.8955
    5TCq2    C913885   3.507   3.564  14.521 -1.6529  0.1560 -0.1956
    5TCq2    O513886   3.494   3.450  14.578 -0.0602  0.3574 -0.0988
    5TCq2    O613887   3.539   3.581  14.400 -0.4043  0.1726  0.1574
    5TCq2    H213888   3.514   3.810  14.436  0.6242 -3.1346 -0.7073
    5TCq2    H313889   3.542   3.564  14.787 -2.1742  0.5426  1.0544
    5TCq2    H413890   3.614   3.979  14.825 -1.6653  0.6189  0.0569
    6MPD1     C13891   2.895   0.753  12.717  0.5398 -0.4004 -0.4906
    6MPD1    C113892   2.952   0.652  12.654 -0.3163 -0.4163  0.6889
    6MPD1    C213893   3.001   0.549  12.730 -0.0001  0.7632  0.1062
    6MPD1    C313894   2.952   0.537  12.862 -0.3961  0.6424 -0.0637
    6MPD1    C413895   2.883   0.631  12.920 -0.4064  0.4820 -0.7726
    6MPD1    C513896   2.860   0.744  12.851  0.4272 -0.4741 -0.0002
    6MPD1     H13897   3.075   0.480  12.690 -0.3718  1.8436 -2.4373
    6MPD1    H113898   2.857   0.617  13.024 -0.0487  2.4872 -0.4266
    6MPD1    H213899   2.881   0.853  12.677 -1.7227 -0.6471 -0.3459
    6MPD1    H313900   2.810   0.828  12.899 -1.5092 -1.4778 -0.2385
    6MPD1     N13901   2.971   0.417  12.931  0.5991 -0.5576 -0.0912
    6MPD1    H513902   2.916   0.400  13.015  1.2267  2.8285  0.9903
    6MPD1    N113903   3.000   0.667  12.522  0.2374  0.1554  0.0297
    6MPD1    H613904   3.094   0.708  12.528  0.3746 -0.2913  0.8724
    6MPD1    H713905   3.021   0.587  12.463 -0.5881  0.1934 -0.3038
    7MPD2     C13906   2.935   0.045  13.634  0.1930 -0.1246  0.0202
    7MPD2    C113907   2.987   4.687  13.533  0.0469  0.0924  0.3189
    7MPD2    C213908   3.045   4.575  13.567  0.6313  0.7336  0.2176
    7MPD2    C313909   3.062   4.536  13.704 -0.3621 -0.1871 -0.5508
    7MPD2    C413910   2.986   4.605  13.793  0.1188  0.2051  0.0323
    7MPD2    C513911   2.925   4.723  13.762 -0.1345 -0.6332  0.5998
    7MPD2     H13912   3.084   4.507  13.492  0.1832  2.1057 -1.2744
    7MPD2    H113913   2.973   4.566  13.893 -0.8722 -2.2239 -1.0254
    7MPD2    H213914   2.890   0.140  13.609  0.5864  0.6718  2.4112
    7MPD2    H313915   2.858   0.045  13.832  0.1802 -0.0422  0.4981
    7MPD2     N13916   3.133   4.414  13.749 -0.1528  0.0559 -0.0202
    7MPD2    H513917   3.127   4.387  13.847  0.1467  1.5342  0.4106
    7MPD2    N113918   2.991   4.715  13.394  0.4067  0.6467 -0.1811
    7MPD2    H713919   3.022   4.633  13.343  0.6392  1.4604 -1.3319
    8TMC3    C113920   3.268   4.230  13.717 -0.4613 -0.1376  0.0665
    8TMC3    C213921   3.351   4.260  13.823  0.2519 -0.6950 -0.3708
    8TMC3    C313922   3.479   4.199  13.817  0.0337  0.2117 -0.1749
    8TMC3    C413923   3.322   4.158  13.611 -0.4268 -0.2883  0.5268
    8TMC3    C513924   3.442   4.106  13.603 -0.1469  0.1173  0.2253
    8TMC3    C613925   3.527   4.115  13.715 -0.0909 -0.7186  0.5000
    8TMC3     C13926   3.203   4.338  13.660 -0.4054  0.6378 -0.5953
    8TMC3     O13927   3.228   4.351  13.541  0.1230  0.5025 -0.2802
    8TMC3     H13928   3.313   4.297  13.917  1.1499 -0.9277  0.0885
    8TMC3    H113929   3.252   4.121  13.538 -1.5568 -0.9342  1.9391
    8TMC3    H213930   3.618   4.056  13.728  1.5101  1.7827  0.7368
    8TMC3    C713931   3.514   4.134  13.478 -0.3834  1.0337  0.3217
    8TMC3    C813932   3.528   4.170  13.950  0.5384  0.5787  0.3300
    8TMC3    O113933   3.607   4.071  13.431 -0.2528  0.1902  0.5574
    8TMC3    O213934   3.600   4.072  13.962  0.2357 -1.0409 -0.3590
    9TMC3    C113935   3.063   0.194  12.992  0.2044  0.5527  0.7309
    9TMC3    C213936   3.144   0.090  12.944  0.2252  0.6216  0.6274
    9TMC3    C313937   3.160   4.710  13.027  0.1685  0.1081 -0.3337
    9TMC3    C413938   2.995   0.193  13.108 -0.5407 -0.9097 -0.2802
    9TMC3    C513939   3.030   0.101  13.195  0.1613 -0.4067  0.0650
    9TMC3    C613940   3.111   4.715  13.159  0.8136 -0.1005  0.2462
    9TMC3     C13941   3.053   0.311  12.897 -1.0161  0.3095  0.2866
    9TMC3     O13942   3.117   0.302  12.793 -0.5468  0.5962  0.1233
    9TMC3     H13943   3.193   0.095  12.848 -0.5883  1.3788  0.2543
    9TMC3    H113944   2.929   0.277  13.128  0.4089 -0.6524  1.8665
    9TMC3    H213945   3.152   4.654  13.239  0.0251  0.0186  0.7406
    9TMC3    C713946   2.963   0.105  13.326 -0.0939  0.0552  0.1532
    9TMC3    C813947   3.247   4.599  12.991  0.6938 -0.2166 -0.2631
    9TMC3    O113948   2.937   0.214  13.381 -0.2365  0.3523  0.4299
    9TMC3    O213949   3.307   4.610  12.884  0.4420  0.0001  0.8110
   10MPD2     C13950   3.564   4.264  13.198  0.0619  0.5964 -0.7087
   10MPD2    C113951   3.447   4.269  13.271 -0.3126 -0.1164 -0.0468
   10MPD2    C213952   3.341   4.344  13.231 -1.1876 -0.5361 -0.0279
   10MPD2    C313953   3.355   4.427  13.124 -0.2380  0.5253 -0.6512
   10MPD2    C413954   3.466   4.416  13.046  0.0874  0.2154 -0.3432
   10MPD2    C513955   3.575   4.340  13.087 -0.6919 -0.0241 -0.1969
   10MPD2     H13956   3.255   4.338  13.297 -1.2989 -0.3108 -0.1497
   10MPD2    H113957   3.483   4.482  12.962 -0.2955  0.0533 -0.5487
   10MPD2    H213958   3.654   4.215  13.231 -1.1618 -0.5468  0.9424
   10MPD2    H313959   3.660   4.353  13.022 -0.3853  1.5977  0.5411
   10MPD2     N13960   3.249   4.512  13.091 -0.2370 -0.0871  0.0547
   10MPD2    H513961   3.167   4.517  13.152  0.9518  0.5100  1.6135
   10MPD2    N113962   3.434   4.218  13.406  0.2625 -0.3735  0.8685
   10MPD2    H713963   3.358   4.250  13.465 -1.6144 -1.2778 -1.0743
   11MPD2     C13964   3.692   3.417  15.327 -0.2145 -0.6006 -0.1282
   11MPD2    C113965   3.755   3.369  15.215 -0.0265 -0.3763  0.4692
   11MPD2    C213966   3.743   3.443  15.099  0.0403 -0.0704  0.1987
   11MPD2    C313967   3.674   3.563  15.101  0.6546  0.5203  0.3745
   11MPD2    C413968   3.603   3.603  15.215 -0.7388 -0.2502  0.4807
   11MPD2    C513969   3.612   3.530  15.330  0.3281 -0.2992 -0.1318
   11MPD2     H13970   3.790   3.407  15.007 -1.3406  0.3460 -0.6710
   11MPD2    H113971   3.551   3.698  15.221 -2.5422 -1.4335  3.1985
   11MPD2    H213972   3.702   3.365  15.422  0.5092  0.2612  0.2617
   11MPD2    H313973   3.549   3.549  15.416  1.7263  0.0675  0.8027
   11MPD2     N13974   3.650   3.623  14.974 -0.2788  0.0139  0.3569
   11MPD2    H513975   3.677   3.563  14.897 -3.0441  1.2268 -1.5523
   11MPD2    N113976   3.844   3.258  15.217 -0.1265  0.1998 -0.0826
   11MPD2    H713977   3.868   3.231  15.122  0.4540  1.5998 -0.3291
    1MPD1     C13978   1.612   4.584  17.315  0.6074  0.6192 -0.0085
    1MPD1    C113979   1.491   4.647  17.342  0.5655 -0.1579 -0.1903
    1MPD1    C213980   1.405   4.678  17.236 -0.1225 -0.3550 -0.1455
    1MPD1    C313981   1.450   4.659  17.106 -0.1868 -0.4314 -0.2411
    1MPD1    C413982   1.572   4.615  17.081  0.0822  1.4399  0.7706
    1MPD1    C513983   1.651   4.577  17.183  0.4315 -0.0638  0.3764
    1MPD1     H13984   1.305   4.714  17.255  0.0054  0.7136 -1.4698
    1MPD1    H113985   1.607   4.603  16.979  0.7938  0.0320  1.1634
    1MPD1    H213986   1.676   4.560  17.399 -1.0033 -0.2972  0.9591
    1MPD1    H313987   1.749   4.537  17.162  0.8664  0.1980  1.9333
    1MPD1     N13988   1.380   4.698  16.995 -0.6887 -0.0279 -0.2136
    1MPD1    H513989   1.429   4.697  16.905 -0.0542  1.8427  0.0985
    1MPD1    N113990   1.445   4.665  17.476 -0.1708  0.3743 -0.1419
    1MPD1    H613991   1.401   0.031  17.481 -0.7921  0.0842 -0.4154
    1MPD1    H713992   1.522   4.667  17.543  0.0444 -0.4868 -0.3623
    2MPD1     C13993   1.621   0.179  16.226  0.4339 -0.8397 -0.4215
    2MPD1    C113994   1.671   0.164  16.356  0.0570  0.5124 -0.3622
    2MPD1    C213995   1.575   0.125  16.443  0.3579 -0.0202  0.4987
    2MPD1    C313996   1.444   0.094  16.416 -0.8120 -0.3815 -0.5893
    2MPD1    C413997   1.404   0.125  16.295 -0.2633 -0.3044 -0.2806
    2MPD1    C513998   1.491   0.157  16.197 -0.6766  0.0204  0.0185
    2MPD1     H13999   1.608   0.099  16.543 -1.0110  0.0753  0.9713
    2MPD1    H114000   1.301   0.099  16.271 -0.9665 -0.8029  3.2430
    2MPD1    H214001   1.687   0.222  16.152  0.6097 -3.0983 -1.5711
    2MPD1    H314002   1.455   0.178  16.097 -1.4878  2.4138  0.8156
    2MPD1     N14003   1.363   0.045  16.526 -0.4958  0.7481  0.6698
    2MPD1    H514004   1.399   0.042  16.621  0.8170  0.0378  0.1531
    2MPD1    N114005   1.803   0.183  16.398 -0.2573  0.3368  0.3051
    2MPD1    H614006   1.823   0.136  16.486 -0.9277  2.2267  1.4709
    2MPD1    H714007   1.866   0.141  16.330  1.2202 -0.0354  1.9136
    3TMC3    C114008   1.178   4.707  16.641 -0.4345  0.0514 -0.2599
    3TMC3    C214009   1.038   0.002  16.645 -0.4894  0.4790 -0.5615
    3TMC3    C314010   0.990   0.041  16.769 -0.7069 -0.3765  0.1358
    3TMC3    C414011   1.258   4.714  16.748  0.0411 -0.1801  0.3504
    3TMC3    C514012   1.202   0.044  16.864 -0.0088  0.6689  0.1025
    3TMC3    C614013   1.069   0.078  16.869 -0.0984  0.2883  0.8488
    3TMC3     C14014   1.237   4.718  16.511 -0.7917  0.5695  0.0714
    3TMC3     O14015   1.162   4.722  16.413 -0.0202  0.1363  0.4130
    3TMC3     H14016   0.971   4.715  16.561 -0.2300 -1.2311 -0.5011
    3TMC3    H114017   1.339   4.642  16.752  1.2255  1.1243 -0.3205
    3TMC3    H214018   1.039   0.137  16.955  1.4291  0.9672  0.9108
    3TMC3    C714019   1.248   0.008  16.992  0.6107 -1.0568  0.4972
    3TMC3    C814020   0.863   0.111  16.766  0.4569 -0.3661  0.0514
    3TMC3    O114021   1.163   4.711  17.080 -0.7158  0.2973 -0.5434
    3TMC3    O214022   0.835   0.164  16.658 -0.6281  0.6899  0.3056
    4MPD1     C14023   0.499   0.379  17.020  0.3261  0.2642 -0.7726
    4MPD1    C114024   0.558   0.285  17.101 -0.3835  0.1474  1.0331
    4MPD1    C214025   0.641   0.191  17.046  0.4016  0.3723  0.0022
    4MPD1    C314026   0.695   0.206  16.922  0.3200  0.5485 -0.6598
    4MPD1    C414027   0.645   0.305  16.838 -0.2218 -0.2442 -0.4682
    4MPD1    C514028   0.544   0.390  16.892 -0.4400 -0.0176 -0.1848
    4MPD1     H14029   0.678   0.112  17.112  1.3454  1.1412  0.4032
    4MPD1    H114030   0.670   0.322  16.734 -1.5788 -1.5077 -1.0097
    4MPD1    H214031   0.415   0.442  17.046  0.1764 -0.7830  1.2876
    4MPD1    H314032   0.505   0.459  16.818 -1.9150 -0.8490 -0.1873
    4MPD1     N14033   0.803   0.122  16.891  0.3957  0.4314 -0.1350
    4MPD1    H514034   0.831   0.056  16.963 -1.3270  1.7301  1.7415
    4MPD1    N114035   0.493   0.259  17.218  0.3951  0.0910  0.6127
    4MPD1    H614036   0.442   0.337  17.258 -0.0072  0.7422 -1.1354
    4MPD1    H714037   0.561   0.220  17.283 -1.2760 -2.6823  0.6934
    1TCq1    O114038   2.889   0.253  11.859 -0.1817 -0.3311  0.2804
    1TCq1    C114039   2.761   0.206  11.864 -0.3926  0.4429  0.5749
    1TCq1    O214040   2.681   0.211  11.772  0.2041 -0.1708  0.0664
    1TCq1    C214041   2.769   0.119  11.979  0.1922 -0.5226  0.4144
    1TCq1    C314042   2.845   0.150  12.092 -0.1603 -0.3755 -0.1153
    1TCq1    C414043   2.840   0.060  12.197  0.2726  0.2142 -0.6368
    1TCq1    C514044   2.772   4.666  12.185  0.1279 -0.0221  0.3474
    1TCq1    C614045   2.699   4.647  12.069  0.7102  0.4570 -0.4673
    1TCq1    C714046   2.691   0.010  11.968 -0.8151  1.1772 -0.3853
    1TCq1    C814047   2.631   4.523  12.045 -0.8460 -0.7160  0.1299
    1TCq1    O414048   2.531   4.532  11.978  0.0769  0.4729  0.0300
    1TCq1    C914049   2.957   0.058  12.278  0.3436 -0.0740  0.2696
    1TCq1    O514050   3.013   0.167  12.289 -0.0361  0.4340  0.1368
    1TCq1    O614051   2.998   4.681  12.329  0.7743  0.2067  0.3154
    1TCq1    H114052   2.944   0.196  11.917  0.2751 -2.4340 -2.1582
    1TCq1    H214053   2.900   0.243  12.102 -0.4869 -0.3859  1.8891
    1TCq1    H314054   2.777   4.595  12.267  0.7450 -0.7005 -0.2736
    1TCq1    H414055   2.639   4.717  11.875  0.2839 -2.5889 -0.2253
    2MPD1     C14056   2.650   4.015  12.043 -0.0260 -0.0118 -0.7005
    2MPD1    C114057   2.739   4.061  12.132 -0.1345  1.1905  0.0019
    2MPD1    C214058   2.748   4.195  12.152  0.2224  0.5456 -0.5570
    2MPD1    C314059   2.680   4.279  12.071  0.5979  0.6103 -0.1124
    2MPD1    C414060   2.594   4.240  11.972 -0.6922  0.6173  0.3927
    2MPD1    C514061   2.574   4.107  11.974  0.3062  0.6637 -0.1366
    2MPD1     H14062   2.813   4.231  12.231  0.8319 -0.9701 -0.3730
    2MPD1    H114063   2.550   4.300  11.893  0.4107  1.9928  0.8138
    2MPD1    H214064   2.615   3.913  12.042 -0.3415  0.1006 -1.0678
    2MPD1    H314065   2.492   4.072  11.912 -0.5119 -1.2778  2.0436
    2MPD1     N14066   2.707   4.416  12.091  0.0944  0.0399 -0.0373
    2MPD1    H514067   2.786   4.427  12.154  1.3476  0.9490 -1.7789
    2MPD1    N114068   2.801   3.971  12.224 -0.3588 -0.7335 -0.3101
    2MPD1    H614069   2.892   4.009  12.252  0.4723 -0.9154 -2.7461
    2MPD1    H714070   2.828   3.882  12.183  0.3284 -0.7296  0.1316
    1TCq1    O114071   0.092   2.723   0.761 -0.1149  0.1393  0.3888
    1TCq1    C114072   0.125   2.595   0.769  0.2921 -0.7045  0.9279
    1TCq1    O214073   0.182   2.539   0.675  0.3524  0.6203  0.1314
    1TCq1    C214074   0.159   2.562   0.907  0.1629 -0.4450  0.1541
    1TCq1    C314075   0.066   2.599   1.000  0.5196 -0.0473 -0.6782
    1TCq1    C414076   0.103   2.601   1.129 -0.4359 -0.1777 -0.2768
    1TCq1    C514077   0.228   2.596   1.174 -0.6320 -0.7222 -0.5214
    1TCq1    C614078   0.323   2.575   1.078 -0.3592 -0.2855 -0.5963
    1TCq1    C714079   0.284   2.564   0.944 -0.2083 -0.1353  0.4564
    1TCq1    C814080   0.447   2.511   1.111 -0.1239 -0.2437 -0.1848
    1TCq1    O414081   0.494   2.436   1.026 -0.1666 -0.1911  0.5437
    1TCq1    C914082   0.014   2.660   1.216  0.6977 -0.2395 -0.2765
    1TCq1    O514083   4.622   2.669   1.178 -0.1572 -0.2468  0.3144
    1TCq1    O614084   0.046   2.668   1.336 -0.1256 -0.4628  0.4259
    1TCq1    H114085   0.081   2.763   0.850  3.0474 -3.5238  2.4436
    1TCq1    H214086   4.687   2.593   0.974  0.5538 -2.4425 -0.3218
    1TCq1    H314087   0.244   2.619   1.278  0.1174 -0.5318 -0.6811
    1TCq1    H414088   0.359   2.555   0.867 -1.3744  1.0023 -0.8026
    2MPD1     C14089   0.814   2.402   1.434 -0.7415 -0.6379  0.4160
    2MPD1    C114090   0.741   2.494   1.494 -1.0032  0.0890  0.2278
    2MPD1    C214091   0.631   2.541   1.425  0.1597  1.0372 -0.4212
    2MPD1    C314092   0.596   2.494   1.305 -0.1153  0.1084  0.4075
    2MPD1    C414093   0.683   2.401   1.242  0.1551 -0.3155  0.3160
    2MPD1    C514094   0.779   2.346   1.314 -0.4321  0.4390  0.0626
    2MPD1     H14095   0.573   2.620   1.471  1.5533  1.0346  1.3383
    2MPD1    H114096   0.679   2.364   1.140 -1.5788  1.7297 -0.3696
    2MPD1    H214097   0.908   2.366   1.475 -0.6437  0.1428  0.8873
    2MPD1    H314098   0.844   2.269   1.273 -1.8162 -0.9034  0.3615
    2MPD1     N14099   0.485   2.547   1.236 -0.0906  0.0369 -0.4722
    2MPD1    H514100   0.437   2.623   1.283 -0.9226  0.2523 -1.6579
    2MPD1    N114101   0.776   2.552   1.615  0.1926 -0.3123 -0.5769
    2MPD1    H614102   0.830   2.483   1.668  1.4745  0.4972 -0.8201
    2MPD1    H714103   0.698   2.577   1.675  0.8205  0.2285  0.0148
    1MPD1     C14104   4.005   3.314  12.380 -0.3964  0.3304  0.3226
    1MPD1    C114105   4.031   3.310  12.513  0.1809  0.5204  0.4053
    1MPD1    C214106   4.033   3.430  12.584  1.0832 -0.2770 -0.6492
    1MPD1    C314107   3.998   3.547  12.516 -0.0396 -0.4813  1.3910
    1MPD1    C414108   3.973   3.552  12.382 -0.8169 -0.3483  0.5217
    1MPD1    C514109   3.988   3.431  12.312  0.6175  0.5170  0.6439
    1MPD1     H14110   4.046   3.432  12.692  0.8047  0.7563 -0.6345
    1MPD1    H114111   3.953   3.646  12.332 -1.6462 -0.5455  0.4722
    1MPD1    H214112   4.018   3.227  12.317 -0.1998 -0.1784  1.0607
    1MPD1    H314113   3.969   3.431  12.205 -0.2165  0.3002  0.7957
    1MPD1     N14114   3.999   3.671  12.597 -0.0059  0.3662  0.2845
    1MPD1    H514115   4.026   3.659  12.694  0.1917 -1.4498  0.0071
    1MPD1    N114116   4.072   3.189  12.568  0.0884 -0.8957  0.0943
    1MPD1    H614117   4.039   3.100  12.531  1.8863 -1.7128  0.4258
    1MPD1    H714118   4.072   3.176  12.669 -2.7425 -0.5730  0.1213
    2MPD1     C14119   3.297   0.176  11.736 -0.4019 -0.1096 -0.5624
    2MPD1    C114120   3.296   0.139  11.601 -0.0978  0.2293  0.1285
    2MPD1    C214121   3.402   0.062  11.559 -0.3906 -0.0526  1.0914
    2MPD1    C314122   3.489   0.010  11.651 -0.0441 -0.4495  0.0653
    2MPD1    C414123   3.488   0.050  11.780  0.2771 -0.6977 -0.1766
    2MPD1    C514124   3.395   0.138  11.818 -0.1806 -0.0912 -0.3896
    2MPD1     H14125   3.412   0.042  11.453 -1.3405 -0.0983  1.0046
    2MPD1    H114126   3.558   0.009  11.853 -0.2031  1.6206  1.5899
    2MPD1    H214127   3.219   0.238  11.778 -1.8676 -1.0500 -1.9269
    2MPD1    H314128   3.399   0.177  11.920  3.0915 -0.0753 -0.5176
    2MPD1     N14129   3.593   4.652  11.619  0.0058 -0.0968  0.2742
    2MPD1    H514130   3.667   4.636  11.685  0.1489  1.0034  0.3770
    2MPD1    N114131   3.203   0.188  11.512  0.3245 -0.0527  0.6355
    2MPD1    H614132   3.249   0.215  11.425 -0.9963 -0.4750 -0.1836
    2MPD1    H714133   3.162   0.273  11.551 -1.4156 -0.9976  0.8563
    3MPD1     C14134   4.139   4.278  10.775 -0.4298  0.3142 -0.1819
    3MPD1    C114135   4.204   4.381  10.840  0.3062 -0.0855  0.3814
    3MPD1    C214136   4.168   4.388  10.974  0.7926  0.0046  0.4031
    3MPD1    C314137   4.060   4.321  11.030  0.0465  0.0412 -0.4908
    3MPD1    C414138   3.985   4.236  10.954 -0.1626  0.3711  0.0997
    3MPD1    C514139   4.026   4.213  10.824  0.2146 -0.2284  0.7882
    3MPD1     H14140   4.220   4.453  11.044  0.7388  1.3151 -0.7622
    3MPD1    H114141   3.904   4.175  10.992 -0.1281  0.2306 -0.0493
    3MPD1    H214142   4.177   4.246  10.678 -0.4915  0.5266 -0.2768
    3MPD1    H314143   3.977   4.133  10.769  0.3164 -0.0945  0.5049
    3MPD1     N14144   4.027   4.363  11.159 -0.5163  0.9775 -0.1475
    3MPD1    H514145   4.106   4.407  11.207 -1.1850  2.6962 -0.6485
    3MPD1    N114146   4.323   4.433  10.795 -0.6085  0.2059 -0.1893
    3MPD1    H614147   4.329   4.525  10.838  1.3282 -0.1936  0.4291
    3MPD1    H714148   4.325   4.437  10.693 -1.7607  0.3802 -0.1962
    4MPD2     C14149   3.790   4.492  12.722  0.3159 -0.7641  0.0199
    4MPD2    C114150   3.911   4.429  12.704  0.3375  0.5628 -0.0454
    4MPD2    C214151   4.018   4.493  12.647 -0.3059  0.3164  0.4587
    4MPD2    C314152   3.999   4.619  12.590 -0.0205 -0.6162 -0.4285
    4MPD2    C414153   3.881   4.678  12.599 -0.4409 -0.2330 -0.2345
    4MPD2    C514154   3.774   4.608  12.662  0.6049  0.4017 -0.1134
    4MPD2     H14155   4.101   4.429  12.619  0.3471  1.1167  0.5765
    4MPD2    H114156   3.858   0.042  12.543  0.6839  2.5039  3.7868
    4MPD2    H214157   3.709   4.433  12.763  0.2622  0.9148  2.2988
    4MPD2    H314158   3.676   4.653  12.652  0.7120  0.6127 -0.2035
    4MPD2     N14159   4.099   4.686  12.514 -0.0124  0.1847  0.5701
    4MPD2    H514160   4.076   0.055  12.486 -1.8745 -1.0928 -2.1736
    4MPD2    N114161   3.939   4.294  12.726  0.6579  0.5129  0.0759
    4MPD2    H714162   4.033   4.256  12.717  0.9506  1.2397  0.0643
    5TMC3    C114163   3.924   4.074  12.789 -0.0391  0.0360  0.0142
    5TMC3    C214164   3.884   3.972  12.709 -1.0104  0.5938  0.8632
    5TMC3    C314165   3.982   3.891  12.663  0.1607  0.1024  0.3147
    5TMC3    C414166   4.057   4.102  12.826  0.1119 -0.3244  1.1366
    5TMC3    C514167   4.154   4.010  12.778  0.9531  0.1145  0.4966
    5TMC3    C614168   4.121   3.912  12.687  0.3612 -0.4872  0.4541
    5TMC3     C14169   3.849   4.201  12.771  0.3134 -0.1418 -0.2794
    5TMC3     O14170   3.736   4.206  12.810  0.0157  1.0655  0.6483
    5TMC3     H14171   3.785   3.952  12.671 -0.2435  0.8838 -1.2834
    5TMC3    H114172   4.087   4.183  12.891  0.1217 -0.3335  1.1434
    5TMC3    H214173   4.203   3.859  12.640  0.6451  0.4037 -0.0551
    5TMC3    C714174   4.257   4.108  12.737 -0.1851  0.9174 -0.1682
    5TMC3    C814175   3.952   3.791  12.561  0.5696 -0.3324  0.1861
    5TMC3    O114176   4.221   4.225  12.721  0.3941 -0.1974 -0.5609
    5TMC3    O214177   3.887   3.817  12.461 -0.0868 -0.1176  0.0819
    6TMC3    C114178   3.736   4.536  11.472 -0.8824 -0.5505  0.4373
    6TMC3    C214179   3.753   4.460  11.357  0.2263  0.0648  0.4283
    6TMC3    C314180   3.878   4.397  11.339 -0.3581 -0.2168  0.4789
    6TMC3    C414181   3.841   4.565  11.556  0.3839 -0.4611  0.9585
    6TMC3    C514182   3.959   4.509  11.533  0.2358 -1.6987  0.0461
    6TMC3    C614183   3.979   4.429  11.428  0.5177 -0.4891 -0.1357
    6TMC3     C14184   3.603   4.597  11.491  0.4532 -0.0575  0.0999
    6TMC3     O14185   3.515   4.585  11.402  0.3667  0.7934  0.1014
    6TMC3     H14186   3.676   4.446  11.282  1.3265  0.2274 -0.7320
    6TMC3    H114187   3.828   4.641  11.632  2.9395 -0.5608  1.4852
    6TMC3    H214188   4.078   4.391  11.403  1.1272  2.1114 -1.7069
    6TMC3    C714189   4.052   4.534  11.638 -0.1029 -0.8819 -0.0287
    6TMC3    C814190   3.903   4.346  11.209 -0.1992 -0.6003  0.2510
    6TMC3    O114191   4.028   4.613  11.734 -0.4589  0.1687  0.3908
    6TMC3    O214192   3.805   4.300  11.158 -0.4648  0.1076  0.3880
    7MPD2     C14193   4.703   4.280  12.539 -0.8857  0.5849  0.3272
    7MPD2    C114194   4.575   4.328  12.542 -0.0424 -0.8087 -0.3238
    7MPD2    C214195   4.471   4.256  12.604 -0.0223  0.2563 -0.2963
    7MPD2    C314196   4.490   4.137  12.669 -0.3869  0.2682  0.5404
    7MPD2    C414197   4.622   4.082  12.659 -0.5846 -0.4447 -0.1709
    7MPD2    C514198   4.725   4.156  12.612 -0.5003 -0.4232  0.2614
    7MPD2     H14199   4.374   4.301  12.586  0.1216  1.0929  1.0062
    7MPD2    H114200   4.636   3.991  12.717  1.6784 -1.4234 -2.2495
    7MPD2    H214201   0.059   4.342  12.507 -1.4886  2.0248  1.5946
    7MPD2    H314202   0.097   4.111  12.615 -0.3724 -0.2110 -1.1142
    7MPD2     N14203   4.383   4.054  12.727  0.6156  0.2895 -0.2634
    7MPD2    H514204   4.391   3.957  12.756  1.8016  0.1692 -1.0088
    7MPD2    N114205   4.532   4.445  12.476 -0.6487 -0.4148  0.2138
    7MPD2    H714206   4.443   4.488  12.501 -0.7791  0.8110 -2.4311
    8TMC3    C114207   4.529   4.647  12.368  0.0364  0.4420 -0.3076
    8TMC3    C214208   4.510   4.676  12.236  0.1586  0.0195 -0.2068
    8TMC3    C314209   4.381   4.709  12.206  0.2026 -0.7882 -0.2868
    8TMC3    C414210   4.440   4.685  12.467  0.7919 -0.6974  0.4714
    8TMC3    C514211   4.319   4.720  12.432 -0.0904  0.1329  0.1192
    8TMC3    C614212   4.292   0.013  12.302 -0.5287  0.0445 -0.1624
    8TMC3     C14213   4.606   4.529  12.398  0.2582  0.0452 -0.7933
    8TMC3     O14214   4.702   4.496  12.323 -0.2690 -0.1344  0.1018
    8TMC3     H14215   4.584   4.635  12.168 -0.0602 -0.9335  0.1278
    8TMC3    H114216   4.474   4.667  12.568  0.9086 -0.9163  0.3947
    8TMC3    H214217   4.186   0.010  12.279 -0.2892  0.1269 -1.2536
    8TMC3    C714218   4.228   4.641  12.504  0.4170 -0.3437  0.5368
    8TMC3    C814219   4.341   4.676  12.069  0.2229  0.3348  0.4252
    8TMC3    O114220   4.277   4.540  12.554 -0.0219  0.1356 -0.0818
    8TMC3    O214221   4.235   4.724  12.031  0.0702  0.0305  0.0335
    9MPD2     C14222   4.501   4.417  11.859 -0.2488  0.2179  0.9297
    9MPD2    C114223   4.397   4.502  11.898 -0.1877 -0.1486  0.0332
    9MPD2    C214224   4.286   4.517  11.816 -0.1448  0.5310  0.1358
    9MPD2    C314225   4.274   4.442  11.704 -0.0524 -0.2887  1.0718
    9MPD2    C414226   4.386   4.371  11.663 -0.5006  0.0281  0.3728
    9MPD2    C514227   4.484   4.344  11.752 -0.7155 -0.1536 -0.1478
    9MPD2     H14228   4.210   4.587  11.849  0.0069  1.3343 -1.2225
    9MPD2    H114229   4.383   4.316  11.570 -1.2286  2.8615 -1.2717
    9MPD2    H214230   4.590   4.395  11.916 -0.4995 -0.0709  1.2162
    9MPD2    H314231   4.563   4.276  11.724  1.1519  1.3465  1.4580
    9MPD2     N14232   4.166   4.464  11.612 -0.3141  0.5843  0.3673
    9MPD2    H514233   4.171   4.416  11.522 -3.3271 -1.9214  1.5530
    9MPD2    N114234   4.420   4.574  12.017  0.6033  0.2265  0.1249
    9MPD2    H714235   4.507   4.557  12.066 -0.7135 -1.9590  1.6652
    1MPD1     C14236   4.143   3.587  17.119  0.4943  0.0253  0.0955
    1MPD1    C114237   4.174   3.536  16.995 -0.8393 -0.4032  0.6263
    1MPD1    C214238   4.064   3.488  16.927  0.2561  0.0278  0.6744
    1MPD1    C314239   3.939   3.474  16.983  0.1912 -0.0344 -0.7535
    1MPD1    C414240   3.919   3.521  17.109  0.3681  0.0015 -0.3025
    1MPD1    C514241   4.021   3.585  17.174 -0.3866 -0.0664  0.2519
    1MPD1     H14242   4.081   3.451  16.826 -0.5238  0.1712  0.4921
    1MPD1    H114243   3.820   3.523  17.152 -0.5804 -0.6932 -2.4492
    1MPD1    H214244   4.226   3.634  17.170  1.1836 -2.1483  0.9674
    1MPD1    H314245   4.008   3.618  17.277  0.0754  0.1635  0.2360
    1MPD1     N14246   3.831   3.401  16.924  0.0999 -0.2124 -0.0466
    1MPD1    H514247   3.748   3.372  16.975 -0.6260  1.9446 -0.0362
    1MPD1    N114248   4.293   3.564  16.927 -0.1948 -0.3011  0.1016
    1MPD1    H614249   4.376   3.555  16.985  0.3338  0.2654 -0.5621
    1MPD1    H714250   4.313   3.490  16.859 -0.0072  0.6283 -0.8488
    2MPD1     C14251   3.127   3.768  16.242  0.0155  0.1740  0.0985
    2MPD1    C114252   3.060   3.697  16.340 -0.2172 -0.0977  0.2903
    2MPD1    C214253   3.133   3.617  16.431 -0.4974 -0.2060  0.5536
    2MPD1    C314254   3.270   3.614  16.417  0.0653 -0.1166 -0.2120
    2MPD1    C414255   3.337   3.673  16.310  0.9787  0.0846 -0.6192
    2MPD1    C514256   3.261   3.752  16.231 -0.5439  0.7441  0.2523
    2MPD1     H14257   3.085   3.564  16.513 -1.2350  2.4030  1.8126
    2MPD1    H114258   3.444   3.662  16.300  1.0759  0.6226 -0.1331
    2MPD1    H214259   3.086   3.834  16.167 -0.0800 -0.8823 -0.7932
    2MPD1    H314260   3.316   3.795  16.148 -0.2945 -0.4939 -0.2145
    2MPD1     N14261   3.345   3.543  16.519  0.1489 -0.1003 -0.1736
    2MPD1    H514262   3.294   3.529  16.606  2.3269  0.7733  1.2439
    2MPD1    N114263   2.920   3.691  16.343 -0.1028 -0.3613 -0.0736
    2MPD1    H614264   2.879   3.776  16.306 -0.2476 -0.5855 -0.4359
    2MPD1    H714265   2.875   3.664  16.430  2.2316 -1.2579  0.8558
    3TCq2    C114266   3.477   3.501  16.509 -0.6457  0.3080 -0.0494
    3TCq2    O214267   3.569   3.521  16.432 -0.1735  0.3241 -0.4961
    3TCq2    C214268   3.509   3.406  16.618 -0.0250 -0.5657 -0.2011
    3TCq2    C314269   3.413   3.364  16.711  0.0579 -0.8654 -0.0164
    3TCq2    C414270   3.460   3.319  16.830  0.4146 -0.9094 -0.3193
    3TCq2    C514271   3.591   3.297  16.855  0.5439 -0.3566  0.3622
    3TCq2    C614272   3.686   3.340  16.757 -0.3515 -0.0721  0.1945
    3TCq2    C714273   3.644   3.382  16.633 -1.1209 -0.1717 -0.3147
    3TCq2    C814274   3.815   3.385  16.789  0.8432  0.3677 -0.3006
    3TCq2    O414275   3.896   3.414  16.699  0.6963  0.0977 -0.3923
    3TCq2    C914276   3.370   3.262  16.929 -0.2858 -0.4472 -0.0581
    3TCq2    O514277   3.254   3.227  16.888  0.3022 -0.4303 -0.4515
    3TCq2    O614278   3.422   3.224  17.036  0.2860  0.3817  0.1763
    3TCq2    H214279   3.306   3.373  16.699  0.1326  0.8466  0.6119
    3TCq2    H314280   3.626   3.251  16.947 -0.6851  0.7694  1.3987
    3TCq2    H414281   3.718   3.410  16.560  0.3558  1.1361  1.6716
    1TCq1    O114282   1.482   2.282  12.472  0.1539  0.6413 -0.2430
    1TCq1    C114283   1.589   2.214  12.520 -0.4699 -0.4215 -0.3445
    1TCq1    O214284   1.671   2.148  12.460 -0.3561  0.4829  0.3999
    1TCq1    C214285   1.623   2.269  12.651 -0.3301  0.2201 -0.2353
    1TCq1    C314286   1.518   2.310  12.736 -0.3863 -0.1229  0.4520
    1TCq1    C414287   1.549   2.386  12.848  0.0910 -0.3651 -0.0534
    1TCq1    C514288   1.682   2.423  12.864 -0.6602  0.3850  0.2224
    1TCq1    C614289   1.784   2.372  12.783 -0.3724 -0.5133  0.1612
    1TCq1    C714290   1.760   2.284  12.679  0.0380 -0.3819  0.8516
    1TCq1    C814291   1.905   2.447  12.783  0.2231 -0.7877 -0.4067
    1TCq1    O414292   1.897   2.563  12.825  0.3984  0.2861 -0.8594
    1TCq1    C914293   1.451   2.420  12.950 -0.4479 -0.0656  0.5188
    1TCq1    O514294   1.365   2.329  12.971  0.2757  0.2567  0.2923
    1TCq1    O614295   1.490   2.506  13.035 -0.3818  0.3539  0.1513
    1TCq1    H114296   1.430   2.340  12.532 -1.6830  0.4727 -1.6567
    1TCq1    H214297   1.415   2.281  12.715  0.2283 -0.7953 -1.6326
    1TCq1    H314298   1.701   2.499  12.938 -1.4150  1.9956 -1.2426
    1TCq1    H414299   1.833   2.253  12.604 -0.7774 -2.2306  0.8417
    2MPD2     C14300   2.194   2.518  12.779 -0.9542 -0.3033  0.6186
    2MPD2    C114301   2.144   2.393  12.808  0.9332 -0.0065  0.2302
    2MPD2    C214302   2.224   2.302  12.864 -0.7511 -0.3676  0.0721
    2MPD2    C314303   2.354   2.334  12.899  0.3584  0.0470  0.1393
    2MPD2    C414304   2.401   2.457  12.870  0.2666  0.3714  0.8063
    2MPD2    C514305   2.323   2.555  12.810 -0.8012 -0.2389  0.5017
    2MPD2     H14306   2.181   2.205  12.889  1.7988 -1.4602  0.1973
    2MPD2    H114307   2.502   2.486  12.896  0.8606  0.8839 -2.0799
    2MPD2    H214308   2.137   2.599  12.736  0.8831  1.6228  1.8459
    2MPD2    H314309   2.354   2.657  12.790  2.3040 -1.2715  0.1878
    2MPD2     N14310   2.449   2.249  12.971 -0.9705 -0.4316 -0.0198
    2MPD2    H514311   2.542   2.288  12.979 -1.2218  0.0870  0.4291
    2MPD2    N114312   2.008   2.353  12.785  0.2543 -0.0184 -0.2741
    2MPD2    H714313   1.984   2.255  12.781 -0.8620  0.1664  2.2097
    3TCq1    O114314   2.633   1.708  12.913  0.5109  0.1966 -0.2685
    3TCq1    C114315   2.672   1.719  13.043 -0.0181 -0.3383 -0.0742
    3TCq1    O214316   2.763   1.662  13.102 -0.1159  0.5181  0.2414
    3TCq1    C214317   2.643   1.853  13.097  0.0521  0.8300  0.0716
    3TCq1    C314318   2.746   1.912  13.169  0.0160 -0.0390  0.1386
    3TCq1    C414319   2.729   2.046  13.190  0.0832  0.1616 -0.4020
    3TCq1    C514320   2.620   2.118  13.147 -0.2316 -0.2835  0.3628
    3TCq1    C614321   2.526   2.052  13.070 -0.5061 -0.6919  0.1196
    3TCq1    C714322   2.540   1.923  13.042 -0.5230  0.0577  0.6464
    3TCq1    C814323   2.418   2.121  12.999  0.0990 -0.4892 -0.0940
    3TCq1    O414324   2.323   2.052  12.970 -0.8604  0.3795 -0.6827
    3TCq1    C914325   2.835   2.117  13.251 -0.0548 -0.1469  0.7994
    3TCq1    O514326   2.794   2.221  13.308  0.4322  0.6246  0.7930
    3TCq1    O614327   2.948   2.064  13.262  0.4291 -0.2964 -0.0355
    3TCq1    H114328   2.587   1.789  12.881 -1.0907 -0.3429  0.6692
    3TCq1    H214329   2.834   1.863  13.209  1.7056  2.5053 -0.5063
    3TCq1    H314330   2.613   2.223  13.173  0.0801  0.4260 -2.4621
    3TCq1    H414331   2.468   1.872  12.978  0.1337 -2.7835  2.1479
    1MPD2     C14332   1.374   3.372  14.965  0.3937 -0.4013  0.2313
    1MPD2    C114333   1.374   3.240  14.987 -1.1525 -0.2048 -0.0923
    1MPD2    C214334   1.497   3.172  15.010 -0.1346 -0.2390 -0.2504
    1MPD2    C314335   1.617   3.242  15.006  0.1006 -0.2412  0.0188
    1MPD2    C414336   1.616   3.381  14.986  0.3878 -1.0878  0.0695
    1MPD2    C514337   1.497   3.438  14.961 -0.3927 -0.1729  0.1117
    1MPD2     H14338   1.497   3.064  15.018 -1.7377 -0.3056 -1.0807
    1MPD2    H114339   1.705   3.443  14.988  0.5378 -1.3147  0.3921
    1MPD2    H214340   1.282   3.425  14.943  1.2760  1.2072  0.4178
    1MPD2    H314341   1.498   3.540  14.922  3.7653 -0.5143 -0.6741
    1MPD2     N14342   1.734   3.167  15.023  0.2547 -0.5201 -0.2075
    1MPD2    H514343   1.728   3.066  15.029 -1.1418 -0.3455  1.3791
    1MPD2    N114344   1.254   3.173  14.981  0.2183  0.2241  0.0402
    1MPD2    H714345   1.176   3.217  14.934 -0.5295 -1.9389 -0.7666
    2TMC3    C114346   1.120   2.965  14.968  0.4871 -0.0321 -0.5216
    2TMC3    C214347   1.143   2.828  14.976  0.7192  0.6950  0.2946
    2TMC3    C314348   1.100   2.742  14.878 -0.1059  0.5787 -0.0868
    2TMC3    C414349   1.045   3.015  14.864  0.2085  0.4121 -0.1420
    2TMC3    C514350   0.995   2.924  14.768  0.1787  0.5087 -0.3470
    2TMC3    C614351   1.028   2.789  14.772 -0.0678  0.3929 -0.0336
    2TMC3     C14352   1.235   3.040  15.026 -0.6287  0.5282 -0.4576
    2TMC3     O14353   1.306   2.980  15.106  0.0701  0.6369  0.1704
    2TMC3     H14354   1.179   2.786  15.069  0.8756 -0.2377 -0.1864
    2TMC3    H114355   1.020   3.120  14.858 -2.9413 -0.2304  1.3515
    2TMC3    H214356   0.996   2.717  14.698  1.0543 -0.0170 -0.1191
    2TMC3    C714357   0.939   2.974  14.649 -0.0875  0.4778  0.0272
    2TMC3    C814358   1.195   2.643  14.831  0.2150 -0.9619  0.2297
    2TMC3    O114359   0.967   2.917  14.547  0.4731 -0.8556 -0.2603
    2TMC3    O214360   1.167   2.575  14.739  0.1152  0.3130 -0.1456
    3TCq1    O114361   0.272   4.011  14.402 -0.1328 -0.3426 -0.6945
    3TCq1    C114362   0.310   3.912  14.316 -0.2578  0.0636  0.0470
    3TCq1    O214363   0.230   3.848  14.249 -0.8157 -0.3226  0.2478
    3TCq1    C214364   0.425   3.861  14.382 -0.3150  0.7359  0.8579
    3TCq1    C314365   0.531   3.941  14.423 -0.2986  0.2092 -0.4812
    3TCq1    C414366   0.629   3.871  14.488  0.3039  0.1301  0.5077
    3TCq1    C514367   0.614   3.736  14.527  0.5562 -0.0964  0.8431
    3TCq1    C614368   0.508   3.668  14.477 -0.3525 -0.4839  0.4952
    3TCq1    C714369   0.405   3.732  14.415 -0.0764  0.2453 -0.3648
    3TCq1    C814370   0.519   3.526  14.449  0.1925  0.1294 -0.0816
    3TCq1    O414371   0.442   3.468  14.373  0.3853 -0.4622  0.1635
    3TCq1    C914372   0.763   3.933  14.501  0.5354 -0.1186  1.0599
    3TCq1    O514373   0.842   3.859  14.551 -0.1128 -0.0123  0.4710
    3TCq1    O614374   0.786   4.023  14.418 -0.6940  0.3826  0.2765
    3TCq1    H114375   0.349   4.032  14.458 -2.4947  0.4608  2.2223
    3TCq1    H214376   0.545   4.043  14.388 -1.1204  0.1367 -1.0242
    3TCq1    H314377   0.695   3.688  14.581 -0.1546 -2.3633 -0.0808
    3TCq1    H414378   0.318   3.673  14.391 -1.3819  1.5237  1.2883
    4MPD2     C14379   0.651   3.280  14.369  0.0185  0.5809 -0.2040
    4MPD2    C114380   0.653   3.332  14.500 -0.2883  0.4530  0.3216
    4MPD2    C214381   0.721   3.260  14.595  0.4633  0.7435 -0.7848
    4MPD2    C314382   0.783   3.135  14.568 -0.6394  0.3984 -0.2198
    4MPD2    C414383   0.773   3.082  14.433 -0.1596 -1.0777 -0.5309
    4MPD2    C514384   0.707   3.156  14.340 -0.2776 -0.0067  0.2141
    4MPD2     H14385   0.723   3.287  14.700 -1.8257  0.1719 -0.5866
    4MPD2    H114386   0.808   2.984  14.404  2.5420 -0.2812 -0.0662
    4MPD2    H214387   0.588   3.318  14.289 -2.0492 -1.3959  0.5083
    4MPD2    H314388   0.698   3.114  14.241  2.3580 -0.1119  0.0349
    4MPD2     N14389   0.860   3.080  14.669 -0.1551 -0.2619  0.1506
    4MPD2    H514390   0.847   3.126  14.758 -0.3145 -0.3457  0.1699
    4MPD2    N114391   0.606   3.461  14.529  0.3621  0.4441  0.1967
    4MPD2    H714392   0.637   3.513  14.611 -0.0448 -1.0329  1.2830
    5TMC2    C114393   1.941   2.885  15.021  0.3025  0.0847 -0.6195
    5TMC2    C214394   2.025   2.884  14.909  0.3493 -0.8681  0.2541
    5TMC2    C314395   2.078   3.002  14.868 -0.8955 -0.4141 -0.6801
    5TMC2    C414396   1.915   3.003  15.092 -0.3364 -0.3718  0.1502
    5TMC2    C514397   1.962   3.122  15.039  0.0585  0.2587 -0.9922
    5TMC2    C614398   2.043   3.126  14.925 -0.1990  0.7534 -0.0414
    5TMC2     C14399   1.809   2.816  15.010  0.0691  0.3534  0.1317
    5TMC2     O14400   1.722   2.892  15.057 -0.5347  0.2456  0.2334
    5TMC2     H14401   2.032   2.802  14.839 -0.4624 -1.0737  0.4133
    5TMC2    H114402   1.857   3.011  15.183  0.6078 -1.8561  0.8956
    5TMC2    H214403   2.075   3.221  14.883  2.8835  0.2672  1.2301
    5TMC2    C714404   1.858   3.220  15.022 -0.3894  0.5209  0.2448
    5TMC2    C814405   2.112   3.012  14.729  0.7019 -0.5051  0.3905
    5TMC2    O114406   1.898   3.332  14.992  0.2581  0.2165 -0.5562
    5TMC2    O214407   2.086   3.104  14.655  0.2519  0.1764 -0.1145
    5TMC2    O514408   2.224   2.935  14.717  0.0947  0.5878  0.2373
    5TMC2    H514409   2.249   2.882  14.796  0.5016  2.4867  1.3834
    6MPD2     C14410   1.471   2.558  14.743  0.6610 -0.6053  0.1264
    6MPD2    C114411   1.445   2.631  14.859 -0.7194 -0.4766  0.5529
    6MPD2    C214412   1.553   2.673  14.929 -1.1253  0.2146  0.0622
    6MPD2    C314413   1.683   2.649  14.882 -0.4943 -0.2864 -0.2760
    6MPD2    C414414   1.698   2.564  14.773  0.0495  0.4045 -0.1655
    6MPD2    C514415   1.598   2.516  14.710  0.1796 -0.3150  0.3271
    6MPD2     H14416   1.539   2.751  15.003 -0.5837  2.5376 -2.2907
    6MPD2    H114417   1.795   2.524  14.749 -0.5286 -0.0132 -1.8270
    6MPD2    H214418   1.400   2.521  14.670  1.3719 -2.5530  0.4299
    6MPD2    H314419   1.617   2.457  14.621 -2.3302 -0.8590  0.1432
    6MPD2     N14420   1.804   2.704  14.930  0.1762 -0.3873  0.3103
    6MPD2    H514421   1.885   2.667  14.880 -0.1125 -0.6814  0.0562
    6MPD2    N114422   1.314   2.671  14.893  0.4212 -0.1561 -0.6342
    6MPD2    H714423   1.306   2.739  14.968 -0.0013  0.6786 -1.4356
  945NH4     N114424   4.686   2.227   1.991 -0.3097  0.2341 -0.6407
  945NH4     H214425   0.001   2.176   2.071 -0.1307 -0.5803 -1.2420
  945NH4     H314426   4.590   2.260   2.015 -0.6416 -1.1644 -0.0202
  945NH4     H414427   4.685   2.169   1.904  1.2992 -1.0450  0.1969
  945NH4     H514428   0.021   2.309   1.973  1.7229 -1.3608 -0.9838
  946SOD     NA14429   4.423   2.625   1.274  0.0641  0.0687 -0.6651
  947SOD     NA14430   2.110   2.694   3.801  0.1741  0.3357  0.8854
  948SOD     NA14431   1.448   0.559  10.552  0.1722  0.2392 -0.2218
  949SOD     NA14432   3.014   1.840  17.013  0.1189  0.4701 -0.7765
  950SOD     NA14433   2.406   1.351   9.685 -0.3326 -0.3369  0.2815
  951SOD     NA14434   2.516   2.737  11.625 -0.0236  0.3329 -0.5262
  952SOD     NA14435   0.952   3.862  15.578 -0.5131 -0.1852 -0.2519
  953SOD     NA14436   2.796   1.801  12.656 -0.0539  0.4282  0.0777
  954SOD     NA14437   3.039   4.220  10.136  0.2708 -0.5343  0.7864
  955SOD     NA14438   3.774   0.340  10.746  0.1333  0.4864  0.0538
  956SOD     NA14439   0.107   1.302  12.536 -0.0087  0.0164 -0.2847
  957SOD     NA14440   3.198   0.278  12.332  0.2124 -0.1971  0.3376
  958SOD     NA14441   3.229   2.871  14.712  0.1549  0.1418 -0.4309
  959SOD     NA14442   3.143   2.491   0.332 -0.3207  0.3491 -0.1087
  960SOD     NA14443   2.929   2.717  14.652  0.1726 -0.2041 -0.0757
  961SOD     NA14444   1.637   3.157  12.038  0.1547  0.0324  0.1879
  962SOD     NA14445   4.505   3.462  12.410  0.0703 -0.5101  0.0313
  963SOD     NA14446   3.207   4.296  11.499  0.0151  0.9276  0.2489
  964SOD     NA14447   4.056   3.705  15.058 -0.4121  0.2261  0.2172
  965SOD     NA14448   1.582   3.549  10.175 -0.1269  0.2888 -0.6507
  966SOD     NA14449   2.489   0.345   2.564 -0.4916 -0.1179 -0.1699
  967SOD     NA14450   2.392   1.857   9.745  0.2769 -0.0936 -0.2052
  968SOD     NA14451   0.401   3.240  14.000 -0.1646 -0.2486 -0.7455
  969SOD     NA14452   3.178   2.548  14.732 -0.0208 -0.4746  0.5563
  970SOD     NA14453   1.576   0.230  10.149 -0.1528 -0.4622 -0.0857
  971SOD     NA14454   2.188   1.810  10.321 -0.0157  0.1732  0.2867
  972SOD     NA14455   0.151   1.655  13.607  0.2330  0.2160  0.3467
  973SOD     NA14456   4.176   1.663   0.081 -0.6917 -0.4609  0.1695
  974SOD     NA14457   2.319   2.757  10.310 -0.5016 -0.3912 -0.4123
  975SOD     NA14458   2.475   1.632   0.642  0.4180  0.2302 -0.1789
  976SOD     NA14459   1.515   2.447  13.243 -0.1637  0.0285  0.4353
  977SOD     NA14460   3.552   1.456   2.411 -0.1202 -0.0116  0.2734
  978SOD     NA14461   4.057   2.324  11.665 -0.5453  0.2206  0.1593
  979SOD     NA14462   2.554   3.665   8.630  0.0215  0.3196  0.7452
  980SOD     NA14463   4.036   1.484  15.545  0.1063  0.1739  0.6624
  981SOD     NA14464   4.683   3.024   0.796  0.8552 -0.5777  0.0286
  982SOD     NA14465   2.304   3.879  10.390 -0.0394  0.2814  0.0637
  983SOD     NA14466   2.116   3.533  15.318 -0.4310 -0.4607  0.5061
  984SOD     NA14467   1.170   0.459  10.694  0.2867 -0.4932 -0.2244
  985SOD     NA14468   2.635   1.838   9.966  0.8052  0.3761 -0.0975
  986SOD     NA14469   1.067   4.658  16.209  0.1137 -0.3133 -0.3551
  987SOD     NA14470   2.927   1.130  16.812  0.0226  0.1853 -0.1431
  988SOD     NA14471   2.859   3.284  15.260  0.1613 -0.4259  0.2126
  989SOD     NA14472   3.806   3.988   5.368  0.5254  0.1283 -0.4085
  990SOD     NA14473   4.320   0.076   8.728 -0.0001  0.5889 -0.4090
  991SOD     NA14474   2.937   1.460   5.692 -0.3627 -0.1663  0.2784
  992SOD     NA14475   3.265   1.040  14.509 -0.4452 -0.0844  0.3134
  993SOD     NA14476   1.171   3.311  14.307 -0.1307 -0.8570 -0.1165
  994SOD     NA14477   1.222   1.982  12.970  0.3987 -0.4705 -0.3544
  995SOD     NA14478   0.058   0.465   0.964 -0.1024 -0.4550 -0.3626
  996SOD     NA14479   3.165   2.191  13.249 -0.0079  0.6096  0.3978
  997SOD     NA14480   3.048   3.260  16.885  0.1594 -0.3560  0.4709
  998SOD     NA14481   2.691   2.428  11.503  0.3003 -0.1331  0.2028
  999SOD     NA14482   0.559   1.238  10.025  0.6483 -0.1745  0.1768
 1000SOD     NA14483   1.309   3.170  10.856  0.9680  0.2254 -0.2307
 1001SOD     NA14484   4.277   3.758  14.205 -0.5903 -0.2643 -0.1545
 1002SOD     NA14485   0.071   1.373   1.269 -0.4404 -0.4185  0.2690
 1003SOD     NA14486   0.756   2.204   9.549  0.0092  0.3661 -0.4614
 1004SOD     NA14487   3.581   3.357  14.387 -0.5138 -0.4824  0.2343
 1005SOD     NA14488   1.185   3.413   3.177 -0.1321 -0.0755 -0.5636
 1006SOD     NA14489   4.087   3.622   8.657 -0.4987  0.6433  0.1179
 1007SOD     NA14490   1.891   0.764   2.464  0.0981  0.0485  0.0828
 1008SOD     NA14491   1.071   3.379  11.096 -0.0971 -0.4487  0.1638
 1009SOD     NA14492   3.882   3.354  10.881 -0.4833 -0.0374 -0.6833
 1010SOD     NA14493   0.899   2.452   3.146 -0.0809  0.2547  0.3872
 1011SOL     OW14494   4.060   0.778   3.295 -0.5898 -0.5931  0.6698
 1011SOL    HW114495   4.075   0.686   3.272  1.0807 -0.4631  1.2577
 1011SOL    HW214496   4.017   0.805   3.214 -2.1419 -0.1509  1.6429
 1012SOL     OW14497   4.533   1.174   2.728  0.5228 -0.4774 -0.3344
 1012SOL    HW114498   4.598   1.176   2.658  0.8650  0.8957  0.0197
 1012SOL    HW214499   4.462   1.129   2.682 -0.0021 -0.8594  0.8470
 1013SOL     OW14500   2.877   0.237   5.089  0.1502 -0.1127  0.0420
 1013SOL    HW114501   2.902   0.204   5.175  2.8524 -0.7063 -0.9915
 1013SOL    HW214502   2.791   0.277   5.107  0.9401  2.0758 -0.9918
 1014SOL     OW14503   2.689   1.788   7.135 -0.3551  0.0534  0.3680
 1014SOL    HW114504   2.770   1.762   7.093 -1.7288  1.9480 -3.4903
 1014SOL    HW214505   2.632   1.726   7.090 -1.2435 -0.7651  2.5830
 1015SOL     OW14506   0.922   0.259  10.380  0.1043 -0.0973 -0.4996
 1015SOL    HW114507   0.991   0.210  10.424 -2.8758 -3.5620  0.3703
 1015SOL    HW214508   0.968   0.306  10.310  1.9477  0.0494  0.8261
 1016SOL     OW14509   4.592   0.360   0.567  0.2032  0.5936  0.9054
 1016SOL    HW114510   4.523   0.316   0.616 -0.6287  0.4973 -0.3249
 1016SOL    HW214511   4.595   0.447   0.606  0.3165  0.6018  0.8777
 1017SOL     OW14512   2.944   3.598  17.518 -0.1062 -0.3821  0.1296
 1017SOL    HW114513   2.970   3.573  17.430 -0.8318  1.4453 -0.5883
 1017SOL    HW214514   2.856   3.562  17.525  0.3615 -1.1408  2.2681
 1018SOL     OW14515   0.438   1.858   9.009 -0.0300 -0.3157  0.1990
 1018SOL    HW114516   0.420   1.894   8.923  0.4443 -0.2109  0.1442
 1018SOL    HW214517   0.380   1.908   9.067 -1.5827 -1.0302 -0.7536
 1019SOL     OW14518   0.761   2.930  16.664  0.0453  0.5216  0.0911
 1019SOL    HW114519   0.795   3.020  16.668 -0.5536  0.7599 -0.1594
 1019SOL    HW214520   0.670   2.956  16.653 -0.0933 -0.2869 -0.6224
 1020SOL     OW14521   2.836   2.812   6.209 -0.0484 -0.4971 -0.0026
 1020SOL    HW114522   2.775   2.851   6.271  2.0459 -0.2387  1.8781
 1020SOL    HW214523   2.875   2.740   6.259 -0.0152 -0.3737  0.1476
 1021SOL     OW14524   0.051   4.706   4.272 -0.6218 -0.8855  0.1406
 1021SOL    HW114525   0.082   4.685   4.184 -0.0290  1.3565 -0.1642
 1021SOL    HW214526   4.718   0.054   4.258  0.9047  0.1022 -1.0004
 1022SOL     OW14527   2.744   4.580   7.324 -0.2323  0.0536 -0.5182
 1022SOL    HW114528   2.677   4.634   7.284  0.7960  1.4262 -0.4111
 1022SOL    HW214529   2.817   4.642   7.315 -0.0955 -0.4817 -2.9708
 1023SOL     OW14530   0.034   1.311  16.949 -0.0140 -0.0542 -0.1919
 1023SOL    HW114531   0.082   1.230  16.964 -0.7852 -0.2663  1.1573
 1023SOL    HW214532   4.678   1.276  16.913  0.3120  1.2933 -2.2503
 1024SOL     OW14533   2.782   4.176   3.599  0.2842 -0.2126  0.7428
 1024SOL    HW114534   2.850   4.176   3.531  1.7760 -2.4624  2.2370
 1024SOL    HW214535   2.827   4.233   3.662 -0.3720  1.1847 -0.0619
 1025SOL     OW14536   2.174   1.157   1.244  0.2505 -0.2249 -0.0626
 1025SOL    HW114537   2.105   1.218   1.272  0.8229  0.6183 -0.4712
 1025SOL    HW214538   2.188   1.175   1.151  0.0452 -0.3081 -0.1106
 1026SOL     OW14539   1.514   4.427   1.871 -0.0192  0.6639 -0.7458
 1026SOL    HW114540   1.534   4.406   1.780  0.2751  1.3450 -0.8383
 1026SOL    HW214541   1.530   4.520   1.884  1.5169  0.0341  1.9536
 1027SOL     OW14542   0.019   1.176   5.932 -0.1272  0.1533 -0.0717
 1027SOL    HW114543   4.701   1.156   6.014 -1.3219  3.3131  0.0931
 1027SOL    HW214544   0.112   1.166   5.949  0.0224  0.2392 -0.8322
 1028SOL     OW14545   1.049   4.622   7.462 -0.1035  0.3054  0.6898
 1028SOL    HW114546   1.091   4.705   7.439 -0.0097 -0.2013 -1.0158
 1028SOL    HW214547   1.073   4.622   7.554  0.7728  3.0983  0.4607
 1029SOL     OW14548   4.640   1.137   6.184 -0.2661  0.2703 -0.0555
 1029SOL    HW114549   4.554   1.174   6.164  0.6518  3.1767  1.4006
 1029SOL    HW214550   4.621   1.044   6.173 -0.9489  0.2607  1.1328
 1030SOL     OW14551   4.487   3.734   9.892  0.1961 -0.4759  0.0911
 1030SOL    HW114552   4.448   3.713   9.977  0.1918 -0.9069 -0.0178
 1030SOL    HW214553   4.514   3.822   9.918 -1.7025  0.1944 -0.2210
 1031SOL     OW14554   1.983   1.307  11.492  0.0350  0.7643  0.1182
 1031SOL    HW114555   2.056   1.274  11.544  0.1295  2.8243  1.2860
 1031SOL    HW214556   1.992   1.402  11.500 -0.0011  0.8298 -0.6217
 1032SOL     OW14557   2.408   1.477  13.312  0.3524 -0.1923  0.1813
 1032SOL    HW114558   2.463   1.422  13.256 -0.0512  0.1176 -0.5146
 1032SOL    HW214559   2.328   1.501  13.265  1.2765  2.4525  0.0147
 1033SOL     OW14560   3.127   1.137  14.217 -0.0836 -0.1471  0.3959
 1033SOL    HW114561   3.210   1.110  14.257 -0.7716  0.5836  2.3326
 1033SOL    HW214562   3.069   1.106  14.287  2.4845 -3.4227  1.1037
 1034SOL     OW14563   2.866   3.027   2.716 -1.0028  0.0054  0.0948
 1034SOL    HW114564   2.908   2.958   2.767  2.5902  0.6121 -2.0401
 1034SOL    HW214565   2.865   3.097   2.781 -1.0010 -0.6481  0.7932
 1035SOL     OW14566   3.046   1.338   1.914 -0.2883 -0.1271  0.5207
 1035SOL    HW114567   3.102   1.353   1.837 -0.6544  0.5533  0.3828
 1035SOL    HW214568   3.078   1.254   1.947  0.1800 -0.2431 -0.2152
 1036SOL     OW14569   3.953   1.264   5.033 -0.6027  0.2627 -0.2643
 1036SOL    HW114570   3.926   1.268   4.941 -2.9961 -0.5466  0.3840
 1036SOL    HW214571   4.033   1.317   5.037  0.0080 -0.6239 -0.8624
 1037SOL     OW14572   4.504   2.190   7.993  0.1233 -0.1155 -0.1558
 1037SOL    HW114573   4.567   2.237   7.939  1.3391 -0.9007  0.5790
 1037SOL    HW214574   4.566   2.167   8.061  2.1315  1.4391 -1.4449
 1038SOL     OW14575   0.945   0.730   9.152  0.6299  0.0296 -0.5351
 1038SOL    HW114576   0.954   0.778   9.070 -1.0730  0.6898 -0.3277
 1038SOL    HW214577   0.867   0.770   9.190  0.3288 -1.9416  0.9381
 1039SOL     OW14578   1.557   0.020   7.378 -0.3856  0.3588 -0.0642
 1039SOL    HW114579   1.491   0.014   7.308 -1.7796  1.4363  1.1736
 1039SOL    HW214580   1.593   0.108   7.371  0.3048  0.2129  1.8870
 1040SOL     OW14581   1.340   0.112  10.503 -0.5857  0.5106 -0.2583
 1040SOL    HW114582   1.272   0.047  10.483  0.7044 -0.8335 -0.2879
 1040SOL    HW214583   1.307   0.153  10.583 -1.4934 -0.0697 -0.3339
 1041SOL     OW14584   1.196   0.893  10.676  0.5490  0.4521 -1.1453
 1041SOL    HW114585   1.183   0.949  10.600  0.0812  1.6469 -0.1814
 1041SOL    HW214586   1.224   0.960  10.738  0.7145  1.2878 -2.1279
 1042SOL     OW14587   0.420   1.469   3.261 -0.1174 -0.1186 -0.0388
 1042SOL    HW114588   0.412   1.553   3.217  1.7468  0.6244  1.0597
 1042SOL    HW214589   0.411   1.496   3.353 -2.4177 -0.0850 -0.2564
 1043SOL     OW14590   4.417   1.644  10.289 -0.4224  0.4025  0.3028
 1043SOL    HW114591   4.337   1.678  10.330 -1.3523  0.5074 -1.5582
 1043SOL    HW214592   4.403   1.673  10.199 -2.1293 -1.5898 -0.0814
 1044SOL     OW14593   3.264   0.020   3.904  0.4569  0.2967  0.6826
 1044SOL    HW114594   3.267   4.678   3.837 -1.5080  0.6057  0.2869
 1044SOL    HW214595   3.270   4.700   3.989 -0.2367 -2.0017 -0.5152
 1045SOL     OW14596   4.719   3.712   2.196  0.1385  0.2825  0.4735
 1045SOL    HW114597   4.668   3.790   2.217 -0.1816 -0.7234  3.4585
 1045SOL    HW214598   0.014   3.727   2.103  3.3716 -0.7462  1.0344
 1046SOL     OW14599   3.106   2.098   1.200 -0.3593  0.0355 -0.4987
 1046SOL    HW114600   3.078   2.018   1.155 -2.4704  0.4833  0.0142
 1046SOL    HW214601   3.193   2.101   1.159 -1.0513  1.3378 -1.9003
 1047SOL     OW14602   0.951   1.837   3.881 -0.6604  0.6971 -0.0912
 1047SOL    HW114603   0.939   1.907   3.817  2.2111  0.2354 -1.1410
 1047SOL    HW214604   0.973   1.884   3.962 -0.8942  2.1943 -0.9006
 1048SOL     OW14605   4.679   3.169   8.766 -0.1600 -0.0483  0.6285
 1048SOL    HW114606   4.668   3.080   8.734  0.9518  0.2591 -0.5815
 1048SOL    HW214607   4.658   3.221   8.689  0.1823 -1.0228 -0.1211
 1049SOL     OW14608   4.127   1.658   5.865 -0.4358 -0.0523  0.0528
 1049SOL    HW114609   4.201   1.719   5.858 -0.5350  0.0182 -0.3535
 1049SOL    HW214610   4.089   1.696   5.944 -2.2373 -0.2938 -0.6892
 1050SOL     OW14611   0.623   0.085   3.347 -0.0087 -0.5742  0.1897
 1050SOL    HW114612   0.638   0.011   3.289  0.7252 -0.6993  0.5501
 1050SOL    HW214613   0.644   0.148   3.277  0.4541 -1.0595 -0.1083
 1051SOL     OW14614   1.888   3.787  16.812  0.1424 -0.4690  0.0058
 1051SOL    HW114615   1.843   3.780  16.728  0.9626 -0.6967 -0.4253
 1051SOL    HW214616   1.828   3.747  16.875 -2.1807  0.3499 -1.7151
 1052SOL     OW14617   0.553   0.048   5.939 -0.3828  0.2158 -0.0142
 1052SOL    HW114618   0.597   0.012   6.016 -0.5225  2.0195  0.9072
 1052SOL    HW214619   0.585   4.723   5.865 -1.9216  1.9220 -1.8542
 1053SOL     OW14620   2.684   3.094   5.138  0.1200  0.2423  0.1491
 1053SOL    HW114621   2.733   3.026   5.091 -0.7922  1.1072 -2.0458
 1053SOL    HW214622   2.733   3.079   5.219  0.9456  1.3834 -0.1432
 1054SOL     OW14623   1.468   3.481   6.711 -0.3281 -0.6704  0.7392
 1054SOL    HW114624   1.505   3.394   6.722  1.5799  0.0643  0.1421
 1054SOL    HW214625   1.433   3.498   6.798 -0.1632  0.3474  0.6137
 1055SOL     OW14626   4.549   2.235   4.403  0.0046 -0.2529  0.0414
 1055SOL    HW114627   4.588   2.152   4.430  0.1909 -0.0962  0.2549
 1055SOL    HW214628   4.614   2.300   4.429 -1.1353  0.9783 -0.1631
 1056SOL     OW14629   2.396   0.612   7.533  0.0092  0.0354  0.1834
 1056SOL    HW114630   2.418   0.605   7.626  0.1839 -2.8897 -0.0679
 1056SOL    HW214631   2.454   0.685   7.514 -0.2692  0.2790  0.2623
 1057SOL     OW14632   3.283   2.297   4.106  0.5940 -0.0594 -0.4434
 1057SOL    HW114633   3.367   2.317   4.065  0.2161 -0.8381 -1.5891
 1057SOL    HW214634   3.241   2.242   4.040 -3.0589 -0.8461  2.5719
 1058SOL     OW14635   4.603   0.881   8.759 -0.4730 -0.0087  0.3077
 1058SOL    HW114636   4.593   0.866   8.853 -3.1431 -0.3203 -0.0306
 1058SOL    HW214637   4.694   0.857   8.743 -0.8971 -1.4464  0.0288
 1059SOL     OW14638   4.545   3.614   5.339 -0.2563 -0.2109 -0.1538
 1059SOL    HW114639   4.527   3.522   5.324  0.5643 -0.2834 -0.7075
 1059SOL    HW214640   4.598   3.611   5.419 -1.6477  1.9443  0.8594
 1060SOL     OW14641   3.589   1.735   5.307 -0.4333  0.1517  0.4558
 1060SOL    HW114642   3.644   1.664   5.339  0.0924  1.0866  1.6313
 1060SOL    HW214643   3.555   1.694   5.227 -0.2176 -2.0949  1.5410
 1061SOL     OW14644   1.048   3.817   6.455 -0.3380 -0.3231 -0.5848
 1061SOL    HW114645   1.074   3.797   6.545 -3.6837 -1.5982  0.0929
 1061SOL    HW214646   1.027   3.911   6.462  1.0882 -0.2165  2.2346
 1062SOL     OW14647   2.332   3.029   2.148  0.0854 -0.1733 -0.3648
 1062SOL    HW114648   2.256   3.089   2.150  0.8986  0.8012  2.1157
 1062SOL    HW214649   2.402   3.074   2.195 -0.3307  0.6922 -0.5604
 1063SOL     OW14650   4.571   4.061  15.500 -0.1783 -0.1292  0.5522
 1063SOL    HW114651   4.654   4.106  15.516 -0.8420  0.9445  0.9585
 1063SOL    HW214652   4.565   4.013  15.582 -0.6627  0.4962  0.8723
 1064SOL     OW14653   0.796   0.848   3.366  0.2846  0.4464 -0.5103
 1064SOL    HW114654   0.872   0.794   3.347  1.2789  0.8945  2.3088
 1064SOL    HW214655   0.841   0.930   3.351  2.2993 -0.7376 -0.9508
 1065SOL     OW14656   2.955   4.301   9.073 -0.2795  0.3350  0.3917
 1065SOL    HW114657   2.923   4.294   8.984 -0.8634 -0.7126  0.6802
 1065SOL    HW214658   2.944   4.214   9.111  0.2107 -0.8387 -2.1935
 1066SOL     OW14659   2.990   4.090   5.933  0.3976  0.3214 -0.1295
 1066SOL    HW114660   3.021   4.162   5.988 -0.3796  0.7411 -0.2390
 1066SOL    HW214661   3.027   4.101   5.846 -1.1047  2.6892 -0.4495
 1067SOL     OW14662   4.413   3.640  12.491  0.0592  0.3293 -0.2936
 1067SOL    HW114663   4.390   3.715  12.436 -2.2354 -1.7935 -2.1826
 1067SOL    HW214664   4.418   3.686  12.575 -1.9914 -0.0492  0.0289
 1068SOL     OW14665   1.883   3.535  15.496 -0.0842 -0.8966 -0.4089
 1068SOL    HW114666   1.953   3.580  15.544 -1.1390  0.1718  0.1243
 1068SOL    HW214667   1.847   3.483  15.569 -0.2441 -3.3441 -2.2328
 1069SOL     OW14668   4.416   2.622   0.759 -0.2342 -0.0303 -0.1938
 1069SOL    HW114669   4.334   2.606   0.712  0.8047 -0.8953 -1.7099
 1069SOL    HW214670   4.475   2.560   0.717  1.9835  1.2881  0.9661
 1070SOL     OW14671   3.964   4.599   4.905  0.0978  0.0361 -0.2422
 1070SOL    HW114672   4.013   4.576   4.984  1.5887  0.6409 -0.9919
 1070SOL    HW214673   3.922   4.682   4.926  1.6845  0.1101  2.6531
 1071SOL     OW14674   4.524   4.542   6.451 -0.3442 -0.2858  0.3036
 1071SOL    HW114675   4.532   4.635   6.429  0.2146 -0.7470 -1.4462
 1071SOL    HW214676   4.594   4.510   6.394 -0.9181  1.7731 -1.5742
 1072SOL     OW14677   4.196   0.664  16.584  0.4330  0.9529  0.1316
 1072SOL    HW114678   4.141   0.657  16.662  1.6041 -1.3981  0.7562
 1072SOL    HW214679   4.281   0.687  16.621 -0.0209  0.8202  1.2504
 1073SOL     OW14680   1.844   2.480   6.095  0.1453  0.3263  0.1538
 1073SOL    HW114681   1.888   2.441   6.019 -0.5440 -0.0276 -0.0742
 1073SOL    HW214682   1.924   2.511   6.137 -0.6415  0.9057  1.2154
 1074SOL     OW14683   1.567   0.270   9.726 -0.5608  0.5261 -0.1026
 1074SOL    HW114684   1.510   0.204   9.764 -1.0705  2.8039  3.0918
 1074SOL    HW214685   1.505   0.322   9.674 -0.3092  0.4739 -0.4574
 1075SOL     OW14686   0.105   3.624  13.487  0.3340  0.2402 -0.5734
 1075SOL    HW114687   0.184   3.585  13.525 -0.9300 -0.2125  1.6277
 1075SOL    HW214688   0.138   3.697  13.434  0.5790 -0.2088 -1.0389
 1076SOL     OW14689   1.456   1.117  15.971 -0.1214 -0.2991  0.6909
 1076SOL    HW114690   1.380   1.058  15.973  0.5201 -1.0832  2.4337
 1076SOL    HW214691   1.418   1.203  15.988 -0.2393 -0.3471  0.6706
 1077SOL     OW14692   1.942   3.729  11.450 -0.0225 -0.0133 -0.5264
 1077SOL    HW114693   1.933   3.699  11.541  0.4804 -2.1268 -1.1685
 1077SOL    HW214694   1.968   3.819  11.467 -0.4771 -0.0717  0.4950
 1078SOL     OW14695   3.881   2.572   1.411 -0.6681 -1.0961 -0.0220
 1078SOL    HW114696   3.956   2.627   1.434 -0.0966 -0.5435 -3.1242
 1078SOL    HW214697   3.806   2.629   1.428  0.6995  0.3933  1.0343
 1079SOL     OW14698   2.869   4.394  17.222 -0.0479  0.1111 -0.8589
 1079SOL    HW114699   2.852   4.383  17.129 -1.2962 -1.0344 -0.4975
 1079SOL    HW214700   2.958   4.358  17.232 -0.6389 -0.9101  0.8302
 1080SOL     OW14701   0.675   2.375   5.680  0.4006  0.4489  0.2383
 1080SOL    HW114702   0.651   2.303   5.739 -0.7116 -0.1290 -0.9168
 1080SOL    HW214703   0.647   2.450   5.732  2.1569  1.6885 -0.5944
 1081SOL     OW14704   2.176   3.159   5.503  0.7131  0.6097  0.5406
 1081SOL    HW114705   2.101   3.217   5.519 -1.4296 -1.7298 -0.9517
 1081SOL    HW214706   2.167   3.089   5.567 -1.8197 -1.3376 -1.9578
 1082SOL     OW14707   0.681   0.802   9.205 -0.5215  0.3477  0.4958
 1082SOL    HW114708   0.679   0.801   9.301 -0.2943 -2.5775  0.4720
 1082SOL    HW214709   0.640   0.886   9.186  0.2034  0.2130 -1.5912
 1083SOL     OW14710   3.517   3.942   4.387 -0.3094 -0.3167  0.2779
 1083SOL    HW114711   3.483   3.853   4.376 -4.5270  1.5548 -1.6028
 1083SOL    HW214712   3.605   3.938   4.349 -1.3613  0.8374 -2.2676
 1084SOL     OW14713   1.040   0.946   4.642 -0.5200 -0.0021  0.2605
 1084SOL    HW114714   1.098   1.006   4.689  2.1566 -1.1130 -1.6307
 1084SOL    HW214715   1.105   0.880   4.618  1.0444  0.4534  3.2988
 1085SOL     OW14716   4.144   1.848   0.200  0.3556  0.0699  0.2933
 1085SOL    HW114717   4.104   1.930   0.229  1.6347  0.3356  1.3334
 1085SOL    HW214718   4.219   1.843   0.259  0.7265  1.6707 -0.0300
 1086SOL     OW14719   4.516   1.412   3.206  0.1212 -0.1181 -0.0509
 1086SOL    HW114720   4.590   1.400   3.147 -1.6628  1.7444 -2.6419
 1086SOL    HW214721   4.561   1.432   3.288  0.0348 -1.0593  0.2284
 1087SOL     OW14722   0.738   3.322   3.678  1.0952 -0.1582  0.1794
 1087SOL    HW114723   0.793   3.277   3.614  0.7358 -0.1928 -0.1080
 1087SOL    HW214724   0.765   3.284   3.762 -0.9868 -3.4855 -0.6248
 1088SOL     OW14725   3.226   0.219   9.183 -0.3642  0.5979  0.1297
 1088SOL    HW114726   3.257   0.132   9.208  1.5237  1.0480 -0.6117
 1088SOL    HW214727   3.151   0.222   9.242 -1.2016 -1.0598 -0.8309
 1089SOL     OW14728   2.662   0.375   8.427 -0.3785  0.0346 -0.1838
 1089SOL    HW114729   2.748   0.340   8.404  0.9746  1.6840  2.2537
 1089SOL    HW214730   2.641   0.432   8.353 -0.5253  0.6653  0.3344
 1090SOL     OW14731   3.168   2.430   5.516  0.0576 -0.4471 -0.0634
 1090SOL    HW114732   3.158   2.348   5.564 -0.6336 -0.3500 -0.0361
 1090SOL    HW214733   3.092   2.481   5.545  0.6199  1.4440 -1.9331
 1091SOL     OW14734   3.937   0.889   4.119  0.5162 -0.5638 -0.1875
 1091SOL    HW114735   3.959   0.937   4.039  0.5974  0.9850  0.7693
 1091SOL    HW214736   3.871   0.949   4.151  1.6864  1.2303 -1.1428
 1092SOL     OW14737   3.222   1.317   1.675 -0.3136  0.6038  0.3326
 1092SOL    HW114738   3.171   1.268   1.611  0.1353 -0.1936  0.5830
 1092SOL    HW214739   3.298   1.344   1.624 -1.5755 -1.7162 -2.7622
 1093SOL     OW14740   3.854   3.895   7.187  0.0443 -0.0145 -0.1412
 1093SOL    HW114741   3.759   3.889   7.198  0.1615 -1.2275  0.2647
 1093SOL    HW214742   3.877   3.804   7.210  0.8468  0.7184  1.9646
 1094SOL     OW14743   1.560   1.957   4.361 -0.1624  0.3290 -0.2381
 1094SOL    HW114744   1.620   1.883   4.347  0.1751  0.9358 -1.9638
 1094SOL    HW214745   1.475   1.915   4.370 -0.5365  0.8879 -1.1946
 1095SOL     OW14746   0.204   2.256   9.489 -0.3418  0.2495 -0.3400
 1095SOL    HW114747   0.268   2.303   9.543 -2.6364  0.9888  1.6948
 1095SOL    HW214748   0.267   2.186   9.469  1.6245  2.1221 -0.7352
 1096SOL     OW14749   4.717   0.586   4.408 -0.0526 -0.7070 -0.3219
 1096SOL    HW114750   4.651   0.517   4.399  2.1598 -2.7045 -1.2432
 1096SOL    HW214751   0.008   0.582   4.502  0.3223 -1.5226 -0.4209
 1097SOL     OW14752   0.632   3.700  12.274 -0.0506  0.3166 -0.5069
 1097SOL    HW114753   0.728   3.699  12.269  0.0514  1.5096  1.1568
 1097SOL    HW214754   0.622   3.686  12.368 -2.0441  2.0231 -0.4775
 1098SOL     OW14755   1.382   0.023   7.151  0.0020  0.1917  0.3564
 1098SOL    HW114756   1.292   0.048   7.134  0.5586  1.6252 -0.4763
 1098SOL    HW214757   1.404   0.000   7.061  2.2600 -1.8448  1.4205
 1099SOL     OW14758   0.851   4.464  15.301  0.3995 -0.5382 -0.5687
 1099SOL    HW114759   0.772   4.510  15.328  0.1749  0.2962 -2.6543
 1099SOL    HW214760   0.823   4.372  15.293  1.4221 -0.8180 -0.9342
 1100SOL     OW14761   1.628   1.001   5.178  0.3296 -0.7504  0.5970
 1100SOL    HW114762   1.604   1.080   5.131  1.3863 -1.4294 -1.0807
 1100SOL    HW214763   1.656   0.942   5.107  1.0591  1.0771 -0.6281
 1101SOL     OW14764   2.655   4.617  17.507 -0.1930  0.0514  0.0960
 1101SOL    HW114765   2.612   4.553  17.451 -1.6812  2.0620 -1.0675
 1101SOL    HW214766   2.735   4.635  17.457  0.8841  0.8210  2.1037
 1102SOL     OW14767   3.088   0.347   4.948  0.9423 -0.0129  0.1441
 1102SOL    HW114768   3.046   0.287   5.009 -0.4671  1.0739  0.2436
 1102SOL    HW214769   3.036   0.428   4.948 -1.0326 -1.3014 -1.6594
 1103SOL     OW14770   3.706   1.062   2.742 -0.1990  0.6492  0.2224
 1103SOL    HW114771   3.763   1.011   2.800 -0.8977  0.6193  0.8834
 1103SOL    HW214772   3.680   1.126   2.808 -0.2279  0.9290 -0.0599
 1104SOL     OW14773   1.312   3.776   6.035  0.5877 -0.1676 -0.2190
 1104SOL    HW114774   1.375   3.842   6.063  1.0630 -1.3792  1.5528
 1104SOL    HW214775   1.267   3.748   6.115 -0.1467 -2.5678 -1.4688
 1105SOL     OW14776   2.813   1.423   2.086  0.3493  0.0406 -0.0207
 1105SOL    HW114777   2.853   1.487   2.144 -1.3278  1.5130 -0.4559
 1105SOL    HW214778   2.855   1.442   2.002  2.6388 -1.0049  0.9029
 1106SOL     OW14779   1.257   2.134   4.336  0.2269 -0.0491  0.0189
 1106SOL    HW114780   1.308   2.191   4.393  2.3842 -2.0749  0.1350
 1106SOL    HW214781   1.294   2.053   4.373 -1.0967  0.3204  2.1811
 1107SOL     OW14782   2.268   0.616  13.577  0.6165  0.1789 -0.1844
 1107SOL    HW114783   2.273   0.523  13.556  0.1458  0.0555  0.2598
 1107SOL    HW214784   2.192   0.654  13.532  1.3650  0.4281 -1.2291
 1108SOL     OW14785   0.525   2.453   4.248 -0.2997 -0.0343  0.7417
 1108SOL    HW114786   0.556   2.363   4.239  1.2275  0.5667  0.0405
 1108SOL    HW214787   0.432   2.441   4.267  0.0537 -1.9553  1.3115
 1109SOL     OW14788   2.236   2.186  15.228  0.0086 -0.0137  0.0403
 1109SOL    HW114789   2.163   2.182  15.289 -2.1510  0.8621 -2.4739
 1109SOL    HW214790   2.315   2.171  15.279  0.1756 -0.7817 -0.4394
 1110SOL     OW14791   4.709   0.952   2.316  0.2349  0.9172 -0.4750
 1110SOL    HW114792   0.031   0.900   2.252  2.4070  0.1798  1.7808
 1110SOL    HW214793   4.618   0.939   2.286  0.0294 -2.2508  1.5921
 1111SOL     OW14794   0.935   4.565   9.397 -0.1169  0.5901 -0.3114
 1111SOL    HW114795   0.911   4.610   9.479  2.7201 -0.4304  1.0659
 1111SOL    HW214796   1.019   4.605   9.378 -0.3008  1.1754  0.1040
 1112SOL     OW14797   0.231   3.339   8.486  0.3007  0.2843  0.2099
 1112SOL    HW114798   0.263   3.251   8.506 -1.1981 -0.7320 -1.8457
 1112SOL    HW214799   0.272   3.397   8.551  1.0592  0.2205 -0.2112
 1113SOL     OW14800   3.030   2.693   7.559  0.3861 -0.4175  0.9973
 1113SOL    HW114801   2.960   2.758   7.548 -1.8815 -3.0579 -0.3203
 1113SOL    HW214802   3.102   2.748   7.587  1.8893 -1.2493 -1.2803
 1114SOL     OW14803   1.680   4.312   4.209  0.2724  0.0535 -0.4136
 1114SOL    HW114804   1.640   4.325   4.123  0.7088  1.9982 -0.3084
 1114SOL    HW214805   1.678   4.398   4.250 -2.3486 -1.1884  2.0397
 1115SOL     OW14806   0.162   4.664   4.028  0.6481 -0.2372  0.1448
 1115SOL    HW114807   0.091   4.693   3.970  2.0329  3.3124  0.2626
 1115SOL    HW214808   0.234   4.696   3.975 -1.0868 -1.2921 -2.8820
 1116SOL     OW14809   1.851   2.445   8.534  0.5977  0.1602  0.4309
 1116SOL    HW114810   1.928   2.389   8.524 -1.0720 -1.8303 -1.3984
 1116SOL    HW214811   1.793   2.381   8.575  1.4339  0.9364  2.7967
 1117SOL     OW14812   1.458   3.585   4.338 -0.2866 -0.6023 -0.1431
 1117SOL    HW114813   1.428   3.635   4.414  3.0972 -0.8376  1.3177
 1117SOL    HW214814   1.442   3.644   4.264  2.3649  1.1519  0.6759
 1118SOL     OW14815   0.114   3.495   1.483  0.3219  0.6114 -0.3291
 1118SOL    HW114816   0.156   3.438   1.547 -1.2221  0.1223  0.2457
 1118SOL    HW214817   0.046   3.438   1.449 -0.1032  0.1144  1.3214
 1119SOL     OW14818   2.592   1.200   2.798  0.1907 -0.0619 -0.0147
 1119SOL    HW114819   2.604   1.295   2.793  1.4891 -0.2188  0.1978
 1119SOL    HW214820   2.538   1.184   2.721 -2.3461  0.7768  1.5951
 1120SOL     OW14821   4.360   3.747   0.342 -0.4598 -0.2040  0.0876
 1120SOL    HW114822   4.282   3.790   0.307  0.3939  0.9094 -0.4384
 1120SOL    HW214823   4.415   3.778   0.270 -0.9421 -1.4319 -0.7988
 1121SOL     OW14824   1.170   2.182  12.908 -0.1001  0.4198  0.3864
 1121SOL    HW114825   1.148   2.213  12.820 -1.1418 -0.3973  0.3580
 1121SOL    HW214826   1.253   2.226  12.923 -0.4801  2.0254 -2.1405
 1122SOL     OW14827   4.361   1.107  16.986  0.1523  0.9628 -0.9051
 1122SOL    HW114828   4.402   1.022  16.974  1.9498  1.6371  0.4329
 1122SOL    HW214829   4.272   1.083  17.012  0.3595  0.1093 -0.9899
 1123SOL     OW14830   2.358   3.477   5.658  0.4093  0.1950 -0.4231
 1123SOL    HW114831   2.267   3.451   5.645  0.3850 -0.9764  2.1024
 1123SOL    HW214832   2.402   3.420   5.594  0.8905  1.1456 -0.9323
 1124SOL     OW14833   2.570   1.965  10.770  0.0271  0.1784 -0.9157
 1124SOL    HW114834   2.659   1.940  10.796 -0.5678 -0.6303  0.3826
 1124SOL    HW214835   2.584   2.056  10.745  2.1261 -0.1362 -0.9060
 1125SOL     OW14836   2.685   1.173   2.284  0.2054 -0.4755  0.3128
 1125SOL    HW114837   2.630   1.223   2.344  1.0186  1.9530 -0.9729
 1125SOL    HW214838   2.747   1.237   2.250  1.1179 -1.3480  0.3293
 1126SOL     OW14839   3.172   4.031   7.507 -0.4280 -0.1799 -0.8781
 1126SOL    HW114840   3.082   4.042   7.479 -0.7028 -2.4778 -0.9296
 1126SOL    HW214841   3.164   4.022   7.602  1.2634 -1.3074 -0.8240
 1127SOL     OW14842   0.387   0.609   8.065  0.0396  0.1840 -0.2003
 1127SOL    HW114843   0.302   0.570   8.046 -0.1376  0.2902  0.3854
 1127SOL    HW214844   0.376   0.615   8.160 -0.0677 -0.6629 -0.1638
 1128SOL     OW14845   2.115   4.630   5.621  0.1642 -0.7893  0.1308
 1128SOL    HW114846   2.033   4.673   5.644  0.0898 -0.6470 -0.3934
 1128SOL    HW214847   2.106   4.610   5.528  1.4439 -2.0121  0.2687
 1129SOL     OW14848   3.008   4.662   5.001  0.5798 -0.0091  0.1677
 1129SOL    HW114849   3.007   4.594   4.934 -2.4604 -0.6886  0.8744
 1129SOL    HW214850   2.945   4.624   5.062  0.7365 -1.3669 -0.5062
 1130SOL     OW14851   3.452   2.610   3.746  0.3377 -0.1095 -0.3613
 1130SOL    HW114852   3.368   2.592   3.789 -0.1186  1.0206 -0.7786
 1130SOL    HW214853   3.502   2.541   3.789 -0.5755  1.0321  2.5150
 1131SOL     OW14854   1.199   0.341  12.109 -0.1942 -0.0137  0.0322
 1131SOL    HW114855   1.110   0.347  12.075 -0.0429  0.4569 -0.2850
 1131SOL    HW214856   1.246   0.375  12.033  0.4148 -0.1509  0.3450
 1132SOL     OW14857   4.307   1.559   8.083  0.5635  0.4935 -0.2106
 1132SOL    HW114858   4.399   1.573   8.103  0.4219 -0.4951  1.1592
 1132SOL    HW214859   4.312   1.497   8.010  2.5428  0.9547 -0.4653
 1133SOL     OW14860   2.323   1.094  13.774  0.3716  0.3103 -0.3344
 1133SOL    HW114861   2.251   1.044  13.736 -0.2196  1.2614 -0.4409
 1133SOL    HW214862   2.320   1.057  13.862  0.5904 -1.0484 -0.8964
 1134SOL     OW14863   3.657   3.101   5.739 -0.0466 -0.3602 -0.5383
 1134SOL    HW114864   3.583   3.162   5.742 -0.2413 -0.4284 -4.7328
 1134SOL    HW214865   3.635   3.047   5.814 -2.0751 -0.2551 -1.0642
 1135SOL     OW14866   2.836   3.927   8.486  0.3440 -0.1745  0.2873
 1135SOL    HW114867   2.922   3.912   8.446 -2.2355 -2.0961 -4.4786
 1135SOL    HW214868   2.782   3.909   8.410  1.7091 -1.0065 -0.4827
 1136SOL     OW14869   1.747   0.850   8.364 -0.0187 -0.4876  0.0619
 1136SOL    HW114870   1.665   0.883   8.401 -0.4971 -2.5572  0.8481
 1136SOL    HW214871   1.758   0.916   8.295 -0.4846 -0.3959  0.0707
 1137SOL     OW14872   0.654   3.782   5.811 -0.2195  0.1889  0.5292
 1137SOL    HW114873   0.654   3.804   5.905 -1.4676  2.6509 -0.0344
 1137SOL    HW214874   0.712   3.706   5.812  0.0929  0.4165 -0.5307
 1138SOL     OW14875   0.603   1.198  12.079 -0.6284  0.1287  0.3249
 1138SOL    HW114876   0.630   1.120  12.129 -0.6170 -1.8617 -2.7875
 1138SOL    HW214877   0.646   1.180  11.995 -1.4871 -1.3629  0.2059
 1139SOL     OW14878   3.837   2.080   9.767 -0.0977  0.0288  0.7946
 1139SOL    HW114879   3.910   2.135   9.738  1.9661 -2.1918  1.7622
 1139SOL    HW214880   3.897   2.014   9.801 -0.0964  0.9815  2.6209
 1140SOL     OW14881   1.155   3.203   3.106  0.1450 -0.4529  0.2493
 1140SOL    HW114882   1.240   3.166   3.080  0.3110 -0.3708  0.6740
 1140SOL    HW214883   1.096   3.136   3.072  0.2968 -0.6499  0.3682
 1141SOL     OW14884   0.460   0.407   3.578  0.1582  0.1007 -0.6750
 1141SOL    HW114885   0.521   0.337   3.599  0.4711  0.7731  0.6818
 1141SOL    HW214886   0.533   0.467   3.571 -0.7306  1.6197  2.7608
 1142SOL     OW14887   0.521   1.428   6.484 -0.0259 -0.1410  0.0978
 1142SOL    HW114888   0.520   1.359   6.550  2.0847  0.0180  0.3153
 1142SOL    HW214889   0.540   1.497   6.548 -2.1586 -2.1429  2.8578
 1143SOL     OW14890   4.391   2.871   6.092  0.3364  0.4786  0.0699
 1143SOL    HW114891   4.312   2.821   6.074  0.1445  1.3138 -1.4631
 1143SOL    HW214892   4.385   2.951   6.038 -1.3060  0.1429 -0.2179
 1144SOL     OW14893   4.267   3.737   8.724 -0.4414 -0.4070  0.7659
 1144SOL    HW114894   4.360   3.720   8.707 -0.6063  0.3974 -1.0455
 1144SOL    HW214895   4.277   3.797   8.798  0.4790  0.5304 -0.1113
 1145SOL     OW14896   2.298   0.188   6.075 -0.4499  0.3343 -0.3217
 1145SOL    HW114897   2.358   0.230   6.014 -0.4311 -0.0428 -0.5627
 1145SOL    HW214898   2.274   0.112   6.021  0.0178  0.2739 -0.4464
 1146SOL     OW14899   4.042   3.702   4.116  0.1187  0.1816  0.4060
 1146SOL    HW114900   4.072   3.639   4.182  0.6386 -0.3059 -0.2962
 1146SOL    HW214901   4.112   3.709   4.051 -0.6118 -0.4394 -0.4578
 1147SOL     OW14902   3.893   0.991   2.408 -0.5561 -0.1284 -0.1041
 1147SOL    HW114903   3.836   0.917   2.389 -0.0380 -0.5435 -0.0178
 1147SOL    HW214904   3.970   0.943   2.438  0.2382  0.7367 -0.7301
 1148SOL     OW14905   4.259   3.953   6.364  0.2304 -0.2882 -0.1557
 1148SOL    HW114906   4.226   4.042   6.369  1.0495  0.0618 -1.0496
 1148SOL    HW214907   4.331   3.955   6.427  0.6950  2.4218 -0.7900
 1149SOL     OW14908   4.015   1.072   3.899  0.1543  0.0862 -0.8053
 1149SOL    HW114909   4.069   1.091   3.822  0.5093  0.1416 -0.5427
 1149SOL    HW214910   4.082   1.067   3.967 -0.7706  0.6414  0.1388
 1150SOL     OW14911   4.227   2.943   6.828 -0.1496  0.2335  0.2193
 1150SOL    HW114912   4.216   3.022   6.775  1.5217  0.0649 -0.3787
 1150SOL    HW214913   4.250   2.882   6.759  0.5910 -0.5893  1.1982
 1151SOL     OW14914   1.958   1.789  13.934  0.4138 -0.1849  0.6457
 1151SOL    HW114915   1.910   1.707  13.919 -2.0419  1.7362 -1.8558
 1151SOL    HW214916   2.043   1.767  13.895  0.0542  0.9913 -0.7680
 1152SOL     OW14917   1.905   1.915   8.665  0.5015 -0.0637 -0.7015
 1152SOL    HW114918   1.833   1.944   8.609  0.0881 -1.8044 -1.0611
 1152SOL    HW214919   1.920   1.826   8.632  0.5478 -0.1666 -0.4066
 1153SOL     OW14920   3.298   0.361   2.380 -0.2991  0.0560  0.4369
 1153SOL    HW114921   3.206   0.385   2.388 -0.3395  0.7675 -2.2495
 1153SOL    HW214922   3.339   0.414   2.448  1.8609 -1.8637  0.6415
 1154SOL     OW14923   4.106   3.395   1.250  0.0757  0.0988 -0.2947
 1154SOL    HW114924   4.124   3.467   1.190  0.5834  0.7373  0.6078
 1154SOL    HW214925   4.016   3.419   1.271 -1.0294 -0.3014 -4.5439
 1155SOL     OW14926   0.322   1.556   6.248 -0.5016  0.0791 -0.0737
 1155SOL    HW114927   0.302   1.482   6.307  0.5149  1.1865  1.6628
 1155SOL    HW214928   0.258   1.625   6.268 -1.7284 -0.0418 -3.5716
 1156SOL     OW14929   2.574   4.305   3.679 -0.1879  0.1345 -0.0473
 1156SOL    HW114930   2.573   4.384   3.624  0.5153 -0.0159 -0.2769
 1156SOL    HW214931   2.653   4.262   3.646  0.3008  1.8632 -1.1287
 1157SOL     OW14932   1.831   2.318   9.196  0.0926  0.1378  0.2486
 1157SOL    HW114933   1.881   2.391   9.233  0.6082  0.3391 -0.8486
 1157SOL    HW214934   1.889   2.246   9.220 -1.2969 -1.1237 -0.1773
 1158SOL     OW14935   0.849   2.012  17.253  0.4851  0.1131  0.0586
 1158SOL    HW114936   0.816   1.989  17.339  0.0545 -0.2290 -0.1988
 1158SOL    HW214937   0.875   1.924  17.227 -2.0619  0.0654 -2.3399
 1159SOL     OW14938   1.880   2.837   7.112 -0.4171 -0.0082 -0.4073
 1159SOL    HW114939   1.876   2.778   7.187 -2.2941 -0.5754 -0.9460
 1159SOL    HW214940   1.856   2.782   7.038  0.3909 -1.4530  0.4144
 1160SOL     OW14941   0.067   1.002   0.961 -0.2889  0.2488 -0.2644
 1160SOL    HW114942   0.078   0.988   1.055 -0.7627  2.0584  0.0791
 1160SOL    HW214943   4.703   1.035   0.957 -0.9917 -1.6385  0.0296
 1161SOL     OW14944   0.099   1.884   7.794 -0.2701  1.1297  0.1108
 1161SOL    HW114945   0.153   1.898   7.872  0.8228  1.6918 -0.7652
 1161SOL    HW214946   0.103   1.970   7.753  2.4017  1.3392  0.8549
 1162SOL     OW14947   1.688   1.167  12.247  0.2448  0.3868  0.1502
 1162SOL    HW114948   1.710   1.076  12.229 -1.4701  0.1789 -0.9382
 1162SOL    HW214949   1.607   1.182  12.198 -0.9576  0.1934  2.0835
 1163SOL     OW14950   4.208   0.440  14.771 -0.4364  0.7398 -0.0709
 1163SOL    HW114951   4.258   0.502  14.718 -1.5112  0.0712 -1.8761
 1163SOL    HW214952   4.208   0.502  14.843 -0.3626 -0.5878  1.0698
 1164SOL     OW14953   0.295   3.540   4.178  0.3876  0.0496 -0.6892
 1164SOL    HW114954   0.265   3.501   4.096  2.0975 -1.8426 -0.4216
 1164SOL    HW214955   0.388   3.517   4.175  0.2096 -1.0954  2.7730
 1165SOL     OW14956   1.428   4.298   8.842 -0.6632  0.0248 -0.1347
 1165SOL    HW114957   1.365   4.257   8.901 -0.9324  1.0628  0.2936
 1165SOL    HW214958   1.423   4.381   8.890  0.4144 -1.6711  2.8853
 1166SOL     OW14959   4.379   2.586  12.060 -0.2040 -0.0002  0.3647
 1166SOL    HW114960   4.435   2.661  12.039  1.3655 -2.4205 -4.0959
 1166SOL    HW214961   4.394   2.518  11.995 -1.1990 -1.0395  1.2200
 1167SOL     OW14962   4.260   3.260   0.931 -0.7669 -0.2664  0.1944
 1167SOL    HW114963   4.257   3.233   1.023 -0.5967 -0.0833  0.2545
 1167SOL    HW214964   4.300   3.347   0.941  0.6913 -0.7314 -1.4954
 1168SOL     OW14965   2.497   2.695   5.057  0.1012 -0.1064 -0.3333
 1168SOL    HW114966   2.570   2.753   5.036  1.6309 -1.3717  1.5094
 1168SOL    HW214967   2.431   2.715   4.991  0.4353  2.4900  0.1056
 1169SOL     OW14968   4.601   2.489   0.573  0.1205  0.1707 -0.0317
 1169SOL    HW114969   4.581   2.449   0.489 -0.7163 -0.7108  0.5783
 1169SOL    HW214970   4.619   2.413   0.629  1.1936  0.1245 -0.4515
 1170SOL     OW14971   2.340   2.149  16.222 -0.0515 -0.1328 -0.0568
 1170SOL    HW114972   2.302   2.235  16.207  0.1332 -0.1660 -0.7323
 1170SOL    HW214973   2.430   2.179  16.219 -0.5377  1.5292  2.5019
 1171SOL     OW14974   4.228   2.741  16.572  0.3082 -0.3952 -0.2410
 1171SOL    HW114975   4.141   2.703  16.583  1.3777 -2.4948  0.8596
 1171SOL    HW214976   4.244   2.742  16.477 -0.3073  0.9493 -0.3341
 1172SOL     OW14977   1.364   1.843   7.356 -0.3794 -0.2948  0.3750
 1172SOL    HW114978   1.321   1.780   7.298 -0.3671  1.1081 -1.1642
 1172SOL    HW214979   1.393   1.901   7.285  1.4966 -0.5052  0.9900
 1173SOL     OW14980   2.138   0.846   6.949  0.1378  0.1445  0.4491
 1173SOL    HW114981   2.216   0.863   7.003 -0.0942  0.9021  0.5566
 1173SOL    HW214982   2.155   0.754   6.930  0.1925  0.3118 -0.2953
 1174SOL     OW14983   1.730   4.094  12.677  0.7739  0.2032  0.1505
 1174SOL    HW114984   1.761   4.088  12.767  1.2272 -0.9170 -0.0830
 1174SOL    HW214985   1.803   4.127  12.623  0.1263 -0.3966 -1.0905
 1175SOL     OW14986   0.584   0.295   5.169  0.3279 -0.3604 -0.6576
 1175SOL    HW114987   0.654   0.265   5.227 -0.7458  0.2108  0.9338
 1175SOL    HW214988   0.516   0.230   5.183 -0.5615  0.0471 -3.0102
 1176SOL     OW14989   0.986   1.739   3.184  0.3619 -0.0794  0.1715
 1176SOL    HW114990   1.074   1.741   3.148  0.4939 -0.2507  0.4835
 1176SOL    HW214991   0.934   1.696   3.117  2.1609 -1.2562 -0.4417
 1177SOL     OW14992   4.275   0.345   7.386 -1.2037 -0.0066 -0.5676
 1177SOL    HW114993   4.251   0.252   7.386 -5.4132  1.0722 -0.9325
 1177SOL    HW214994   4.274   0.358   7.291 -1.4631  0.3034 -0.5194
 1178SOL     OW14995   2.540   0.261   1.701 -0.0536  0.4288  0.1955
 1178SOL    HW114996   2.588   0.178   1.699 -1.8944 -0.5498 -2.1334
 1178SOL    HW214997   2.454   0.218   1.696  0.2715  0.0094 -1.6950
 1179SOL     OW14998   2.898   0.093   2.177  0.5906 -0.8131  0.3288
 1179SOL    HW114999   2.847   0.173   2.189  1.1311 -0.2785 -0.9295
 1179SOL    HW215000   2.906   0.097   2.081  1.0914  0.1678  0.4091
 1180SOL     OW15001   0.170   1.546   6.582  0.0403 -0.0177  0.7366
 1180SOL    HW115002   0.143   1.550   6.674 -0.9439 -0.5646  0.4744
 1180SOL    HW215003   0.176   1.451   6.566 -4.5935 -0.4375  1.6935
 1181SOL     OW15004   1.948   4.326   3.270 -0.0589 -0.3015  0.0780
 1181SOL    HW115005   1.969   4.413   3.304 -2.4008  0.0232  0.7020
 1181SOL    HW215006   1.918   4.287   3.352 -0.6373 -3.1892 -1.5067
 1182SOL     OW15007   4.277   4.001   8.860  0.4368  0.1996  0.0290
 1182SOL    HW115008   4.355   3.978   8.911 -0.0909  0.0388  0.7576
 1182SOL    HW215009   4.305   3.994   8.768  0.2979  2.4774 -0.2092
 1183SOL     OW15010   0.123   4.706  10.344  0.3761  0.1879 -0.4880
 1183SOL    HW115011   0.071   0.052  10.379  0.8259  0.1998  0.1629
 1183SOL    HW215012   0.198   4.701  10.403  1.4373  2.1694 -1.6669
 1184SOL     OW15013   1.572   3.015  11.867 -0.1276  0.4452  0.6986
 1184SOL    HW115014   1.629   2.997  11.792 -2.6214 -0.7742 -0.9176
 1184SOL    HW215015   1.545   2.928  11.895  1.2669  0.1181  1.0065
 1185SOL     OW15016   2.459   0.591   5.392 -0.5195 -0.1898  0.9618
 1185SOL    HW115017   2.376   0.579   5.439 -1.0601 -1.9493 -0.4346
 1185SOL    HW215018   2.490   0.502   5.373  0.2120  0.3181 -0.2322
 1186SOL     OW15019   1.615   2.087  17.042  0.1578  0.3964  0.2357
 1186SOL    HW115020   1.709   2.092  17.062  0.9715 -2.2947 -2.8062
 1186SOL    HW215021   1.588   2.175  17.068 -0.8587 -0.1468  0.9916
 1187SOL     OW15022   4.537   1.545  16.994 -0.3705 -0.1115  0.0592
 1187SOL    HW115023   4.596   1.470  16.982  2.6404  1.9058  2.4107
 1187SOL    HW215024   4.471   1.528  16.927  1.1865 -0.0582 -1.4791
 1188SOL     OW15025   4.063   3.474  10.956  0.2881  0.1320 -0.1794
 1188SOL    HW115026   4.056   3.570  10.959 -0.4099  0.1089 -0.8648
 1188SOL    HW215027   4.114   3.469  11.036 -1.1542  1.8766  0.8618
 1189SOL     OW15028   4.635   1.958   5.152  0.1277  0.2375 -0.3669
 1189SOL    HW115029   4.658   2.047   5.179 -1.8543  0.2340  1.3364
 1189SOL    HW215030   4.617   1.919   5.238 -0.2698 -2.0111 -1.4699
 1190SOL     OW15031   4.157   1.788   7.721 -0.2137 -0.3865  0.3752
 1190SOL    HW115032   4.242   1.744   7.729  0.7356  1.3878  0.0147
 1190SOL    HW215033   4.183   1.860   7.779  1.4611 -0.2315 -0.5538
 1191SOL     OW15034   0.202   3.466   4.916  0.4243  0.1247 -0.1178
 1191SOL    HW115035   0.293   3.465   4.948  0.3861  0.7787  0.0267
 1191SOL    HW215036   0.180   3.558   4.932  1.1535  0.3425 -0.3734
 1192SOL     OW15037   1.059   4.694   0.298 -0.3773  0.1337 -0.2358
 1192SOL    HW115038   1.060   4.633   0.224 -0.5292  1.2291 -1.1428
 1192SOL    HW215039   1.108   4.646   0.365  0.7426 -0.4686 -1.4772
 1193SOL     OW15040   2.374   3.357   2.410 -0.7009 -0.4919 -0.1139
 1193SOL    HW115041   2.349   3.409   2.334 -0.8767 -1.5757 -0.7979
 1193SOL    HW215042   2.429   3.299   2.357  1.1675 -1.4405  2.8531
 1194SOL     OW15043   2.111   4.638  10.005  0.1835  0.3959 -0.1861
 1194SOL    HW115044   2.155   4.554  10.019 -1.4933 -0.4686 -0.1362
 1194SOL    HW215045   2.067   4.644  10.090 -1.3579 -1.4504 -0.8725
 1195SOL     OW15046   1.635   3.964   2.879 -0.1078 -0.2632  0.0347
 1195SOL    HW115047   1.642   3.984   2.786  2.2843 -0.5131  0.1751
 1195SOL    HW215048   1.540   3.961   2.894 -0.0225  0.4815  0.7178
 1196SOL     OW15049   3.671   3.940   6.853  0.3289  0.1381 -0.9482
 1196SOL    HW115050   3.646   3.848   6.853 -0.9883  0.4979  0.4507
 1196SOL    HW215051   3.585   3.980   6.841  0.2286  0.2936  0.2914
 1197SOL     OW15052   2.347   4.072   1.619 -0.6139  0.6317  0.0840
 1197SOL    HW115053   2.274   4.103   1.673 -0.6497  1.0608 -0.2143
 1197SOL    HW215054   2.319   4.091   1.530 -3.3282  2.7648  1.4099
 1198SOL     OW15055   2.180   0.877   4.363 -0.0308  0.4349  0.0879
 1198SOL    HW115056   2.207   0.953   4.310  2.6384 -0.4828  0.1259
 1198SOL    HW215057   2.116   0.925   4.415 -0.9046 -0.0386 -0.5489
 1199SOL     OW15058   4.502   3.096  12.731  0.0313  0.7256 -0.5037
 1199SOL    HW115059   4.556   3.143  12.795 -0.4397 -1.4384  1.5083
 1199SOL    HW215060   4.422   3.079  12.780  0.3119 -0.7748 -0.5743
 1200SOL     OW15061   3.394   0.815   3.296 -0.1230 -0.5022 -0.2217
 1200SOL    HW115062   3.371   0.746   3.234 -2.9406 -1.1035  1.5183
 1200SOL    HW215063   3.485   0.834   3.272 -0.4870  0.4987 -0.7946
 1201SOL     OW15064   0.681   2.043   8.847  0.4219 -0.2589 -0.5991
 1201SOL    HW115065   0.685   2.116   8.909  2.8528 -1.2204  0.3856
 1201SOL    HW215066   0.648   1.972   8.902 -2.4222 -2.5596 -5.2591
 1202SOL     OW15067   0.248   1.284   9.487  0.3852  0.2604 -0.3047
 1202SOL    HW115068   0.313   1.268   9.554  1.2473 -1.7850 -1.6370
 1202SOL    HW215069   0.197   1.203   9.490  0.7513  0.0332 -0.3401
 1203SOL     OW15070   0.205   1.270   2.451 -0.3416 -0.2186 -0.6958
 1203SOL    HW115071   0.235   1.201   2.392 -2.9349  1.0305 -3.4596
 1203SOL    HW215072   0.109   1.268   2.444 -0.3497  0.9977 -0.8076
 1204SOL     OW15073   0.811   0.190   6.413  0.7807 -0.7616  0.5410
 1204SOL    HW115074   0.886   0.224   6.363  1.1173 -0.0676  1.5183
 1204SOL    HW215075   0.737   0.228   6.366  0.2757  0.3681  2.2443
 1205SOL     OW15076   0.695   1.423  12.241 -0.3885  0.0300 -0.0249
 1205SOL    HW115077   0.680   1.353  12.177 -1.5368 -0.6590  0.9984
 1205SOL    HW215078   0.779   1.463  12.218  0.6228 -1.9583  0.2086
 1206SOL     OW15079   1.552   0.829   8.733  0.0294  0.2133  0.4644
 1206SOL    HW115080   1.588   0.889   8.798 -0.7256  1.2281 -0.0636
 1206SOL    HW215081   1.469   0.871   8.709  0.3711  1.4414  1.4448
 1207SOL     OW15082   3.953   3.536   6.157 -0.2539 -0.5440  0.3371
 1207SOL    HW115083   3.902   3.456   6.165  1.8168 -1.9670 -0.5864
 1207SOL    HW215084   3.995   3.519   6.072 -0.7888  2.1709 -0.4812
 1208SOL     OW15085   4.665   2.948   2.017  0.8524  0.1671 -0.3460
 1208SOL    HW115086   4.614   3.014   2.063  1.0124  0.0423  0.0108
 1208SOL    HW215087   4.668   2.986   1.930 -1.7383 -2.8155 -1.7475
 1209SOL     OW15088   1.095   0.441   4.673 -0.3633 -0.1271 -0.1630
 1209SOL    HW115089   1.026   0.376   4.660 -1.1011  1.2691 -3.0210
 1209SOL    HW215090   1.035   0.514   4.685  0.1005  0.2414 -0.0915
 1210SOL     OW15091   0.930   2.452   8.319 -0.3795 -0.2586  0.3002
 1210SOL    HW115092   0.916   2.399   8.398  0.4879  1.2133  1.4344
 1210SOL    HW215093   0.853   2.508   8.326 -1.5696 -1.8476  0.0176
 1211SOL     OW15094   1.001   2.003   8.751 -0.2534 -0.4501 -0.1353
 1211SOL    HW115095   1.034   2.093   8.755 -1.6050  0.0258  0.1413
 1211SOL    HW215096   0.914   2.014   8.790  0.7204  0.4915  1.7972
 1212SOL     OW15097   0.157   1.149   9.061  0.3971  0.0382  0.1044
 1212SOL    HW115098   0.244   1.168   9.098  1.0802 -2.0278 -0.4759
 1212SOL    HW215099   0.128   1.240   9.050 -2.2755 -1.1172 -2.3812
 1213SOL     OW15100   3.264   3.591   4.907 -0.3758 -0.1683 -0.3901
 1213SOL    HW115101   3.340   3.639   4.940  0.4766 -1.7355 -0.0438
 1213SOL    HW215102   3.263   3.510   4.958  2.3639  0.8158  1.2683
 1214SOL     OW15103   0.213   0.362  16.638 -0.0710  0.3564 -0.5791
 1214SOL    HW115104   0.256   0.374  16.553 -1.1787  3.6878 -0.6924
 1214SOL    HW215105   0.223   0.267  16.637 -1.3243  0.2488 -2.3356
 1215SOL     OW15106   4.485   2.866   6.371 -0.2143 -0.1657  0.0050
 1215SOL    HW115107   4.457   2.869   6.279 -0.0427 -0.2186 -0.0498
 1215SOL    HW215108   4.507   2.773   6.376  1.6842  0.2111 -1.0224
 1216SOL     OW15109   1.779   4.056   7.639  0.2290 -0.0931  0.2022
 1216SOL    HW115110   1.776   4.079   7.547  0.2277 -0.8382  0.0177
 1216SOL    HW215111   1.848   4.112   7.674 -0.1525 -0.4046  1.4703
 1217SOL     OW15112   1.721   3.455   4.587  0.4651  0.6174 -0.4318
 1217SOL    HW115113   1.716   3.481   4.679  1.7351  2.6960 -0.9334
 1217SOL    HW215114   1.672   3.374   4.595  1.2580  0.0901 -0.9082
 1218SOL     OW15115   3.723   2.956  13.681  0.2812 -0.1291  0.3108
 1218SOL    HW115116   3.642   3.006  13.674  0.1833 -0.8174 -3.6588
 1218SOL    HW215117   3.790   3.023  13.698  0.6195 -0.3274 -0.2204
 1219SOL     OW15118   2.846   1.818   9.888  0.0159 -0.7146 -1.2672
 1219SOL    HW115119   2.907   1.890   9.878  2.9522 -3.0577 -0.1484
 1219SOL    HW215120   2.898   1.744   9.856  1.8856 -0.4431  1.1386
 1220SOL     OW15121   1.312   0.149  11.903 -0.1242 -0.3495  1.0608
 1220SOL    HW115122   1.330   0.115  11.815 -0.0866 -2.3407  1.8342
 1220SOL    HW215123   1.384   0.210  11.920 -0.9295  0.1556  2.6133
 1221SOL     OW15124   4.184   2.126   3.619  0.3445 -0.1712  0.5377
 1221SOL    HW115125   4.211   2.046   3.664 -0.9333 -0.7699  0.2437
 1221SOL    HW215126   4.136   2.099   3.541  0.0250 -0.1559  0.7299
 1222SOL     OW15127   2.368   4.461   4.589  0.4970 -0.5416 -0.1535
 1222SOL    HW115128   2.353   4.533   4.650  0.8930 -0.7476  0.1816
 1222SOL    HW215129   2.326   4.393   4.642 -2.8446  1.1764 -0.5600
 1223SOL     OW15130   1.894   1.367  10.211  0.3538  0.0470 -0.0723
 1223SOL    HW115131   1.827   1.313  10.251 -0.1109  0.1471 -0.7046
 1223SOL    HW215132   1.845   1.398  10.134 -1.6633 -1.8696  0.4548
 1224SOL     OW15133   2.182   2.197   3.522 -0.7076 -0.0244  0.6992
 1224SOL    HW115134   2.144   2.187   3.435  0.6143 -1.6681  0.3374
 1224SOL    HW215135   2.105   2.226   3.572 -0.9656  1.1767 -0.3796
 1225SOL     OW15136   3.913   1.221   5.951  0.3945  0.4402 -0.3279
 1225SOL    HW115137   3.921   1.141   5.900  0.5085  0.1030  0.2244
 1225SOL    HW215138   3.966   1.289   5.908  1.4749  0.6708  1.3667
 1226SOL     OW15139   2.065   1.545   7.202  0.1057  0.1120 -0.1407
 1226SOL    HW115140   2.032   1.625   7.241 -0.1931  1.5561 -3.4076
 1226SOL    HW215141   2.157   1.556   7.225  0.5929  1.0741 -2.5947
 1227SOL     OW15142   3.761   3.295   8.269 -0.3228  0.1725 -0.0350
 1227SOL    HW115143   3.763   3.205   8.300 -1.9277  0.3400  0.5799
 1227SOL    HW215144   3.856   3.299   8.264 -0.3960  2.7130  0.4431
 1228SOL     OW15145   1.054   0.050  13.790  0.1857  0.6569  0.6598
 1228SOL    HW115146   1.136   0.031  13.835 -1.0565  0.0657  2.6553
 1228SOL    HW215147   1.060   4.715  13.717  0.6357 -0.2602  1.4743
 1229SOL     OW15148   1.175   3.695   6.232 -0.2774  0.2532  0.3586
 1229SOL    HW115149   1.114   3.707   6.306 -0.5494 -2.6001  0.5796
 1229SOL    HW215150   1.105   3.667   6.173  0.4528  0.4028 -0.5779
 1230SOL     OW15151   2.071   1.112   2.697 -0.1034 -0.1854 -0.6241
 1230SOL    HW115152   2.147   1.054   2.706  1.4873  1.9791  0.0057
 1230SOL    HW215153   2.119   1.193   2.680 -1.4166  0.4274 -1.3824
 1231SOL     OW15154   4.254   1.040  15.694  0.5378 -0.0544  0.1402
 1231SOL    HW115155   4.259   1.055  15.599 -4.5848 -0.5773 -0.2481
 1231SOL    HW215156   4.332   1.091  15.715  0.7324  0.5295 -1.9761
 1232SOL     OW15157   1.929   3.543  13.794 -0.3502  0.4077  0.2182
 1232SOL    HW115158   1.927   3.602  13.870  2.1236  0.1747  0.4796
 1232SOL    HW215159   1.995   3.484  13.833 -1.0177 -1.4724 -1.5145
 1233SOL     OW15160   2.416   2.067   8.846  0.3130 -0.2981 -0.1978
 1233SOL    HW115161   2.385   1.982   8.815 -1.4727 -0.0390  0.9132
 1233SOL    HW215162   2.488   2.082   8.785 -0.1645 -0.7094 -0.8703
 1234SOL     OW15163   2.813   3.293  13.779  0.0114  0.3677 -0.2420
 1234SOL    HW115164   2.749   3.311  13.710 -0.4173  2.3644  0.7096
 1234SOL    HW215165   2.817   3.383  13.811  1.4498  0.2316 -0.0180
 1235SOL     OW15166   3.187   4.428   3.730  0.3804 -0.1894 -0.1758
 1235SOL    HW115167   3.247   4.432   3.804 -0.4602  0.8455  0.4580
 1235SOL    HW215168   3.189   4.521   3.707  3.4219 -0.7641 -2.2102
 1236SOL     OW15169   1.698   2.011   0.506 -0.1568 -0.2550 -0.3077
 1236SOL    HW115170   1.690   1.918   0.528  0.2494  0.4542  2.8290
 1236SOL    HW215171   1.603   2.021   0.497 -0.0970  1.6591  1.3642
 1237SOL     OW15172   2.295   3.802   8.194  0.6183  0.4047 -0.1898
 1237SOL    HW115173   2.374   3.759   8.161  1.9404  2.2348  0.6153
 1237SOL    HW215174   2.316   3.894   8.175 -1.4931  0.4794 -2.2509
 1238SOL     OW15175   4.623   2.305   1.548  0.2358  0.0195  0.6351
 1238SOL    HW115176   4.576   2.373   1.597 -0.8280 -0.9615  0.9708
 1238SOL    HW215177   4.581   2.323   1.464  1.4535 -1.5579 -0.3016
 1239SOL     OW15178   1.594   0.092   3.139 -0.2124 -0.0656  0.0653
 1239SOL    HW115179   1.517   0.114   3.191 -1.2494 -0.4236 -1.3208
 1239SOL    HW215180   1.641   0.055   3.213  0.5514  0.0760 -0.3524
 1240SOL     OW15181   2.833   2.384   3.663 -0.3861  0.3543  0.4376
 1240SOL    HW115182   2.801   2.359   3.576 -0.1003  1.6371 -0.0371
 1240SOL    HW215183   2.800   2.306   3.707 -0.3079  0.5520  0.8396
 1241SOL     OW15184   0.411   4.166   4.183  0.8072 -0.1694 -0.1825
 1241SOL    HW115185   0.420   4.201   4.094 -1.0261  0.4488 -0.1256
 1241SOL    HW215186   0.442   4.077   4.166  0.5294 -0.5290  1.2725
 1242SOL     OW15187   4.159   2.837  13.607 -0.9775  0.7572 -1.3313
 1242SOL    HW115188   4.064   2.826  13.604 -1.0413  0.9570 -0.0182
 1242SOL    HW215189   4.181   2.876  13.522  2.3369 -0.8712 -1.2055
 1243SOL     OW15190   1.497   1.592  16.616 -0.1183  0.3068  0.1424
 1243SOL    HW115191   1.474   1.658  16.551  1.3446  0.0241 -0.6758
 1243SOL    HW215192   1.535   1.528  16.556  1.5810 -0.8182  2.3828
 1244SOL     OW15193   1.149   4.270  15.310 -0.3038  0.5207  0.1627
 1244SOL    HW115194   1.180   4.182  15.330 -1.3320 -0.3093 -1.8239
 1244SOL    HW215195   1.181   4.313  15.389 -0.9658 -1.8468  1.6978
 1245SOL     OW15196   3.323   3.945   3.388 -0.5014 -0.1258  0.1802
 1245SOL    HW115197   3.359   3.877   3.331 -1.8991 -2.1437  1.7154
 1245SOL    HW215198   3.390   3.953   3.455  0.0403 -1.2327 -0.2379
 1246SOL     OW15199   2.952   2.538   6.846  0.4571  0.7961 -0.0921
 1246SOL    HW115200   3.005   2.514   6.770  2.9561 -0.6009  2.0753
 1246SOL    HW215201   3.004   2.611   6.878 -0.2586  1.2955 -0.0850
 1247SOL     OW15202   4.299   0.742  15.758 -0.2030 -0.2250 -0.2659
 1247SOL    HW115203   4.376   0.759  15.703 -1.3226 -0.8919 -2.0126
 1247SOL    HW215204   4.239   0.816  15.749 -0.0411 -0.1239 -0.5115
 1248SOL     OW15205   0.137   2.004  13.971 -0.3078 -0.2347  0.8804
 1248SOL    HW115206   0.092   2.049  14.042 -0.2476  1.3294 -0.0847
 1248SOL    HW215207   0.173   2.080  13.927 -1.0288 -0.0963  0.5284
 1249SOL     OW15208   3.198   4.265   1.899  0.3625  0.4402  0.8706
 1249SOL    HW115209   3.229   4.180   1.868  1.0633  1.2130 -0.5671
 1249SOL    HW215210   3.110   4.247   1.933 -1.6759  0.8318 -4.2206
 1250SOL     OW15211   1.568   2.242   4.240  0.0817  0.1771  1.2148
 1250SOL    HW115212   1.523   2.315   4.282 -1.6054 -0.0168 -0.3192
 1250SOL    HW215213   1.568   2.181   4.314  1.7341  0.1147  1.1701
 1251SOL     OW15214   2.801   2.289  16.013 -0.7403  0.2004 -0.2977
 1251SOL    HW115215   2.856   2.340  15.953  0.0410 -1.1723 -0.7425
 1251SOL    HW215216   2.840   2.204  15.990  0.0398 -0.0053  1.7739
 1252SOL     OW15217   3.609   1.624   7.046 -0.0756 -0.3766 -0.2185
 1252SOL    HW115218   3.567   1.620   6.961  0.0424  0.7531 -0.3338
 1252SOL    HW215219   3.542   1.597   7.108  1.2681 -1.2113  0.8831
 1253SOL     OW15220   0.051   4.031   6.070 -0.1978 -0.3369  0.0954
 1253SOL    HW115221   0.030   4.019   6.163  2.6166  0.0057  0.7845
 1253SOL    HW215222   0.041   3.940   6.044  2.9210 -0.2401 -1.4936
 1254SOL     OW15223   0.174   1.756  11.908  0.2809 -0.7895 -0.0697
 1254SOL    HW115224   0.215   1.698  11.845  0.3874 -0.6020 -0.1733
 1254SOL    HW215225   0.255   1.785  11.952 -1.8343  0.1764  3.2310
 1255SOL     OW15226   0.446   3.656   9.373 -0.0723  0.1500  0.0793
 1255SOL    HW115227   0.534   3.650   9.410 -0.2259 -2.0774  0.0837
 1255SOL    HW215228   0.426   3.748   9.353 -3.0242 -0.4593  0.1691
 1256SOL     OW15229   4.665   3.902   5.302 -0.3219 -0.0093 -0.4762
 1256SOL    HW115230   4.632   3.816   5.328 -0.0843 -0.2894 -1.0917
 1256SOL    HW215231   4.646   3.949   5.383  4.2396  0.5853  0.2195
 1257SOL     OW15232   4.036   0.507  12.984 -0.3378  0.5175 -0.2052
 1257SOL    HW115233   4.077   0.440  13.039 -1.0993  0.8920  0.8275
 1257SOL    HW215234   3.962   0.461  12.944 -0.0576  0.0348 -0.1620
 1258SOL     OW15235   0.138   1.840   5.496 -0.1180 -0.4926  0.1417
 1258SOL    HW115236   0.125   1.745   5.492  1.5435 -0.6710 -1.1907
 1258SOL    HW215237   0.154   1.843   5.590 -1.7030  0.4314  0.3750
 1259SOL     OW15238   1.935   4.464  11.237  0.5474 -0.2155  0.1163
 1259SOL    HW115239   1.887   4.502  11.311 -0.9563  0.4637 -1.2232
 1259SOL    HW215240   1.973   4.540  11.193 -1.0594  0.0645 -0.7756
 1260SOL     OW15241   0.369   0.904  10.263  0.4162 -0.1516 -0.1753
 1260SOL    HW115242   0.409   0.899  10.177  0.6079 -1.0768 -0.0320
 1260SOL    HW215243   0.390   0.994  10.288  0.2866  0.0268 -0.7185
 1261SOL     OW15244   3.921   2.472   6.054 -0.4809 -0.2280 -0.4703
 1261SOL    HW115245   3.958   2.391   6.020  0.3211 -1.2955  2.9769
 1261SOL    HW215246   3.834   2.449   6.022 -1.1467 -0.3665  1.4668
 1262SOL     OW15247   3.348   1.845   5.399 -0.4648 -0.3609  0.0360
 1262SOL    HW115248   3.350   1.751   5.382  0.7612 -0.3464  0.1224
 1262SOL    HW215249   3.391   1.875   5.319 -1.2691  1.6521  0.3535
 1263SOL     OW15250   0.890   3.840  15.090 -0.2419  0.1156  0.3306
 1263SOL    HW115251   0.873   3.912  15.030  0.0946 -0.7109 -0.7601
 1263SOL    HW215252   0.945   3.782  15.037  0.7544  1.3443  0.0171
 1264SOL     OW15253   2.136   3.572   5.908 -0.3067  0.4059 -0.0483
 1264SOL    HW115254   2.217   3.522   5.911 -1.8317 -1.9419  2.4439
 1264SOL    HW215255   2.154   3.657   5.949 -3.4943  0.1643  1.9236
 1265SOL     OW15256   4.444   4.293   3.724 -0.0115  0.0440  1.0193
 1265SOL    HW115257   4.420   4.214   3.675  0.1706  1.2005 -0.9354
 1265SOL    HW215258   4.529   4.261   3.755  0.5692  1.1911  0.5992
 1266SOL     OW15259   1.377   1.943  15.644  0.7886  0.2371 -0.6090
 1266SOL    HW115260   1.443   1.906  15.703  0.8715  1.0024 -0.2223
 1266SOL    HW215261   1.340   1.866  15.601  3.5833 -1.2403 -0.3830
 1267SOL     OW15262   4.472   0.893   1.623  0.5514 -0.5392 -0.1182
 1267SOL    HW115263   4.394   0.855   1.582  0.7176  1.0856 -1.9041
 1267SOL    HW215264   4.536   0.908   1.553  0.6752 -0.9296 -0.0879
 1268SOL     OW15265   4.162   0.336  13.189 -0.8435  0.1105 -0.7356
 1268SOL    HW115266   4.209   0.356  13.270  2.0503 -0.0713 -2.3670
 1268SOL    HW215267   4.153   0.241  13.196  0.7795  0.1588  1.8188
 1269SOL     OW15268   2.466   3.480   5.147 -0.1228  0.1496 -0.4323
 1269SOL    HW115269   2.556   3.498   5.118 -0.4342 -0.7038 -1.8931
 1269SOL    HW215270   2.466   3.518   5.235  2.7126  1.5501 -1.0304
 1270SOL     OW15271   2.752   0.866   8.792 -0.1272 -0.1650  0.0340
 1270SOL    HW115272   2.741   0.786   8.844 -0.8053  0.3429  0.6617
 1270SOL    HW215273   2.798   0.821   8.721  0.5515 -1.5986  1.3745
 1271SOL     OW15274   4.588   1.521   6.429  0.2145  0.3218  0.5508
 1271SOL    HW115275   4.661   1.501   6.370  0.6713  0.1095  1.1895
 1271SOL    HW215276   4.540   1.439   6.416  1.1813 -0.0925 -0.4095
 1272SOL     OW15277   4.090   3.830   0.220  0.5417  0.1135  0.6374
 1272SOL    HW115278   4.007   3.796   0.186 -0.5223 -0.3878  3.7305
 1272SOL    HW215279   4.066   3.923   0.216  1.5482  0.3994  1.2875
 1273SOL     OW15280   0.038   4.328   3.045  0.2021 -0.2400  0.4434
 1273SOL    HW115281   0.082   4.244   3.057  0.5897 -0.0902  0.0367
 1273SOL    HW215282   0.042   4.336   2.949 -0.3403  1.1036  0.5288
 1274SOL     OW15283   3.647   3.275   4.554 -0.1380  0.2939  0.0744
 1274SOL    HW115284   3.584   3.218   4.508  1.8946  1.1369 -3.7971
 1274SOL    HW215285   3.576   3.333   4.581 -0.7586 -0.0535 -0.7794
 1275SOL     OW15286   4.386   0.888   5.100  0.2418 -0.1306 -0.0987
 1275SOL    HW115287   4.338   0.969   5.087  1.3722  0.9602  2.4224
 1275SOL    HW215288   4.327   0.845   5.163  0.6069 -1.6149 -0.7738
 1276SOL     OW15289   3.641   1.819  10.845 -0.2502 -0.3890 -0.2166
 1276SOL    HW115290   3.624   1.725  10.851  3.7652 -1.1246  0.1854
 1276SOL    HW215291   3.724   1.819  10.796  0.0769 -0.0258  0.3352
 1277SOL     OW15292   0.206   1.065   4.176 -0.4287  0.3662 -0.0693
 1277SOL    HW115293   0.283   1.117   4.196 -1.3866  1.9445 -0.4853
 1277SOL    HW215294   0.211   0.996   4.242 -1.1004  0.4882  0.1054
 1278SOL     OW15295   0.838   3.057   6.787 -0.0797  0.0009  0.4897
 1278SOL    HW115296   0.879   2.996   6.727  1.3935  1.5472 -0.0911
 1278SOL    HW215297   0.847   3.006   6.867 -0.4103  1.3840  1.4222
 1279SOL     OW15298   2.537   1.707   0.396 -0.0691 -0.0023 -0.2137
 1279SOL    HW115299   2.500   1.739   0.314  0.4257  1.1449  0.0043
 1279SOL    HW215300   2.623   1.748   0.389  0.3895 -0.7743  0.8839
 1280SOL     OW15301   0.670   0.338   7.157  0.4139 -0.0118 -0.3542
 1280SOL    HW115302   0.729   0.370   7.089 -0.3921 -0.9369 -1.4815
 1280SOL    HW215303   0.595   0.322   7.100 -0.6229 -0.9296  1.2699
 1281SOL     OW15304   2.813   3.598  16.116  0.0943 -0.5790  0.0169
 1281SOL    HW115305   2.846   3.629  16.200 -1.5984  1.3864 -0.0374
 1281SOL    HW215306   2.900   3.576  16.083 -0.5075  2.3478 -3.6013
 1282SOL     OW15307   3.087   3.955   0.932  0.6378  0.1979 -0.0664
 1282SOL    HW115308   3.095   3.987   1.022 -0.2583 -0.6517  0.3186
 1282SOL    HW215309   3.034   3.876   0.943  1.1635 -0.1519 -0.0165
 1283SOL     OW15310   1.814   4.356  11.574 -0.1611  0.9519 -0.3498
 1283SOL    HW115311   1.899   4.322  11.601 -1.6063 -3.7032 -1.6632
 1283SOL    HW215312   1.828   4.449  11.595 -0.7714  0.8605  0.4495
 1284SOL     OW15313   1.411   0.154  11.560 -0.5198 -0.3040  0.1263
 1284SOL    HW115314   1.364   0.229  11.597 -1.6900  1.2807 -4.6003
 1284SOL    HW215315   1.342   0.127  11.499  0.8763 -2.4469 -0.5148
 1285SOL     OW15316   2.161   4.534   2.906 -0.2085  0.4901 -0.3989
 1285SOL    HW115317   2.066   4.539   2.913 -0.4582 -3.7496 -0.7575
 1285SOL    HW215318   2.167   4.482   2.826 -1.4628  2.9789 -2.1011
 1286SOL     OW15319   0.570   1.720   8.156 -0.5560 -0.2936 -0.1460
 1286SOL    HW115320   0.590   1.640   8.204  1.3491 -0.6682 -1.6101
 1286SOL    HW215321   0.631   1.709   8.084 -1.8528 -0.2728 -1.2531
 1287SOL     OW15322   0.228   3.921   9.623 -0.0120  0.6123 -0.1436
 1287SOL    HW115323   0.175   3.867   9.681  0.6523 -0.1634 -0.2447
 1287SOL    HW215324   0.246   4.000   9.674  1.2577 -0.1792  0.6458
 1288SOL     OW15325   3.061   1.846   3.808  0.2296  0.2416 -0.3654
 1288SOL    HW115326   3.155   1.836   3.818  0.1711  0.2689  0.2285
 1288SOL    HW215327   3.058   1.868   3.716 -0.4575  0.7473 -0.2229
 1289SOL     OW15328   2.225   2.956   4.496 -0.3553 -0.3521 -0.8351
 1289SOL    HW115329   2.305   2.931   4.542  0.2903  2.6737 -0.3295
 1289SOL    HW215330   2.231   3.051   4.505  0.6625 -0.5750  0.7701
 1290SOL     OW15331   4.141   1.462   3.685  0.0890 -1.2269 -0.2964
 1290SOL    HW115332   4.070   1.521   3.711  1.2207  0.3217 -0.7685
 1290SOL    HW215333   4.171   1.425   3.769  0.4720 -0.9181 -0.2990
 1291SOL     OW15334   3.067   2.300  10.831 -0.4307  0.4217 -0.0431
 1291SOL    HW115335   3.126   2.233  10.796 -0.3923  1.9057 -2.8469
 1291SOL    HW215336   3.111   2.384  10.815  0.4405  0.0112  0.2216
 1292SOL     OW15337   3.025   0.198   9.379  0.5383 -0.3361 -0.6596
 1292SOL    HW115338   2.939   0.238   9.387  0.1916 -1.3707  0.8071
 1292SOL    HW215339   3.052   0.223   9.468 -2.1887 -0.7435  0.2616
 1293SOL     OW15340   4.387   0.660  16.008  0.1322 -0.4425 -0.1203
 1293SOL    HW115341   4.359   0.655  15.917  0.7390  0.4305 -0.3520
 1293SOL    HW215342   4.313   0.705  16.049 -0.0416 -0.2388 -0.6596
 1294SOL     OW15343   2.271   1.380  17.374 -0.1287  0.2134  0.0593
 1294SOL    HW115344   2.356   1.405  17.411  1.2146 -3.7951 -0.2204
 1294SOL    HW215345   2.290   1.291  17.345  1.0603  0.1797  0.9301
 1295SOL     OW15346   1.100   4.446   3.395  0.3016 -0.1767 -0.1272
 1295SOL    HW115347   1.188   4.413   3.376  0.2273 -0.9206  0.8381
 1295SOL    HW215348   1.102   4.528   3.346 -0.8215  0.8733  1.5906
 1296SOL     OW15349   0.357   3.465  16.630 -0.2650 -0.3986 -0.4351
 1296SOL    HW115350   0.303   3.387  16.613 -1.9428  0.9090 -1.1029
 1296SOL    HW215351   0.436   3.443  16.581 -0.6036  0.7494 -1.5079
 1297SOL     OW15352   1.697   2.822   0.190 -0.0773  0.0115  0.0986
 1297SOL    HW115353   1.639   2.757   0.149 -0.4337  0.7831 -0.6324
 1297SOL    HW215354   1.703   2.805   0.284  0.5150  1.5541  0.3419
 1298SOL     OW15355   3.698   0.556   2.934 -0.5950 -0.3261 -0.6101
 1298SOL    HW115356   3.702   0.642   2.977 -1.0519 -0.4717 -0.2722
 1298SOL    HW215357   3.786   0.561   2.897 -0.7173 -0.3550 -0.9005
 1299SOL     OW15358   4.569   0.774   7.692  0.7546 -0.0083 -0.4060
 1299SOL    HW115359   4.563   0.864   7.723 -0.6255  0.7655 -2.8939
 1299SOL    HW215360   4.497   0.770   7.628 -0.5005  1.9588  0.9005
 1300SOL     OW15361   3.378   0.163   9.498  0.5694  0.4171 -0.2419
 1300SOL    HW115362   3.374   0.088   9.440  4.5986 -0.3259  0.4262
 1300SOL    HW215363   3.372   0.120   9.583 -1.2017 -0.2017 -0.6928
 1301SOL     OW15364   4.343   3.587   6.275  0.0298 -0.0589 -0.5467
 1301SOL    HW115365   4.314   3.569   6.365 -1.1961 -0.9619 -1.1326
 1301SOL    HW215366   4.332   3.506   6.226  0.8565 -0.4703 -0.0659
 1302SOL     OW15367   0.388   0.091   5.210  0.3965 -0.6402 -0.2430
 1302SOL    HW115368   0.335   0.075   5.288 -1.8755  0.5544 -1.5322
 1302SOL    HW215369   0.445   0.019   5.184  0.4329 -0.4869 -0.5859
 1303SOL     OW15370   1.537   3.362  15.315 -0.4726 -0.8503 -0.7528
 1303SOL    HW115371   1.454   3.327  15.347 -0.8419 -0.8310 -1.7124
 1303SOL    HW215372   1.504   3.414  15.242 -1.7904 -0.9512 -0.2250
 1304SOL     OW15373   2.932   3.563   5.376 -0.6738  0.1878 -0.1429
 1304SOL    HW115374   2.904   3.607   5.295  0.4251  0.2592 -0.4753
 1304SOL    HW215375   2.857   3.504   5.389  0.3299 -1.1794 -0.4889
 1305SOL     OW15376   0.276   0.632  15.733 -0.6513 -0.4103  0.0130
 1305SOL    HW115377   0.237   0.693  15.795 -2.2906  1.0685 -2.4468
 1305SOL    HW215378   0.288   0.557  15.791  2.5365 -0.0267 -0.1436
 1306SOL     OW15379   4.052   3.808   2.632  0.6261  0.4048  0.6170
 1306SOL    HW115380   3.965   3.796   2.595  0.8455 -1.0990  0.5802
 1306SOL    HW215381   4.022   3.829   2.721 -0.0229 -2.8122  1.1582
 1307SOL     OW15382   2.072   1.449   2.899  0.1276  0.1846 -0.4170
 1307SOL    HW115383   2.119   1.404   2.829  1.8330  2.2468 -0.5780
 1307SOL    HW215384   1.979   1.441   2.876 -0.2092 -0.2114  1.0704
 1308SOL     OW15385   0.189   1.819   6.207  0.0607 -0.2500 -0.2350
 1308SOL    HW115386   0.248   1.890   6.183  1.5599 -1.0500  1.0686
 1308SOL    HW215387   0.204   1.825   6.302 -1.0083 -1.0202 -0.0221
 1309SOL     OW15388   1.252   4.662   5.004  0.1760  0.2821  0.0685
 1309SOL    HW115389   1.231   0.023   4.971  2.1917  1.8661  2.9679
 1309SOL    HW215390   1.171   4.645   5.052 -0.0370 -0.9118 -0.7087
 1310SOL     OW15391   4.051   4.702  11.308 -0.3398 -0.0387 -0.0479
 1310SOL    HW115392   4.100   4.709  11.227 -2.3923 -1.3520 -1.3878
 1310SOL    HW215393   4.114   0.021  11.364 -1.7099 -1.6517  2.7942
 1311SOL     OW15394   0.560   0.782   4.932  0.1128 -0.1858 -0.4079
 1311SOL    HW115395   0.474   0.824   4.922 -0.2648 -0.6415  0.9343
 1311SOL    HW215396   0.549   0.709   4.870 -0.8490  0.1520 -0.6380
 1312SOL     OW15397   3.113   3.697   8.264  0.1588 -0.0867  0.1215
 1312SOL    HW115398   3.049   3.629   8.244 -1.0339  0.6569  1.4502
 1312SOL    HW215399   3.192   3.669   8.217  0.5194 -2.2318  1.9905
 1313SOL     OW15400   4.360   2.431   4.786  0.4618 -0.1285 -0.1925
 1313SOL    HW115401   4.305   2.372   4.734 -1.4843  0.4995  1.1503
 1313SOL    HW215402   4.294   2.501   4.787  0.2432 -0.3256 -0.4939
 1314SOL     OW15403   0.317   0.213   4.895  0.0742 -0.1255 -0.4156
 1314SOL    HW115404   0.274   0.133   4.864  1.3014 -0.3801 -1.4644
 1314SOL    HW215405   0.408   0.183   4.902  0.8574  2.2280 -0.4160
 1315SOL     OW15406   1.650   3.816   7.621 -0.3990  0.7493  0.7948
 1315SOL    HW115407   1.655   3.906   7.652 -0.0965  1.1255 -0.3258
 1315SOL    HW215408   1.708   3.775   7.685  0.7531 -2.9655 -2.5899
 1316SOL     OW15409   4.694   3.844  12.164  0.3935  0.4287 -0.2343
 1316SOL    HW115410   4.665   3.905  12.232 -2.7597 -1.3480  0.0015
 1316SOL    HW215411   0.061   3.868  12.160  0.7109 -0.9311 -0.9641
 1317SOL     OW15412   2.367   0.676  12.855 -0.3392 -0.6183 -0.0042
 1317SOL    HW115413   2.407   0.592  12.876 -1.8938 -0.9982  1.3780
 1317SOL    HW215414   2.425   0.721  12.792 -1.2816 -1.1758 -1.2509
 1318SOL     OW15415   0.419   4.013   3.839  0.3895 -1.0835  0.1397
 1318SOL    HW115416   0.451   3.924   3.848  0.6145 -1.0675 -0.4949
 1318SOL    HW215417   0.329   4.006   3.873  0.1327 -0.8888 -0.4963
 1319SOL     OW15418   0.054   2.300  13.274 -0.5193 -0.3068  0.3968
 1319SOL    HW115419   0.092   2.381  13.307 -1.3708 -1.0234  3.1468
 1319SOL    HW215420   4.694   2.331  13.244  0.0976  0.8062 -0.1961
 1320SOL     OW15421   1.647   1.642   9.110 -0.2697  0.5708 -0.2272
 1320SOL    HW115422   1.630   1.736   9.116 -3.0172  0.1887 -2.3113
 1320SOL    HW215423   1.743   1.645   9.104 -0.3247 -0.3490 -1.4736
 1321SOL     OW15424   3.531   2.669  15.271  0.2126 -0.0906  0.2526
 1321SOL    HW115425   3.519   2.700  15.181 -0.2223 -0.7009  0.1014
 1321SOL    HW215426   3.499   2.745  15.320  1.5906 -0.7456  2.1759
 1322SOL     OW15427   3.265   3.684   2.750 -0.4532  0.5267  0.0320
 1322SOL    HW115428   3.261   3.749   2.679 -0.3143 -0.6862 -1.0905
 1322SOL    HW215429   3.185   3.707   2.796 -0.1595 -0.1815  0.9018
 1323SOL     OW15430   2.451   3.358   8.568 -0.0312  0.1909 -0.2252
 1323SOL    HW115431   2.476   3.414   8.494 -1.0289  0.7696 -0.1258
 1323SOL    HW215432   2.358   3.378   8.578  0.0775  0.6188 -0.0652
 1324SOL     OW15433   2.378   2.028   4.458 -0.5242 -0.7992  0.2888
 1324SOL    HW115434   2.288   2.056   4.438 -0.7158 -1.4241  0.2950
 1324SOL    HW215435   2.433   2.090   4.410 -0.0541 -0.5792  1.1136
 1325SOL     OW15436   3.728   2.975   2.624 -0.1405 -0.1605  0.3194
 1325SOL    HW115437   3.698   2.981   2.715  1.0980  0.6073  0.6710
 1325SOL    HW215438   3.820   2.964   2.646  0.6270  3.8002 -0.9110
 1326SOL     OW15439   1.258   1.848   6.809 -0.1196  0.2111 -0.1955
 1326SOL    HW115440   1.203   1.787   6.759  0.1630  0.0310 -0.2831
 1326SOL    HW215441   1.337   1.809   6.772  0.7000  1.2846  0.4291
 1327SOL     OW15442   0.789   3.539  16.689  0.0013 -0.2167  0.2267
 1327SOL    HW115443   0.840   3.576  16.760 -0.2024 -3.3086  1.9606
 1327SOL    HW215444   0.746   3.622  16.669  1.6101  1.2335  2.8605
 1328SOL     OW15445   2.006   3.067   7.174  0.1565 -0.3221 -0.2053
 1328SOL    HW115446   1.971   3.034   7.257 -0.7469  2.2886  0.4573
 1328SOL    HW215447   1.960   3.007   7.116  1.0580 -0.9242 -0.3050
 1329SOL     OW15448   0.808   0.363   5.973  0.4439  0.4472 -0.3047
 1329SOL    HW115449   0.804   0.395   5.883  0.8924  1.4451  0.0374
 1329SOL    HW215450   0.827   0.270   5.963  1.1207  0.2915  2.3752
 1330SOL     OW15451   3.997   3.234   5.492 -0.4797 -0.4984 -0.0311
 1330SOL    HW115452   3.985   3.293   5.417  1.7492 -1.8468 -1.4584
 1330SOL    HW215453   4.010   3.151   5.446  2.5165  0.1992 -0.4578
 1331SOL     OW15454   0.037   3.866  14.892  0.3684 -0.0329 -0.3261
 1331SOL    HW115455   4.692   3.840  14.950  2.8773 -1.5366  2.0810
 1331SOL    HW215456   0.049   3.955  14.927 -2.1822 -0.0638  0.6403
 1332SOL     OW15457   2.859   0.590   3.577 -0.0248  0.4747  0.0686
 1332SOL    HW115458   2.915   0.602   3.500  0.0429  2.3305  0.4039
 1332SOL    HW215459   2.770   0.593   3.542 -0.3553 -2.7152  0.6129
 1333SOL     OW15460   4.078   0.167   0.662 -0.1100 -0.1059 -0.1614
 1333SOL    HW115461   3.992   0.130   0.641  0.0339 -0.6084  0.1402
 1333SOL    HW215462   4.062   0.167   0.756  1.2441 -0.1797  0.0631
 1334SOL     OW15463   2.025   1.339   9.307 -0.2153  0.8386 -0.1541
 1334SOL    HW115464   2.028   1.304   9.218  1.9960 -0.6445  0.4947
 1334SOL    HW215465   1.975   1.266   9.344  0.4572 -1.0883 -3.0406
 1335SOL     OW15466   0.636   0.251   8.351 -0.0049  0.1209  0.0162
 1335SOL    HW115467   0.704   0.279   8.413  0.7301  1.1961 -1.2800
 1335SOL    HW215468   0.613   0.159   8.363 -1.8488  0.3741 -1.6360
 1336SOL     OW15469   0.230   0.763  15.994  0.0618  0.4839  0.3258
 1336SOL    HW115470   0.189   0.834  16.044 -1.4990 -0.8842  0.9760
 1336SOL    HW215471   0.192   0.685  16.035  1.8303  1.0203  2.9779
 1337SOL     OW15472   2.567   3.982   7.489  0.4205  0.0453 -0.2146
 1337SOL    HW115473   2.484   4.027   7.477  1.2005  2.0069  1.7161
 1337SOL    HW215474   2.557   3.917   7.419  1.2127  1.1919 -1.4036
 1338SOL     OW15475   1.732   0.734  16.459 -0.2777 -0.1941 -0.3581
 1338SOL    HW115476   1.814   0.785  16.464 -0.1146 -0.5546  0.5566
 1338SOL    HW215477   1.761   0.643  16.455  0.4510  0.0854 -1.5140
 1339SOL     OW15478   0.867   4.685   9.652 -0.1525  0.0235  0.2286
 1339SOL    HW115479   0.901   0.048   9.662  0.3561 -0.1108 -0.3522
 1339SOL    HW215480   0.794   4.687   9.714  0.5509 -1.7156  1.0898
 1340SOL     OW15481   1.155   4.539   3.828  0.0385 -0.4357  0.2027
 1340SOL    HW115482   1.105   4.532   3.746  0.0335  0.8343  0.0916
 1340SOL    HW215483   1.121   4.625   3.855 -2.5123 -0.2490 -3.4797
 1341SOL     OW15484   2.291   0.798  15.884  0.0020 -0.6150 -0.4582
 1341SOL    HW115485   2.267   0.758  15.968 -2.9757  0.4037 -0.8128
 1341SOL    HW215486   2.233   0.751  15.824  1.0204 -2.2191 -0.2057
 1342SOL     OW15487   1.797   1.862   8.278  0.0326  0.5570  0.2257
 1342SOL    HW115488   1.779   1.901   8.364  0.9959  1.2635  0.1052
 1342SOL    HW215489   1.744   1.917   8.220  2.2250 -0.0570 -2.3502
 1343SOL     OW15490   3.076   2.799   4.072  0.2601  0.2668  0.3545
 1343SOL    HW115491   3.029   2.756   4.144  0.3522 -0.3548  0.0392
 1343SOL    HW215492   3.030   2.882   4.085 -0.3874 -0.0121 -0.2167
 1344SOL     OW15493   3.978   4.088   8.541 -0.2768 -0.2576  0.1901
 1344SOL    HW115494   3.884   4.079   8.559  0.0325 -0.5612  1.6069
 1344SOL    HW215495   4.013   4.119   8.625  1.7700  1.4086 -1.2850
 1345SOL     OW15496   3.129   1.433  12.031 -0.1467  0.2683 -0.2466
 1345SOL    HW115497   3.034   1.420  12.034 -0.1947  0.7853  0.5169
 1345SOL    HW215498   3.145   1.373  11.958  0.6773  1.1895 -0.8234
 1346SOL     OW15499   0.396   3.202   2.473  0.3194  0.1373 -0.1278
 1346SOL    HW115500   0.359   3.200   2.384  0.8156  0.6329 -0.3460
 1346SOL    HW215501   0.313   3.204   2.521  0.8801  0.5497  0.8007
 1347SOL     OW15502   2.050   2.566   6.243  0.4795 -0.0525  0.5278
 1347SOL    HW115503   2.083   2.656   6.240  2.2152 -0.6492  1.4618
 1347SOL    HW215504   2.062   2.558   6.338  0.3158  2.6553  0.7615
 1348SOL     OW15505   0.801   0.081   7.804  0.5133 -0.0364  0.5264
 1348SOL    HW115506   0.779   0.060   7.895 -0.9411 -2.1299 -0.2849
 1348SOL    HW215507   0.788   0.175   7.800  0.0496 -0.2568 -3.0765
 1349SOL     OW15508   3.332   1.666  17.056 -0.0760 -0.5350 -0.4392
 1349SOL    HW115509   3.379   1.744  17.026  0.9899 -1.3581 -0.9054
 1349SOL    HW215510   3.402   1.621  17.102 -0.5027  0.8232  1.5273
 1350SOL     OW15511   1.949   2.005   5.389 -0.2772 -0.6388  0.4678
 1350SOL    HW115512   1.911   2.087   5.421 -1.2319 -1.7136  2.1151
 1350SOL    HW215513   1.989   2.033   5.307  2.2368  2.2657  2.6810
 1351SOL     OW15514   4.236   2.509  10.369  0.2228 -0.3534 -0.0894
 1351SOL    HW115515   4.230   2.515  10.273 -1.0192 -1.8593 -0.1127
 1351SOL    HW215516   4.282   2.425  10.379 -0.7945 -1.0191 -0.8930
 1352SOL     OW15517   2.634   2.313   2.453  0.1290 -0.4057 -0.0090
 1352SOL    HW115518   2.704   2.251   2.430  0.6557  0.2873 -0.2719
 1352SOL    HW215519   2.578   2.296   2.377 -2.4099  0.0878  1.7629
 1353SOL     OW15520   0.369   3.881   7.667  0.4419  0.1209  0.3666
 1353SOL    HW115521   0.305   3.951   7.656  0.2320 -0.5584 -2.5967
 1353SOL    HW215522   0.435   3.925   7.721  1.2902  0.1720 -0.7252
 1354SOL     OW15523   1.127   2.292   9.381  0.9323 -0.1401 -0.5897
 1354SOL    HW115524   1.045   2.247   9.401  1.1675 -0.5621 -0.5575
 1354SOL    HW215525   1.181   2.248   9.447  1.5800  0.3230 -0.8113
 1355SOL     OW15526   1.024   3.119  15.389  0.3785  0.6522 -0.3837
 1355SOL    HW115527   1.118   3.102  15.401  0.3237  0.7792  0.2190
 1355SOL    HW215528   1.003   3.040  15.340  0.4533 -0.5803  1.5892
 1356SOL     OW15529   0.019   1.501  12.411 -0.3203 -0.4126  0.0350
 1356SOL    HW115530   4.717   1.482  12.322 -0.2824 -1.2095  0.1961
 1356SOL    HW215531   4.663   1.495  12.460 -0.0741  1.5827  0.7109
 1357SOL     OW15532   1.034   4.126   6.340 -0.2973 -0.0211  0.3650
 1357SOL    HW115533   1.080   4.199   6.381  1.1066  0.1580 -1.5151
 1357SOL    HW215534   0.989   4.162   6.264  0.2077  1.6519  0.8750
 1358SOL     OW15535   0.568   3.196   4.683  0.2444  0.4019 -0.2845
 1358SOL    HW115536   0.602   3.260   4.745 -0.9998  1.3245 -0.5571
 1358SOL    HW215537   0.586   3.116   4.734 -1.9105  0.2569  0.2505
 1359SOL     OW15538   2.041   0.814  16.508  0.2019  0.2527 -0.4229
 1359SOL    HW115539   2.119   0.869  16.519  1.0834 -1.1651  0.4349
 1359SOL    HW215540   2.081   0.739  16.552 -1.7195 -1.0745 -0.9473
 1360SOL     OW15541   3.159   2.990  11.661  0.0087  0.6154 -0.0557
 1360SOL    HW115542   3.219   3.027  11.726 -1.0437  2.1129  0.0394
 1360SOL    HW215543   3.226   2.937  11.617 -1.0937 -1.1890  0.4630
 1361SOL     OW15544   2.040   1.250   4.008  0.4370  0.1008  0.3501
 1361SOL    HW115545   1.974   1.303   3.965 -0.5058 -0.2054  1.4336
 1361SOL    HW215546   2.120   1.248   3.955 -0.0314  0.5965 -0.3743
 1362SOL     OW15547   1.588   3.224   4.635  0.0774  0.3647  0.4420
 1362SOL    HW115548   1.537   3.151   4.600 -0.2534 -0.6472  2.9852
 1362SOL    HW215549   1.553   3.214   4.724  2.7962  0.6362  1.5412
 1363SOL     OW15550   1.203   3.150   0.438 -0.0289 -0.2349  0.2817
 1363SOL    HW115551   1.285   3.199   0.435 -0.0855 -0.0789  1.6053
 1363SOL    HW215552   1.132   3.213   0.425  1.5966  1.6590  0.7067
 1364SOL     OW15553   1.610   4.600   3.735 -0.0661  0.3274  0.1806
 1364SOL    HW115554   1.549   4.585   3.663 -0.0174 -0.1846  0.2495
 1364SOL    HW215555   1.634   4.514   3.770  1.4077  0.7006  0.0700
 1365SOL     OW15556   4.529   2.887   1.652 -0.0718 -0.4644 -0.4724
 1365SOL    HW115557   4.453   2.851   1.697 -0.7087 -1.3912 -2.3224
 1365SOL    HW215558   4.541   2.964   1.709 -1.8586  0.3781 -1.2476
 1366SOL     OW15559   2.421   1.342   3.146  0.1909  0.1279  0.1364
 1366SOL    HW115560   2.397   1.253   3.169  1.1708 -0.4391 -1.0594
 1366SOL    HW215561   2.501   1.353   3.198 -0.6538  1.2623  1.2115
 1367SOL     OW15562   3.769   4.253   7.076  0.4655  1.0610  0.0907
 1367SOL    HW115563   3.832   4.207   7.130 -0.0970 -1.0437 -1.0057
 1367SOL    HW215564   3.794   4.215   6.991  0.0589  1.9955 -0.4476
 1368SOL     OW15565   3.967   4.246   2.472  0.7455 -0.0810 -0.0525
 1368SOL    HW115566   4.054   4.285   2.465  0.5368 -0.2187 -3.5792
 1368SOL    HW215567   3.972   4.156   2.438  1.2880  1.5481 -4.2687
 1369SOL     OW15568   0.984   3.916   6.986 -0.0791  0.3201 -0.1567
 1369SOL    HW115569   1.036   3.975   7.041  3.0105  0.1374 -2.8784
 1369SOL    HW215570   0.937   3.872   7.057  1.7721  0.3772  1.1057
 1370SOL     OW15571   4.084   0.830   2.531 -0.4021  0.1914  0.2997
 1370SOL    HW115572   4.097   0.811   2.624 -0.1033 -2.3241 -0.2597
 1370SOL    HW215573   4.102   0.748   2.486 -1.4670  0.3075 -0.3311
 1371SOL     OW15574   0.367   0.035  10.487 -0.2513 -0.0938  0.4793
 1371SOL    HW115575   0.382   4.676  10.528  3.0923 -0.0558 -0.6787
 1371SOL    HW215576   0.452   0.077  10.475 -0.4831 -0.3870 -2.1992
 1372SOL     OW15577   4.373   3.125   2.980 -0.0800 -0.3394 -0.0310
 1372SOL    HW115578   4.401   3.165   3.063 -0.3027 -2.9847  1.3433
 1372SOL    HW215579   4.369   3.198   2.918 -1.8779  0.0245  0.5220
 1373SOL     OW15580   2.751   0.606  13.308 -0.3089  0.3183 -0.2160
 1373SOL    HW115581   2.700   0.674  13.353  0.1294  2.1705 -2.5327
 1373SOL    HW215582   2.831   0.648  13.279 -0.0739 -0.2577 -0.3980
 1374SOL     OW15583   1.781   0.394   8.666  0.0562 -0.4279  0.2226
 1374SOL    HW115584   1.875   0.406   8.664 -0.0285  0.0895 -0.6923
 1374SOL    HW215585   1.748   0.473   8.623  1.5180  0.2187  0.3093
 1375SOL     OW15586   3.121   4.573   2.802  0.4389 -0.4146  0.2782
 1375SOL    HW115587   3.142   4.625   2.879  1.2696 -1.8337  1.0057
 1375SOL    HW215588   3.123   4.482   2.830  1.2990 -0.1416  1.1017
 1376SOL     OW15589   3.489   2.928   5.906 -0.0039  0.0579 -0.3012
 1376SOL    HW115590   3.447   2.983   5.839 -0.8500  0.8498  0.8869
 1376SOL    HW215591   3.515   2.853   5.852 -0.5235 -1.1287  1.1068
 1377SOL     OW15592   2.762   0.889   8.137 -0.4324  0.1139 -0.1136
 1377SOL    HW115593   2.759   0.984   8.148  1.6692  0.2294 -0.4812
 1377SOL    HW215594   2.804   0.880   8.052 -0.9202 -0.0636 -0.3350
 1378SOL     OW15595   2.989   3.705  10.633  0.6171 -0.0874 -0.4710
 1378SOL    HW115596   2.994   3.697  10.728 -4.1420  0.9296 -0.1688
 1378SOL    HW215597   2.900   3.678  10.613 -0.2307  1.1605  1.7414
 1379SOL     OW15598   4.236   2.453   3.373 -0.5298  0.2880  0.2299
 1379SOL    HW115599   4.235   2.369   3.328 -1.3666  0.0488  0.7101
 1379SOL    HW215600   4.305   2.501   3.326 -0.7045  1.1461  0.8366
 1380SOL     OW15601   1.364   1.573   9.707 -0.4543  0.1888 -0.4102
 1380SOL    HW115602   1.354   1.513   9.633 -1.2153  0.0401 -0.1823
 1380SOL    HW215603   1.307   1.645   9.680 -0.4054 -0.1704 -1.4792
 1381SOL     OW15604   0.973   3.845  15.355 -0.2621  0.8915  0.1197
 1381SOL    HW115605   1.048   3.901  15.337  1.1394 -0.7660  0.9140
 1381SOL    HW215606   0.934   3.853  15.268 -0.3576 -0.8503  0.0067
 1382SOL     OW15607   1.994   2.581  13.151 -0.3433 -0.6800 -0.6004
 1382SOL    HW115608   1.968   2.591  13.242 -0.1560 -2.3111 -0.3664
 1382SOL    HW215609   2.072   2.526  13.161  1.4717  1.7950 -0.9317
 1383SOL     OW15610   1.677   2.760   7.912 -0.5133 -0.0845  0.0558
 1383SOL    HW115611   1.679   2.799   8.000 -1.4899  0.8558 -0.3315
 1383SOL    HW215612   1.771   2.761   7.896 -0.3636 -0.4208  0.9103
 1384SOL     OW15613   2.925   1.597  11.075 -0.5796  0.8092 -0.0795
 1384SOL    HW115614   2.891   1.525  11.022  2.0020  0.3187 -1.1043
 1384SOL    HW215615   3.003   1.621  11.024 -1.3772  1.3180 -1.0405
 1385SOL     OW15616   3.255   0.182   2.748  0.1798 -0.0603  0.7997
 1385SOL    HW115617   3.327   0.160   2.807 -0.8633 -0.6551  1.8497
 1385SOL    HW215618   3.276   0.116   2.682 -0.6537  0.3261  0.1550
 1386SOL     OW15619   0.597   3.242   7.675  0.1790 -0.4403 -0.6421
 1386SOL    HW115620   0.523   3.187   7.702 -0.2635  0.0217 -0.9109
 1386SOL    HW215621   0.651   3.177   7.630  0.2906 -1.9312  1.6771
 1387SOL     OW15622   2.519   1.579  15.052  0.0229 -0.2638 -0.8900
 1387SOL    HW115623   2.521   1.486  15.072  0.5941 -0.2024 -0.6489
 1387SOL    HW215624   2.594   1.583  14.992  1.1409 -0.2579  0.5181
 1388SOL     OW15625   4.309   2.675   8.013 -0.0108  0.1434 -0.2579
 1388SOL    HW115626   4.304   2.705   8.104 -0.7079 -0.7513  0.0006
 1388SOL    HW215627   4.383   2.616   8.021  0.4593  0.4216 -2.7715
 1389SOL     OW15628   2.693   1.009   6.361 -0.2204 -1.0095 -0.1094
 1389SOL    HW115629   2.776   0.994   6.316  0.6442  3.3518  0.0388
 1389SOL    HW215630   2.697   0.934   6.420 -2.9162  1.1087  2.7645
 1390SOL     OW15631   4.183   3.903   1.736  0.4233 -0.2258 -0.0121
 1390SOL    HW115632   4.163   3.940   1.650  1.1171  0.6299  0.1976
 1390SOL    HW215633   4.190   3.815   1.699  4.5283 -0.2122  0.7192
 1391SOL     OW15634   1.294   2.595   6.848 -0.0712 -0.0250 -0.2281
 1391SOL    HW115635   1.371   2.539   6.855 -1.2498 -1.4109  1.8110
 1391SOL    HW215636   1.330   2.683   6.840 -1.5992  0.5687 -0.6309
 1392SOL     OW15637   0.315   3.700   2.758  0.4719  0.9961  0.0581
 1392SOL    HW115638   0.309   3.736   2.670  0.3173  1.6609  0.3455
 1392SOL    HW215639   0.342   3.611   2.732 -0.6598  0.6772 -0.0180
 1393SOL     OW15640   1.221   0.770   4.482 -0.2651 -0.8947  0.0300
 1393SOL    HW115641   1.302   0.803   4.442 -0.3942  1.1469  1.4710
 1393SOL    HW215642   1.219   0.688   4.432  1.2748 -1.0195  0.1792
 1394SOL     OW15643   2.228   0.662   8.104  0.7554 -0.1896  0.3450
 1394SOL    HW115644   2.297   0.684   8.041 -0.3832  0.1011 -0.7912
 1394SOL    HW215645   2.283   0.671   8.182  0.5305  1.1268  0.3577
 1395SOL     OW15646   1.221   1.664   9.376 -0.4262 -0.0509 -0.3680
 1395SOL    HW115647   1.158   1.734   9.389  0.6386  0.3338  2.7327
 1395SOL    HW215648   1.296   1.714   9.344  1.2186 -2.3209 -0.0861
 1396SOL     OW15649   4.562   4.608   6.742 -0.1909  0.5949  0.6661
 1396SOL    HW115650   4.518   4.584   6.660 -0.4865  0.3946  0.8847
 1396SOL    HW215651   4.488   4.602   6.802 -1.8449  0.2971 -1.4177
 1397SOL     OW15652   4.222   0.151   2.087 -0.0662  0.2125 -0.4263
 1397SOL    HW115653   4.242   0.077   2.144 -0.5825  0.8608  0.5980
 1397SOL    HW215654   4.126   0.145   2.086 -0.0816  0.6220 -1.3408
 1398SOL     OW15655   4.629   1.591   0.989  0.0662 -1.1733  0.5738
 1398SOL    HW115656   4.584   1.586   1.073  1.8523 -0.1434  1.5831
 1398SOL    HW215657   4.718   1.598   1.025  1.4190  0.6328 -3.0699
 1399SOL     OW15658   2.663   0.296   7.828  0.0116 -0.0037 -0.0551
 1399SOL    HW115659   2.619   0.224   7.874  2.3414 -1.6837 -0.4218
 1399SOL    HW215660   2.693   0.256   7.747 -0.2989  2.1740 -1.2302
 1400SOL     OW15661   0.482   4.161   8.349  0.5993 -0.0173 -0.1510
 1400SOL    HW115662   0.444   4.199   8.269  1.1329 -1.4406 -1.0871
 1400SOL    HW215663   0.577   4.172   8.341  0.7811 -2.3399 -1.1869
 1401SOL     OW15664   2.037   0.577  15.519  0.1745 -0.4417 -0.1639
 1401SOL    HW115665   2.037   0.526  15.438  3.0164  0.8063 -0.9317
 1401SOL    HW215666   1.944   0.573  15.544  0.2695  0.0669  0.2556
 1402SOL     OW15667   1.109   3.765   7.372 -0.2280  0.1392 -0.4652
 1402SOL    HW115668   1.044   3.773   7.441  1.2567  0.9108  0.8303
 1402SOL    HW215669   1.070   3.695   7.320 -0.6610  1.8928 -2.5189
 1403SOL     OW15670   0.866   1.518   8.314  0.6118 -0.2568 -0.4739
 1403SOL    HW115671   0.955   1.538   8.286  0.8837 -0.8271 -0.0278
 1403SOL    HW215672   0.830   1.605   8.330  3.0247  0.3997  1.2296
 1404SOL     OW15673   1.677   3.058  10.626  0.1845 -0.0517 -0.0835
 1404SOL    HW115674   1.719   3.017  10.702 -1.1722  0.2504  0.8317
 1404SOL    HW215675   1.584   3.037  10.624  0.4607 -1.5396  2.1644
 1405SOL     OW15676   3.901   3.336  14.082 -0.3007 -0.7911 -0.4808
 1405SOL    HW115677   3.956   3.331  14.160  0.0673 -1.0304 -0.7579
 1405SOL    HW215678   3.869   3.426  14.087 -0.4880 -0.8076 -1.3052
 1406SOL     OW15679   2.755   0.995   4.826  0.3223 -0.6130  0.2119
 1406SOL    HW115680   2.782   1.009   4.735  0.1996  0.2846  0.3121
 1406SOL    HW215681   2.691   1.066   4.833  3.7179  2.5679 -0.6270
 1407SOL     OW15682   3.712   3.367   4.986 -0.1797  0.0158  0.4804
 1407SOL    HW115683   3.725   3.462   4.976 -1.9798  0.0737 -1.3341
 1407SOL    HW215684   3.796   3.343   5.025  0.1522 -0.1716 -0.3453
 1408SOL     OW15685   4.132   3.109   7.603 -0.0074 -0.5406 -0.2986
 1408SOL    HW115686   4.214   3.062   7.597  0.5916  0.7247 -2.0950
 1408SOL    HW215687   4.083   3.028   7.621  2.2337 -1.6137  0.8883
 1409SOL     OW15688   3.156   3.500   3.800 -0.3898 -0.3007 -0.0827
 1409SOL    HW115689   3.222   3.431   3.801 -1.4130 -1.2386  1.4254
 1409SOL    HW215690   3.079   3.451   3.770 -1.2997  0.9859  0.1496
 1410SOL     OW15691   1.239   1.581  10.917  0.4949 -0.1666  0.2782
 1410SOL    HW115692   1.242   1.554  11.009 -0.9337 -1.4221 -0.0354
 1410SOL    HW215693   1.200   1.509  10.867 -1.3350 -0.5683  2.2404
 1411SOL     OW15694   1.802   3.548   5.131  0.2260  0.0376  0.1165
 1411SOL    HW115695   1.816   3.640   5.155  2.2898 -0.2146 -0.0524
 1411SOL    HW215696   1.838   3.508   5.210  0.5533  0.9463  0.4405
 1412SOL     OW15697   4.256   4.685   2.278  0.3283 -0.6585 -0.2193
 1412SOL    HW115698   4.238   4.689   2.371 -0.7592 -1.3943 -0.4003
 1412SOL    HW215699   4.348   4.657   2.277  0.4831 -0.1161 -1.9372
 1413SOL     OW15700   3.147   2.042   6.828 -0.0856 -0.0424 -0.0091
 1413SOL    HW115701   3.065   2.090   6.820  0.0305  0.7393  3.4145
 1413SOL    HW215702   3.204   2.073   6.758  2.0075 -2.3620  0.6281
 1414SOL     OW15703   1.666   3.958  10.861 -0.1904  0.3798 -0.3773
 1414SOL    HW115704   1.597   3.989  10.802 -1.2912  0.1733  0.7944
 1414SOL    HW215705   1.615   3.917  10.931 -0.1765 -0.8798 -1.1111
 1415SOL     OW15706   3.863   3.150   6.933  0.1268  0.7272  0.6011
 1415SOL    HW115707   3.797   3.217   6.952 -0.0460  0.4636  0.9507
 1415SOL    HW215708   3.930   3.192   6.987 -0.2647 -1.9022  3.1785
 1416SOL     OW15709   0.134   4.447   8.559  0.2112 -0.3188  0.1466
 1416SOL    HW115710   0.106   4.428   8.648  0.6931 -1.5167  0.0352
 1416SOL    HW215711   0.224   4.476   8.574  0.0560  0.3341 -0.1956
 1417SOL     OW15712   1.348   3.930   7.161 -0.0611  0.3151  0.1390
 1417SOL    HW115713   1.380   3.840   7.165 -3.6816 -0.9260  0.8722
 1417SOL    HW215714   1.396   3.967   7.235  2.4881 -0.9163 -0.9261
 1418SOL     OW15715   1.081   0.445   4.376  0.1576 -0.3093  0.9266
 1418SOL    HW115716   1.062   0.516   4.315 -2.5140 -0.7404  1.2503
 1418SOL    HW215717   0.995   0.420   4.410 -0.8801  0.3506 -1.2053
 1419SOL     OW15718   3.278   3.704   7.824  0.0607 -0.2452  0.0931
 1419SOL    HW115719   3.344   3.773   7.824  0.7135 -0.8676  0.7955
 1419SOL    HW215720   3.313   3.642   7.760  2.9761  1.0874  0.3892
 1420SOL     OW15721   4.386   3.669  15.219  0.0033  0.6781 -0.0911
 1420SOL    HW115722   4.401   3.615  15.297  0.4340 -0.2668 -0.8180
 1420SOL    HW215723   4.292   3.659  15.204  0.0523  1.4900 -0.8840
 1421SOL     OW15724   4.036   2.070   8.342 -0.2859 -0.1783 -0.3922
 1421SOL    HW115725   4.040   2.082   8.247  0.4846 -0.6794 -0.4189
 1421SOL    HW215726   3.961   2.013   8.356  1.0555 -1.7489  0.3557
 1422SOL     OW15727   1.723   3.329  11.929 -0.4252  0.0847 -0.1593
 1422SOL    HW115728   1.770   3.400  11.972  1.5538 -1.8995  0.9711
 1422SOL    HW215729   1.703   3.369  11.844 -0.3002  0.4584 -0.0141
 1423SOL     OW15730   4.636   0.455   3.194 -0.2643  0.1361  0.4152
 1423SOL    HW115731   4.663   0.455   3.102  0.5516  1.2625  0.6544
 1423SOL    HW215732   4.584   0.536   3.196  2.0735  1.6960 -1.5234
 1424SOL     OW15733   4.584   1.586   8.110  0.0160 -0.5409 -0.3036
 1424SOL    HW115734   4.658   1.566   8.052  3.0920 -1.0904  3.7801
 1424SOL    HW215735   4.619   1.647   8.175  0.1951 -0.6982 -0.2526
 1425SOL     OW15736   2.074   1.926   8.862 -0.3994 -0.6678 -0.5231
 1425SOL    HW115737   2.154   1.908   8.811  2.1285  1.2606  2.7625
 1425SOL    HW215738   2.012   1.916   8.790  1.6166 -2.6233 -1.9770
 1426SOL     OW15739   1.337   1.699   0.130 -0.2292 -0.3553 -0.8633
 1426SOL    HW115740   1.306   1.617   0.167 -0.3155 -0.0343 -0.2329
 1426SOL    HW215741   1.344   1.752   0.209  0.5371 -1.2974 -0.2951
 1427SOL     OW15742   2.560   4.463  16.423  0.0711  0.4689  0.5602
 1427SOL    HW115743   2.522   4.549  16.440  2.4223  1.6201 -0.1023
 1427SOL    HW215744   2.617   4.486  16.350 -1.2564  2.9665  0.3087
 1428SOL     OW15745   2.440   1.852   4.657 -0.1576 -0.3575  0.3782
 1428SOL    HW115746   2.468   1.928   4.709  1.5412 -1.3140  0.8509
 1428SOL    HW215747   2.425   1.899   4.575  1.7112  1.9748  1.3486
 1429SOL     OW15748   0.672   3.374  15.523 -0.0723  1.0194 -0.0249
 1429SOL    HW115749   0.680   3.355  15.616 -2.2503 -2.3943 -0.5543
 1429SOL    HW215750   0.678   3.286  15.486  0.6325  0.5648  1.1754
 1430SOL     OW15751   1.195   4.705   9.367 -0.5902  0.2854 -0.3975
 1430SOL    HW115752   1.247   4.673   9.441 -1.3884 -0.5487 -0.1928
 1430SOL    HW215753   1.267   4.725   9.308 -0.4004 -0.0315 -0.2781
 1431SOL     OW15754   2.904   0.804   7.552  0.8156 -0.4352  0.3490
 1431SOL    HW115755   2.929   0.750   7.627 -1.2005 -0.8849  0.6897
 1431SOL    HW215756   2.991   0.824   7.516 -0.0893 -0.0250 -1.6601
 1432SOL     OW15757   1.784   0.522   5.704 -0.3464 -0.1636  0.1792
 1432SOL    HW115758   1.702   0.570   5.695 -0.4946 -0.0697  2.0632
 1432SOL    HW215759   1.801   0.571   5.785 -0.4305 -1.4743  0.9788
 1433SOL     OW15760   4.067   0.240   8.415  0.5092 -0.4882  0.0726
 1433SOL    HW115761   3.987   0.293   8.408  1.2792  0.8635  1.5152
 1433SOL    HW215762   4.056   0.189   8.335 -0.5319  0.8059 -0.6152
 1434SOL     OW15763   4.547   1.031  14.151 -0.0026  0.4637 -0.1860
 1434SOL    HW115764   4.582   1.018  14.062  2.8082  0.9351  0.8319
 1434SOL    HW215765   4.454   1.045  14.137 -0.5568 -2.6074  0.3949
 1435SOL     OW15766   2.183   3.913  11.071 -0.2160  0.6874  0.1499
 1435SOL    HW115767   2.161   3.829  11.112 -1.2847  1.6155  1.4545
 1435SOL    HW215768   2.175   3.967  11.149  0.7388 -0.9571  1.3797
 1436SOL     OW15769   3.392   0.794   6.295 -0.1099 -0.2494 -0.0165
 1436SOL    HW115770   3.444   0.875   6.299  2.0907 -1.6086 -1.2504
 1436SOL    HW215771   3.470   0.738   6.290 -1.0795 -1.6484  0.7241
 1437SOL     OW15772   1.289   1.892   0.319  0.2044  0.1473 -0.5055
 1437SOL    HW115773   1.342   1.918   0.395  0.3120  0.7443 -0.7829
 1437SOL    HW215774   1.215   1.954   0.314  0.3435  0.4949  1.5459
 1438SOL     OW15775   2.827   0.029  14.110  0.5609 -0.4988 -0.1795
 1438SOL    HW115776   2.889   4.683  14.098 -0.0294 -0.6495 -2.3694
 1438SOL    HW215777   2.879   0.091  14.160 -0.5515 -0.0101  0.3908
 1439SOL     OW15778   3.294   1.163   5.170  0.3121 -0.3672 -0.4234
 1439SOL    HW115779   3.376   1.113   5.169  0.2325 -0.5592  2.8643
 1439SOL    HW215780   3.290   1.180   5.076 -0.8083 -0.5068 -0.3925
 1440SOL     OW15781   1.545   1.662   6.092  0.4572 -0.1637 -0.0018
 1440SOL    HW115782   1.586   1.745   6.068  0.5120  0.5079  2.3921
 1440SOL    HW215783   1.596   1.592   6.051 -0.1347 -0.3216 -0.4722
 1441SOL     OW15784   1.636   3.472   7.224 -0.8926  0.2731  0.2808
 1441SOL    HW115785   1.728   3.448   7.214 -0.7198  0.3727  1.5660
 1441SOL    HW215786   1.596   3.405   7.280  0.1094 -1.3193 -0.9080
 1442SOL     OW15787   2.327   4.691   3.344  0.4868 -0.5006  0.3099
 1442SOL    HW115788   2.316   0.060   3.346 -0.5992 -0.6300  0.2462
 1442SOL    HW215789   2.384   4.668   3.270  0.3223 -0.2972  0.1175
 1443SOL     OW15790   1.251   0.347   9.796  0.5190 -0.3305  0.2041
 1443SOL    HW115791   1.175   0.305   9.756  0.2213 -0.6176  1.0678
 1443SOL    HW215792   1.293   0.261   9.809  0.1003 -0.3575  1.3402
 1444SOL     OW15793   1.363   0.640   7.354  0.4520 -0.0614 -0.1401
 1444SOL    HW115794   1.452   0.667   7.330  0.4312  0.1088 -0.0270
 1444SOL    HW215795   1.351   0.694   7.432  1.1616  0.2811 -0.2594
 1445SOL     OW15796   2.021   1.118   4.456  0.7871  0.5592 -0.2304
 1445SOL    HW115797   2.021   1.190   4.519  2.8329 -0.8438  1.3309
 1445SOL    HW215798   2.062   1.161   4.380  2.4407 -0.8959 -0.1464
 1446SOL     OW15799   4.289   0.906   5.554 -0.0727 -0.4441 -0.3224
 1446SOL    HW115800   4.378   0.928   5.526  0.0264  0.7924  0.9341
 1446SOL    HW215801   4.300   0.841   5.623  0.7393  1.2085  1.1106
 1447SOL     OW15802   3.561   1.135   3.400  0.4022 -0.1323 -0.0512
 1447SOL    HW115803   3.473   1.141   3.364  0.0372 -1.6423  0.6014
 1447SOL    HW215804   3.580   1.043   3.421 -1.2223 -1.0815 -2.7336
 1448SOL     OW15805   3.173   1.843   4.205 -0.4128 -0.0221  0.2714
 1448SOL    HW115806   3.077   1.848   4.206 -0.3240  1.9926 -0.9431
 1448SOL    HW215807   3.184   1.749   4.216 -0.0906  0.0575  0.6240
 1449SOL     OW15808   3.289   0.467  12.417 -0.0164 -0.1324 -0.3600
 1449SOL    HW115809   3.348   0.534  12.381 -1.0285  0.9388 -0.0426
 1449SOL    HW215810   3.286   0.494  12.508  0.1558  0.6029 -0.5680
 1450SOL     OW15811   2.976   3.467   7.504  0.2574  0.1127 -0.2729
 1450SOL    HW115812   2.964   3.495   7.595  1.6305  3.1295 -1.0215
 1450SOL    HW215813   2.883   3.451   7.489  0.0617 -0.7537  1.9045
 1451SOL     OW15814   1.521   0.482   7.073  0.0624 -0.4407 -0.1596
 1451SOL    HW115815   1.442   0.428   7.074  0.4645 -0.9976  1.2323
 1451SOL    HW215816   1.580   0.421   7.029  2.2494  1.1682  0.5394
 1452SOL     OW15817   1.643   3.797   2.058  0.4296 -0.0051  0.4734
 1452SOL    HW115818   1.640   3.775   1.965  0.0958  2.0462 -0.0008
 1452SOL    HW215819   1.576   3.866   2.058  0.3076 -0.1273 -0.3375
 1453SOL     OW15820   3.121   0.406   2.700  0.5626  0.4577 -0.2411
 1453SOL    HW115821   3.052   0.372   2.642  0.6447 -1.3122  0.6867
 1453SOL    HW215822   3.182   0.332   2.702  2.5020  2.0277 -1.8436
 1454SOL     OW15823   3.897   3.309   2.829  0.0489  0.1278  0.1733
 1454SOL    HW115824   3.816   3.264   2.805 -0.5584  0.5126  1.4746
 1454SOL    HW215825   3.963   3.242   2.816 -1.3158 -0.0197 -5.7934
 1455SOL     OW15826   4.271   1.121   8.431 -0.7879  0.3891  0.0108
 1455SOL    HW115827   4.218   1.201   8.432  0.0606  0.9887 -2.0701
 1455SOL    HW215828   4.340   1.141   8.495 -2.1603  1.7883  1.0440
 1456SOL     OW15829   1.172   2.957   7.011  0.1718  0.0513  0.3125
 1456SOL    HW115830   1.152   2.908   6.931 -1.8620 -1.7122  1.9218
 1456SOL    HW215831   1.082   2.985   7.030  0.9620  1.7230  1.6003
 1457SOL     OW15832   1.439   4.161   7.529 -0.0888 -0.4216 -0.8558
 1457SOL    HW115833   1.411   4.075   7.560 -2.7001  1.1221  1.0715
 1457SOL    HW215834   1.502   4.135   7.462 -0.4279  0.6774 -1.6040
 1458SOL     OW15835   4.057   3.288   7.038 -0.5817  0.7191  0.4546
 1458SOL    HW115836   4.041   3.251   7.125 -1.1365  0.8313  0.3998
 1458SOL    HW215837   4.130   3.230   7.015 -0.9362  0.9604 -1.2926
 1459SOL     OW15838   2.833   2.088   9.785 -0.2499  0.0124 -0.0390
 1459SOL    HW115839   2.788   2.058   9.706  1.3370  2.1427 -1.7267
 1459SOL    HW215840   2.764   2.104   9.850 -0.4880  1.2003 -0.5910
 1460SOL     OW15841   3.563   4.068  16.438  0.2024 -0.6153  0.7266
 1460SOL    HW115842   3.648   4.050  16.399  0.7943  2.3958  0.6666
 1460SOL    HW215843   3.595   4.113  16.516  1.3156 -1.1420  0.5679
 1461SOL     OW15844   1.629   4.666   1.962  0.1340 -0.0007 -0.3715
 1461SOL    HW115845   1.690   0.012   1.947  1.3384 -1.0812 -0.7239
 1461SOL    HW215846   1.556   4.704   2.010  1.9524  0.2291  2.1762
 1462SOL     OW15847   3.711   3.777   6.538 -0.0570 -0.5554 -0.2111
 1462SOL    HW115848   3.767   3.813   6.606  0.6385 -0.4088 -0.8604
 1462SOL    HW215849   3.780   3.753   6.475 -0.5677  1.5083 -1.5539
 1463SOL     OW15850   4.168   3.639  12.847  0.1346 -0.3892 -0.5821
 1463SOL    HW115851   4.172   3.572  12.915  1.6329 -0.5796 -0.8685
 1463SOL    HW215852   4.140   3.716  12.896  0.1874  0.0468 -1.2489
 1464SOL     OW15853   2.165   3.459  15.536 -0.4933 -0.5694 -0.2193
 1464SOL    HW115854   2.120   3.378  15.514 -0.4124 -0.5110 -0.6029
 1464SOL    HW215855   2.172   3.456  15.631 -1.9827  0.8039 -0.0713
 1465SOL     OW15856   2.432   4.408   1.284  0.1571  0.1020 -0.5258
 1465SOL    HW115857   2.396   4.472   1.346  0.5850 -0.7864  0.6263
 1465SOL    HW215858   2.380   4.422   1.205 -1.7646  1.5375  0.9626
 1466SOL     OW15859   1.365   1.454   1.102  0.2709  0.0998  0.0773
 1466SOL    HW115860   1.424   1.387   1.067 -0.7560  0.2701 -2.0162
 1466SOL    HW215861   1.387   1.519   1.034 -0.5209  2.9136  2.5331
 1467SOL     OW15862   1.823   1.976  14.076  0.9433  0.1439  0.1256
 1467SOL    HW115863   1.768   1.908  14.116  2.3585 -1.8928 -1.3730
 1467SOL    HW215864   1.864   1.909  14.021  3.1567  1.6619 -0.0708
 1468SOL     OW15865   0.069   1.041  13.578  0.6111  0.6347  0.1949
 1468SOL    HW115866   0.127   1.096  13.631  0.3898 -0.7897  1.9023
 1468SOL    HW215867   0.037   1.105  13.514 -1.8393 -0.4286  0.3791
 1469SOL     OW15868   1.047   1.852   9.447 -0.0078  0.6763  0.2231
 1469SOL    HW115869   0.952   1.849   9.460 -0.1792  1.1936 -0.9187
 1469SOL    HW215870   1.064   1.943   9.469 -1.0098  0.8041  0.4684
 1470SOL     OW15871   3.172   0.024   6.661  0.3675 -0.3313  0.4034
 1470SOL    HW115872   3.163   0.117   6.639  1.4205 -0.1123  0.8706
 1470SOL    HW215873   3.089   4.707   6.641  0.4765 -0.3693  0.0407
 1471SOL     OW15874   3.521   2.346   1.801  0.3138 -0.3253 -0.3475
 1471SOL    HW115875   3.468   2.407   1.851 -0.9221 -1.3451 -0.4037
 1471SOL    HW215876   3.606   2.355   1.845 -0.1936 -2.0243  0.9631
 1472SOL     OW15877   2.492   1.753  10.632  0.6376  0.2650 -0.3511
 1472SOL    HW115878   2.521   1.841  10.654 -0.7651  0.6799 -0.1869
 1472SOL    HW215879   2.406   1.743  10.672  0.9598  0.6041  0.4171
 1473SOL     OW15880   4.603   0.783   0.224 -0.2714 -0.1563 -0.1963
 1473SOL    HW115881   4.553   0.768   0.304  1.7572 -0.7801  0.9372
 1473SOL    HW215882   4.538   0.841   0.183 -2.0411 -2.9768 -1.3640
 1474SOL     OW15883   1.591   1.604   2.835  0.0529  0.1632 -0.1944
 1474SOL    HW115884   1.646   1.656   2.777 -1.2733  3.5102  1.5262
 1474SOL    HW215885   1.652   1.531   2.839 -0.3099 -0.2519 -2.2094
 1475SOL     OW15886   3.377   0.804   9.593 -0.1240  0.4362  0.2194
 1475SOL    HW115887   3.450   0.839   9.541 -0.8924 -1.2829 -2.0383
 1475SOL    HW215888   3.311   0.873   9.584  0.9588  1.6332  1.4549
 1476SOL     OW15889   4.108   3.504   8.137  0.4263  0.5235  0.0303
 1476SOL    HW115890   4.191   3.518   8.093 -0.2884  3.0815 -0.4753
 1476SOL    HW215891   4.055   3.482   8.060 -1.7461 -1.3720  2.0475
 1477SOL     OW15892   4.251   1.104   4.461 -0.2168 -0.2738  0.1420
 1477SOL    HW115893   4.208   1.052   4.528  1.0166 -2.3272 -0.6700
 1477SOL    HW215894   4.333   1.125   4.506 -0.5289 -0.6556  0.8802
 1478SOL     OW15895   3.514   0.866   2.677  0.1734  0.0750  0.6194
 1478SOL    HW115896   3.583   0.801   2.674  0.7050  0.7245 -1.6107
 1478SOL    HW215897   3.567   0.939   2.707 -0.5512  1.2302 -0.8588
 1479SOL     OW15898   1.783   0.193   4.325 -0.2580  0.6283  0.3286
 1479SOL    HW115899   1.692   0.223   4.325 -0.6833 -0.6496  1.7962
 1479SOL    HW215900   1.823   0.218   4.408 -0.7746  0.9752  0.4724
 1480SOL     OW15901   3.105   0.441   0.640  0.1378  0.1811  0.1773
 1480SOL    HW115902   3.131   0.387   0.715  0.4194 -1.8240 -1.3905
 1480SOL    HW215903   3.093   0.374   0.573 -2.8249  1.6532 -0.7927
 1481SOL     OW15904   1.956   4.722   5.141  0.2828  0.0766 -0.0291
 1481SOL    HW115905   1.907   0.077   5.154  0.9608  0.3859  0.5939
 1481SOL    HW215906   1.892   4.678   5.086 -1.2014  0.6446  1.2433
 1482SOL     OW15907   3.910   3.914   4.504  0.4854 -0.0947  0.1067
 1482SOL    HW115908   3.836   3.854   4.510 -0.0066  0.2646 -2.5286
 1482SOL    HW215909   3.948   3.892   4.589 -1.5533 -1.6220  0.6138
 1483SOL     OW15910   2.712   3.312  10.685  0.1572 -0.0453  0.0516
 1483SOL    HW115911   2.767   3.258  10.741  0.1688 -0.8408 -0.7184
 1483SOL    HW215912   2.670   3.236  10.643 -1.7165  0.8611  0.3028
 1484SOL     OW15913   2.583   1.884   0.890  0.5717  0.1425  0.1868
 1484SOL    HW115914   2.495   1.904   0.858  0.4101  0.8445  1.0595
 1484SOL    HW215915   2.617   1.827   0.821 -0.8637  1.0842 -1.3024
 1485SOL     OW15916   0.794   2.276  14.483 -0.0782  0.0895 -0.0976
 1485SOL    HW115917   0.868   2.216  14.491 -0.4166 -0.5441 -1.8567
 1485SOL    HW215918   0.825   2.355  14.528 -1.5138  0.4179  0.3443
 1486SOL     OW15919   3.144   3.018   2.996 -0.0475  0.3100  0.3925
 1486SOL    HW115920   3.224   3.045   3.042 -0.2878  0.1193  0.9212
 1486SOL    HW215921   3.084   3.092   2.999 -0.0182  0.3834 -0.8323
 1487SOL     OW15922   1.001   2.947   3.324  0.2498  0.3146 -0.1840
 1487SOL    HW115923   1.021   2.985   3.239  1.0497  0.2970 -0.0046
 1487SOL    HW215924   1.070   2.883   3.342  0.9308  1.2822  0.6168
 1488SOL     OW15925   1.275   2.211  13.602 -0.1489 -0.4111  0.3430
 1488SOL    HW115926   1.353   2.265  13.588  0.3457 -0.3967  3.1036
 1488SOL    HW215927   1.207   2.263  13.645  1.9404  2.1589  0.6086
 1489SOL     OW15928   1.999   0.579   3.356  0.4516 -0.2418 -1.0310
 1489SOL    HW115929   2.075   0.597   3.300 -0.4261 -0.1876 -2.2221
 1489SOL    HW215930   1.937   0.643   3.318 -0.0779 -0.1006  0.0910
 1490SOL     OW15931   4.060   2.957   5.416 -0.7384  0.1650 -0.4436
 1490SOL    HW115932   4.103   2.912   5.489  0.4150  2.4838  0.3069
 1490SOL    HW215933   3.965   2.954   5.426 -0.5757 -0.1225  1.1356
 1491SOL     OW15934   1.751   3.522   4.859 -0.3126  0.3552  0.3408
 1491SOL    HW115935   1.834   3.565   4.841  1.1392 -1.6197  2.2741
 1491SOL    HW215936   1.753   3.517   4.955 -1.2949  0.3811  0.3621
 1492SOL     OW15937   1.441   3.490   7.538  0.1529 -0.1919 -0.1653
 1492SOL    HW115938   1.426   3.422   7.604 -1.4321  1.1661  0.8926
 1492SOL    HW215939   1.407   3.446   7.460  1.9676 -1.4928 -0.2163
 1493SOL     OW15940   1.455   2.022   8.147 -0.5222  0.2746 -0.2093
 1493SOL    HW115941   1.548   2.023   8.124 -0.2919  0.6085  0.7437
 1493SOL    HW215942   1.438   2.114   8.129  1.3245  1.1263  2.4473
 1494SOL     OW15943   0.648   2.103  14.983  0.0847 -0.1060 -0.2032
 1494SOL    HW115944   0.563   2.143  14.996 -0.3914 -1.2381  0.1630
 1494SOL    HW215945   0.663   2.087  15.076  0.5191  0.5738 -0.1594
 1495SOL     OW15946   3.576   3.915   3.993  0.1005  0.2285 -0.3598
 1495SOL    HW115947   3.659   3.918   4.040 -0.7761 -3.9180  1.5279
 1495SOL    HW215948   3.609   3.925   3.903  0.4689  0.6819 -0.1699
 1496SOL     OW15949   3.021   4.004   8.697  0.1506 -0.1156 -0.0768
 1496SOL    HW115950   3.011   4.099   8.690  1.6492 -0.0434 -1.1288
 1496SOL    HW215951   3.069   3.995   8.615 -1.7271 -0.3605 -1.1675
 1497SOL     OW15952   0.745   4.473   8.791  0.0954 -0.4420 -0.0016
 1497SOL    HW115953   0.661   4.442   8.824  0.6522 -1.2242  0.6908
 1497SOL    HW215954   0.729   4.477   8.696  1.5431  1.7469 -0.1354
 1498SOL     OW15955   0.264   4.388   7.754  0.4114  0.3729 -0.2182
 1498SOL    HW115956   0.187   4.350   7.797  0.0183  0.6866 -0.6435
 1498SOL    HW215957   0.230   4.477   7.757 -1.9915 -0.5440 -0.5661
 1499SOL     OW15958   1.356   4.302   4.868 -0.1307  0.4829  0.8118
 1499SOL    HW115959   1.260   4.303   4.866 -0.1132  2.5961  1.7731
 1499SOL    HW215960   1.365   4.209   4.891 -0.4367  0.1959 -0.2459
 1500SOL     OW15961   1.846   0.107   7.104  0.1332  0.4029  0.5837
 1500SOL    HW115962   1.863   0.044   7.173  0.4994 -0.8891 -0.6792
 1500SOL    HW215963   1.824   0.039   7.040  1.4774  1.1615 -0.7007
 1501SOL     OW15964   4.718   0.490  17.505 -0.7826  0.0498 -0.1843
 1501SOL    HW115965   0.008   0.445  17.588 -0.4925  0.4960  0.0054
 1501SOL    HW215966   4.665   0.565  17.534 -3.3796 -1.4124 -1.1397
 1502SOL     OW15967   4.464   1.632   2.718  0.2870 -0.1726 -0.1620
 1502SOL    HW115968   4.439   1.575   2.645  0.1869  0.8905 -0.9608
 1502SOL    HW215969   4.405   1.703   2.693  0.4490 -0.5333 -1.5714
 1503SOL     OW15970   1.982   3.187   8.780  0.8587  0.3545 -0.2797
 1503SOL    HW115971   1.928   3.227   8.712  0.9297 -0.1175 -0.6138
 1503SOL    HW215972   2.032   3.264   8.805  0.2950  0.2157  1.2719
 1504SOL     OW15973   3.498   4.498   7.997 -0.1147 -0.0520  0.0840
 1504SOL    HW115974   3.577   4.444   7.995  0.2907  0.5920 -1.4687
 1504SOL    HW215975   3.535   4.579   7.961 -0.0606 -0.3844 -0.6038
 1505SOL     OW15976   3.211   1.229   9.559 -0.2827 -0.1161  0.7005
 1505SOL    HW115977   3.217   1.172   9.635  0.4756  0.0365  0.7542
 1505SOL    HW215978   3.293   1.214   9.512 -0.7364 -1.3640  0.3039
 1506SOL     OW15979   1.694   0.873   6.955  0.1122 -0.3074 -0.1973
 1506SOL    HW115980   1.784   0.892   6.931  0.4495  0.3372  1.5219
 1506SOL    HW215981   1.650   0.883   6.871 -2.5812  1.6883  1.4326
 1507SOL     OW15982   1.966   0.834   6.042 -0.3298 -0.0382  0.4270
 1507SOL    HW115983   1.912   0.803   5.969  1.3915  1.7675 -1.6125
 1507SOL    HW215984   1.925   0.802   6.122  0.4707 -0.0941  0.8087
 1508SOL     OW15985   3.141   2.346  14.053 -0.0697 -0.2369 -0.0927
 1508SOL    HW115986   3.095   2.362  14.135 -1.1664 -1.3992 -0.4786
 1508SOL    HW215987   3.179   2.260  14.070  0.2140  0.0392  0.6574
 1509SOL     OW15988   2.252   0.202   1.669 -0.0267  0.2866  0.3376
 1509SOL    HW115989   2.164   0.232   1.689 -0.1233  0.4752 -0.3835
 1509SOL    HW215990   2.235   0.175   1.579 -0.2563 -2.3877  1.1691
 1510SOL     OW15991   4.023   2.302   9.736  0.0031  0.2572 -0.0468
 1510SOL    HW115992   4.027   2.345   9.650 -0.6401  0.5215  0.0536
 1510SOL    HW215993   4.044   2.379   9.789  0.1030  1.2559 -1.5284
 1511SOL     OW15994   0.777   3.575   8.027 -0.1483  0.2169 -0.2396
 1511SOL    HW115995   0.784   3.671   8.025  1.4244  0.1202  0.2622
 1511SOL    HW215996   0.805   3.566   7.936  0.6173 -0.1791  0.0334
 1512SOL     OW15997   1.407   1.195  11.844  0.0378 -0.2413  0.4354
 1512SOL    HW115998   1.497   1.211  11.815 -0.1419 -0.4124 -0.2324
 1512SOL    HW215999   1.398   1.105  11.814  1.9125  0.1071 -1.2537
 1513SOL     OW16000   1.140   3.249   8.435  0.2419  0.4806  0.0455
 1513SOL    HW116001   1.198   3.257   8.359 -0.3888 -1.0149 -0.6146
 1513SOL    HW216002   1.123   3.341   8.454 -1.7531 -0.0166  0.7371
 1514SOL     OW16003   1.995   4.466   2.221 -0.5261 -0.4516 -0.2895
 1514SOL    HW116004   2.001   4.371   2.221 -2.7729 -0.5706  3.2270
 1514SOL    HW216005   2.076   4.490   2.266 -0.5850  0.6210 -0.7396
 1515SOL     OW16006   2.333   0.012   5.254  0.5534  0.1094  0.7505
 1515SOL    HW116007   2.318   0.030   5.161  0.6954 -0.2118  0.6650
 1515SOL    HW216008   2.355   0.100   5.284 -0.3312  0.1074  1.3951
 1516SOL     OW16009   3.275   2.505  16.499  0.4191  0.3529 -0.2313
 1516SOL    HW116010   3.274   2.488  16.593  1.6473  2.4622  0.1593
 1516SOL    HW216011   3.321   2.588  16.485  1.4460  0.3943  3.4222
 1517SOL     OW16012   3.845   1.776   6.812  0.3233  0.1476  0.3015
 1517SOL    HW116013   3.855   1.740   6.724  2.8622  2.9759 -0.5787
 1517SOL    HW216014   3.806   1.702   6.858  1.5078 -0.1707  0.7718
 1518SOL     OW16015   2.418   4.057   8.101 -0.6849  0.3521 -0.1425
 1518SOL    HW116016   2.327   4.087   8.096 -0.8324 -0.2952 -1.5599
 1518SOL    HW216017   2.438   4.064   8.007  1.2226 -2.5196  0.0373
 1519SOL     OW16018   3.876   1.148   4.514 -0.1282 -0.0477 -0.3048
 1519SOL    HW116019   3.844   1.060   4.499 -0.4268  0.2857 -1.6749
 1519SOL    HW216020   3.892   1.192   4.430  0.8426  2.3996  1.1415
 1520SOL     OW16021   0.399   1.691   4.421  0.0866  0.3385  0.2471
 1520SOL    HW116022   0.362   1.714   4.506  3.1916  0.4869  1.5569
 1520SOL    HW216023   0.407   1.596   4.427  2.1480  0.5101  0.2620
 1521SOL     OW16024   0.289   4.622  11.171 -0.1432 -0.4742 -0.0263
 1521SOL    HW116025   0.243   4.705  11.169  0.5264 -0.1266 -1.2028
 1521SOL    HW216026   0.307   4.610  11.078  1.0232 -0.1871  0.1567
 1522SOL     OW16027   1.125   1.993   6.229 -0.1616  0.1423 -0.5824
 1522SOL    HW116028   1.107   2.063   6.292  3.3770 -0.4127  1.0726
 1522SOL    HW216029   1.196   2.029   6.176 -1.9087  2.3681 -1.3735
 1523SOL     OW16030   4.617   4.300   9.499 -0.4425 -0.1128  0.2553
 1523SOL    HW116031   4.523   4.282   9.498 -0.6362  0.8246  1.4552
 1523SOL    HW216032   4.654   4.239   9.435 -0.7271 -0.2803  0.2485
 1524SOL     OW16033   2.556   4.333   8.158  0.4470  0.0466 -0.0942
 1524SOL    HW116034   2.497   4.403   8.185  1.8125  0.1065  2.6472
 1524SOL    HW216035   2.496   4.276   8.109 -0.1542  0.7582 -0.1919
 1525SOL     OW16036   3.129   3.212   6.393  0.1342 -0.2690  0.3023
 1525SOL    HW116037   3.097   3.295   6.357 -0.4285  0.0547  1.5604
 1525SOL    HW216038   3.048   3.176   6.428 -0.0981  1.0741  1.1433
 1526SOL     OW16039   4.113   0.329   2.695 -0.6193 -0.0974 -0.4878
 1526SOL    HW116040   4.183   0.269   2.720 -0.0461 -0.4716 -2.9761
 1526SOL    HW216041   4.046   0.269   2.662 -0.8910 -0.7386  1.2229
 1527SOL     OW16042   3.590   2.331   7.174 -0.1632 -0.4300 -0.1663
 1527SOL    HW116043   3.507   2.285   7.168 -0.8913  0.9912 -0.9971
 1527SOL    HW216044   3.563   2.418   7.205  0.8104  0.0682 -0.7008
 1528SOL     OW16045   2.141   4.088  14.657  0.0406 -0.1990  0.1748
 1528SOL    HW116046   2.210   4.028  14.626  1.2806  0.2166  2.1101
 1528SOL    HW216047   2.066   4.051  14.611  0.1431  0.7605 -0.7558
 1529SOL     OW16048   2.297   0.769   2.533 -0.7892 -0.2164  0.6105
 1529SOL    HW116049   2.300   0.843   2.593 -1.5813 -0.6285  1.1668
 1529SOL    HW216050   2.391   0.758   2.519 -0.6834 -0.5773  1.5962
 1530SOL     OW16051   1.084   4.189  13.682  0.1813  0.2817  0.0066
 1530SOL    HW116052   1.179   4.179  13.677  0.2599  0.4419  1.3430
 1530SOL    HW216053   1.057   4.136  13.606 -0.9966 -0.6475  1.0862
 1531SOL     OW16054   2.191   3.099   3.783 -0.0934  0.1530  0.2203
 1531SOL    HW116055   2.211   3.082   3.875  1.3993 -0.5247 -0.2307
 1531SOL    HW216056   2.193   3.195   3.779  0.7205  0.0838 -1.1722
 1532SOL     OW16057   2.128   0.270   7.857 -0.0266  0.2351 -0.0946
 1532SOL    HW116058   2.064   0.295   7.924 -1.6485 -2.5664 -0.5596
 1532SOL    HW216059   2.112   0.339   7.794  1.5001  0.4312 -0.2738
 1533SOL     OW16060   1.471   4.640   3.515  0.1297 -0.2987  0.0264
 1533SOL    HW116061   1.433   4.556   3.487 -1.5113  0.1355  0.9519
 1533SOL    HW216062   1.415   4.703   3.470  0.7411 -0.5071 -1.0314
 1534SOL     OW16063   3.178   2.936  15.150 -0.0559  0.0451 -0.1376
 1534SOL    HW116064   3.209   3.025  15.133 -0.3322  0.5168  1.7228
 1534SOL    HW216065   3.122   2.921  15.074  2.3424 -1.5328 -1.5717
 1535SOL     OW16066   3.184   4.306  15.806 -0.3053 -0.5477 -0.8473
 1535SOL    HW116067   3.170   4.217  15.838 -0.0418 -0.6677 -1.0660
 1535SOL    HW216068   3.166   4.303  15.712 -2.0299  3.3686 -0.6582
 1536SOL     OW16069   3.176   2.418  11.570 -0.3352  0.1062  0.6712
 1536SOL    HW116070   3.216   2.503  11.551  0.6403 -0.6824 -0.7334
 1536SOL    HW216071   3.104   2.447  11.627 -1.3486  0.1862 -0.6616
 1537SOL     OW16072   3.379   0.338   8.165  0.0001 -0.2496  0.5277
 1537SOL    HW116073   3.359   0.248   8.138 -1.6136  0.9359 -2.2004
 1537SOL    HW216074   3.460   0.334   8.217  0.0219  0.7873  0.5579
 1538SOL     OW16075   0.818   2.140   5.082 -0.9378  0.4001  0.2754
 1538SOL    HW116076   0.849   2.229   5.069 -0.6898  0.3657  0.6219
 1538SOL    HW216077   0.763   2.134   5.004 -2.1203  1.1504  1.0572
 1539SOL     OW16078   0.450   1.463   5.681  0.8335 -0.4548  0.0211
 1539SOL    HW116079   0.541   1.470   5.653  0.8101  2.7067  0.7038
 1539SOL    HW216080   0.451   1.503   5.768  1.5121  1.8978 -1.0660
 1540SOL     OW16081   2.933   1.293  17.692 -0.0215 -0.3149  0.3311
 1540SOL    HW116082   2.952   1.212  17.645 -1.3092  0.4259 -1.4730
 1540SOL    HW216083   2.951   1.264   0.076  2.9192 -1.9939 -0.7927
 1541SOL     OW16084   4.717   3.974  14.357  0.4511  0.0697 -0.1668
 1541SOL    HW116085   0.075   3.961  14.315  1.9985  1.7656  2.3795
 1541SOL    HW216086   0.030   3.984  14.444 -0.0529 -1.4704  0.2262
 1542SOL     OW16087   4.382   2.517  16.389  0.0468  0.2805 -0.8042
 1542SOL    HW116088   4.352   2.524  16.479  0.3683 -2.0339 -0.5195
 1542SOL    HW216089   4.470   2.550  16.405 -0.5577  0.2783  2.4589
 1543SOL     OW16090   3.705   3.567   5.794 -0.5896 -0.0629  0.4278
 1543SOL    HW116091   3.611   3.555   5.807 -0.4774 -0.5585  0.7894
 1543SOL    HW216092   3.748   3.483   5.776 -1.1952 -0.3424  0.2903
 1544SOL     OW16093   0.307   1.257   6.417 -0.2844  0.2982  0.5026
 1544SOL    HW116094   0.346   1.226   6.335 -2.1420 -2.4969  0.6622
 1544SOL    HW216095   0.375   1.316   6.450  1.3128 -0.7405 -0.9280
 1545SOL     OW16096   2.374   3.845   2.979 -0.1735  0.4550 -0.2779
 1545SOL    HW116097   2.434   3.850   2.905  0.1003 -0.3929 -0.1065
 1545SOL    HW216098   2.403   3.763   3.020  0.1886  0.9152  0.3991
 1546SOL     OW16099   1.610   0.926   5.456 -0.8262 -0.1747 -0.5909
 1546SOL    HW116100   1.545   0.995   5.470  0.4170  0.8992 -0.1591
 1546SOL    HW216101   1.619   0.944   5.362  1.5903  3.6237  0.3831
 1547SOL     OW16102   4.072   2.651   1.978 -0.2926  0.7161  0.2430
 1547SOL    HW116103   3.995   2.704   1.959 -2.6366 -1.8054  2.6599
 1547SOL    HW216104   4.123   2.658   1.897 -0.4630  1.0060  0.1644
 1548SOL     OW16105   0.668   3.701   7.476 -0.5898 -0.2039 -0.1198
 1548SOL    HW116106   0.621   3.641   7.533  0.1760  0.2112  0.9389
 1548SOL    HW216107   0.638   3.656   7.397  1.6442  0.0798 -1.1128
 1549SOL     OW16108   0.445   0.941  14.372  0.0938 -0.1943  0.1996
 1549SOL    HW116109   0.486   0.876  14.428 -0.5426  1.2383  2.3240
 1549SOL    HW216110   0.373   0.889  14.336 -0.3163  0.6244 -0.1499
 1550SOL     OW16111   1.040   3.129   5.169  0.2245 -0.0582 -0.4117
 1550SOL    HW116112   1.027   3.215   5.130 -0.6031  0.2618  0.5793
 1550SOL    HW216113   0.953   3.092   5.149  0.3885 -1.1710  0.9312
 1551SOL     OW16114   1.061   1.287   3.112  0.2349  0.2493 -0.4212
 1551SOL    HW116115   1.103   1.219   3.059  1.1688  0.0175  0.6134
 1551SOL    HW216116   0.995   1.316   3.049  0.0155 -3.0799 -1.7260
 1552SOL     OW16117   3.097   2.984  15.584 -0.3863 -0.6182 -0.3684
 1552SOL    HW116118   3.175   3.040  15.590  0.8027 -2.2155 -0.8633
 1552SOL    HW216119   3.117   2.932  15.506  1.2799 -2.2714  1.1393
 1553SOL     OW16120   2.524   2.783   5.939 -0.2236  0.6193 -0.3273
 1553SOL    HW116121   2.479   2.745   6.014  0.3658  1.5623  0.5108
 1553SOL    HW216122   2.588   2.837   5.986 -0.7379 -0.1440  1.2357
 1554SOL     OW16123   1.017   0.120  11.917  1.0018  0.2458  0.0943
 1554SOL    HW116124   1.023   0.065  11.839 -1.4217  0.2577 -0.1032
 1554SOL    HW216125   1.111   0.131  11.922  1.2001 -1.6050  0.7439
 1555SOL     OW16126   0.943   4.637   3.065  0.6906  0.1207  0.6220
 1555SOL    HW116127   0.916   4.620   2.975  2.2316  0.7565  0.0306
 1555SOL    HW216128   0.862   4.605   3.104 -0.6656  0.7164 -1.7213
 1556SOL     OW16129   1.041   2.980   5.828  0.1170 -0.1311 -0.3087
 1556SOL    HW116130   1.053   3.033   5.907 -0.5402 -1.7329  0.8704
 1556SOL    HW216131   1.108   3.016   5.771 -0.7490 -0.0460 -1.2645
 1557SOL     OW16132   4.669   3.123   5.822  0.5202 -0.1912  0.4711
 1557SOL    HW116133   4.690   3.127   5.728 -0.8458 -0.9491  0.1298
 1557SOL    HW216134   0.008   3.063   5.856  1.8255  0.5167 -0.7622
 1558SOL     OW16135   2.481   0.371   5.954 -0.1721 -0.1501  0.3047
 1558SOL    HW116136   2.518   0.391   5.868  1.3889 -2.3169  0.4866
 1558SOL    HW216137   2.447   0.455   5.985 -2.3608 -0.4220 -1.3140
 1559SOL     OW16138   4.187   3.370  11.801 -0.2653 -0.1305  0.3144
 1559SOL    HW116139   4.224   3.409  11.722 -1.9388 -0.3787 -0.6042
 1559SOL    HW216140   4.230   3.285  11.804 -0.2785 -0.1308  0.4805
 1560SOL     OW16141   0.321   0.407  16.405  0.2340 -0.1670 -0.1027
 1560SOL    HW116142   0.348   0.490  16.365  3.1395 -0.8393  0.4141
 1560SOL    HW216143   0.406   0.362  16.403 -1.0460 -2.5272 -1.7878
 1561SOL     OW16144   2.065   4.391   4.653 -0.4881  0.1508  0.2132
 1561SOL    HW116145   2.092   4.470   4.606  0.8785 -0.3622  0.1286
 1561SOL    HW216146   1.988   4.362   4.603  0.7818  0.9975 -2.2495
 1562SOL     OW16147   3.662   3.913   3.739  0.2882  0.4809 -0.3830
 1562SOL    HW116148   3.643   3.910   3.646 -2.2338  0.4529  0.1449
 1562SOL    HW216149   3.754   3.887   3.746  0.2726  0.6370  0.5102
 1563SOL     OW16150   2.259   1.118   9.299  0.0195 -0.3917 -0.0240
 1563SOL    HW116151   2.225   1.172   9.227  1.6446 -0.0201 -0.5264
 1563SOL    HW216152   2.354   1.134   9.293 -0.5440  2.2882 -2.2324
 1564SOL     OW16153   3.297   4.487   6.406 -0.2206 -0.0984  0.2939
 1564SOL    HW116154   3.310   4.480   6.311 -1.9875  0.5473  0.0027
 1564SOL    HW216155   3.324   4.578   6.421  0.3611 -0.1227 -0.5942
 1565SOL     OW16156   1.173   0.440   3.610 -0.1380 -0.0661 -0.0046
 1565SOL    HW116157   1.247   0.379   3.607 -2.2654 -2.5777 -1.6114
 1565SOL    HW216158   1.219   0.523   3.621 -0.0106 -0.0653 -0.5416
 1566SOL     OW16159   1.172   3.043   8.665 -0.1949  0.1274  0.4579
 1566SOL    HW116160   1.103   3.088   8.715 -0.9413 -1.1502  0.5608
 1566SOL    HW216161   1.178   3.103   8.591  0.3112  2.4441  2.3460
 1567SOL     OW16162   2.297   1.331  11.104 -0.0709  0.4062 -0.1334
 1567SOL    HW116163   2.201   1.330  11.109 -0.0084 -3.6907  0.8089
 1567SOL    HW216164   2.313   1.413  11.058 -2.4038  0.0106 -1.6233
 1568SOL     OW16165   2.073   1.607   3.571  0.0757  0.4221  0.3767
 1568SOL    HW116166   2.012   1.538   3.544 -2.3377  2.0721  1.5615
 1568SOL    HW216167   2.022   1.688   3.572 -1.3656 -0.4781 -0.2823
 1569SOL     OW16168   4.411   3.502  15.482 -0.5389 -0.0051  0.1133
 1569SOL    HW116169   4.330   3.493  15.431  0.2124 -0.1627 -1.0546
 1569SOL    HW216170   4.385   3.559  15.554  0.3605 -1.9858  2.0019
 1570SOL     OW16171   4.237   1.898  10.281  0.4505  0.7711 -0.5208
 1570SOL    HW116172   4.271   1.913  10.193 -0.7998  2.5843 -0.7123
 1570SOL    HW216173   4.303   1.939  10.336  2.1308 -1.8797 -0.5572
 1571SOL     OW16174   4.316   3.585   4.734 -0.2461 -0.1127 -0.2789
 1571SOL    HW116175   4.334   3.511   4.675  0.8453  0.3234 -0.4778
 1571SOL    HW216176   4.336   3.659   4.677 -2.6299 -0.6691 -1.8575
 1572SOL     OW16177   0.474   1.155   5.067  0.4668  0.0407 -0.3322
 1572SOL    HW116178   0.430   1.090   5.012 -2.3351  0.5469  1.2770
 1572SOL    HW216179   0.482   1.104   5.148 -0.3732  0.2265 -0.1335
 1573SOL     OW16180   2.722   0.445   6.728 -0.3792  0.2481 -0.3125
 1573SOL    HW116181   2.632   0.458   6.697 -0.6420 -1.4750 -0.2538
 1573SOL    HW216182   2.726   0.499   6.807 -0.6151  3.3631 -2.4476
 1574SOL     OW16183   3.325   1.493   8.799  0.8771  0.5088  0.4902
 1574SOL    HW116184   3.374   1.528   8.724  1.7011 -1.9707 -0.1126
 1574SOL    HW216185   3.272   1.571   8.818 -0.9830 -0.5769 -0.2008
 1575SOL     OW16186   0.673   0.793  14.478  0.0857  0.2007  0.2445
 1575SOL    HW116187   0.689   0.790  14.383 -2.2786 -0.1517 -0.1374
 1575SOL    HW216188   0.721   0.874  14.497  0.0758  0.7850 -2.1279
 1576SOL     OW16189   1.889   1.105   9.391 -0.3553  0.2610  0.1912
 1576SOL    HW116190   1.941   1.059   9.457 -1.5818  0.5315  1.3727
 1576SOL    HW216191   1.902   1.046   9.318  1.0595  3.0902 -1.8367
 1577SOL     OW16192   3.506   3.179   4.865 -0.2763 -0.0538  0.1032
 1577SOL    HW116193   3.589   3.219   4.891 -0.4025 -1.2783  2.4294
 1577SOL    HW216194   3.466   3.141   4.943 -1.5344  1.4076  0.1754
 1578SOL     OW16195   2.125   3.523   6.214  0.7130  0.4586  0.0091
 1578SOL    HW116196   2.044   3.499   6.168  0.2048 -0.0043  1.1269
 1578SOL    HW216197   2.117   3.463   6.289 -0.9664  0.7450  0.0642
 1579SOL     OW16198   1.910   4.199  12.210 -0.2097 -0.3722  0.3402
 1579SOL    HW116199   1.986   4.230  12.259 -0.1698  2.3527 -1.4598
 1579SOL    HW216200   1.896   4.118  12.259  0.8287 -0.0438  1.1713
 1580SOL     OW16201   1.818   3.077   7.932 -0.5548 -0.3372 -0.0909
 1580SOL    HW116202   1.805   3.137   7.858 -0.0706 -0.2101 -0.0705
 1580SOL    HW216203   1.730   3.063   7.966  0.3149  0.3344  2.4268
 1581SOL     OW16204   3.064   0.475  17.306  0.2877 -0.0953 -0.1421
 1581SOL    HW116205   3.023   0.412  17.248 -0.5656  0.9704 -0.6977
 1581SOL    HW216206   2.985   0.523  17.332 -1.0286 -1.5071 -1.5943
 1582SOL     OW16207   4.194   0.875   6.265  0.3494  0.1311  0.3310
 1582SOL    HW116208   4.114   0.839   6.230 -0.8189  0.9488  2.1247
 1582SOL    HW216209   4.176   0.964   6.235  0.3065 -0.1080 -0.3464
 1583SOL     OW16210   1.178   3.607  14.706  0.1959  0.1262 -0.6438
 1583SOL    HW116211   1.272   3.605  14.684  0.3622  1.9403 -0.1329
 1583SOL    HW216212   1.190   3.641  14.794 -3.4125 -0.0333 -0.1220
 1584SOL     OW16213   3.765   4.218   3.763  0.4642  0.0727  0.1468
 1584SOL    HW116214   3.838   4.159   3.781 -0.8343 -1.6359 -0.2594
 1584SOL    HW216215   3.708   4.207   3.839 -1.2579 -0.9537 -1.2948
 1585SOL     OW16216   3.251   1.204  11.905 -0.0323 -0.5983  0.0769
 1585SOL    HW116217   3.277   1.114  11.925 -0.2043 -0.7280 -0.2661
 1585SOL    HW216218   3.338   1.242  11.901 -0.4648  0.4987  1.2707
 1586SOL     OW16219   3.364   2.179   1.132 -0.0411 -0.1303  0.5480
 1586SOL    HW116220   3.399   2.225   1.208 -1.5822  0.9669  0.6008
 1586SOL    HW216221   3.404   2.238   1.069 -0.0538 -0.2696  0.4110
 1587SOL     OW16222   2.005   1.925   4.525 -0.0896  0.3908 -0.0269
 1587SOL    HW116223   2.059   1.847   4.520  0.4323  0.6939  1.0320
 1587SOL    HW216224   1.922   1.887   4.552  0.5282  0.1317  1.5005
 1588SOL     OW16225   0.143   0.448   9.056  0.2609  0.0438  0.0789
 1588SOL    HW116226   0.192   0.403   9.125  0.3041  0.5284  0.3639
 1588SOL    HW216227   0.210   0.464   8.990  1.4778  0.6014  1.4631
 1589SOL     OW16228   0.431   1.100  13.049 -0.3486  0.0540  0.3490
 1589SOL    HW116229   0.456   1.031  13.112 -1.3379 -0.6866 -0.0828
 1589SOL    HW216230   0.519   1.117  13.016 -0.3068 -0.9872 -0.0900
 1590SOL     OW16231   2.946   2.114  10.298  0.1135  0.2690  0.2279
 1590SOL    HW116232   3.015   2.132  10.234 -0.2679 -2.7205 -1.0186
 1590SOL    HW216233   2.919   2.200  10.329  0.7277  0.1208  1.1925
 1591SOL     OW16234   2.553   3.997  17.572 -0.8487 -0.2433  0.4604
 1591SOL    HW116235   2.497   3.974  17.498  0.8613  0.2155 -0.9890
 1591SOL    HW216236   2.561   4.092  17.564 -1.2111 -0.1144  1.7523
 1592SOL     OW16237   0.131   0.792   8.615  0.3133 -0.0934  0.2138
 1592SOL    HW116238   0.087   0.712   8.644 -0.5804 -0.4284 -2.0974
 1592SOL    HW216239   0.123   0.776   8.521 -0.8615  3.0766 -0.2218
 1593SOL     OW16240   0.132   3.155  12.269 -0.1153  0.3452  0.1933
 1593SOL    HW116241   0.120   3.250  12.274  1.2571  0.5274  0.1115
 1593SOL    HW216242   0.171   3.137  12.355  1.4698 -0.2169 -0.6376
 1594SOL     OW16243   4.345   3.854   3.473  0.1732  0.1571 -0.3450
 1594SOL    HW116244   4.342   3.762   3.447 -0.3628 -0.6290  2.5329
 1594SOL    HW216245   4.260   3.880   3.437  0.8090 -0.3337 -2.1882
 1595SOL     OW16246   1.598   4.140  13.533 -0.4409  0.1036 -0.3525
 1595SOL    HW116247   1.527   4.092  13.575  0.5003 -1.2964 -0.3698
 1595SOL    HW216248   1.668   4.089  13.574 -2.0572 -1.0671  0.9656
 1596SOL     OW16249   1.053   1.806   2.700 -0.2458 -0.0376  0.6009
 1596SOL    HW116250   1.118   1.819   2.631  0.4478 -1.6182  0.9668
 1596SOL    HW216251   1.010   1.722   2.685 -0.3146  0.1899 -0.4805
 1597SOL     OW16252   3.690   0.166  13.979 -0.4820  0.0364  0.1617
 1597SOL    HW116253   3.771   0.206  14.009 -2.2844  3.4951  0.4154
 1597SOL    HW216254   3.642   0.238  13.939 -0.0693 -0.3646 -1.0398
 1598SOL     OW16255   0.365   4.104   2.696  0.2615 -0.1438 -0.6256
 1598SOL    HW116256   0.427   4.149   2.753  0.4115  0.7509 -1.4926
 1598SOL    HW216257   0.403   4.124   2.610  0.0535 -1.9745 -1.1468
 1599SOL     OW16258   2.187   0.153   8.807 -0.4141 -0.3789 -0.3751
 1599SOL    HW116259   2.283   0.157   8.807 -0.4261 -0.1375  0.1076
 1599SOL    HW216260   2.184   0.099   8.886 -0.9251  0.6837  0.3181
 1600SOL     OW16261   2.440   2.340   7.913  0.1640  0.4876  0.0335
 1600SOL    HW116262   2.504   2.270   7.929 -1.3750 -0.7209  0.8767
 1600SOL    HW216263   2.489   2.406   7.864 -0.8658  1.1770 -0.0516
 1601SOL     OW16264   2.342   3.665   1.314 -0.4868 -0.1445  0.8842
 1601SOL    HW116265   2.423   3.715   1.311 -1.0121  0.4412 -3.6139
 1601SOL    HW216266   2.340   3.646   1.408 -1.5512 -0.3652  0.8203
 1602SOL     OW16267   4.650   1.936   6.172  0.7378 -0.0770  0.1724
 1602SOL    HW116268   4.711   1.866   6.192  3.5018  1.5076 -2.7432
 1602SOL    HW216269   4.571   1.884   6.187  1.7692 -2.6437 -3.1847
 1603SOL     OW16270   0.841   1.743   4.250 -0.2166  0.0712  0.0797
 1603SOL    HW116271   0.827   1.678   4.181  0.1883 -1.3690  1.3601
 1603SOL    HW216272   0.763   1.796   4.233 -1.5324 -0.9633  2.9758
 1604SOL     OW16273   1.930   0.367   7.023 -0.5755  0.6825  0.8426
 1604SOL    HW116274   1.923   0.359   6.928  1.4666  0.1332  0.7478
 1604SOL    HW216275   1.907   0.279   7.051 -0.3127  0.8415  1.5442
 1605SOL     OW16276   1.352   1.701   4.142 -0.2041  0.0666  0.0493
 1605SOL    HW116277   1.351   1.768   4.074 -1.2056  0.6233  0.6120
 1605SOL    HW216278   1.257   1.702   4.158 -0.1938 -1.0405  0.1667
 1606SOL     OW16279   1.192   4.012   2.258  0.5610  0.3088 -0.8005
 1606SOL    HW116280   1.255   3.955   2.302  0.7849  2.8388  2.1770
 1606SOL    HW216281   1.245   4.091   2.248  2.4363 -0.8961 -0.4939
 1607SOL     OW16282   0.761   3.579  12.503  0.0695  0.6575  0.1272
 1607SOL    HW116283   0.797   3.545  12.585 -0.4969  1.7109  0.8186
 1607SOL    HW216284   0.679   3.531  12.492  0.1474  0.4781  0.3191
 1608SOL     OW16285   4.476   2.741   1.941 -0.5723 -0.3356  0.1945
 1608SOL    HW116286   4.514   2.824   1.968  0.5363 -0.2540 -1.5616
 1608SOL    HW216287   4.390   2.765   1.907 -0.2508  0.2854 -0.1777
 1609SOL     OW16288   3.937   4.205   9.485  0.0583  0.0982  0.9390
 1609SOL    HW116289   4.030   4.220   9.498  0.5490  0.6795 -3.2665
 1609SOL    HW216290   3.930   4.115   9.454 -0.1229  0.1273  0.8949
 1610SOL     OW16291   3.071   2.883   8.038 -0.5763  0.6715 -0.4020
 1610SOL    HW116292   3.108   2.932   7.964  0.4150  2.0398  1.0159
 1610SOL    HW216293   3.133   2.810   8.041 -0.2050  0.9591 -1.0096
 1611SOL     OW16294   0.299   4.650   2.063 -0.1135  0.6193 -0.2019
 1611SOL    HW116295   0.347   4.593   2.123 -2.6796 -0.2217  1.0520
 1611SOL    HW216296   0.366   4.643   1.995  0.1418 -1.3441  0.2513
 1612SOL     OW16297   3.545   3.251   4.234 -0.1745 -0.1090 -0.1734
 1612SOL    HW116298   3.484   3.306   4.183 -1.1673 -0.9400  0.1292
 1612SOL    HW216299   3.479   3.201   4.282 -0.4106  3.1776  2.9571
 1613SOL     OW16300   0.624   3.883   9.112 -0.1364  0.0528  0.1555
 1613SOL    HW116301   0.628   3.819   9.042 -1.3512  2.2024 -1.8828
 1613SOL    HW216302   0.646   3.960   9.059 -0.0770  0.0426  0.1650
 1614SOL     OW16303   2.935   4.692   8.686  0.4488 -0.2592  0.2528
 1614SOL    HW116304   2.943   4.726   8.775  0.1144 -0.0388  0.1997
 1614SOL    HW216305   2.937   0.050   8.641 -1.7599  0.7508  2.0523
 1615SOL     OW16306   4.123   3.609   3.629 -0.3898  0.3081  0.5647
 1615SOL    HW116307   4.063   3.615   3.554  1.1153  2.5429 -0.4518
 1615SOL    HW216308   4.092   3.524   3.662  0.2573 -0.1934 -0.0920
 1616SOL     OW16309   1.713   4.014   3.188 -0.0352 -0.0957 -0.4665
 1616SOL    HW116310   1.725   3.920   3.205 -1.1480 -0.1160  0.2463
 1616SOL    HW216311   1.725   4.021   3.094  0.5059  1.2729 -0.2950
 1617SOL     OW16312   1.755   2.340   8.015 -0.1902  0.0061  0.7019
 1617SOL    HW116313   1.763   2.408   8.081 -0.4338  0.6556  0.0669
 1617SOL    HW216314   1.663   2.344   7.988 -0.1092  0.0179  0.4237
 1618SOL     OW16315   0.758   2.455   8.722 -0.3687  0.0506  0.0674
 1618SOL    HW116316   0.756   2.380   8.663  3.0565  0.3617 -0.4010
 1618SOL    HW216317   0.851   2.474   8.733 -0.3270 -0.0263 -0.1597
 1619SOL     OW16318   1.288   1.543   6.535 -0.1081  0.1199  0.3868
 1619SOL    HW116319   1.351   1.609   6.562  1.3765 -0.3481 -1.9864
 1619SOL    HW216320   1.322   1.529   6.447  0.0498 -1.5125  0.7015
 1620SOL     OW16321   1.478   1.734   6.686  0.7237 -0.2976  0.1410
 1620SOL    HW116322   1.543   1.674   6.723 -1.2107 -2.4260  0.0575
 1620SOL    HW216323   1.524   1.786   6.619 -0.0386  1.3796  0.9245
 1621SOL     OW16324   2.887   3.478   3.680  0.5845 -0.3541 -0.1254
 1621SOL    HW116325   2.921   3.490   3.592 -0.5840  1.1521 -0.3776
 1621SOL    HW216326   2.871   3.567   3.710  2.3501 -0.3621  0.8443
 1622SOL     OW16327   0.726   1.476   3.202 -0.3067  0.2077  0.2834
 1622SOL    HW116328   0.656   1.418   3.173 -0.4714 -0.8494  2.8043
 1622SOL    HW216329   0.737   1.452   3.294 -1.3863  0.6683  0.5347
 1623SOL     OW16330   0.886   3.226   7.261  0.5751 -0.5056 -0.1737
 1623SOL    HW116331   0.804   3.205   7.217 -1.2044  1.2328  2.3403
 1623SOL    HW216332   0.893   3.317   7.234 -2.4365  0.6103  2.7522
 1624SOL     OW16333   4.377   4.378   4.597 -0.0390  0.6802 -0.3064
 1624SOL    HW116334   4.289   4.368   4.562  0.3868 -1.3401 -0.7830
 1624SOL    HW216335   4.418   4.292   4.588  1.5984  1.6202 -1.8014
 1625SOL     OW16336   2.636   2.095   8.687 -0.2522 -0.1079 -0.0452
 1625SOL    HW116337   2.690   2.018   8.700  1.0551  0.1368 -4.1124
 1625SOL    HW216338   2.692   2.147   8.630 -2.8379 -0.4123 -2.8440
 1626SOL     OW16339   1.540   4.630  15.832  0.3938 -0.0782 -0.0333
 1626SOL    HW116340   1.531   4.536  15.815 -2.9890  0.4744 -1.4736
 1626SOL    HW216341   1.466   4.655  15.887 -1.1547 -3.8174 -0.3768
 1627SOL     OW16342   2.405   0.260   9.114 -0.1237  0.4232 -0.3781
 1627SOL    HW116343   2.465   0.314   9.063  1.6268  0.1442  1.3526
 1627SOL    HW216344   2.395   0.301   9.199 -0.2749 -0.8671  0.2293
 1628SOL     OW16345   0.333   3.967   8.521 -0.2916 -0.1403 -0.4421
 1628SOL    HW116346   0.351   4.058   8.544  1.5916 -1.2585  2.5123
 1628SOL    HW216347   0.390   3.967   8.444 -0.1558 -0.8065 -0.3425
 1629SOL     OW16348   3.361   2.207   8.505 -0.2198 -0.3348  0.3096
 1629SOL    HW116349   3.375   2.252   8.421  0.7231 -1.0873  0.0673
 1629SOL    HW216350   3.381   2.278   8.565  0.1691 -0.1862  0.0029
 1630SOL     OW16351   0.844   1.950   9.092  0.3994 -0.3329  0.3026
 1630SOL    HW116352   0.781   2.009   9.134  0.2259 -0.9345  0.8993
 1630SOL    HW216353   0.914   2.011   9.071 -1.4247  0.9315 -2.0464
 1631SOL     OW16354   2.857   1.352  10.956  0.1160  0.4792 -0.0855
 1631SOL    HW116355   2.858   1.336  10.862  2.1396  2.0768 -0.3390
 1631SOL    HW216356   2.776   1.318  10.995  0.5059 -1.6666 -1.1612
 1632SOL     OW16357   0.729   2.462  13.544 -0.3947  0.0751  0.0230
 1632SOL    HW116358   0.780   2.526  13.494  0.8516 -1.1765 -0.3149
 1632SOL    HW216359   0.655   2.518  13.567 -0.8140 -0.7669  0.7147
 1633SOL     OW16360   0.078   3.982   3.648  0.1181 -0.1959  0.0417
 1633SOL    HW116361   0.094   4.073   3.623  1.6860 -0.4478  0.1564
 1633SOL    HW216362   0.080   3.937   3.564  1.7423  0.3595 -0.2039
 1634SOL     OW16363   0.945   1.251   2.856  0.2104  0.2367 -0.1910
 1634SOL    HW116364   0.916   1.292   2.774 -2.3698 -1.7376 -0.2551
 1634SOL    HW216365   0.988   1.173   2.821  0.9988  1.4943 -2.0668
 1635SOL     OW16366   0.177   1.424   5.974  1.0269  0.2753  0.4895
 1635SOL    HW116367   0.210   1.353   6.029  1.9009  0.2753 -0.0298
 1635SOL    HW216368   0.234   1.419   5.897 -1.3931  0.0025 -1.3101
 1636SOL     OW16369   2.253   4.345   8.971 -1.1312 -0.2777 -0.1029
 1636SOL    HW116370   2.338   4.390   8.966 -1.1217 -0.2888 -0.0381
 1636SOL    HW216371   2.239   4.309   8.884  0.4430 -3.9150  1.1532
 1637SOL     OW16372   2.451   2.778   2.340  0.1809 -0.0034  0.3769
 1637SOL    HW116373   2.531   2.807   2.296  0.5773  0.4564  1.3896
 1637SOL    HW216374   2.396   2.856   2.332 -0.1072 -0.1718  0.7570
 1638SOL     OW16375   1.704   2.982  17.393 -0.4275 -0.1254 -0.2223
 1638SOL    HW116376   1.633   2.919  17.410  1.2923 -2.2793 -1.0230
 1638SOL    HW216377   1.658   3.063  17.412  0.8437  0.7169 -0.7835
 1639SOL     OW16378   1.638   3.496   0.529  0.4051 -0.2484 -0.1837
 1639SOL    HW116379   1.674   3.559   0.591 -0.8906 -1.1995  1.5518
 1639SOL    HW216380   1.668   3.420   0.580 -0.8844 -0.4382  0.2912
 1640SOL     OW16381   2.894   3.216   2.287 -0.7083 -0.0890 -0.8814
 1640SOL    HW116382   2.958   3.267   2.338  0.1730  0.3454 -2.4289
 1640SOL    HW216383   2.932   3.239   2.202 -0.2852  2.3306 -0.0588
 1641SOL     OW16384   3.736   0.641  16.226 -0.1670  0.4508 -0.2659
 1641SOL    HW116385   3.787   0.707  16.179  0.1290  0.9749  0.8070
 1641SOL    HW216386   3.767   0.665  16.313  0.2283  0.5290 -0.4295
 1642SOL     OW16387   1.026   1.081   2.646 -0.1542  0.1511  0.0668
 1642SOL    HW116388   0.944   1.059   2.600  1.3313 -0.0130 -2.4920
 1642SOL    HW216389   1.080   1.007   2.619 -2.2695 -1.2898 -0.2059
 1643SOL     OW16390   3.472   0.095   4.553  0.0252 -0.7075  0.5542
 1643SOL    HW116391   3.415   0.076   4.479  1.8778 -1.9283 -0.5589
 1643SOL    HW216392   3.561   0.071   4.529  0.1169  0.0760  0.1127
 1644SOL     OW16393   1.470   4.110   5.866 -0.7110  0.5999 -0.1728
 1644SOL    HW116394   1.380   4.127   5.893 -0.2971 -0.1257  1.6832
 1644SOL    HW216395   1.463   4.127   5.772  0.4229 -0.1987 -0.4064
 1645SOL     OW16396   1.500   0.590   4.095  0.0159 -0.5093 -0.3063
 1645SOL    HW116397   1.478   0.547   4.012 -0.3193 -0.2066 -0.3699
 1645SOL    HW216398   1.465   0.532   4.162  2.8797 -2.1179 -0.1970
 1646SOL     OW16399   1.671   3.255   6.315  0.4398 -0.0219  0.2273
 1646SOL    HW116400   1.756   3.213   6.329  1.8484  2.0523 -1.9428
 1646SOL    HW216401   1.612   3.185   6.343  0.2609  0.1639  0.3104
 1647SOL     OW16402   2.585   1.197   5.704  0.9550  0.4076  0.3455
 1647SOL    HW116403   2.499   1.220   5.669  1.6446  1.6209 -0.5319
 1647SOL    HW216404   2.574   1.213   5.798 -0.4942  0.2258  0.2013
 1648SOL     OW16405   0.974   3.707   4.433 -0.4666 -0.4802 -0.0547
 1648SOL    HW116406   1.009   3.663   4.355  1.9433  0.3166  0.5570
 1648SOL    HW216407   1.053   3.732   4.480 -0.1792 -1.7436  0.1248
 1649SOL     OW16408   2.302   2.898   4.997 -0.0790  0.2723  0.0633
 1649SOL    HW116409   2.321   2.922   5.087 -0.3122  0.4277  0.0713
 1649SOL    HW216410   2.385   2.922   4.956  0.0672  2.4376  1.6174
 1650SOL     OW16411   1.287   2.193  17.319  0.0067  0.0022 -0.3916
 1650SOL    HW116412   1.288   2.222  17.228 -2.0946 -3.3108 -1.4560
 1650SOL    HW216413   1.330   2.108  17.307  0.3771 -0.5335  4.6615
 1651SOL     OW16414   2.438   2.385  11.751  0.2347 -0.2028  0.3972
 1651SOL    HW116415   2.361   2.329  11.761  0.7035 -0.6256  1.6365
 1651SOL    HW216416   2.421   2.456  11.689  0.0517 -0.7994 -0.2415
 1652SOL     OW16417   1.345   4.314   7.336 -0.5710  0.0374 -0.3042
 1652SOL    HW116418   1.369   4.238   7.389  0.2309  0.7849  0.4029
 1652SOL    HW216419   1.394   4.382   7.383  0.4129 -0.5735 -0.4507
 1653SOL     OW16420   4.524   2.883   0.718  0.3491 -0.6990  0.1197
 1653SOL    HW116421   4.441   2.929   0.726  1.1374  0.6515  0.5449
 1653SOL    HW216422   4.481   2.798   0.728  1.0531 -1.0892 -0.1216
 1654SOL     OW16423   0.806   1.338   7.257 -0.7170  0.0543  0.3457
 1654SOL    HW116424   0.824   1.369   7.169  0.8217 -1.3666  0.1690
 1654SOL    HW216425   0.710   1.342   7.259 -0.9602 -4.6718 -1.6741
 1655SOL     OW16426   0.010   3.757   1.418  0.0794 -0.8647 -1.1569
 1655SOL    HW116427   4.645   3.747   1.393 -0.6867 -1.7429  1.8896
 1655SOL    HW216428   0.024   3.662   1.422 -0.1123 -0.7869  1.3300
 1656SOL     OW16429   3.008   2.924   1.364 -0.2527  0.1436 -0.1107
 1656SOL    HW116430   3.096   2.944   1.396  0.4055 -2.4738 -0.3431
 1656SOL    HW216431   3.022   2.892   1.275 -0.5450 -2.0140  0.6256
 1657SOL     OW16432   1.412   2.073  14.031 -0.1783  0.3281 -0.5001
 1657SOL    HW116433   1.460   2.130  14.091  1.1774 -0.5029 -0.8041
 1657SOL    HW216434   1.327   2.117  14.032  0.9589  2.4783  0.9419
 1658SOL     OW16435   1.184   3.637   2.393 -0.1746  0.3486  0.4388
 1658SOL    HW116436   1.141   3.635   2.308 -0.6162  0.0152  0.6729
 1658SOL    HW216437   1.239   3.560   2.381  0.6805  0.8103  1.3369
 1659SOL     OW16438   0.404   3.929  15.897  0.0696 -0.8768 -0.4053
 1659SOL    HW116439   0.353   4.009  15.913 -0.8065 -1.5951  0.4085
 1659SOL    HW216440   0.330   3.869  15.909  0.1985 -1.2277 -1.3522
 1660SOL     OW16441   0.633   0.345   8.971 -0.5981  0.4462 -0.3623
 1660SOL    HW116442   0.647   0.439   8.955  1.4842  0.5222  1.9394
 1660SOL    HW216443   0.710   0.332   9.026 -1.5140  1.1782  1.0786
 1661SOL     OW16444   2.296   0.944   2.729 -0.0973 -0.4514 -0.1986
 1661SOL    HW116445   2.365   1.009   2.713  0.6215 -1.2194 -0.1968
 1661SOL    HW216446   2.276   0.953   2.822  0.1750  1.9377 -0.3574
 1662SOL     OW16447   0.127   4.048  12.266  0.4766 -0.8387  0.1284
 1662SOL    HW116448   0.034   4.064  12.283  0.1830 -2.0795 -0.3255
 1662SOL    HW216449   0.142   4.105  12.191  0.6823  0.8398  1.4519
 1663SOL     OW16450   4.071   1.984   5.728 -0.2283  0.1773 -0.4313
 1663SOL    HW116451   3.992   2.011   5.682 -0.2728 -0.2618 -0.6112
 1663SOL    HW216452   4.107   1.923   5.664 -0.6611  0.0489 -0.5548
 1664SOL     OW16453   1.215   4.717   5.337 -0.2892 -0.3875  0.0503
 1664SOL    HW116454   1.165   4.694   5.259 -0.8038 -0.0787  0.2932
 1664SOL    HW216455   1.287   4.657   5.316 -0.1680 -0.2736  0.1462
 1665SOL     OW16456   1.219   2.160   3.446 -0.1109 -0.0031  0.4635
 1665SOL    HW116457   1.310   2.175   3.419 -0.1228  1.3098  1.2096
 1665SOL    HW216458   1.186   2.106   3.374 -0.2254  1.0821 -0.2995
 1666SOL     OW16459   3.741   3.062   7.276  0.0855 -0.3661 -0.3765
 1666SOL    HW116460   3.749   2.973   7.244 -0.8954 -0.4692 -0.3344
 1666SOL    HW216461   3.672   3.095   7.219 -0.3304  1.6382  1.2750
 1667SOL     OW16462   0.516   0.886   5.869  0.4644  0.0918  0.1686
 1667SOL    HW116463   0.491   0.979   5.873  0.0251 -0.1012  2.0760
 1667SOL    HW216464   0.587   0.881   5.933 -0.1577 -0.4268  0.8109
 1668SOL     OW16465   1.822   1.825   3.577  0.0837 -0.0166 -0.2252
 1668SOL    HW116466   1.742   1.845   3.529  0.0935 -0.3672 -0.3883
 1668SOL    HW216467   1.874   1.903   3.556  1.2886 -0.5401  0.8089
 1669SOL     OW16468   2.219   2.011  13.988  0.4252  0.2663  0.7286
 1669SOL    HW116469   2.183   1.944  14.046 -0.8045  0.0043 -0.3441
 1669SOL    HW216470   2.159   2.015  13.914  0.5103 -1.3809  0.5803
 1670SOL     OW16471   1.797   3.660   6.100  0.3082 -0.0952 -0.2851
 1670SOL    HW116472   1.801   3.685   6.007 -1.2572 -0.6604 -0.5220
 1670SOL    HW216473   1.748   3.578   6.092  2.0402 -1.0099 -1.4958
 1671SOL     OW16474   2.522   0.004   2.252 -0.7684 -0.1640  0.3445
 1671SOL    HW116475   2.439   4.683   2.251 -0.4090 -0.8329  1.7803
 1671SOL    HW216476   2.590   4.665   2.232 -1.6752 -1.7454  2.3743
 1672SOL     OW16477   3.119   1.659   5.160  0.4494 -0.3132  0.8614
 1672SOL    HW116478   3.208   1.666   5.194  1.0550  2.0931 -1.1818
 1672SOL    HW216479   3.073   1.681   5.241 -0.7754  0.8584 -0.1463
 1673SOL     OW16480   2.969   2.350   7.607  0.8517 -0.1015 -0.0052
 1673SOL    HW116481   2.929   2.420   7.555 -1.0094 -0.9517  0.3069
 1673SOL    HW216482   2.953   2.278   7.546 -0.1080 -1.4848  1.9152
 1674SOL     OW16483   2.690   3.549  17.656 -0.5323 -0.7884 -0.1472
 1674SOL    HW116484   2.693   3.477   0.014  0.0198 -2.1317 -1.7068
 1674SOL    HW216485   2.618   3.528  17.596 -0.4486 -2.3122  0.2888
 1675SOL     OW16486   0.743   4.159   7.701 -0.1670 -0.4314  0.4206
 1675SOL    HW116487   0.836   4.182   7.705 -0.0271 -0.5438 -2.2619
 1675SOL    HW216488   0.728   4.187   7.611  1.3252 -2.0426 -0.3351
 1676SOL     OW16489   0.888   1.602   2.634  0.1906 -0.2416  0.2863
 1676SOL    HW116490   0.928   1.527   2.589  0.4426  0.3194 -0.4217
 1676SOL    HW216491   0.823   1.619   2.566 -1.4832  0.0211  1.9745
 1677SOL     OW16492   1.326   0.466   7.931 -0.4711 -0.0185  0.1213
 1677SOL    HW116493   1.247   0.501   7.971  0.2763  1.1455  0.5727
 1677SOL    HW216494   1.381   0.542   7.951  1.1861 -1.0983 -0.3069
 1678SOL     OW16495   4.409   3.182   4.915 -0.1147 -0.7285 -0.1799
 1678SOL    HW116496   4.344   3.199   4.983 -0.4345 -1.1845 -0.3687
 1678SOL    HW216497   4.462   3.261   4.917 -0.0133 -0.7649 -1.4277
 1679SOL     OW16498   2.847   2.251   4.483 -0.0118 -0.7069 -0.0430
 1679SOL    HW116499   2.783   2.266   4.552 -0.7837 -2.8470 -0.2938
 1679SOL    HW216500   2.795   2.263   4.403  0.9560  0.8725 -0.4302
 1680SOL     OW16501   3.142   1.790   7.408  0.0196  0.0889  0.2380
 1680SOL    HW116502   3.145   1.821   7.499  1.9665 -0.2124  0.2811
 1680SOL    HW216503   3.167   1.876   7.373  1.2814 -0.4934 -0.2878
 1681SOL     OW16504   1.023   4.255  14.847 -0.0580  0.0718 -0.7421
 1681SOL    HW116505   1.048   4.337  14.889  1.2065  0.0323 -1.4297
 1681SOL    HW216506   1.083   4.244  14.773 -1.1322 -0.2039 -1.5704
 1682SOL     OW16507   3.760   3.077  10.685 -0.2916 -0.7746  0.1768
 1682SOL    HW116508   3.748   3.120  10.770  0.0845  1.0110 -0.6569
 1682SOL    HW216509   3.775   2.990  10.721 -0.8753 -0.6512  0.7189
 1683SOL     OW16510   0.209   4.270   8.174  0.0128  0.0563 -0.0807
 1683SOL    HW116511   0.251   4.224   8.101 -0.5775  1.0690 -1.0587
 1683SOL    HW216512   0.185   4.202   8.237  1.2245  0.3455  0.7077
 1684SOL     OW16513   0.157   1.224   5.018 -0.0460  0.1861  0.1525
 1684SOL    HW116514   0.068   1.229   5.054 -0.6165  0.9244 -1.3591
 1684SOL    HW216515   0.180   1.144   5.064  3.9379  1.2283 -0.0016
 1685SOL     OW16516   2.203   3.925  17.016 -0.0840 -0.9714 -0.4229
 1685SOL    HW116517   2.123   3.913  17.068 -1.6899  2.5048 -2.0864
 1685SOL    HW216518   2.258   3.855  17.053 -0.2720 -1.4806 -1.1129
 1686SOL     OW16519   4.652   3.564   5.831 -0.5635  0.0703 -0.1665
 1686SOL    HW116520   4.601   3.601   5.903  0.7618  1.2081  0.1905
 1686SOL    HW216521   4.591   3.499   5.797  2.2446 -2.5350 -0.1671
 1687SOL     OW16522   3.334   4.229   3.940  0.0017 -0.9648 -0.2179
 1687SOL    HW116523   3.279   4.168   3.890 -1.9567  1.9311 -1.5824
 1687SOL    HW216524   3.290   4.243   4.024 -0.6662 -0.8342 -0.5907
 1688SOL     OW16525   2.898   0.566   5.209 -0.8281 -0.0564 -0.1112
 1688SOL    HW116526   2.865   0.477   5.206 -0.5150 -0.1982  0.5043
 1688SOL    HW216527   2.888   0.586   5.116  3.4323  1.4561 -0.2454
 1689SOL     OW16528   4.404   1.038   6.554 -0.1218  0.6625 -0.0513
 1689SOL    HW116529   4.435   0.973   6.491  0.4915  2.5190 -1.6624
 1689SOL    HW216530   4.439   1.013   6.640 -0.2857  2.0096  0.4005
 1690SOL     OW16531   4.028   0.114   8.199  0.4206 -0.2643 -0.0913
 1690SOL    HW116532   4.097   0.070   8.149  0.3703 -0.8218  0.3365
 1690SOL    HW216533   3.970   0.147   8.130  2.7984 -0.5315 -2.2051
 1691SOL     OW16534   1.874   1.148   3.600  0.2667  0.5086 -0.7649
 1691SOL    HW116535   1.924   1.085   3.653  0.3738  1.9149  0.8069
 1691SOL    HW216536   1.946   1.182   3.547  1.2944  0.2451  0.4518
 1692SOL     OW16537   2.041   3.363   4.095 -0.2195  0.0922  0.3318
 1692SOL    HW116538   2.034   3.347   4.189 -0.2123  0.0451  0.3245
 1692SOL    HW216539   2.134   3.377   4.079  0.1230 -1.6081  0.7905
 1693SOL     OW16540   3.400   4.029   7.095  0.3013 -0.2847  0.5875
 1693SOL    HW116541   3.374   3.997   7.009 -0.9953 -0.7882  1.1553
 1693SOL    HW216542   3.319   4.049   7.144  0.9456  1.5085  0.9343
 1694SOL     OW16543   4.304   4.556  14.961 -0.3575  0.0703 -0.6441
 1694SOL    HW116544   4.216   4.526  14.937 -0.2471 -0.8063  0.0435
 1694SOL    HW216545   4.316   4.516  15.047 -0.5170 -0.4530 -0.8615
 1695SOL     OW16546   0.445   0.239   7.801 -0.6748 -0.3984  0.4952
 1695SOL    HW116547   0.385   0.254   7.728 -0.5440 -0.4683  0.3734
 1695SOL    HW216548   0.492   0.322   7.792 -1.0623 -0.1977  0.3030
 1696SOL     OW16549   3.639   4.675   3.280  0.3056  0.3182  0.7553
 1696SOL    HW116550   3.707   4.609   3.294  0.6558  0.4667 -0.2851
 1696SOL    HW216551   3.652   0.016   3.347  2.9464  1.6971 -1.1395
 1697SOL     OW16552   0.782   3.887   7.950 -0.1441  0.4530  0.0921
 1697SOL    HW116553   0.814   3.968   7.991 -0.4078  0.9079 -0.5909
 1697SOL    HW216554   0.846   3.886   7.879 -0.9060  2.1523 -0.6201
 1698SOL     OW16555   0.806   1.500   2.190 -0.0330  0.2509  0.1252
 1698SOL    HW116556   0.785   1.529   2.102 -1.4449  0.5486  0.5651
 1698SOL    HW216557   0.834   1.410   2.175  0.2129  0.6187 -1.5361
 1699SOL     OW16558   4.676   3.218   7.316  0.0766  0.0345 -0.0908
 1699SOL    HW116559   4.709   3.156   7.251  0.5731 -0.1635  0.3508
 1699SOL    HW216560   0.006   3.197   7.391 -0.5097  2.6224  1.0501
 1700SOL     OW16561   1.719   4.600   7.008 -0.2089  0.0390  0.2459
 1700SOL    HW116562   1.799   4.562   6.972  0.5368  0.5418  1.3756
 1700SOL    HW216563   1.695   4.528   7.067  0.4800 -0.0856  0.3807
 1701SOL     OW16564   4.704   1.883   3.630  0.5068  0.0359  0.3230
 1701SOL    HW116565   4.725   1.820   3.562 -0.3718 -0.1935  0.2729
 1701SOL    HW216566   0.042   1.849   3.693 -0.2254  2.1354  2.2136
 1702SOL     OW16567   2.779   1.594   2.408  0.5354  0.2800  0.2035
 1702SOL    HW116568   2.855   1.650   2.423  0.1681  0.4454  1.4274
 1702SOL    HW216569   2.817   1.511   2.379 -0.3669 -1.2408  3.3808
 1703SOL     OW16570   4.631   2.496   8.925 -0.1000 -0.1167  0.0499
 1703SOL    HW116571   4.651   2.555   8.998 -1.5700  1.4692 -0.8215
 1703SOL    HW216572   4.681   2.420   8.956 -0.5621 -1.0993 -1.6413
 1704SOL     OW16573   3.255   1.381  13.626 -0.2351  0.2240 -0.2045
 1704SOL    HW116574   3.215   1.318  13.687  0.5734  0.6737  0.7936
 1704SOL    HW216575   3.346   1.351  13.621  0.0293  1.0978 -0.6512
 1705SOL     OW16576   3.493   0.950   8.057 -0.1645 -0.7049 -0.4017
 1705SOL    HW116577   3.424   0.916   8.114 -0.6734  0.2538 -0.4392
 1705SOL    HW216578   3.442   1.004   7.997 -2.8285  0.5340  2.9399
 1706SOL     OW16579   3.615   3.021  12.709  0.7294 -0.0704 -0.1007
 1706SOL    HW116580   3.608   3.010  12.615 -0.6283 -2.6798  0.3124
 1706SOL    HW216581   3.531   3.057  12.738 -0.5403 -1.0565 -2.5985
 1707SOL     OW16582   0.474   3.588   5.614  0.2510  0.1897  0.2094
 1707SOL    HW116583   0.498   3.633   5.696  0.9648  1.2366 -0.5786
 1707SOL    HW216584   0.468   3.665   5.557  0.0654 -1.8407 -2.4832
 1708SOL     OW16585   4.429   1.662   3.591 -0.5619 -0.4060 -0.6849
 1708SOL    HW116586   4.487   1.590   3.569  2.8351  1.9728  0.5346
 1708SOL    HW216587   4.436   1.660   3.687 -0.6825  1.0936 -0.6462
 1709SOL     OW16588   0.041   1.439   6.245 -0.0904  0.4096 -0.4610
 1709SOL    HW116589   0.002   1.357   6.216  0.9134 -1.1189  2.4547
 1709SOL    HW216590   0.073   1.472   6.161  0.4620  1.0953  0.0179
 1710SOL     OW16591   1.703   0.115   5.419  0.2044  0.7724 -0.1981
 1710SOL    HW116592   1.614   0.127   5.385  0.6267  1.2395 -1.1762
 1710SOL    HW216593   1.704   0.186   5.483 -0.2958 -0.3720  1.0670
 1711SOL     OW16594   0.501   2.365   5.488 -0.2154 -0.2342  0.2875
 1711SOL    HW116595   0.577   2.351   5.544  0.4598 -0.5510 -0.7136
 1711SOL    HW216596   0.528   2.376   5.398 -0.8168 -1.5660 -0.0654
 1712SOL     OW16597   1.859   4.170   6.277  0.1883  0.7160  0.2574
 1712SOL    HW116598   1.800   4.117   6.329  0.8331  1.0489  1.3205
 1712SOL    HW216599   1.798   4.193   6.206 -0.5575 -2.3612 -0.0904
 1713SOL     OW16600   2.413   0.982   4.966  0.1997  0.5369  0.0097
 1713SOL    HW116601   2.335   0.986   5.022  0.8601 -0.6905  1.0143
 1713SOL    HW216602   2.399   0.889   4.946  1.5022  0.5258 -0.8623
 1714SOL     OW16603   3.284   1.383   3.050 -0.2639  0.1584 -0.0193
 1714SOL    HW116604   3.233   1.303   3.061  0.5335 -0.3988 -0.3241
 1714SOL    HW216605   3.224   1.449   3.084  1.4406  1.3771  0.6216
 1715SOL     OW16606   1.766   3.808   8.384 -0.3551  0.0270 -0.0285
 1715SOL    HW116607   1.737   3.718   8.365  0.3886  0.2589 -2.2957
 1715SOL    HW216608   1.721   3.810   8.468  0.1623 -0.0800  0.2515
 1716SOL     OW16609   2.561   1.608  11.340  0.9412 -0.5892 -0.1796
 1716SOL    HW116610   2.539   1.559  11.261 -1.4249  1.3950 -0.7477
 1716SOL    HW216611   2.521   1.552  11.407  0.2744  1.1341  0.8560
 1717SOL     OW16612   3.530   3.070   0.553 -0.4116 -0.7582 -0.0801
 1717SOL    HW116613   3.585   3.142   0.523 -1.9786  0.1582 -0.7583
 1717SOL    HW216614   3.481   3.107   0.626  1.5224  1.8518 -0.0993
 1718SOL     OW16615   2.028   4.621   7.847 -0.2964 -0.8742  0.1127
 1718SOL    HW116616   2.086   4.545   7.856  0.3666 -0.0568  2.8155
 1718SOL    HW216617   1.942   4.581   7.851 -0.6369 -0.0089  1.4507
 1719SOL     OW16618   0.066   3.698  10.989  0.0983  0.1342 -0.7075
 1719SOL    HW116619   0.090   3.752  11.064  0.4356 -3.7897  2.0176
 1719SOL    HW216620   0.030   3.617  11.024  1.7200  0.4311  1.6259
 1720SOL     OW16621   1.098   1.005   9.220  0.0060  1.0136 -0.6044
 1720SOL    HW116622   1.147   0.942   9.166  1.1842  0.9156  0.5989
 1720SOL    HW216623   1.101   0.967   9.307 -2.5282 -1.5343 -1.6320
 1721SOL     OW16624   1.023   1.502   5.130  0.3888 -0.3697  0.3001
 1721SOL    HW116625   0.950   1.485   5.070 -1.1372  3.0769  1.2217
 1721SOL    HW216626   0.991   1.458   5.208  1.0707  0.6048  1.1171
 1722SOL     OW16627   0.314   3.964  16.790 -0.1393  0.0296  0.2979
 1722SOL    HW116628   0.282   3.906  16.860 -1.0275 -0.2954 -0.3805
 1722SOL    HW216629   0.308   3.904  16.715  0.3374 -0.8518  0.9532
 1723SOL     OW16630   3.893   2.836   1.886  0.2261  0.0661  0.7918
 1723SOL    HW116631   3.802   2.808   1.894  0.5091 -0.7052  1.2779
 1723SOL    HW216632   3.883   2.916   1.835 -1.1343 -0.9776 -0.5718
 1724SOL     OW16633   0.768   0.327   7.732  0.1572  0.3123  0.5117
 1724SOL    HW116634   0.850   0.365   7.763  0.0039  0.8280  0.2763
 1724SOL    HW216635   0.778   0.319   7.637  0.3639 -1.3785  0.6689
 1725SOL     OW16636   2.619   1.729   1.148  0.0447 -0.2688  0.9371
 1725SOL    HW116637   2.617   1.779   1.067 -1.4869 -1.5004  0.2033
 1725SOL    HW216638   2.525   1.735   1.167  0.2193  1.2222  1.2835
 1726SOL     OW16639   0.910   2.030  14.880  0.3127 -0.1265  0.2973
 1726SOL    HW116640   0.816   2.043  14.890  0.1162 -0.7158 -0.7097
 1726SOL    HW216641   0.917   1.934  14.879 -1.1596 -0.2386  1.8063
 1727SOL     OW16642   2.209   1.207   9.571 -0.4559  0.4184  0.1800
 1727SOL    HW116643   2.166   1.133   9.612  0.9151 -0.9845 -0.9275
 1727SOL    HW216644   2.259   1.149   9.513 -0.1276 -1.9338  2.8426
 1728SOL     OW16645   1.878   2.038   3.189  0.7629 -0.1317 -0.2316
 1728SOL    HW116646   1.920   1.987   3.259 -0.4503  1.6095  1.7442
 1728SOL    HW216647   1.937   2.114   3.184 -0.7276  0.9774 -0.8477
 1729SOL     OW16648   4.532   1.133   3.291 -0.3347  0.3495 -0.2613
 1729SOL    HW116649   4.545   1.223   3.260  0.1279  1.0678  1.9548
 1729SOL    HW216650   4.462   1.102   3.234 -1.6812 -1.6570  2.4979
 1730SOL     OW16651   0.649   4.059   6.015 -0.0893  0.4212  0.3463
 1730SOL    HW116652   0.615   4.148   6.007 -1.0974  0.1087  1.1551
 1730SOL    HW216653   0.562   4.029   6.042  0.1252  2.3059  3.2229
 1731SOL     OW16654   0.511   0.422   9.533  0.2536 -0.6696  0.7326
 1731SOL    HW116655   0.428   0.398   9.574 -0.7124  2.2908  0.5155
 1731SOL    HW216656   0.580   0.386   9.588 -0.5288 -1.0913  1.4523
 1732SOL     OW16657   1.283   4.438  10.062  0.5332 -0.5430 -0.2168
 1732SOL    HW116658   1.299   4.462  10.154  1.2919 -0.8599 -0.2679
 1732SOL    HW216659   1.190   4.459  10.060  0.1575 -2.0820  0.7017
 1733SOL     OW16660   3.789   0.924   4.431  0.0403 -0.4973 -0.1270
 1733SOL    HW116661   3.762   0.942   4.341  0.4851  1.0123  0.0455
 1733SOL    HW216662   3.716   0.867   4.457  1.7903 -2.5763  0.2012
 1734SOL     OW16663   0.204   4.368   5.471  0.0958 -0.1992 -0.1025
 1734SOL    HW116664   0.190   4.332   5.558 -1.2781 -0.2854 -0.3653
 1734SOL    HW216665   0.127   4.423   5.460  0.1648  0.0572  0.7192
 1735SOL     OW16666   2.988   2.609   4.252  0.5666  0.3951  0.1010
 1735SOL    HW116667   2.965   2.606   4.345 -1.5612 -1.9705 -0.5283
 1735SOL    HW216668   3.017   2.518   4.245  2.4687  1.2908 -3.4840
 1736SOL     OW16669   4.093   2.739   0.965 -0.0632  1.2047 -0.3605
 1736SOL    HW116670   4.115   2.730   0.872 -1.5966  4.1533 -1.0472
 1736SOL    HW216671   4.069   2.648   0.979  1.7406  0.6336 -1.1053
 1737SOL     OW16672   2.548   0.178  16.696  0.2591  0.3418  0.5422
 1737SOL    HW116673   2.487   0.218  16.757 -1.2437  1.8604 -1.9487
 1737SOL    HW216674   2.560   0.091  16.733  1.0051  0.9444  1.6990
 1738SOL     OW16675   4.210   3.893  14.025 -0.0034 -0.2961 -0.1179
 1738SOL    HW116676   4.217   3.889  13.929 -0.5640 -1.1049 -0.1237
 1738SOL    HW216677   4.132   3.944  14.045  0.0291 -0.2148 -0.1975
 1739SOL     OW16678   2.783   3.535  12.138  0.0847 -0.0974  0.2053
 1739SOL    HW116679   2.716   3.543  12.206  0.4341  1.2460  0.3898
 1739SOL    HW216680   2.853   3.512  12.199  1.7066  1.4367 -1.0939
 1740SOL     OW16681   0.698   0.098   0.720  0.3201  0.1578 -0.1186
 1740SOL    HW116682   0.605   0.108   0.740  0.8416  1.3811  1.6047
 1740SOL    HW216683   0.736   0.185   0.721 -0.1956  0.4064 -1.6517
 1741SOL     OW16684   4.490   3.968   9.276 -0.5351 -0.6802 -0.0071
 1741SOL    HW116685   4.555   3.915   9.324 -2.7326 -1.5357  2.0329
 1741SOL    HW216686   4.502   4.049   9.325  1.3789 -2.2284  2.1293
 1742SOL     OW16687   4.473   0.898   7.388  0.2880  0.4788 -0.0458
 1742SOL    HW116688   4.423   0.897   7.306 -1.5485 -1.8758  1.1218
 1742SOL    HW216689   4.560   0.878   7.352  0.5264  0.2957  0.6267
 1743SOL     OW16690   0.694   4.676  12.488 -0.2441  0.0804  0.4322
 1743SOL    HW116691   0.666   0.008  12.417  2.5049  0.1942 -0.5311
 1743SOL    HW216692   0.757   0.001  12.538 -0.9974 -1.6447  3.1024
 1744SOL     OW16693   4.011   0.230   6.686  0.0481 -0.1606 -0.0664
 1744SOL    HW116694   3.998   0.182   6.767 -0.1945  0.8426  0.4846
 1744SOL    HW216695   4.047   0.158   6.633  0.1969  0.2491 -0.5260
 1745SOL     OW16696   2.187   2.769  10.097  0.1000 -0.0122  0.1232
 1745SOL    HW116697   2.148   2.853  10.073  1.1307 -0.3662 -2.6879
 1745SOL    HW216698   2.113   2.722  10.137 -0.7157  0.6084 -0.6603
 1746SOL     OW16699   2.556   0.052   0.389 -0.2205 -0.3206  0.1971
 1746SOL    HW116700   2.581   0.003   0.310 -4.3496 -1.0143 -0.6644
 1746SOL    HW216701   2.537   0.135   0.345  3.0076  1.2106  1.6168
 1747SOL     OW16702   2.360   0.287   5.301 -0.4424 -0.2378  0.3698
 1747SOL    HW116703   2.388   0.316   5.215 -2.5022  0.8823  0.0741
 1747SOL    HW216704   2.281   0.340   5.311 -0.5299  0.0619 -1.9855
 1748SOL     OW16705   2.410   2.371   4.839 -0.2504  0.2923 -0.1176
 1748SOL    HW116706   2.336   2.412   4.795  1.1050 -0.3150 -2.9423
 1748SOL    HW216707   2.387   2.392   4.930  0.9620 -0.9665  0.4791
 1749SOL     OW16708   3.347   0.019   6.424  0.5595  0.3442  0.3873
 1749SOL    HW116709   3.316   0.075   6.352 -1.2196 -1.5463 -0.3217
 1749SOL    HW216710   3.335   0.080   6.497 -0.6233  0.4946  0.0679
 1750SOL     OW16711   4.436   2.024   9.100  0.2073  0.1143 -0.0185
 1750SOL    HW116712   4.399   1.936   9.091 -0.3261  0.3901 -0.4835
 1750SOL    HW216713   4.498   2.005   9.170  2.3713 -1.4708 -2.3478
 1751SOL     OW16714   1.394   2.903  12.797  0.1865  0.0632  0.4889
 1751SOL    HW116715   1.467   2.940  12.747  1.4921 -0.6283  1.8518
 1751SOL    HW216716   1.444   2.837  12.845 -1.8673 -1.0653  1.0400
 1752SOL     OW16717   3.953   0.774  15.137  0.4572  0.3441  0.0541
 1752SOL    HW116718   4.045   0.797  15.122  0.3890 -0.4459 -1.5852
 1752SOL    HW216719   3.932   0.729  15.055  0.2046  1.3514 -0.4334
 1753SOL     OW16720   0.447   4.276   9.049 -0.5319  0.0557  0.2930
 1753SOL    HW116721   0.426   4.315   9.134 -0.3990  2.6870 -0.8841
 1753SOL    HW216722   0.537   4.247   9.061 -0.5064 -0.4923 -1.2116
 1754SOL     OW16723   0.471   2.243   4.851 -0.6391  0.1561  0.4455
 1754SOL    HW116724   0.445   2.184   4.923  0.7760 -0.8317  0.1384
 1754SOL    HW216725   0.482   2.330   4.890  0.2937  0.6181 -0.8869
 1755SOL     OW16726   0.657   2.430   3.141 -0.3486 -0.3004  0.0755
 1755SOL    HW116727   0.576   2.432   3.090  1.7853  1.1444 -3.2565
 1755SOL    HW216728   0.642   2.339   3.167 -0.0719 -0.1936  0.6198
 1756SOL     OW16729   2.362   1.878   8.359  0.2077  0.0055  0.5691
 1756SOL    HW116730   2.386   1.945   8.423 -1.0681  2.2601 -1.3064
 1756SOL    HW216731   2.266   1.876   8.362  0.0912  0.6141 -2.4088
 1757SOL     OW16732   4.451   3.150   9.124  0.6338 -0.3976 -0.3527
 1757SOL    HW116733   4.508   3.172   9.049  0.0074 -0.3098 -0.8039
 1757SOL    HW216734   4.394   3.226   9.121  0.4152 -0.6614 -3.0770
 1758SOL     OW16735   2.485   2.372   6.532  0.6815 -0.2100 -0.7069
 1758SOL    HW116736   2.525   2.361   6.618 -0.3685  0.6228 -0.1171
 1758SOL    HW216737   2.391   2.373   6.550  0.7443 -0.2085 -0.3916
 1759SOL     OW16738   1.933   4.641  16.524  0.2043 -0.5235 -0.0326
 1759SOL    HW116739   1.927   4.609  16.434  0.3399  0.6639 -0.4743
 1759SOL    HW216740   1.966   4.566  16.572  2.9646  1.3278  0.9936
 1760SOL     OW16741   4.199   4.543   4.215  0.0020 -0.3492 -0.6145
 1760SOL    HW116742   4.220   4.484   4.143  0.7801 -0.4158 -0.3259
 1760SOL    HW216743   4.161   4.482   4.280  1.3342 -1.2389 -0.6708
 1761SOL     OW16744   2.777   4.453   6.284 -0.0610  0.2224 -0.4664
 1761SOL    HW116745   2.861   4.417   6.313  0.2530  0.4228 -1.1241
 1761SOL    HW216746   2.798   4.481   6.195 -0.5326  0.3631 -0.5315
 1762SOL     OW16747   2.437   0.841   5.460  0.8200 -0.0005  0.3469
 1762SOL    HW116748   2.343   0.828   5.475  1.0212 -0.6952  1.0206
 1762SOL    HW216749   2.455   0.753   5.426  2.7256 -0.1579  1.7603
 1763SOL     OW16750   1.220   0.453  10.462 -0.0148 -0.5140 -0.0171
 1763SOL    HW116751   1.252   0.526  10.411  1.1007 -1.2967 -0.4503
 1763SOL    HW216752   1.155   0.424  10.398 -0.5742  0.0327  0.3093
 1764SOL     OW16753   1.464   2.226   4.796 -0.3765  0.0988  0.3049
 1764SOL    HW116754   1.543   2.278   4.811 -0.3702  0.2942 -0.4365
 1764SOL    HW216755   1.396   2.274   4.845  0.1834  2.2247 -0.9807
 1765SOL     OW16756   2.312   3.918  12.557  0.3437  0.6935  0.3381
 1765SOL    HW116757   2.336   3.933  12.466  0.3659 -0.6260  0.1262
 1765SOL    HW216758   2.218   3.932  12.553  0.1955 -0.0667  1.0658
 1766SOL     OW16759   1.750   1.093   3.867 -0.1489 -0.2587  0.5023
 1766SOL    HW116760   1.835   1.084   3.822 -0.6073 -2.2553  0.0392
 1766SOL    HW216761   1.735   1.186   3.853 -0.4908 -0.1917  1.2972
 1767SOL     OW16762   4.161   2.636   7.241  0.4148  0.5991  0.4100
 1767SOL    HW116763   4.166   2.547   7.206 -1.8592  1.1572 -1.3574
 1767SOL    HW216764   4.139   2.686   7.162  0.5471  0.1735  0.1006
 1768SOL     OW16765   1.571   1.960  15.398 -0.3866 -0.6325 -0.3015
 1768SOL    HW116766   1.516   1.881  15.398  0.2183 -1.0547 -0.0719
 1768SOL    HW216767   1.510   2.021  15.439  1.5788  0.6182  0.7338
 1769SOL     OW16768   1.804   2.866   9.012  0.4865 -0.0658  0.2653
 1769SOL    HW116769   1.719   2.860   8.968 -0.1208  3.1119  1.0479
 1769SOL    HW216770   1.867   2.888   8.944  0.4758  0.2799  0.3712
 1770SOL     OW16771   3.097   2.656   5.893 -0.7453 -0.3830  0.1544
 1770SOL    HW116772   3.038   2.597   5.941 -1.7646 -0.1545 -0.8252
 1770SOL    HW216773   3.138   2.702   5.966  0.3367 -1.1667  0.0502
 1771SOL     OW16774   1.646   3.224   2.434 -0.3565 -0.8402  0.6498
 1771SOL    HW116775   1.659   3.154   2.369  1.1250  1.0098 -1.0666
 1771SOL    HW216776   1.561   3.207   2.475 -0.3731  0.7502  1.2662
 1772SOL     OW16777   1.643   1.555   5.360 -0.3261  0.6764  0.2635
 1772SOL    HW116778   1.578   1.594   5.301 -2.8265  0.9339  3.1957
 1772SOL    HW216779   1.704   1.629   5.362  1.8361 -1.0494 -1.2911
 1773SOL     OW16780   3.655   0.853   3.273 -0.1810  0.1235  0.2870
 1773SOL    HW116781   3.720   0.783   3.275  1.9256  2.0040 -1.0392
 1773SOL    HW216782   3.660   0.869   3.368  1.2834 -0.5452  0.3327
 1774SOL     OW16783   1.349   0.572   9.273 -0.0194 -0.2235 -0.7722
 1774SOL    HW116784   1.254   0.579   9.280 -0.3429 -3.2015 -1.9188
 1774SOL    HW216785   1.364   0.562   9.179 -0.6176  0.1725 -0.9099
 1775SOL     OW16786   4.373   3.807   5.193  0.6375 -0.1896  0.4061
 1775SOL    HW116787   4.446   3.767   5.240  1.2570 -0.1932 -0.5540
 1775SOL    HW216788   4.380   3.780   5.101 -2.2337 -0.4573  0.2627
 1776SOL     OW16789   3.414   3.900   5.434 -0.0906  0.5383  1.0151
 1776SOL    HW116790   3.419   3.957   5.510  0.8866  1.2120  0.4446
 1776SOL    HW216791   3.384   3.818   5.473  1.6680 -1.6011 -2.1056
 1777SOL     OW16792   2.952   2.486   5.691  0.4355 -0.6799  0.1567
 1777SOL    HW116793   2.987   2.551   5.753 -0.1917 -1.2998  1.1724
 1777SOL    HW216794   2.863   2.520   5.679 -0.4801 -2.8947  0.7607
 1778SOL     OW16795   0.508   1.329   2.147  0.4365 -0.1477 -0.2896
 1778SOL    HW116796   0.542   1.294   2.064 -0.4022  0.1364 -0.7498
 1778SOL    HW216797   0.464   1.410   2.123 -0.2441 -0.2070  0.7783
 1779SOL     OW16798   3.058   0.268  17.668  0.6404  0.0609 -0.1255
 1779SOL    HW116799   3.082   0.217  17.590  0.9350 -1.0049  0.6633
 1779SOL    HW216800   2.977   0.310  17.640  1.5644  1.4835 -0.6437
 1780SOL     OW16801   2.428   2.874   4.667 -0.1348 -0.1789 -0.6601
 1780SOL    HW116802   2.452   2.788   4.702  0.0833  0.0409 -0.2706
 1780SOL    HW216803   2.476   2.935   4.723 -0.1587  0.4790 -1.3534
 1781SOL     OW16804   2.834   1.278   5.616 -0.8358  0.2247  0.4907
 1781SOL    HW116805   2.751   1.245   5.649 -0.1541 -0.6551  1.3180
 1781SOL    HW216806   2.879   1.194   5.624  1.5169  1.4422  0.1429
 1782SOL     OW16807   3.621   2.487   0.323  0.3006 -0.0043  0.7167
 1782SOL    HW116808   3.625   2.393   0.305 -0.6253  0.0136  0.4289
 1782SOL    HW216809   3.704   2.501   0.277 -0.9798  1.1425 -1.1903
 1783SOL     OW16810   1.415   0.407   9.523  0.0797  0.1979 -0.3612
 1783SOL    HW116811   1.348   0.448   9.578  0.9008 -0.2811  0.9813
 1783SOL    HW216812   1.436   0.471   9.455  1.4270  2.4098  2.1974
 1784SOL     OW16813   1.037   0.653  10.707  0.2865 -0.1347  0.4787
 1784SOL    HW116814   1.083   0.735  10.727 -0.3462  0.3386 -0.0187
 1784SOL    HW216815   0.999   0.670  10.621  1.7253  1.6618  0.1936
 1785SOL     OW16816   1.046   2.499   7.914 -0.7109 -0.7495 -0.6886
 1785SOL    HW116817   1.010   2.586   7.928 -3.1591 -1.8919  0.0045
 1785SOL    HW216818   1.116   2.514   7.849 -0.3153  2.3874  0.4418
 1786SOL     OW16819   1.938   0.451   4.296 -0.0802 -0.1253  0.7584
 1786SOL    HW116820   1.981   0.534   4.279  1.6009 -0.9815  0.8644
 1786SOL    HW216821   1.848   0.484   4.298 -1.3615 -3.6574  1.8824
 1787SOL     OW16822   1.141   1.507   6.088  1.0659  1.0175 -0.0441
 1787SOL    HW116823   1.146   1.513   5.993  2.9768 -0.4339 -0.0378
 1787SOL    HW216824   1.115   1.596   6.110 -0.0917 -0.1060  3.1302
 1788SOL     OW16825   1.479   3.993  15.085  0.0120 -0.3206 -0.0364
 1788SOL    HW116826   1.485   3.907  15.128  0.0213  0.5488  1.6851
 1788SOL    HW216827   1.564   4.033  15.103  0.5979 -0.7109 -2.0238
 1789SOL     OW16828   0.994   3.877  14.759  0.3466  0.0665 -0.3392
 1789SOL    HW116829   0.982   3.787  14.789  0.1909 -0.1796 -1.1274
 1789SOL    HW216830   0.942   3.873  14.678  1.0456 -0.2970 -0.7728
 1790SOL     OW16831   4.062   4.223   7.707  0.1535 -0.9053  0.2924
 1790SOL    HW116832   4.134   4.177   7.749 -0.1838 -0.8432  0.9395
 1790SOL    HW216833   4.005   4.146   7.703  2.6278 -2.6987 -0.5690
 1791SOL     OW16834   0.834   3.935   4.399  0.1693  0.1582  0.1074
 1791SOL    HW116835   0.868   3.846   4.392 -1.8997 -0.6530  0.5374
 1791SOL    HW216836   0.778   3.932   4.476 -1.2270  0.8639 -0.8588
 1792SOL     OW16837   2.191   1.395   6.092  0.1616  0.3904 -0.8302
 1792SOL    HW116838   2.103   1.413   6.060 -0.2454  3.7161  2.1392
 1792SOL    HW216839   2.187   1.412   6.186  0.0182  2.3096 -1.1867
 1793SOL     OW16840   3.640   1.461   6.355  0.1021  0.4176  0.0636
 1793SOL    HW116841   3.699   1.408   6.409  0.9643 -0.3633 -1.6449
 1793SOL    HW216842   3.652   1.548   6.392 -4.1942  0.7401  0.6668
 1794SOL     OW16843   4.013   2.258   6.975  0.0371 -0.1422 -0.0348
 1794SOL    HW116844   4.048   2.324   6.914 -2.5243 -0.0564 -1.3994
 1794SOL    HW216845   4.070   2.268   7.051 -0.2969  1.7600 -0.0391
 1795SOL     OW16846   2.202   1.000   6.624  0.3165  0.1431  0.2910
 1795SOL    HW116847   2.260   1.061   6.669  0.9122  0.9317 -1.5434
 1795SOL    HW216848   2.243   0.990   6.539  2.4899  0.3075  1.3226
 1796SOL     OW16849   2.046   0.706   2.636  0.4876 -0.1603  0.0781
 1796SOL    HW116850   2.142   0.705   2.626  0.4173  0.2080 -0.5925
 1796SOL    HW216851   2.052   0.678   2.728 -0.6384 -1.9386 -0.3890
 1797SOL     OW16852   1.576   1.221  12.489  0.1913  0.2529  0.1199
 1797SOL    HW116853   1.585   1.303  12.538 -2.3088  0.1851  0.6426
 1797SOL    HW216854   1.621   1.248  12.409 -1.6508 -1.7302 -1.5894
 1798SOL     OW16855   4.197   1.086  10.870 -0.6178  0.1635  0.5393
 1798SOL    HW116856   4.244   1.152  10.921  0.0090  0.7182 -0.7525
 1798SOL    HW216857   4.272   1.027  10.862 -0.6165  0.3615 -0.9671
 1799SOL     OW16858   2.167   0.525  14.648 -0.8999 -0.4978  0.6283
 1799SOL    HW116859   2.159   0.564  14.561  1.8640 -1.0287  0.1325
 1799SOL    HW216860   2.074   0.521  14.671 -0.7216  3.4733  2.0358
 1800SOL     OW16861   0.022   2.483   2.691 -0.1925  0.1094 -0.9421
 1800SOL    HW116862   4.664   2.446   2.718 -0.6834  1.5236 -0.5814
 1800SOL    HW216863   0.004   2.545   2.621 -1.5473  0.3584 -0.3849
 1801SOL     OW16864   3.022   1.082   8.051  0.2753 -0.2813 -0.1499
 1801SOL    HW116865   3.109   1.044   8.056 -0.3101 -1.5021  0.7962
 1801SOL    HW216866   2.991   1.073   7.960  0.4286  0.4405 -0.2736
 1802SOL     OW16867   2.050   0.387   4.541  0.2668 -0.0554 -0.0363
 1802SOL    HW116868   2.005   0.445   4.603 -0.3308 -0.7658  0.1891
 1802SOL    HW216869   2.020   0.400   4.451 -0.6135  1.3323  0.4581
 1803SOL     OW16870   3.446   3.820  12.728 -0.6532  0.1047 -0.1829
 1803SOL    HW116871   3.365   3.770  12.738 -0.4246 -0.3207 -0.4280
 1803SOL    HW216872   3.442   3.874  12.807  1.6483 -0.3581  0.2433
 1804SOL     OW16873   4.324   0.531   5.566 -0.4976  0.0365  0.1570
 1804SOL    HW116874   4.334   0.579   5.483  0.5316  0.3192  0.4447
 1804SOL    HW216875   4.286   0.594   5.627  0.2253  0.7310 -0.1013
 1805SOL     OW16876   1.851   3.596   8.047  0.2093  0.2778  0.7070
 1805SOL    HW116877   1.934   3.606   8.094  1.1794 -0.7226 -0.7969
 1805SOL    HW216878   1.806   3.573   8.128  0.9507  0.7661  1.2575
 1806SOL     OW16879   3.957   3.566   0.948 -0.4061 -0.1804 -0.0297
 1806SOL    HW116880   4.037   3.567   1.001  1.2714 -0.6069 -2.5583
 1806SOL    HW216881   3.972   3.494   0.887  0.0631  0.0407 -0.1811
 1807SOL     OW16882   3.022   1.375   7.891 -0.2041  0.4082 -0.1827
 1807SOL    HW116883   3.050   1.304   7.834 -0.1352  1.2496 -1.1943
 1807SOL    HW216884   2.944   1.402   7.843  0.2200  1.4476 -0.2841
 1808SOL     OW16885   2.663   4.249   4.277 -0.4052  0.1154  0.6879
 1808SOL    HW116886   2.606   4.325   4.289  2.2167  2.3179 -0.5950
 1808SOL    HW216887   2.600   4.178   4.268  0.1747 -0.5127  1.5087
 1809SOL     OW16888   3.133   3.865   8.497 -0.1349  1.1506 -0.3317
 1809SOL    HW116889   3.199   3.926   8.466  0.2956  1.4601  1.1762
 1809SOL    HW216890   3.137   3.794   8.433 -3.6818  1.1469 -0.5153
 1810SOL     OW16891   3.788   2.373   8.640  0.5714  0.0513 -0.0755
 1810SOL    HW116892   3.767   2.460   8.675  0.4471 -0.6229  1.5361
 1810SOL    HW216893   3.777   2.319   8.719  3.1721 -0.7710 -0.2762
 1811SOL     OW16894   1.015   3.594   7.199 -0.0705  0.8706 -0.1815
 1811SOL    HW116895   1.063   3.587   7.116 -0.6213  1.6467 -0.5659
 1811SOL    HW216896   0.926   3.578   7.167  0.5949 -1.3316 -0.9199
 1812SOL     OW16897   1.509   3.412   2.095 -0.7865  0.6232  0.0649
 1812SOL    HW116898   1.479   3.402   2.005  0.5260 -1.8449 -0.1221
 1812SOL    HW216899   1.526   3.319   2.113  2.9050  1.2168 -0.2692
 1813SOL     OW16900   0.776   1.774   8.427  0.3397  0.4217 -0.1411
 1813SOL    HW116901   0.772   1.856   8.476 -1.2467  1.5940 -2.1995
 1813SOL    HW216902   0.731   1.715   8.487 -0.4773 -0.7584 -1.8914
 1814SOL     OW16903   1.286   3.550  10.512 -0.2251  0.1456 -0.4770
 1814SOL    HW116904   1.235   3.572  10.590 -0.4584  0.7163 -0.7886
 1814SOL    HW216905   1.322   3.465  10.536 -1.2027  0.4271  1.9689
 1815SOL     OW16906   4.639   2.787   4.043 -0.2906 -0.3069 -0.0310
 1815SOL    HW116907   4.658   2.756   4.132 -0.5118 -0.2757  0.0281
 1815SOL    HW216908   4.687   2.715   4.004 -0.0878  0.1025 -0.5387
 1816SOL     OW16909   2.815   3.826  11.181 -0.1565 -0.2267  0.6492
 1816SOL    HW116910   2.798   3.732  11.179 -1.1264  0.0044 -1.7921
 1816SOL    HW216911   2.743   3.856  11.126  2.0704  2.0156 -1.0544
 1817SOL     OW16912   0.908   1.273   8.206  0.6986 -0.6850 -0.5361
 1817SOL    HW116913   0.818   1.249   8.188  0.2593  0.3284  0.3056
 1817SOL    HW216914   0.895   1.349   8.263 -0.2293 -1.1901 -0.0711
 1818SOL     OW16915   3.438   3.419   4.061 -0.3788 -0.4648  0.2374
 1818SOL    HW116916   3.439   3.383   3.972  1.4371  0.1875  0.0097
 1818SOL    HW216917   3.507   3.481   4.038 -0.1818  0.0791  2.2997
 1819SOL     OW16918   4.075   3.536   5.655  0.0628 -0.4085 -0.1391
 1819SOL    HW116919   4.162   3.498   5.652  0.8325  1.3592 -0.0612
 1819SOL    HW216920   4.056   3.545   5.561  1.0606  0.2402 -0.2738
 1820SOL     OW16921   3.483   4.430   8.411  0.2378  0.5567 -0.3457
 1820SOL    HW116922   3.536   4.422   8.331  0.7205 -1.7144  0.1925
 1820SOL    HW216923   3.548   4.421   8.481 -1.0196  1.2316  0.9062
 1821SOL     OW16924   3.652   1.080   2.195  0.4198  0.4223 -0.1563
 1821SOL    HW116925   3.635   1.120   2.280  0.4232  0.7964 -0.3327
 1821SOL    HW216926   3.737   1.117   2.174  0.8751 -0.1111  0.7250
 1822SOL     OW16927   1.041   0.278   6.307  0.0693  0.2446 -0.1200
 1822SOL    HW116928   1.110   0.344   6.311  0.7420 -0.5713  1.9031
 1822SOL    HW216929   1.029   0.279   6.212 -1.0327 -2.2497 -0.0049
 1823SOL     OW16930   2.792   1.897   8.751 -0.5147  0.7732 -0.5750
 1823SOL    HW116931   2.829   1.835   8.815 -1.0036  1.6517  0.5663
 1823SOL    HW216932   2.862   1.910   8.688 -1.1050  0.3041 -1.3225
 1824SOL     OW16933   2.394   1.858   0.639  0.7506 -0.5703  0.1067
 1824SOL    HW116934   2.348   1.881   0.558 -0.3516 -0.0706  0.8776
 1824SOL    HW216935   2.334   1.905   0.697 -0.7656 -1.8575 -0.4090
 1825SOL     OW16936   2.267   3.729   7.149  0.0155 -0.0978 -0.2148
 1825SOL    HW116937   2.310   3.663   7.095 -1.9396 -0.3750 -1.4130
 1825SOL    HW216938   2.184   3.683   7.161  0.5016 -1.0965 -0.6729
 1826SOL     OW16939   1.025   4.635   5.172 -0.3247  0.1728  0.5539
 1826SOL    HW116940   1.016   4.546   5.206 -1.4505  0.4813  1.0247
 1826SOL    HW216941   0.959   4.635   5.103  0.3165  1.0440 -0.0608
 1827SOL     OW16942   0.039   3.732  12.569  0.3398  1.0524  0.8962
 1827SOL    HW116943   4.697   3.673  12.535  0.1577  2.4222 -1.0819
 1827SOL    HW216944   0.097   3.671  12.615  0.3222 -0.0012 -0.4586
 1828SOL     OW16945   3.497   1.516   3.524 -0.2268 -0.7598 -0.3217
 1828SOL    HW116946   3.502   1.521   3.619  0.1122  0.2579 -0.3820
 1828SOL    HW216947   3.534   1.601   3.496 -3.3338  0.0669 -1.8656
 1829SOL     OW16948   1.675   4.000  11.665 -0.0210 -0.1266 -0.3858
 1829SOL    HW116949   1.595   3.976  11.713 -0.5288  2.4253  0.0666
 1829SOL    HW216950   1.641   4.075  11.615  0.6586  0.3731 -0.0935
 1830SOL     OW16951   2.647   0.559   9.242 -0.6063 -0.1731  0.2846
 1830SOL    HW116952   2.695   0.574   9.323  2.6468  0.3450 -1.7286
 1830SOL    HW216953   2.712   0.526   9.179 -0.6749  2.1848 -1.0429
 1831SOL     OW16954   1.131   2.472   5.693 -0.5528 -0.1546 -0.2800
 1831SOL    HW116955   1.214   2.506   5.660 -1.0786  0.2896 -1.1508
 1831SOL    HW216956   1.148   2.454   5.786 -0.4595 -0.2372 -0.3129
 1832SOL     OW16957   3.072   3.901   4.236 -0.0868  0.4641  0.8498
 1832SOL    HW116958   3.159   3.910   4.197 -0.9252  1.8258 -0.7197
 1832SOL    HW216959   3.032   3.976   4.192 -0.9179 -0.6893 -0.3845
 1833SOL     OW16960   0.278   2.565   6.534  0.0248 -0.5708 -0.0326
 1833SOL    HW116961   0.341   2.606   6.475  0.0230 -0.4853  0.0247
 1833SOL    HW216962   0.223   2.640   6.556 -0.2973 -1.5762  2.6053
 1834SOL     OW16963   1.556   0.906   7.380 -0.0764  0.2405 -0.0939
 1834SOL    HW116964   1.635   0.879   7.427  0.1495 -2.0100 -1.7880
 1834SOL    HW216965   1.573   1.000   7.383  0.4203  0.1468 -0.0474
 1835SOL     OW16966   3.473   2.090   4.917 -0.2264 -0.4769  0.0590
 1835SOL    HW116967   3.462   2.150   4.843  1.1290  0.3089  0.4844
 1835SOL    HW216968   3.510   2.151   4.981  1.1006  1.0792 -2.1548
 1836SOL     OW16969   1.339   3.337   9.862 -0.4653 -0.7202 -0.0108
 1836SOL    HW116970   1.269   3.396   9.890  0.4469  0.8375 -1.0483
 1836SOL    HW216971   1.381   3.322   9.946 -0.9083  2.2518  0.7327
 1837SOL     OW16972   1.406   1.869   6.313 -0.2478 -0.2115 -0.2493
 1837SOL    HW116973   1.351   1.799   6.277 -1.3176 -1.5328  3.9758
 1837SOL    HW216974   1.493   1.832   6.321 -0.4101 -0.3860  0.6341
 1838SOL     OW16975   1.085   2.437   3.539 -0.4908 -0.0473 -0.0027
 1838SOL    HW116976   1.162   2.424   3.594 -1.0886  1.9737  1.2987
 1838SOL    HW216977   1.114   2.379   3.469  1.0282  1.1376 -0.3669
 1839SOL     OW16978   3.038   4.238   1.250  0.3407  0.3968 -0.2257
 1839SOL    HW116979   3.058   4.317   1.300  2.4051 -0.5908  0.4688
 1839SOL    HW216980   3.109   4.178   1.270  0.2195 -0.3882 -2.1572
 1840SOL     OW16981   0.084   3.844   5.757 -0.2967  0.0644  0.3956
 1840SOL    HW116982   0.120   3.855   5.845  0.2307 -1.7145  0.4026
 1840SOL    HW216983   0.037   3.762   5.770 -2.5411  1.7106  2.8070
 1841SOL     OW16984   1.318   0.798   4.762 -0.4837 -0.4448 -0.5409
 1841SOL    HW116985   1.397   0.835   4.721  1.8050 -2.5746  1.8822
 1841SOL    HW216986   1.278   0.882   4.781 -1.7978 -2.1200  4.0890
 1842SOL     OW16987   4.685   1.469   3.454  0.0683 -0.0881  0.5466
 1842SOL    HW116988   4.639   1.385   3.461  1.5939 -1.1028 -1.4163
 1842SOL    HW216989   4.690   1.488   3.547  0.4348 -1.4124  0.8040
 1843SOL     OW16990   0.508   1.058   5.326  0.1447 -0.4277  0.0499
 1843SOL    HW116991   0.462   1.047   5.409 -2.2023  0.1470 -1.1827
 1843SOL    HW216992   0.514   0.968   5.295  0.9620 -0.8959  1.5508
 1844SOL     OW16993   0.061   4.168   4.112 -0.1586  0.0399  0.2199
 1844SOL    HW116994   0.128   4.236   4.102 -0.9487  0.5989 -1.1479
 1844SOL    HW216995   4.719   4.223   4.151  0.4765  0.6403  0.4896
 1845SOL     OW16996   2.433   0.262   6.857 -0.2312  0.0492  0.6314
 1845SOL    HW116997   2.343   0.229   6.868 -0.1781 -0.7500 -1.2687
 1845SOL    HW216998   2.483   0.189   6.820 -0.3451  0.9632 -1.3365
 1846SOL     OW16999   3.134   1.485   8.474  0.3269 -0.0570 -0.1712
 1846SOL    HW117000   3.187   1.412   8.505 -2.4962 -2.4542 -0.9780
 1846SOL    HW217001   3.135   1.478   8.378 -3.2966  1.8984 -0.3493
 1847SOL     OW17002   2.440   1.526   6.099 -0.1828 -0.1539 -0.1503
 1847SOL    HW117003   2.444   1.575   6.017  0.1354  0.0650 -0.0025
 1847SOL    HW217004   2.348   1.498   6.093 -0.0157 -0.8932  0.7840
 1848SOL     OW17005   1.626   4.117   5.303  0.4035  0.3942  0.1051
 1848SOL    HW117006   1.636   4.055   5.232 -1.5399 -1.7370  1.6722
 1848SOL    HW217007   1.675   4.195   5.278  2.4873 -0.9523 -0.0106
 1849SOL     OW17008   4.033   3.132   3.051 -0.0508  0.2149 -0.2909
 1849SOL    HW117009   4.054   3.043   3.078 -1.3593  0.7981  2.6515
 1849SOL    HW217010   4.067   3.124   2.962  0.5547 -0.2174 -0.0129
 1850SOL     OW17011   0.985   3.430  14.353  0.7585 -0.0866 -0.1026
 1850SOL    HW117012   0.894   3.402  14.361  0.8138 -0.6388 -1.4520
 1850SOL    HW217013   0.981   3.513  14.400  2.5884 -0.1112  0.0901
 1851SOL     OW17014   1.822   2.737   1.129  0.1074  0.1150  0.2563
 1851SOL    HW117015   1.772   2.710   1.052 -0.3765  0.6464  0.3794
 1851SOL    HW217016   1.811   2.832   1.117 -0.7472 -0.3641 -2.7295
 1852SOL     OW17017   3.039   1.616   8.039  0.0866  0.1897 -0.2269
 1852SOL    HW117018   2.943   1.624   8.045 -0.0864 -0.3055 -2.3373
 1852SOL    HW217019   3.045   1.550   7.970  1.4107  2.4761 -2.2608
 1853SOL     OW17020   3.218   2.828   8.821 -0.0114  0.0233  0.0909
 1853SOL    HW117021   3.208   2.921   8.840  1.0345  0.2485 -0.4600
 1853SOL    HW217022   3.228   2.827   8.726 -1.8855 -2.9230 -0.0483
 1854SOL     OW17023   0.308   3.868   0.184  0.1362 -0.2250 -0.0064
 1854SOL    HW117024   0.397   3.905   0.187  0.1322 -0.3403  1.3647
 1854SOL    HW217025   0.267   3.925   0.249 -2.7981 -0.1052 -1.9826
 1855SOL     OW17026   3.975   3.268   4.259 -0.3899  0.1795  0.6916
 1855SOL    HW117027   3.892   3.314   4.274 -0.1870  0.6104  0.4811
 1855SOL    HW217028   3.952   3.203   4.325 -0.7351  0.2734  0.6632
 1856SOL     OW17029   0.893   3.659  14.865  0.0144 -0.4268  0.1898
 1856SOL    HW117030   0.799   3.653  14.848  0.5086 -0.5849 -2.5564
 1856SOL    HW217031   0.909   3.565  14.871  3.8643  0.1647 -0.4019
 1857SOL     OW17032   0.193   1.671  14.073  0.3537  0.2751 -1.1282
 1857SOL    HW117033   0.193   1.763  14.099  0.9825  0.3664 -1.4513
 1857SOL    HW217034   0.276   1.632  14.101 -0.5332 -1.8854 -1.5571
 1858SOL     OW17035   3.705   2.477   6.606 -0.0333 -0.2483  0.0159
 1858SOL    HW117036   3.759   2.519   6.539  1.9455  0.6242  2.1229
 1858SOL    HW217037   3.645   2.550   6.621  0.6126  0.1028  0.9044
 1859SOL     OW17038   2.196   3.517  17.069  0.3720  0.4752  0.0522
 1859SOL    HW117039   2.247   3.442  17.039 -1.5301 -0.8371  0.0676
 1859SOL    HW217040   2.258   3.588  17.054  0.3809  0.5627  0.4813
 1860SOL     OW17041   1.472   1.373   1.967  0.0381 -0.5625 -0.1045
 1860SOL    HW117042   1.392   1.381   2.018  0.3797 -1.9571  0.6221
 1860SOL    HW217043   1.507   1.305   2.024 -0.8429  0.8822  2.1483
 1861SOL     OW17044   2.043   2.507   8.948 -0.7687  0.1616  0.0731
 1861SOL    HW117045   2.083   2.516   9.034 -0.5186  0.3982 -0.0703
 1861SOL    HW217046   1.954   2.539   8.967 -0.2164  0.7136  1.7222
 1862SOL     OW17047   2.464   0.599   3.665 -0.1848  0.1098 -0.3561
 1862SOL    HW117048   2.377   0.597   3.704 -0.3548  0.8161 -0.7069
 1862SOL    HW217049   2.485   0.509   3.639 -1.2213  0.6075 -2.8728
 1863SOL     OW17050   4.193   0.516   8.694 -0.2191  0.3584  0.7975
 1863SOL    HW117051   4.268   0.553   8.742  0.2735  2.5060 -1.6649
 1863SOL    HW217052   4.221   0.534   8.604 -0.8752 -0.2910  0.4708
 1864SOL     OW17053   0.645   2.137   8.396  0.1302 -0.5235 -0.6974
 1864SOL    HW117054   0.636   2.090   8.313 -0.0766  0.8774 -1.4663
 1864SOL    HW217055   0.561   2.181   8.392  1.2788  1.6403 -1.1418
 1865SOL     OW17056   2.478   4.275  15.362 -0.0898 -0.3848 -0.0207
 1865SOL    HW117057   2.529   4.356  15.361 -0.6081 -0.0389  0.8681
 1865SOL    HW217058   2.443   4.289  15.274 -1.0309 -0.6079  0.3157
 1866SOL     OW17059   1.016   2.981   3.017  0.2965  0.3358 -0.0494
 1866SOL    HW117060   1.011   2.920   2.943  1.6802 -1.7884  1.6416
 1866SOL    HW217061   0.937   2.957   3.066 -0.1371 -2.7491 -2.2268
 1867SOL     OW17062   1.031   4.276   5.728  0.3570  0.1506  0.5756
 1867SOL    HW117063   1.070   4.341   5.670  0.4743 -2.5925 -2.4154
 1867SOL    HW217064   1.023   4.200   5.671 -0.3276  0.2092  0.5942
 1868SOL     OW17065   1.175   1.986   8.205 -0.0839 -0.4156 -0.4961
 1868SOL    HW117066   1.269   2.002   8.212 -0.2768 -0.1575  1.4855
 1868SOL    HW217067   1.147   2.036   8.128 -2.4611 -0.0564  0.6158
 1869SOL     OW17068   3.907   4.175  17.489  0.2946 -0.4007 -0.2283
 1869SOL    HW117069   3.932   4.090  17.525 -1.5422 -0.2248  1.4306
 1869SOL    HW217070   3.819   4.154  17.458 -0.9858  1.7467  1.9717
 1870SOL     OW17071   4.667   1.228   2.452 -0.1761 -0.3070 -0.3634
 1870SOL    HW117072   4.628   1.152   2.410  1.0445 -1.8952  1.4221
 1870SOL    HW217073   4.600   1.296   2.441  1.4750  1.2246 -0.8702
 1871SOL     OW17074   1.435   3.070   6.950 -0.1617  0.0259 -0.6058
 1871SOL    HW117075   1.349   3.032   6.969 -0.2021  1.7547  2.7038
 1871SOL    HW217076   1.487   2.990   6.949  1.0277  0.7532  1.7230
 1872SOL     OW17077   3.703   1.269   6.609  0.2913 -0.9606 -0.0709
 1872SOL    HW117078   3.677   1.218   6.685 -0.7827  1.8700  1.4544
 1872SOL    HW217079   3.769   1.322   6.653  0.4180 -0.7704 -0.4929
 1873SOL     OW17080   0.588   3.508   7.658 -0.0654 -0.5280 -0.0317
 1873SOL    HW117081   0.597   3.413   7.664 -0.2844 -0.3746  2.5293
 1873SOL    HW217082   0.555   3.523   7.746 -0.1069 -0.7600 -0.0082
 1874SOL     OW17083   3.637   3.313   0.721  0.5714  0.3148 -0.3526
 1874SOL    HW117084   3.566   3.351   0.669  1.1566  1.3163 -0.4267
 1874SOL    HW217085   3.608   3.332   0.810  0.3404  0.1915 -0.4011
 1875SOL     OW17086   4.564   4.520   4.770 -0.3523 -0.5929 -0.2561
 1875SOL    HW117087   4.503   4.476   4.711 -0.1302 -2.6342  1.0256
 1875SOL    HW217088   4.570   4.607   4.731  1.4838  0.3846  2.2494
 1876SOL     OW17089   3.279   0.879   2.827  0.1827  0.0678 -0.0950
 1876SOL    HW117090   3.300   0.818   2.898  1.4204  1.3734  0.6703
 1876SOL    HW217091   3.355   0.868   2.771  2.1022  1.8312  2.1732
 1877SOL     OW17092   0.286   4.667   6.938 -0.3567  0.0770  0.3674
 1877SOL    HW117093   0.354   4.654   6.872 -0.2804 -1.1872  0.7030
 1877SOL    HW217094   0.210   4.660   6.880 -1.4103  0.0942  1.7424
 1878SOL     OW17095   2.742   1.591   8.044  0.2479  0.0903  0.9256
 1878SOL    HW117096   2.670   1.550   8.092  1.5924 -2.1389  1.0303
 1878SOL    HW217097   2.717   1.681   8.022 -1.4058 -0.0252  2.3256
 1879SOL     OW17098   1.238   3.007   1.872 -0.3568  0.6981  0.2046
 1879SOL    HW117099   1.220   3.095   1.905  1.9351  1.6767 -1.1741
 1879SOL    HW217100   1.188   3.015   1.790 -1.0930 -0.0623  0.5828
 1880SOL     OW17101   0.293   1.549   3.499 -0.0588 -0.5724  0.1663
 1880SOL    HW117102   0.225   1.581   3.558 -0.3108  0.9740 -0.9967
 1880SOL    HW217103   0.307   1.469   3.551  0.5307  2.5797  4.8322
 1881SOL     OW17104   3.594   0.477   3.463 -0.3544  0.1322 -0.1710
 1881SOL    HW117105   3.529   0.501   3.397  1.2210 -0.5314 -1.9727
 1881SOL    HW217106   3.543   0.451   3.540  1.7601  0.3120  1.2880
 1882SOL     OW17107   2.690   3.647   1.665  0.0248 -0.2775 -0.1220
 1882SOL    HW117108   2.736   3.572   1.626  0.1807 -1.0671  1.5579
 1882SOL    HW217109   2.630   3.674   1.596 -2.7143 -3.4498  1.0118
 1883SOL     OW17110   1.670   0.310   2.963  0.1200  0.3485 -0.0630
 1883SOL    HW117111   1.584   0.300   2.922 -0.8836 -1.9916  2.6671
 1883SOL    HW217112   1.673   0.225   3.006  0.9535  0.1259 -0.5612
 1884SOL     OW17113   3.271   2.416   4.899  0.4913 -0.0809  0.0732
 1884SOL    HW117114   3.202   2.416   4.832  0.6332  2.9397 -0.0396
 1884SOL    HW217115   3.240   2.344   4.955  1.2206  1.6051  2.6341
 1885SOL     OW17116   3.638   0.268   5.318 -0.1063  0.0846 -0.3971
 1885SOL    HW117117   3.733   0.279   5.330  0.0297  0.0844 -1.4675
 1885SOL    HW217118   3.632   0.275   5.223  0.3543 -1.1817 -0.5198
 1886SOL     OW17119   1.381   3.904   8.572 -0.6933 -0.5407 -0.0033
 1886SOL    HW117120   1.299   3.883   8.617 -2.0521 -0.7684 -2.5692
 1886SOL    HW217121   1.420   3.954   8.643 -2.4864 -1.1570  1.4177
 1887SOL     OW17122   4.540   4.239   5.281 -0.1226  0.4076  0.1123
 1887SOL    HW117123   4.463   4.296   5.286  0.4366  1.1071  0.7264
 1887SOL    HW217124   4.595   4.275   5.351 -2.4059  0.6433  1.7966
 1888SOL     OW17125   3.711   2.568   7.020 -0.2745 -0.4248  0.1791
 1888SOL    HW117126   3.662   2.592   6.942 -1.8473 -2.4535  0.5471
 1888SOL    HW217127   3.710   2.472   7.021  0.2059 -0.4352 -0.3915
 1889SOL     OW17128   4.449   4.211   6.972  0.0877 -0.1821 -0.0261
 1889SOL    HW117129   4.533   4.166   6.984 -0.1922 -0.1029  2.3299
 1889SOL    HW217130   4.382   4.144   6.963 -1.1927  1.0195  0.6144
 1890SOL     OW17131   0.811   2.928  12.564 -0.1180 -0.5765  0.0282
 1890SOL    HW117132   0.811   2.924  12.469 -4.3752 -3.2328  0.1240
 1890SOL    HW217133   0.902   2.905  12.583  0.3415  0.0396 -1.3951
 1891SOL     OW17134   1.181   4.048   7.868  0.1171  0.0562 -0.4745
 1891SOL    HW117135   1.273   4.076   7.870 -0.3001  1.5090 -1.6829
 1891SOL    HW217136   1.141   4.115   7.814  1.5254 -0.2060 -1.8315
 1892SOL     OW17137   0.596   3.253   7.980 -0.0786 -0.4155 -0.3255
 1892SOL    HW117138   0.514   3.210   8.005 -0.7026  0.7898 -0.2803
 1892SOL    HW217139   0.642   3.250   8.063  1.3275 -0.4150 -1.1016
 1893SOL     OW17140   3.875   1.298  13.420 -0.6538  0.0592 -0.0735
 1893SOL    HW117141   3.926   1.218  13.415  0.4561  0.7684 -0.1270
 1893SOL    HW217142   3.790   1.256  13.431 -1.3674  1.4848 -0.0910
 1894SOL     OW17143   1.680   3.164   8.590  0.3638 -0.2171  0.2540
 1894SOL    HW117144   1.585   3.176   8.594  0.2327 -1.0595 -0.4491
 1894SOL    HW217145   1.692   3.074   8.618 -1.4005 -1.2033 -2.1404
 1895SOL     OW17146   2.536   0.377   4.063  0.0960  0.2148 -0.0075
 1895SOL    HW117147   2.520   0.351   4.154 -1.6897  1.2166 -0.0218
 1895SOL    HW217148   2.508   0.469   4.058 -0.7310 -0.0572 -0.2848
 1896SOL     OW17149   2.113   2.069  10.641  0.2668 -0.5392  0.8048
 1896SOL    HW117150   2.079   2.157  10.626  0.5463 -0.6615 -0.5666
 1896SOL    HW217151   2.032   2.023  10.616  0.5276 -1.3077  1.3644
 1897SOL     OW17152   4.646   2.500  11.375  0.2666  0.3398  0.0278
 1897SOL    HW117153   0.006   2.458  11.385  1.3360  2.1426 -1.4387
 1897SOL    HW217154   4.636   2.529  11.284  0.1716  1.2896  0.3451
 1898SOL     OW17155   3.998   2.306  17.470 -0.2571 -0.2702  0.5615
 1898SOL    HW117156   4.061   2.300  17.542 -0.6138 -1.7622  0.7381
 1898SOL    HW217157   3.939   2.239  17.505  0.0304 -0.1733  1.2375
 1899SOL     OW17158   2.230   3.694  12.356 -0.4791 -0.3765 -0.2967
 1899SOL    HW117159   2.292   3.754  12.396  0.4858 -1.7104  0.2064
 1899SOL    HW217160   2.214   3.745  12.276  2.3369  0.5597 -0.2706
 1900SOL     OW17161   0.796   4.159   2.579 -0.1647 -0.4696 -0.1231
 1900SOL    HW117162   0.850   4.159   2.499 -1.0070 -1.3462 -0.6839
 1900SOL    HW217163   0.711   4.155   2.536 -0.7223 -0.1286  0.9728
 1901SOL     OW17164   0.805   1.600   7.430 -0.6987 -0.1520 -0.3068
 1901SOL    HW117165   0.776   1.526   7.376 -1.6032  0.8667 -1.2249
 1901SOL    HW217166   0.899   1.601   7.412 -0.8946 -0.1700 -1.2984
 1902SOL     OW17167   2.232   3.993  15.300 -0.5448 -0.3993  0.0363
 1902SOL    HW117168   2.305   3.996  15.238  0.4014  1.3872  1.2370
 1902SOL    HW217169   2.175   4.065  15.273  2.1081  0.9436 -1.9971
 1903SOL     OW17170   1.889   1.499  11.194 -0.1965 -0.1665 -0.2487
 1903SOL    HW117171   1.829   1.476  11.264 -0.7367 -0.3534 -0.7715
 1903SOL    HW217172   1.838   1.552  11.132  0.4339  1.0839  0.3021
 1904SOL     OW17173   2.358   3.659   8.512  0.1188 -0.1506  0.8529
 1904SOL    HW117174   2.266   3.684   8.507  0.3083  0.2021 -0.8231
 1904SOL    HW217175   2.379   3.631   8.422  3.8538  3.3400  0.6482
 1905SOL     OW17176   4.097   0.604   5.381 -0.4799  0.2052 -0.0109
 1905SOL    HW117177   4.117   0.512   5.398 -0.4483 -0.0094 -1.1881
 1905SOL    HW217178   4.001   0.596   5.383 -0.5911  1.2538 -1.2110
 1906SOL     OW17179   4.262   0.037  11.520  0.1766 -0.2416  0.4413
 1906SOL    HW117180   4.241   0.054  11.612 -2.3501 -1.3444  0.0684
 1906SOL    HW217181   4.347   4.720  11.528  0.2002 -0.3134 -0.1501
 1907SOL     OW17182   1.199   1.049  10.451 -0.2675 -0.0616 -0.2058
 1907SOL    HW117183   1.105   1.063  10.436 -0.3774 -0.6632 -0.0773
 1907SOL    HW217184   1.225   1.132  10.411  0.8092  0.8627  2.3980
 1908SOL     OW17185   4.137   0.427  10.699 -0.5638 -0.5237  0.0218
 1908SOL    HW117186   4.214   0.423  10.643  0.0548 -0.6360  0.8767
 1908SOL    HW217187   4.132   0.332  10.710 -0.2141 -0.4828  0.5678
 1909SOL     OW17188   1.031   0.029   9.080 -0.2818 -0.3237  0.3400
 1909SOL    HW117189   0.970   0.035   9.006  0.6255 -1.1775 -0.4638
 1909SOL    HW217190   1.042   4.661   9.093 -1.5254 -0.6571 -0.9862
 1910SOL     OW17191   3.213   4.187   9.175 -0.0918  0.0050 -0.2384
 1910SOL    HW117192   3.232   4.143   9.258 -0.3637  0.9167  0.3088
 1910SOL    HW217193   3.176   4.117   9.121  1.7880 -1.3151  0.1651
 1911SOL     OW17194   0.444   0.147   1.562  0.1756 -0.5944  0.0476
 1911SOL    HW117195   0.351   0.125   1.569  0.1468 -0.2551  0.7724
 1911SOL    HW217196   0.449   0.181   1.652  0.8265 -1.7356  0.4463
 1912SOL     OW17197   1.662   3.677  14.221  0.7279  0.2052  0.2345
 1912SOL    HW117198   1.613   3.705  14.298  0.2230  1.2935 -0.4854
 1912SOL    HW217199   1.595   3.635  14.167  1.0333 -0.8073  0.6651
 1913SOL     OW17200   4.173   0.831  16.836  0.2103 -0.2905  0.8658
 1913SOL    HW117201   4.141   0.889  16.905 -1.5904  0.4662 -0.6141
 1913SOL    HW217202   4.163   0.887  16.759  0.9534  1.1103  1.7980
 1914SOL     OW17203   0.702   4.574   9.221 -0.5910  0.2252 -0.2140
 1914SOL    HW117204   0.790   4.565   9.258 -0.5232 -1.1879 -0.7284
 1914SOL    HW217205   0.690   4.667   9.237  0.4197  0.1142  1.2122
 1915SOL     OW17206   0.198   1.374   8.111  0.4323  0.0986 -0.1451
 1915SOL    HW117207   0.268   1.378   8.046 -1.4250  1.5786 -2.0655
 1915SOL    HW217208   0.136   1.444   8.089  0.3347  0.1708  0.3633
 1916SOL     OW17209   0.918   0.675   5.927  0.1452 -0.8980 -0.3339
 1916SOL    HW117210   0.856   0.616   5.885  2.0028 -3.1107  0.0392
 1916SOL    HW217211   0.961   0.628   5.998  0.2018  0.7147  0.6990
 1917SOL     OW17212   3.294   1.249   4.497  0.4770 -0.1242  0.1981
 1917SOL    HW117213   3.363   1.216   4.555  2.4544  2.6655 -0.5836
 1917SOL    HW217214   3.223   1.187   4.517  0.4913 -0.6352 -1.2951
 1918SOL     OW17215   0.788   0.380   4.991 -0.5782  0.1095  0.4673
 1918SOL    HW117216   0.723   0.404   5.058  0.3788 -1.8017  2.0681
 1918SOL    HW217217   0.841   0.459   4.981 -0.7242  0.2076  0.4670
 1919SOL     OW17218   1.183   2.078   7.387 -0.3042 -0.5265  0.2563
 1919SOL    HW117219   1.199   2.158   7.337 -0.3217  0.1924  1.4032
 1919SOL    HW217220   1.231   2.009   7.341 -1.6941 -0.3428 -1.4978
 1920SOL     OW17221   0.603   0.500   8.531  0.2931 -0.0260 -0.1601
 1920SOL    HW117222   0.575   0.430   8.591 -1.8536  0.7469 -0.2788
 1920SOL    HW217223   0.682   0.452   8.504 -0.6245 -1.5940 -0.0606
 1921SOL     OW17224   0.906   4.696   7.097  0.4336  0.6985  0.5076
 1921SOL    HW117225   0.853   0.020   7.159  0.7694 -0.5930  1.8389
 1921SOL    HW217226   0.936   4.625   7.153 -1.8668 -2.1193 -1.8996
 1922SOL     OW17227   3.306   2.375   5.242  0.2139 -0.2625 -0.3845
 1922SOL    HW117228   3.318   2.382   5.337 -3.2075 -1.2116  0.1006
 1922SOL    HW217229   3.299   2.280   5.239 -1.4281 -0.1163 -1.1909
 1923SOL     OW17230   3.319   0.207   4.930 -0.3228  0.3982 -0.5715
 1923SOL    HW117231   3.264   0.285   4.934  1.2779  1.5249 -0.6548
 1923SOL    HW217232   3.393   0.243   4.881  0.2120 -0.7869 -0.6441
 1924SOL     OW17233   3.906   0.705  12.829  0.3942 -0.1234  0.1609
 1924SOL    HW117234   3.911   0.798  12.853  0.8798 -0.2000  0.3520
 1924SOL    HW217235   3.962   0.656  12.888 -2.0241 -3.1998 -0.1092
 1925SOL     OW17236   0.390   4.507   8.626  0.1315  0.4889  0.2792
 1925SOL    HW117237   0.376   4.524   8.719  1.2389  1.8968  0.1909
 1925SOL    HW217238   0.394   4.597   8.591  2.4021 -0.5202 -2.0631
 1926SOL     OW17239   0.485   2.860   8.514  0.0379  0.3655  0.8558
 1926SOL    HW117240   0.500   2.765   8.510 -0.5433  0.3236 -0.1401
 1926SOL    HW217241   0.424   2.859   8.588  0.1827 -2.2904  0.9392
 1927SOL     OW17242   0.733   2.957   3.390  0.1045 -0.1541  0.4422
 1927SOL    HW117243   0.733   2.932   3.298 -1.5979 -0.3898  0.5021
 1927SOL    HW217244   0.824   2.934   3.404  1.5648  4.3942 -1.5507
 1928SOL     OW17245   4.180   1.916   3.325 -0.0615  0.0763  0.1559
 1928SOL    HW117246   4.217   1.895   3.239  1.1341 -0.4822  0.8031
 1928SOL    HW217247   4.184   1.835   3.375 -1.0261  0.1744  0.3862
 1929SOL     OW17248   2.547   4.140  16.110 -0.3289  0.2267 -0.3238
 1929SOL    HW117249   2.625   4.185  16.080  0.1823  2.1773  4.0229
 1929SOL    HW217250   2.482   4.182  16.053 -0.1305  1.0205  0.0377
 1930SOL     OW17251   4.408   2.193  11.530  0.4363  0.2156  0.2072
 1930SOL    HW117252   4.356   2.131  11.581  0.7480  0.5141  0.8801
 1930SOL    HW217253   4.473   2.209  11.598  0.6100 -1.3370  0.4053
 1931SOL     OW17254   0.219   3.184   8.847 -0.3812  0.1900  0.1040
 1931SOL    HW117255   0.202   3.252   8.913  0.8892  0.3309  0.3006
 1931SOL    HW217256   0.136   3.179   8.799 -0.8734 -3.7223  1.3643
 1932SOL     OW17257   2.069   0.415   8.711 -0.0620 -0.0952  0.5020
 1932SOL    HW117258   2.112   0.499   8.728 -0.4463 -0.1181  1.5801
 1932SOL    HW217259   2.062   0.362   8.790  1.5775  0.4681  1.0351
 1933SOL     OW17260   4.712   0.493   4.681  0.3400  0.3593 -0.1054
 1933SOL    HW117261   4.641   0.430   4.669  0.3979  0.5957 -1.7157
 1933SOL    HW217262   4.654   0.562   4.712  1.3253  1.3477 -0.4614
 1934SOL     OW17263   2.976   3.260   4.048  0.1892 -0.1370 -0.1089
 1934SOL    HW117264   3.063   3.293   4.069 -0.5126  0.2915  2.1649
 1934SOL    HW217265   2.936   3.283   4.132  1.4300  1.6377 -0.0088
 1935SOL     OW17266   1.467   4.269   2.974  0.3117  0.7330  0.0709
 1935SOL    HW117267   1.554   4.308   2.980  1.0303 -0.7805 -0.3990
 1935SOL    HW217268   1.470   4.239   2.883  1.9029 -0.6969  0.5985
 1936SOL     OW17269   3.494   3.053  17.228 -0.3713  0.0907  0.2809
 1936SOL    HW117270   3.482   3.103  17.147 -0.8886 -0.4221  0.0348
 1936SOL    HW217271   3.429   2.983  17.236 -0.0330 -0.1686  0.7334
 1937SOL     OW17272   1.883   1.076  11.886 -0.0725  0.3587 -0.3756
 1937SOL    HW117273   1.795   1.049  11.859 -0.5985  0.6432  1.0480
 1937SOL    HW217274   1.934   1.018  11.829 -3.8937 -0.8425 -2.5913
 1938SOL     OW17275   1.646   1.254   5.635  0.1479 -0.0045 -0.0571
 1938SOL    HW117276   1.700   1.176   5.624 -2.0487 -1.3313 -1.2747
 1938SOL    HW217277   1.561   1.216   5.617 -0.2249  0.2943  1.0824
 1939SOL     OW17278   4.077   1.985   1.821 -0.3626  0.4469  0.1530
 1939SOL    HW117279   4.013   2.010   1.888 -0.4893 -1.4661  0.7397
 1939SOL    HW217280   4.124   2.067   1.808 -0.1453  0.7564  2.9025
 1940SOL     OW17281   3.728   4.014   8.618  0.4392 -0.7870  0.3432
 1940SOL    HW117282   3.656   3.952   8.610 -1.2609  1.3905 -1.2911
 1940SOL    HW217283   3.699   4.067   8.692  1.6571 -0.1302  0.3437
 1941SOL     OW17284   1.866   4.583   6.661  0.1531 -0.1744 -0.2579
 1941SOL    HW117285   1.918   4.524   6.607  2.4403  1.4110  0.2244
 1941SOL    HW217286   1.941   4.621   6.706  0.1050 -1.3633  0.8471
 1942SOL     OW17287   0.292   4.704  16.934 -0.5730 -0.1287  0.4440
 1942SOL    HW117288   0.269   0.042  17.002  0.5112 -2.3266  2.8586
 1942SOL    HW217289   0.212   4.710  16.882 -1.1828 -0.1059  1.4016
 1943SOL     OW17290   4.666   2.636   8.342 -0.1152  0.3059  0.0438
 1943SOL    HW117291   4.661   2.543   8.324  0.1893  0.6957 -2.0506
 1943SOL    HW217292   0.022   2.646   8.391  0.3607 -2.0027 -0.2939
 1944SOL     OW17293   1.617   2.503  11.989 -0.0060 -0.3740 -0.4605
 1944SOL    HW117294   1.620   2.470  12.079 -0.4356  0.3660 -0.1708
 1944SOL    HW217295   1.563   2.431  11.957 -1.1116  0.5321 -0.6592
 1945SOL     OW17296   4.556   0.894   8.488  0.1248 -0.2071 -0.0660
 1945SOL    HW117297   4.475   0.855   8.522  0.4969  0.1106  1.1886
 1945SOL    HW217298   4.592   0.909   8.575  2.0603  0.3191 -0.9692
 1946SOL     OW17299   2.270   1.564   0.541 -0.0021  0.3335  0.0287
 1946SOL    HW117300   2.246   1.474   0.563 -2.4929  1.0746  0.3928
 1946SOL    HW217301   2.249   1.564   0.448  1.4935 -2.1110 -0.2973
 1947SOL     OW17302   2.798   1.993   4.862 -0.3624  0.0180  0.7694
 1947SOL    HW117303   2.715   2.034   4.838 -0.1369 -0.4856 -0.8688
 1947SOL    HW217304   2.859   2.045   4.810  1.1405 -0.1404  2.3656
 1948SOL     OW17305   4.188   3.288   7.808 -0.5300 -0.5667  0.4074
 1948SOL    HW117306   4.260   3.239   7.848  0.0089 -1.2601 -1.3968
 1948SOL    HW217307   4.167   3.228   7.736  1.7362  0.3135 -0.9845
 1949SOL     OW17308   2.973   2.400  15.828  0.0664  0.0918 -0.0736
 1949SOL    HW117309   2.954   2.486  15.790 -0.1088  0.5448  1.0584
 1949SOL    HW217310   2.951   2.351  15.748  0.7543 -0.6420  0.1938
 1950SOL     OW17311   3.110   1.778  10.102  0.0761 -0.1340 -0.2324
 1950SOL    HW117312   3.161   1.822  10.171 -2.1598  0.7973  0.8030
 1950SOL    HW217313   3.175   1.712  10.077  0.0184 -0.1109 -0.4404
 1951SOL     OW17314   4.611   4.195   7.634  0.2772 -0.7271  0.3435
 1951SOL    HW117315   4.623   4.101   7.621 -1.0272 -1.1313  2.1012
 1951SOL    HW217316   4.515   4.199   7.637  0.2346 -1.1976 -0.2842
 1952SOL     OW17317   1.143   2.935   1.030  0.3142  0.4289 -0.0342
 1952SOL    HW117318   1.172   2.892   1.110 -2.5867 -1.7050 -0.1644
 1952SOL    HW217319   1.050   2.916   1.034  0.5515 -0.6670  0.1137
 1953SOL     OW17320   1.784   0.984   7.807  0.7646 -0.4278 -0.2153
 1953SOL    HW117321   1.716   0.918   7.791 -0.2114  1.1775 -2.5760
 1953SOL    HW217322   1.788   0.984   7.903 -0.7733 -0.6206 -0.1551
 1954SOL     OW17323   3.417   2.932   3.097 -0.1209 -0.3121 -0.0818
 1954SOL    HW117324   3.489   2.869   3.090 -0.0097 -0.1406 -0.4685
 1954SOL    HW217325   3.393   2.942   3.005 -0.7296 -1.6552 -0.0680
 1955SOL     OW17326   3.328   1.861   8.818 -0.0521 -0.0090  0.5467
 1955SOL    HW117327   3.266   1.927   8.850 -0.2986 -1.0236  2.1814
 1955SOL    HW217328   3.360   1.894   8.735 -0.9868 -2.4859 -0.8204
 1956SOL     OW17329   4.672   4.247   3.852 -0.3277  0.3724  0.1601
 1956SOL    HW117330   0.024   4.254   3.797 -0.3295  2.1726  0.3816
 1956SOL    HW217331   4.708   4.215   3.935 -0.0796 -1.7505 -0.7742
 1957SOL     OW17332   2.843   0.661   6.150 -0.0847  0.0949 -0.1750
 1957SOL    HW117333   2.816   0.664   6.058  0.3866  1.1638 -0.2780
 1957SOL    HW217334   2.890   0.578   6.155  1.4332  0.9243 -0.7453
 1958SOL     OW17335   0.995   4.016  12.375 -0.0017 -0.3959  0.0461
 1958SOL    HW117336   0.933   3.960  12.422 -0.3299 -1.3549 -1.5542
 1958SOL    HW217337   1.039   4.045  12.455  1.5460  0.2023 -1.0351
 1959SOL     OW17338   1.416   0.340   2.855 -0.6524  0.0012  0.2203
 1959SOL    HW117339   1.343   0.356   2.915 -0.9442 -1.2586  0.2129
 1959SOL    HW217340   1.372   0.288   2.788 -0.5221  1.7009 -1.1639
 1960SOL     OW17341   2.502   0.086   5.667 -0.0637  0.0713 -0.0653
 1960SOL    HW117342   2.412   0.118   5.662  0.3366  1.3404  0.8394
 1960SOL    HW217343   2.489   0.027   5.742  0.4846 -0.5132 -0.4256
 1961SOL     OW17344   4.347   3.702   4.964 -0.1705  0.3836  0.1954
 1961SOL    HW117345   4.331   3.686   4.871  2.8015 -1.2892 -0.0396
 1961SOL    HW217346   4.441   3.688   4.949 -0.3302 -0.5067 -0.0158
 1962SOL     OW17347   0.193   2.392  11.373  0.9051  0.1130  0.2813
 1962SOL    HW117348   0.258   2.326  11.349 -0.5387 -0.8338 -0.9845
 1962SOL    HW217349   0.220   2.463  11.315  1.0991  0.1247  0.3842
 1963SOL     OW17350   2.935   1.457  14.043 -0.4123  0.6548  0.0272
 1963SOL    HW117351   2.895   1.535  14.006 -1.8554 -0.5061 -0.8174
 1963SOL    HW217352   2.864   1.402  14.012  0.5726  0.9154 -2.6322
 1964SOL     OW17353   3.895   3.877  15.092  0.3397 -0.0727  0.2042
 1964SOL    HW117354   3.898   3.972  15.090  0.4397 -0.0554  0.9570
 1964SOL    HW217355   3.842   3.870  15.172  2.0932  1.3544  1.4963
 1965SOL     OW17356   1.730   3.103  11.084  0.1309  0.0155  0.1293
 1965SOL    HW117357   1.794   3.090  11.014  1.1778 -0.4886  1.1929
 1965SOL    HW217358   1.696   3.014  11.082 -0.4260  0.2757 -3.0138
 1966SOL     OW17359   1.176   2.005   4.607  0.5103 -0.5257 -0.1359
 1966SOL    HW117360   1.159   2.098   4.594 -0.6133 -0.6922  0.1289
 1966SOL    HW217361   1.183   1.999   4.702 -0.9057 -1.6874 -0.1008
 1967SOL     OW17362   1.342   0.871   6.160 -0.2463  0.4785  0.0349
 1967SOL    HW117363   1.353   0.896   6.252 -1.2512  1.0626  0.0010
 1967SOL    HW217364   1.251   0.898   6.145 -0.4355 -0.5060 -0.6093
 1968SOL     OW17365   2.563   1.174   9.741 -0.2472 -0.0902  0.4803
 1968SOL    HW117366   2.603   1.106   9.688  1.7200  2.5637 -1.4490
 1968SOL    HW217367   2.574   1.141   9.830  0.3266  1.9158  1.1692
 1969SOL     OW17368   1.901   2.169  17.102  0.3551  0.5331 -0.0513
 1969SOL    HW117369   1.981   2.122  17.124 -0.8825 -1.0459  1.1326
 1969SOL    HW217370   1.910   2.185  17.008 -0.2117  2.1494  0.1652
 1970SOL     OW17371   3.104   3.226   1.600 -0.1303  0.1884  0.9389
 1970SOL    HW117372   3.163   3.152   1.602 -0.8082 -0.3278  1.7095
 1970SOL    HW217373   3.044   3.197   1.668  1.6889 -0.0810  2.4133
 1971SOL     OW17374   1.133   4.308   8.533 -0.6288 -0.1475  0.0230
 1971SOL    HW117375   1.222   4.334   8.556 -0.6474 -0.5525  0.5274
 1971SOL    HW217376   1.083   4.379   8.573  1.0941 -0.2002  2.2041
 1972SOL     OW17377   1.427   0.275  13.205  0.1197  0.1134  0.0213
 1972SOL    HW117378   1.383   0.326  13.273  0.0428 -0.7726  0.6327
 1972SOL    HW217379   1.451   0.199  13.258  0.2441 -0.4320 -0.8284
 1973SOL     OW17380   2.318   0.875   0.739 -0.9491  0.3521 -0.7702
 1973SOL    HW117381   2.283   0.801   0.787  0.7158  0.3789  0.4814
 1973SOL    HW217382   2.408   0.843   0.732 -1.1297 -0.3022 -0.0390
 1974SOL     OW17383   1.979   1.132   6.251 -0.1967 -0.6500 -0.5972
 1974SOL    HW117384   1.920   1.206   6.266  1.8382  0.5978  1.2583
 1974SOL    HW217385   2.057   1.178   6.220  0.0709 -0.8035 -0.1531
 1975SOL     OW17386   2.945   0.175   7.747 -0.3448 -0.5457 -0.0931
 1975SOL    HW117387   2.972   0.085   7.768 -0.4965 -0.1581  1.7061
 1975SOL    HW217388   2.884   0.155   7.676 -1.8384  0.4668  0.9287
 1976SOL     OW17389   1.628   1.246   3.463 -0.5030 -0.2912  0.2493
 1976SOL    HW117390   1.705   1.233   3.518 -0.5606  0.0631  0.4142
 1976SOL    HW217391   1.587   1.318   3.512  0.8837 -0.3243  1.4464
 1977SOL     OW17392   3.032   3.074   5.615 -0.0136 -0.1828  0.4990
 1977SOL    HW117393   3.055   2.982   5.631  1.7626  0.4132  1.2858
 1977SOL    HW217394   3.063   3.117   5.694  0.2483 -0.6640  0.6618
 1978SOL     OW17395   0.372   0.494   8.334 -0.3712  0.0429  0.3716
 1978SOL    HW117396   0.323   0.416   8.361 -0.7895 -0.2714 -1.2787
 1978SOL    HW217397   0.448   0.486   8.392  0.0527  1.2319 -0.0272
 1979SOL     OW17398   3.386   3.007   4.682 -0.4632  0.2862 -0.3697
 1979SOL    HW117399   3.470   3.044   4.710  0.5782 -2.5822  0.3104
 1979SOL    HW217400   3.317   3.044   4.738 -0.7261 -1.8165  0.6793
 1980SOL     OW17401   4.044   2.595   2.850  0.1576 -0.9014  0.0948
 1980SOL    HW117402   4.063   2.653   2.924  0.2207  0.7841 -1.2283
 1980SOL    HW217403   4.134   2.567   2.830  0.2449 -2.3979  2.5242
 1981SOL     OW17404   2.149   1.928   6.808  0.5902 -0.3219 -0.4817
 1981SOL    HW117405   2.224   1.879   6.841 -0.6274 -0.9992  1.3152
 1981SOL    HW217406   2.124   1.960   6.894 -0.5018 -1.5674 -0.3341
 1982SOL     OW17407   0.206   0.472   5.985  0.0165  0.7162  0.4283
 1982SOL    HW117408   0.270   0.415   6.027  1.7460  0.1259 -3.0261
 1982SOL    HW217409   0.152   0.405   5.942  1.4572  0.2032 -0.5962
 1983SOL     OW17410   4.616   3.564  13.657  1.0298  0.0073  0.0972
 1983SOL    HW117411   4.651   3.601  13.738 -1.6228  0.6314  0.9303
 1983SOL    HW217412   4.685   3.593  13.596 -0.0774  1.6449 -0.3835
 1984SOL     OW17413   1.334   3.603   5.821 -0.0319 -0.2440  0.5327
 1984SOL    HW117414   1.401   3.654   5.775 -0.6011  0.7412  0.7909
 1984SOL    HW217415   1.312   3.658   5.897 -0.7778 -0.1677  0.2610
 1985SOL     OW17416   0.428   2.483   9.114 -0.0896  0.6234 -0.4443
 1985SOL    HW117417   0.350   2.446   9.156 -0.7360  1.6755 -0.7256
 1985SOL    HW217418   0.495   2.417   9.128  0.1550  1.3762  1.8460
 1986SOL     OW17419   1.097   0.606   5.395  0.5149  0.4002 -0.0827
 1986SOL    HW117420   1.119   0.589   5.303 -2.3583  1.2175 -0.9208
 1986SOL    HW217421   1.184   0.621   5.432 -0.5451  0.2264  2.4912
 1987SOL     OW17422   3.906   0.507   8.702  0.1637 -0.2897  0.3763
 1987SOL    HW117423   4.001   0.503   8.715  0.2000 -1.5915 -0.3182
 1987SOL    HW217424   3.890   0.600   8.687  0.8243 -0.0011  1.4377
 1988SOL     OW17425   4.723   0.089   3.605  0.4542  0.4892 -0.0763
 1988SOL    HW117426   4.675   0.143   3.542 -1.5108 -0.9119  0.2126
 1988SOL    HW217427   0.035   0.023   3.548  0.2268  0.5463 -0.2958
 1989SOL     OW17428   3.457   1.281   2.834 -0.1745 -0.2056  0.2339
 1989SOL    HW117429   3.459   1.326   2.919 -4.2620  0.1183  0.1294
 1989SOL    HW217430   3.375   1.232   2.834 -0.7096  0.6757  1.6521
 1990SOL     OW17431   2.641   3.646   7.540 -0.2977 -0.2194 -0.3041
 1990SOL    HW117432   2.562   3.696   7.559  0.7763  1.7530 -1.0251
 1990SOL    HW217433   2.702   3.713   7.510  1.4987 -1.1278  1.2697
 1991SOL     OW17434   2.889   0.086   0.399 -0.3485 -0.0396  0.9779
 1991SOL    HW117435   2.977   0.125   0.405  0.5398 -1.9336  0.3753
 1991SOL    HW217436   2.847   0.159   0.355 -1.9345 -0.5024  1.7398
 1992SOL     OW17437   1.363   3.656   0.674  0.4376 -0.2144  0.1351
 1992SOL    HW117438   1.453   3.689   0.661 -1.0130  3.8636  0.2758
 1992SOL    HW217439   1.387   3.571   0.711 -1.0568 -1.0126 -0.7432
 1993SOL     OW17440   0.030   3.577   4.214 -0.0716  0.0345 -0.8349
 1993SOL    HW117441   0.042   3.611   4.126  1.6897  1.9769  0.1745
 1993SOL    HW217442   0.123   3.566   4.233  0.1930  0.5810 -1.8320
 1994SOL     OW17443   0.091   1.361   4.530  0.4533  0.0199  0.4928
 1994SOL    HW117444   0.086   1.371   4.435 -1.9457 -0.1937  0.5873
 1994SOL    HW217445   0.150   1.289   4.551  2.1702  2.1367  2.8699
 1995SOL     OW17446   1.002   3.050  16.057 -0.6545  0.8191  0.3062
 1995SOL    HW117447   1.068   3.026  15.992  2.6859  1.4201  3.5278
 1995SOL    HW217448   0.964   2.967  16.085 -0.4826 -0.1274 -2.2987
 1996SOL     OW17449   0.754   2.471   6.537  0.0695 -0.3099  0.5162
 1996SOL    HW117450   0.697   2.548   6.539  1.3479  0.6645 -0.3001
 1996SOL    HW217451   0.828   2.502   6.589  1.1568  0.0771 -1.2474
 1997SOL     OW17452   1.418   3.011  10.673 -1.1104  0.1762 -0.1772
 1997SOL    HW117453   1.326   3.037  10.675  0.1722  4.6576  1.6650
 1997SOL    HW217454   1.416   2.972  10.586  0.8404 -1.3343  0.4750
 1998SOL     OW17455   3.597   3.502   7.903 -0.1502  0.3407 -0.2370
 1998SOL    HW117456   3.669   3.439   7.895  1.4174  2.2993 -1.6459
 1998SOL    HW217457   3.533   3.445   7.859  1.2048 -0.1050 -1.6277
 1999SOL     OW17458   2.167   3.468  13.957  0.0135  0.4772  0.6064
 1999SOL    HW117459   2.180   3.538  14.021 -2.0691  1.5327 -0.1320
 1999SOL    HW217460   2.251   3.423  13.947 -0.1056  0.3341  0.2335
 2000SOL     OW17461   1.094   4.566   4.385  0.2073 -0.0791  0.1658
 2000SOL    HW117462   1.007   4.531   4.400  0.4238 -1.4329 -1.7096
 2000SOL    HW217463   1.118   4.498   4.321  3.0144  0.7089  0.3669
 2001SOL     OW17464   4.123   2.643  17.592  0.5448 -0.7116  0.2165
 2001SOL    HW117465   4.216   2.654  17.611  0.3526 -0.2099  0.8611
 2001SOL    HW217466   4.130   2.646  17.497 -1.1241  0.8333  0.1392
 2002SOL     OW17467   2.453   1.639   8.412 -0.4429 -0.2994  0.5478
 2002SOL    HW117468   2.410   1.720   8.385  1.1587  0.5941  0.6210
 2002SOL    HW217469   2.381   1.605   8.464  1.2093 -1.9930  1.7394
 2003SOL     OW17470   0.245   4.129  16.015  0.1477 -0.1441 -0.0661
 2003SOL    HW117471   0.210   4.204  15.967  1.9509  1.6823  1.4717
 2003SOL    HW217472   0.180   4.109  16.081 -0.2721  2.7441  0.4050
 2004SOL     OW17473   0.048   1.384   3.077  0.7160  0.3395 -0.1240
 2004SOL    HW117474   0.104   1.362   3.003 -0.2569  0.9069 -1.0280
 2004SOL    HW217475   0.061   1.479   3.083  1.5701  0.1147  1.5090
 2005SOL     OW17476   4.543   4.562   4.109  0.4579  0.2140 -0.7633
 2005SOL    HW117477   4.472   4.598   4.057  0.0950  0.3772 -0.1466
 2005SOL    HW217478   4.536   4.612   4.190 -0.5953 -2.4303  0.7884
 2006SOL     OW17479   1.763   4.141   1.459 -0.8214 -0.3193 -1.1836
 2006SOL    HW117480   1.743   4.142   1.553  0.4774  1.4538 -0.9418
 2006SOL    HW217481   1.823   4.066   1.461  0.5677  0.8144 -0.1102
 2007SOL     OW17482   0.316   2.530   2.123  0.0304 -0.1751  0.3685
 2007SOL    HW117483   0.313   2.447   2.074 -1.3669  1.1479 -1.7937
 2007SOL    HW217484   0.306   2.606   2.066  0.6349 -0.1253  0.3380
 2008SOL     OW17485   2.862   3.216   2.903 -0.5666 -0.1165  0.2740
 2008SOL    HW117486   2.893   3.244   2.989 -0.3856 -1.8794  0.7924
 2008SOL    HW217487   2.798   3.286   2.896 -0.9011 -0.4420  0.0669
 2009SOL     OW17488   4.203   1.594  15.416 -1.0682  0.7885  0.3910
 2009SOL    HW117489   4.288   1.580  15.372 -1.4246 -0.1110 -0.0139
 2009SOL    HW217490   4.177   1.676  15.373  1.6198  1.7945  0.6628
 2010SOL     OW17491   2.043   3.225   2.479 -0.2639  0.3208  0.3085
 2010SOL    HW117492   2.008   3.196   2.563 -0.1393 -1.9945 -0.4299
 2010SOL    HW217493   2.050   3.319   2.497  0.6746  0.1285  0.9226
 2011SOL     OW17494   4.126   2.379   3.705  1.0023  0.2742 -0.2835
 2011SOL    HW117495   4.108   2.369   3.799  1.7011  1.1911 -0.0564
 2011SOL    HW217496   4.122   2.290   3.669 -0.3068  0.5959 -0.9524
 2012SOL     OW17497   0.436   4.616   2.844  0.7856  0.3940 -0.2746
 2012SOL    HW117498   0.455   4.618   2.938 -2.1596  1.3053  0.2896
 2012SOL    HW217499   0.345   4.590   2.853  0.9982 -0.8633 -1.8625
 2013SOL     OW17500   4.298   4.391   3.985  0.0640 -0.3894 -0.1550
 2013SOL    HW117501   4.261   4.303   3.996  1.0883 -0.6289  1.4473
 2013SOL    HW217502   4.349   4.376   3.906  0.2997  0.4462 -0.1586
 2014SOL     OW17503   3.344   3.083  15.638 -0.0132  0.2385 -0.1469
 2014SOL    HW117504   3.426   3.044  15.606 -0.2588 -0.6512  0.3287
 2014SOL    HW217505   3.375   3.173  15.652  1.2519 -0.0089 -1.3780
 2015SOL     OW17506   0.920   1.066   3.295 -0.4276 -0.1116 -0.1664
 2015SOL    HW117507   0.972   1.146   3.287 -0.1747 -0.3385 -0.8094
 2015SOL    HW217508   0.867   1.069   3.215 -1.7624 -0.8346  0.6916
 2016SOL     OW17509   4.666   0.789   2.962 -0.6992  0.8769  0.0691
 2016SOL    HW117510   4.720   0.781   3.041  3.3533  0.9526 -2.6444
 2016SOL    HW217511   4.682   0.883   2.958  2.4993  0.2211 -3.5068
 2017SOL     OW17512   4.496   3.862  14.209 -0.1380  0.1699 -0.2188
 2017SOL    HW117513   4.549   3.841  14.132  0.7529 -0.4129  0.5443
 2017SOL    HW217514   4.548   3.930  14.252  1.9580  0.5406 -3.3359
 2018SOL     OW17515   2.746   3.507   4.482  0.1831  0.2517  0.9033
 2018SOL    HW117516   2.671   3.566   4.476  1.8884  2.0718 -2.4874
 2018SOL    HW217517   2.759   3.490   4.389 -0.0654 -0.2117  0.9538
 2019SOL     OW17518   4.639   3.840   4.262 -0.1752 -0.0774 -0.6360
 2019SOL    HW117519   4.574   3.865   4.196 -0.2369  1.0304 -0.1607
 2019SOL    HW217520   4.664   3.752   4.234  0.4680 -0.3961  0.9336
 2020SOL     OW17521   4.051   1.310   3.046 -0.2033  0.8407  0.0339
 2020SOL    HW117522   3.968   1.320   2.998 -1.4389  0.3062  2.0429
 2020SOL    HW217523   4.104   1.356   2.981  1.7050 -0.3280  0.7806
 2021SOL     OW17524   2.014   1.237   3.098 -0.1208  0.6429 -0.4030
 2021SOL    HW117525   2.057   1.309   3.051  1.2062 -1.0842 -1.8395
 2021SOL    HW217526   1.962   1.207   3.024  0.5685 -2.5048  0.3945
 2022SOL     OW17527   4.579   2.917   9.543 -0.0016 -0.6422  0.0684
 2022SOL    HW117528   4.496   2.938   9.584  0.2885  0.0125  0.3051
 2022SOL    HW217529   4.573   2.974   9.466 -0.0869 -0.4261  0.2375
 2023SOL     OW17530   1.773   4.177   4.450 -0.0423  0.4984  0.6136
 2023SOL    HW117531   1.732   4.221   4.375  0.7711  0.4771  0.1575
 2023SOL    HW217532   1.862   4.156   4.423 -0.4013  0.3648 -0.4758
 2024SOL     OW17533   1.808   1.929   7.887  0.1717 -0.3171  0.0062
 2024SOL    HW117534   1.823   1.959   7.797  0.5325 -0.9220 -0.1357
 2024SOL    HW217535   1.869   1.855   7.885  0.6708  0.1674 -3.0688
 2025SOL     OW17536   2.459   2.850   2.008  0.5923 -0.2011 -0.6746
 2025SOL    HW117537   2.410   2.914   2.059  0.9067 -0.3149 -0.2304
 2025SOL    HW217538   2.408   2.770   2.020 -0.9176  1.2429  2.4159
 2026SOL     OW17539   3.345   2.203  13.634 -0.2638 -0.1083 -0.2159
 2026SOL    HW117540   3.431   2.240  13.617  0.0601  0.6236  2.9627
 2026SOL    HW217541   3.296   2.282  13.656 -1.1143 -0.1106 -2.1363
 2027SOL     OW17542   2.537   4.550  15.374 -0.6681 -0.5084  0.5257
 2027SOL    HW117543   2.465   4.586  15.322  0.1623 -0.8808 -0.8750
 2027SOL    HW217544   2.587   4.628  15.400 -0.5192 -1.0141  1.7350
 2028SOL     OW17545   2.895   3.698   0.707  0.1784 -0.0353  0.0001
 2028SOL    HW117546   2.897   3.672   0.799 -0.3603 -0.0164  0.0157
 2028SOL    HW217547   2.819   3.648   0.679  1.9889 -2.3858 -0.6443
 2029SOL     OW17548   3.236   2.720  14.896 -0.2134 -0.5829 -0.1965
 2029SOL    HW117549   3.179   2.736  14.971  1.6161 -0.6741  1.2080
 2029SOL    HW217550   3.315   2.678  14.930  0.8658 -0.8942 -3.0436
 2030SOL     OW17551   1.414   4.546   7.491 -0.2439 -0.3288 -0.1234
 2030SOL    HW117552   1.465   4.587   7.421 -0.1436  0.5287  0.4436
 2030SOL    HW217553   1.395   4.625   7.543 -0.0587 -1.5482  1.8174
 2031SOL     OW17554   4.410   0.970   3.486  0.0638 -0.1859  0.2186
 2031SOL    HW117555   4.452   1.019   3.415  1.6886 -0.2779  1.1197
 2031SOL    HW217556   4.449   1.008   3.565  2.7175  0.0502 -1.1915
 2032SOL     OW17557   0.836   4.535   2.759 -0.5854  0.3970 -0.4288
 2032SOL    HW117558   0.826   4.441   2.776 -1.7522  0.8795  1.6080
 2032SOL    HW217559   0.747   4.543   2.726 -1.0242 -0.5932  0.4976
 2033SOL     OW17560   1.866   1.899  12.101 -0.6246 -0.1745 -0.0664
 2033SOL    HW117561   1.927   1.928  12.169 -2.1245  2.4266  0.1797
 2033SOL    HW217562   1.815   1.980  12.108 -2.8964 -1.6704  0.7396
 2034SOL     OW17563   1.184   2.668   2.347  0.2763 -0.1559  0.2976
 2034SOL    HW117564   1.163   2.577   2.326 -0.6027  0.1031  0.0694
 2034SOL    HW217565   1.279   2.656   2.342  0.5239  0.2410  3.5991
 2035SOL     OW17566   1.187   2.555   8.526 -0.3479 -0.4803 -0.1239
 2035SOL    HW117567   1.218   2.643   8.546  3.2251 -2.1030  1.5511
 2035SOL    HW217568   1.173   2.564   8.432 -1.7614  0.0979  0.1434
 2036SOL     OW17569   1.206   1.894   7.067  0.1389 -0.1931  0.1824
 2036SOL    HW117570   1.120   1.859   7.089  0.0378  0.0731  0.2068
 2036SOL    HW217571   1.221   1.857   6.979  0.9704 -1.4878  0.8679
 2037SOL     OW17572   3.664   1.082  14.478  0.2020  0.4960  0.2998
 2037SOL    HW117573   3.742   1.050  14.434  0.2610  1.4252 -0.2851
 2037SOL    HW217574   3.621   1.134  14.409 -0.3204 -0.3445 -0.0153
 2038SOL     OW17575   1.012   0.235   0.340  0.3176 -0.2804 -0.0320
 2038SOL    HW117576   1.001   0.141   0.323 -1.2563 -0.4060  1.7546
 2038SOL    HW217577   1.101   0.249   0.307  0.9400  0.1419  1.8130
 2039SOL     OW17578   0.311   3.600   5.284  0.0578  0.0349  0.3259
 2039SOL    HW117579   0.269   3.562   5.361 -0.4493 -2.2334 -1.0547
 2039SOL    HW217580   0.239   3.599   5.221 -0.6581  3.3437  1.1204
 2040SOL     OW17581   0.786   3.471   7.090 -0.3063  0.7986  0.7481
 2040SOL    HW117582   0.719   3.508   7.032  0.6145  1.4996  0.1320
 2040SOL    HW217583   0.809   3.398   7.033  0.1890  2.4540 -1.1983
 2041SOL     OW17584   4.201   3.490  12.022  0.6261  0.0503 -0.4151
 2041SOL    HW117585   4.126   3.542  11.994  0.4612  0.6651  1.1413
 2041SOL    HW217586   4.200   3.423  11.955  1.0625 -1.1755  0.7946
 2042SOL     OW17587   0.812   3.205  12.519  0.3097  0.1716  0.2199
 2042SOL    HW117588   0.789   3.114  12.541  1.5299 -0.0769  0.4808
 2042SOL    HW217589   0.791   3.252  12.600  0.4194  1.5792 -0.5804
 2043SOL     OW17590   3.949   0.548   2.785 -0.0659 -0.7771 -0.4813
 2043SOL    HW117591   3.982   0.459   2.777  2.2033  0.2314 -2.2607
 2043SOL    HW217592   4.026   0.602   2.766 -0.5877  0.2606  0.3563
 2044SOL     OW17593   1.447   1.608   0.898 -0.1015  0.0386  0.0321
 2044SOL    HW117594   1.456   1.703   0.894 -1.2473  0.0907 -1.1654
 2044SOL    HW217595   1.423   1.592   0.807  0.2956  0.8990 -0.2263
 2045SOL     OW17596   0.584   1.533   6.224  0.1591  0.0109 -0.3449
 2045SOL    HW117597   0.569   1.492   6.309  0.0547  0.9023  0.0647
 2045SOL    HW217598   0.493   1.559   6.206  0.3784  2.2524  1.8947
 2046SOL     OW17599   2.737   0.567  11.882  0.0004 -0.2813 -0.3604
 2046SOL    HW117600   2.656   0.533  11.843 -0.5738  0.8742 -0.1556
 2046SOL    HW217601   2.712   0.658  11.897  3.5386  0.6150 -0.0148
 2047SOL     OW17602   3.440   1.441   4.346 -0.7411 -0.7240 -0.7240
 2047SOL    HW117603   3.386   1.380   4.396  2.0299 -0.9223  2.0428
 2047SOL    HW217604   3.468   1.492   4.422 -0.0250 -1.1563 -0.6898
 2048SOL     OW17605   1.401   0.665   3.066 -0.1401  0.1168  0.2591
 2048SOL    HW117606   1.404   0.737   3.003 -1.2742  0.1930  0.2929
 2048SOL    HW217607   1.382   0.728   3.136  2.1776  1.3064 -0.1625
 2049SOL     OW17608   3.671   1.848   8.569 -0.4340 -0.8037  0.0455
 2049SOL    HW117609   3.755   1.863   8.612 -0.0509 -0.3051 -0.8655
 2049SOL    HW217610   3.660   1.943   8.564 -0.4549 -0.8543 -0.8308
 2050SOL     OW17611   4.538   1.195  12.906 -0.7387  0.4601  0.0506
 2050SOL    HW117612   4.455   1.239  12.887 -1.1680 -1.0839 -1.5671
 2050SOL    HW217613   4.504   1.115  12.946  2.2868 -0.3875  0.9135
 2051SOL     OW17614   4.225   2.082   7.342  0.7304  0.2573  0.0612
 2051SOL    HW117615   4.193   2.024   7.274  3.7489 -0.7064 -0.5284
 2051SOL    HW217616   4.259   2.026   7.412  2.8599 -1.3609 -2.2736
 2052SOL     OW17617   1.931   3.857  10.801 -0.3498 -0.0044 -0.0062
 2052SOL    HW117618   1.994   3.921  10.769 -1.7626  1.8091  0.8758
 2052SOL    HW217619   1.862   3.913  10.834  0.2444 -1.1900  3.2949
 2053SOL     OW17620   1.979   0.628   8.133  0.0604 -0.0560 -0.4320
 2053SOL    HW117621   1.982   0.568   8.207  0.5941 -0.7418 -1.0014
 2053SOL    HW217622   2.072   0.642   8.113  0.1928 -2.0769 -1.2303
 2054SOL     OW17623   4.471   2.941   5.024 -0.3042 -0.0907  0.1345
 2054SOL    HW117624   4.563   2.948   4.999  0.0712  0.5117  1.6753
 2054SOL    HW217625   4.437   3.026   4.995 -1.0613 -0.6123 -0.4943
 2055SOL     OW17626   0.966   4.647   5.735 -0.0044 -0.3851  0.2340
 2055SOL    HW117627   0.883   4.599   5.728 -0.4849  0.2964  1.1632
 2055SOL    HW217628   0.979   4.674   5.645  1.6881 -1.0689  0.2811
 2056SOL     OW17629   1.319   4.612  13.921 -0.1533 -0.1546 -0.1992
 2056SOL    HW117630   1.398   4.566  13.949  1.2776  3.0632  1.0328
 2056SOL    HW217631   1.282   4.551  13.856 -0.8387 -1.6873  1.6368
 2057SOL     OW17632   1.318   0.173   6.741 -0.4228 -0.1873 -0.1161
 2057SOL    HW117633   1.404   0.187   6.702 -1.1565  2.1225 -0.8978
 2057SOL    HW217634   1.321   0.081   6.769 -0.8622 -0.4030 -0.7863
 2058SOL     OW17635   4.713   2.205   3.415  0.4328  0.0052  0.6038
 2058SOL    HW117636   4.712   2.285   3.362  1.0988 -1.1766 -1.1818
 2058SOL    HW217637   4.623   2.175   3.413  0.0730  1.1444  0.0611
 2059SOL     OW17638   1.476   1.307   8.407 -0.0446  0.0926 -0.1177
 2059SOL    HW117639   1.408   1.374   8.418 -1.9509 -1.9888  0.7050
 2059SOL    HW217640   1.436   1.237   8.356 -1.0816  1.0612 -0.6354
 2060SOL     OW17641   0.716   3.479   8.349  0.0410 -0.1575  0.0511
 2060SOL    HW117642   0.698   3.533   8.425 -0.5894  0.5146 -0.5779
 2060SOL    HW217643   0.778   3.532   8.300  1.1161 -1.8536 -0.4519
 2061SOL     OW17644   1.412   3.059   7.720 -0.0793 -0.0657 -0.0403
 2061SOL    HW117645   1.451   3.036   7.805  3.0355 -0.3350 -1.5510
 2061SOL    HW217646   1.454   3.145   7.712 -0.6475  0.0751 -1.4915
 2062SOL     OW17647   2.235   1.210   0.967 -0.0704  0.2306 -0.2272
 2062SOL    HW117648   2.165   1.271   0.990  1.5445  0.9595  2.7163
 2062SOL    HW217649   2.309   1.268   0.982  1.7495 -3.0774  3.8282
 2063SOL     OW17650   4.565   0.959   7.972  0.5540  0.2054  0.0916
 2063SOL    HW117651   4.493   0.968   8.035  0.6427  1.1934  0.0549
 2063SOL    HW217652   4.637   1.002   8.018  0.4306  1.5218 -0.9391
 2064SOL     OW17653   0.349   1.259  10.059 -0.0822 -0.0712  0.3499
 2064SOL    HW117654   0.342   1.315  10.136  0.4897 -0.5401  0.7460
 2064SOL    HW217655   0.291   1.304   9.997  1.9755  1.7753 -0.2390
 2065SOL     OW17656   2.904   3.008   4.033  0.1753 -0.4176 -0.1375
 2065SOL    HW117657   2.831   3.018   4.093  1.8644  2.7866  1.3899
 2065SOL    HW217658   2.942   3.095   4.020 -3.7204  1.0481 -1.6945
 2066SOL     OW17659   4.081   1.176   2.503 -0.3050 -0.1306 -0.4617
 2066SOL    HW117660   3.994   1.138   2.513  0.0219 -0.9411 -0.6320
 2066SOL    HW217661   4.060   1.213   2.417 -0.8505  2.4467  0.8106
 2067SOL     OW17662   3.159   2.263   4.435 -0.1855 -0.5888  0.0212
 2067SOL    HW117663   3.220   2.207   4.387  1.3994  2.0186 -1.0091
 2067SOL    HW217664   3.124   2.311   4.360 -0.6494  1.9893  1.8854
 2068SOL     OW17665   2.238   1.089   2.435  0.0747  0.1643  0.4114
 2068SOL    HW117666   2.151   1.125   2.419 -0.7041 -1.5770  0.6987
 2068SOL    HW217667   2.297   1.136   2.376  2.8174 -2.2681  1.1894
 2069SOL     OW17668   1.999   0.525   6.514  0.4752  0.3590 -0.1973
 2069SOL    HW117669   2.023   0.568   6.597  0.2952 -2.1121  1.1389
 2069SOL    HW217670   1.911   0.558   6.498  0.9479  2.7704  2.0413
 2070SOL     OW17671   3.786   3.374   5.313  0.1552 -0.1850 -0.1692
 2070SOL    HW117672   3.869   3.360   5.267  0.2280 -0.8531  0.1700
 2070SOL    HW217673   3.798   3.462   5.347  2.0728 -0.0458 -1.1834
 2071SOL     OW17674   2.894   0.007   4.080 -0.0341  0.1346 -0.2929
 2071SOL    HW117675   2.909   4.645   4.044  0.6956 -0.5768  1.7513
 2071SOL    HW217676   2.807   0.023   4.043 -1.0559 -0.5481  1.8110
 2072SOL     OW17677   1.681   0.407  11.416 -0.3328  0.4745 -0.3061
 2072SOL    HW117678   1.611   0.449  11.365  0.2901  1.6385 -0.2094
 2072SOL    HW217679   1.639   0.399  11.502 -0.4147  0.0859 -0.3827
 2073SOL     OW17680   0.603   0.192  10.437 -0.0535  0.0020 -1.0008
 2073SOL    HW117681   0.648   0.109  10.423 -0.7941 -0.1394 -2.5548
 2073SOL    HW217682   0.577   0.212  10.347  1.6144  1.8079 -1.0681
 2074SOL     OW17683   0.957   3.084   2.373 -0.0440  0.5310  0.0920
 2074SOL    HW117684   0.910   3.166   2.386  0.4618  0.9291 -0.5958
 2074SOL    HW217685   0.896   3.015   2.401  3.5326 -2.6844 -0.1248
 2075SOL     OW17686   0.671   1.473   5.405 -0.7369  0.2455  0.1995
 2075SOL    HW117687   0.685   1.503   5.495 -0.3797 -1.3233  0.6614
 2075SOL    HW217688   0.755   1.443   5.371 -0.6515  1.6112 -0.7756
 2076SOL     OW17689   0.743   3.170  11.101 -0.1342  0.2456 -0.2642
 2076SOL    HW117690   0.722   3.077  11.091  0.8773  0.0289 -0.3266
 2076SOL    HW217691   0.768   3.169  11.193  2.6275  2.4047 -0.9929
 2077SOL     OW17692   2.521   4.126   5.840  0.0549  0.1894  0.4596
 2077SOL    HW117693   2.450   4.078   5.798 -0.9937  0.4876  1.8824
 2077SOL    HW217694   2.597   4.124   5.782  0.0990  0.6446  0.5056
 2078SOL     OW17695   1.368   0.870   3.230  0.4209 -0.1062  0.0999
 2078SOL    HW117696   1.451   0.909   3.257  0.6074  0.1291 -0.7991
 2078SOL    HW217697   1.320   0.953   3.229  1.2903  0.3994  0.5609
 2079SOL     OW17698   3.034   2.487   0.111 -0.6309  0.3580 -0.1703
 2079SOL    HW117699   2.987   2.409   0.080  0.9884  0.7578 -3.6177
 2079SOL    HW217700   2.961   2.542   0.139 -2.4821  0.0725 -4.4345
 2080SOL     OW17701   2.152   1.896   2.442  0.7015  0.5414  0.0748
 2080SOL    HW117702   2.121   1.877   2.530 -1.2538  0.4881 -0.6212
 2080SOL    HW217703   2.086   1.958   2.411  2.3991  1.9965 -0.6901
 2081SOL     OW17704   0.443   0.304  14.037 -0.2959  0.2213 -0.1333
 2081SOL    HW117705   0.493   0.322  13.957  0.6599 -4.3021 -0.5882
 2081SOL    HW217706   0.514   0.272  14.094 -1.4323  1.0084  1.7024
 2082SOL     OW17707   4.095   2.802   7.040  0.2435  0.4569  0.1754
 2082SOL    HW117708   4.016   2.775   6.994  0.2378 -1.6800  1.4445
 2082SOL    HW217709   4.146   2.840   6.969  1.0478 -1.1453 -0.1067
 2083SOL     OW17710   1.702   1.975   8.483 -0.2508  0.1618 -0.1975
 2083SOL    HW117711   1.681   2.066   8.504 -4.3767 -0.4529 -1.6472
 2083SOL    HW217712   1.648   1.931   8.548 -2.4427  2.1471 -0.6465
 2084SOL     OW17713   1.278   4.633   0.989  0.2048  0.2881 -0.4872
 2084SOL    HW117714   1.241   4.630   0.901 -2.7490 -1.3906  0.8329
 2084SOL    HW217715   1.218   4.683   1.045  0.9460  0.7358 -0.0881
 2085SOL     OW17716   1.939   4.683  16.991 -0.1432 -0.0363  0.3077
 2085SOL    HW117717   1.936   0.015  17.067 -0.2086 -0.4518  0.6298
 2085SOL    HW217718   1.975   4.604  17.031  0.2455  0.5069  1.0195
 2086SOL     OW17719   2.385   2.032   0.031 -0.7382 -0.1732  0.7050
 2086SOL    HW117720   2.296   1.998   0.037  0.0656 -2.2747  0.7292
 2086SOL    HW217721   2.431   1.953   0.002  2.9108  2.3652 -0.2755
 2087SOL     OW17722   1.039   1.082   8.517  0.3083 -0.3256 -0.4587
 2087SOL    HW117723   0.988   1.002   8.527 -0.0355  0.0066  0.3703
 2087SOL    HW217724   1.073   1.089   8.427 -2.2379  0.4932 -1.3440
 2088SOL     OW17725   3.154   2.829   0.538  0.2660  0.2715 -0.5946
 2088SOL    HW117726   3.221   2.830   0.470  0.7092 -1.2012 -0.1782
 2088SOL    HW217727   3.080   2.790   0.491  0.1781 -0.5015  0.1798
 2089SOL     OW17728   0.101   2.095   0.295 -0.6597  0.1216  0.3974
 2089SOL    HW117729   0.155   2.166   0.331  0.4768  0.3772 -1.8335
 2089SOL    HW217730   0.020   2.119   0.340 -0.0318  2.7706  0.1722
 2090SOL     OW17731   4.122   0.569   7.442  0.5823  0.6835 -0.0418
 2090SOL    HW117732   4.154   0.484   7.413 -0.6781 -0.2511  1.3560
 2090SOL    HW217733   4.027   0.565   7.430  0.4424 -2.0465  2.1323
 2091SOL     OW17734   0.547   0.962   2.798  0.0716 -0.7804  0.0723
 2091SOL    HW117735   0.538   0.928   2.708 -2.3646 -0.5387  0.2001
 2091SOL    HW217736   0.588   1.047   2.781 -0.0585 -0.9670 -1.2173
 2092SOL     OW17737   0.189   3.368   3.615 -0.3032 -0.3913  0.4065
 2092SOL    HW117738   0.270   3.322   3.596  0.3825  0.3316  1.6027
 2092SOL    HW217739   0.125   3.331   3.554  0.0743 -2.2640  1.1640
 2093SOL     OW17740   3.655   3.634   8.880 -0.2097 -0.2589 -0.2620
 2093SOL    HW117741   3.717   3.571   8.842 -2.0904 -0.2494 -3.3607
 2093SOL    HW217742   3.572   3.589   8.867  0.1510 -0.6862 -1.0823
 2094SOL     OW17743   0.764   2.970   8.886 -0.1976  0.2267  0.3428
 2094SOL    HW117744   0.751   2.976   8.791 -2.0811  0.4397  0.6131
 2094SOL    HW217745   0.726   3.052   8.917 -2.2692 -0.5966 -0.0269
 2095SOL     OW17746   3.902   0.641   3.998 -0.4346  0.0702 -0.2198
 2095SOL    HW117747   3.968   0.577   4.023 -1.6843 -1.2119 -0.1835
 2095SOL    HW217748   3.928   0.721   4.044  0.9882 -0.1382 -0.6800
 2096SOL     OW17749   4.002   2.129   0.352 -0.0391  0.9035  0.3009
 2096SOL    HW117750   4.087   2.172   0.343  0.1235  0.7875  1.3803
 2096SOL    HW217751   3.943   2.175   0.411  0.2340  1.1742  0.3641
 2097SOL     OW17752   1.267   4.372   2.409  1.1468  0.1579 -0.3450
 2097SOL    HW117753   1.299   4.450   2.455 -0.2523 -0.1077  1.0838
 2097SOL    HW217754   1.180   4.392   2.375  1.7478  1.3788 -1.1468
 2098SOL     OW17755   3.847   0.150  10.666  0.4533 -0.4208  0.1929
 2098SOL    HW117756   3.855   0.055  10.672 -1.9557 -0.5847  1.1073
 2098SOL    HW217757   3.915   0.160  10.600 -0.5310 -0.8053 -0.8905
 2099SOL     OW17758   2.161   0.648   3.566  0.5873 -0.2798  0.4343
 2099SOL    HW117759   2.086   0.621   3.513  2.3362 -0.6483 -1.8622
 2099SOL    HW217760   2.153   0.593   3.644 -1.9337  0.9030  1.0135
 2100SOL     OW17761   0.569   4.681   4.103 -0.2175 -0.4249  0.2815
 2100SOL    HW117762   0.533   0.000   4.027 -0.5822 -2.7529 -0.9308
 2100SOL    HW217763   0.592   4.595   4.067  1.8062  0.5205 -0.6909
 2101SOL     OW17764   1.373   1.614  14.111  0.2764 -0.0762  0.1482
 2101SOL    HW117765   1.325   1.678  14.162  0.0625 -0.0525 -0.0821
 2101SOL    HW217766   1.409   1.672  14.044  1.8523 -1.3023 -0.0553
 2102SOL     OW17767   3.743   1.925   4.940 -0.3320  0.4752  0.1439
 2102SOL    HW117768   3.769   2.016   4.932  0.5798  0.2305  0.3858
 2102SOL    HW217769   3.650   1.937   4.920 -0.3232  0.3610  0.0349
 2103SOL     OW17770   0.276   3.202  16.568 -0.5022  0.0362  0.3302
 2103SOL    HW117771   0.231   3.180  16.650 -0.6477 -0.6518  0.0680
 2103SOL    HW217772   0.208   3.199  16.499 -0.0716 -2.5243  0.0071
 2104SOL     OW17773   3.895   1.515   3.382 -0.4388  0.2281  0.1139
 2104SOL    HW117774   3.826   1.449   3.393  0.9064 -1.0862  0.6622
 2104SOL    HW217775   3.970   1.463   3.353  0.2763  2.2814 -1.6604
 2105SOL     OW17776   0.475   2.315   9.638 -0.4330 -0.3588 -0.1741
 2105SOL    HW117777   0.526   2.371   9.580 -2.2283 -1.0577 -2.4134
 2105SOL    HW217778   0.510   2.230   9.611 -0.8345 -0.6294  0.1483
 2106SOL     OW17779   2.645   1.203   0.827 -0.6351 -0.0149  1.1308
 2106SOL    HW117780   2.632   1.113   0.796  0.2680 -0.4849  2.0790
 2106SOL    HW217781   2.709   1.190   0.897  1.1919 -0.2687 -0.6093
 2107SOL     OW17782   1.154   0.299   3.110 -0.0823 -0.5536 -0.4698
 2107SOL    HW117783   1.206   0.316   3.189 -1.4501  0.8927  0.1300
 2107SOL    HW217784   1.188   0.210   3.105  2.0063  0.1613  0.4263
 2108SOL     OW17785   1.849   0.048  16.747  0.4573 -0.2077 -0.3199
 2108SOL    HW117786   1.882   0.010  16.829  0.0495 -2.5034 -1.2408
 2108SOL    HW217787   1.883   4.719  16.677  0.0292 -0.4139 -0.3623
 2109SOL     OW17788   2.899   3.695   0.297 -0.5771  0.4228  0.5864
 2109SOL    HW117789   2.840   3.769   0.284 -0.0217  1.1018  1.9057
 2109SOL    HW217790   2.831   3.633   0.324 -0.1170  0.6580  2.2875
 2110SOL     OW17791   3.239   2.916  10.054 -0.0827  0.1162  0.4900
 2110SOL    HW117792   3.320   2.966  10.048  0.8070 -1.5916 -2.0581
 2110SOL    HW217793   3.227   2.884   9.964 -3.0827 -2.6370  1.9007
 2111SOL     OW17794   2.527   0.488  16.836 -0.2425  0.0855 -0.1524
 2111SOL    HW117795   2.480   0.415  16.876 -1.4482  0.6980 -0.4640
 2111SOL    HW217796   2.457   0.544  16.804 -0.6325 -0.1282  0.3309
 2112SOL     OW17797   0.585   0.344   5.535  0.0007  0.6481  0.3845
 2112SOL    HW117798   0.563   0.257   5.567 -1.1907  1.2444  1.1779
 2112SOL    HW217799   0.659   0.321   5.479 -0.6293 -0.2641 -0.0712
 2113SOL     OW17800   1.711   1.415   4.922 -0.4900  0.1144 -0.0498
 2113SOL    HW117801   1.662   1.380   4.996  1.4244  0.4159  1.3573
 2113SOL    HW217802   1.654   1.487   4.898 -1.4505 -1.5331 -2.7627
 2114SOL     OW17803   0.891   4.702   0.029  0.5208  0.2373 -0.0074
 2114SOL    HW117804   0.940   4.723  17.655  3.1232 -0.9927  1.2706
 2114SOL    HW217805   0.863   4.612   0.009 -0.1996  0.6656 -0.9237
 2115SOL     OW17806   4.271   3.681   1.583 -0.1148  0.4153 -0.1325
 2115SOL    HW117807   4.358   3.682   1.621  0.4417  0.1036 -1.4017
 2115SOL    HW217808   4.250   3.592   1.612 -0.9603  1.3319  2.0370
 2116SOL     OW17809   0.871   3.243   6.083  0.0050  0.1401 -0.5125
 2116SOL    HW117810   0.877   3.302   6.159 -0.9444  0.6626 -0.8366
 2116SOL    HW217811   0.816   3.299   6.028  0.2482  0.7967 -0.0923
 2117SOL     OW17812   4.704   3.593   7.669  0.3615  0.1056  0.4390
 2117SOL    HW117813   0.074   3.583   7.666  0.5312  1.0299  2.4566
 2117SOL    HW217814   4.689   3.561   7.581  0.1505  2.6501 -0.4437
 2118SOL     OW17815   0.831   3.804   9.897 -0.2063  0.6696 -0.5917
 2118SOL    HW117816   0.742   3.821   9.864  0.2148 -0.4639 -2.2870
 2118SOL    HW217817   0.817   3.809   9.992 -0.0767 -0.7530 -0.4981
 2119SOL     OW17818   1.933   1.744  17.420 -0.2995 -0.1922 -0.0103
 2119SOL    HW117819   1.867   1.782  17.478  0.0594 -1.5520  1.2871
 2119SOL    HW217820   1.889   1.748  17.335 -2.5289  2.3441  1.2800
 2120SOL     OW17821   3.770   2.779  13.376  0.3842 -1.1079  0.4531
 2120SOL    HW117822   3.748   2.872  13.377 -0.4187 -1.2933  0.6051
 2120SOL    HW217823   3.816   2.763  13.459  3.1595 -0.6699 -1.0064
 2121SOL     OW17824   4.142   1.229  16.395  0.0009  0.0947 -0.7778
 2121SOL    HW117825   4.077   1.223  16.326 -0.8587  1.2582 -0.0635
 2121SOL    HW217826   4.220   1.252  16.343 -0.7734  0.7323 -1.6534
 2122SOL     OW17827   0.317   3.239   1.274 -0.1377  0.0920  0.4287
 2122SOL    HW117828   0.394   3.292   1.257  0.2392 -1.2177 -2.0694
 2122SOL    HW217829   0.244   3.278   1.225  1.7496  0.3436 -2.1646
 2123SOL     OW17830   2.563   1.564   5.451 -0.0843 -0.5815 -0.4284
 2123SOL    HW117831   2.576   1.541   5.359 -1.2032 -0.5275 -0.6054
 2123SOL    HW217832   2.526   1.487   5.494  1.6567 -0.9284  0.4583
 2124SOL     OW17833   4.723   2.747   4.344  0.8966 -0.3589 -0.0911
 2124SOL    HW117834   4.673   2.828   4.349  2.0694  0.4255 -0.9096
 2124SOL    HW217835   4.671   2.684   4.392 -0.3250  2.1152  1.7935
 2125SOL     OW17836   2.230   2.154  16.750 -0.3342 -0.1026 -0.0509
 2125SOL    HW117837   2.196   2.065  16.753  3.0628 -1.3558  0.7440
 2125SOL    HW217838   2.284   2.151  16.671  0.1866 -0.7161  0.3264
 2126SOL     OW17839   1.443   3.998   8.816  0.2143  0.1592  0.0960
 2126SOL    HW117840   1.533   3.993   8.847  0.5145  1.2749 -0.6202
 2126SOL    HW217841   1.420   4.083   8.854  2.7603 -0.5766  3.2606
 2127SOL     OW17842   0.352   3.862  11.694  0.2705 -0.1849  0.0294
 2127SOL    HW117843   0.262   3.835  11.679 -0.8667  3.0262  0.9961
 2127SOL    HW217844   0.369   3.812  11.775 -2.0330 -0.8378  0.0895
 2128SOL     OW17845   3.114   1.498   7.499  0.1237  0.3924 -0.2979
 2128SOL    HW117846   3.179   1.466   7.561  0.1880  0.4553 -0.3337
 2128SOL    HW217847   3.058   1.564   7.540 -0.8323 -0.8497  0.3900
 2129SOL     OW17848   2.581   4.016  12.399 -0.0256 -0.2986 -0.3844
 2129SOL    HW117849   2.642   3.986  12.331  0.9689 -0.1357  0.4371
 2129SOL    HW217850   2.500   3.986  12.358 -0.1616 -0.5490  0.0633
 2130SOL     OW17851   3.091   2.047   6.424 -0.5984 -0.0485  0.1451
 2130SOL    HW117852   3.018   2.057   6.363  1.2388 -0.8227 -2.1555
 2130SOL    HW217853   3.071   1.962   6.463 -1.1630  0.4340  0.9267
 2131SOL     OW17854   2.591   3.307   6.009 -0.3200  0.3444  0.4434
 2131SOL    HW117855   2.558   3.287   5.922  0.5011 -0.4537  0.3128
 2131SOL    HW217856   2.679   3.332   5.982 -1.0990 -2.1507 -4.2945
 2132SOL     OW17857   3.567   1.713   8.349 -0.1500 -0.5301  0.1810
 2132SOL    HW117858   3.608   1.755   8.425 -0.2295 -2.6500  1.3870
 2132SOL    HW217859   3.553   1.792   8.296  0.0994 -0.8878 -0.4256
 2133SOL     OW17860   1.927   1.382   0.725  0.4794 -0.1828  0.2728
 2133SOL    HW117861   1.958   1.359   0.812  0.8846 -2.9510 -0.6170
 2133SOL    HW217862   2.014   1.396   0.687 -0.4048  0.1909 -1.6455
 2134SOL     OW17863   4.384   4.346  10.528 -0.0598 -0.3619 -0.2871
 2134SOL    HW117864   4.413   4.344  10.436  0.3030 -1.2864 -0.1569
 2134SOL    HW217865   4.465   4.331  10.577  0.6528  0.2504 -1.2773
 2135SOL     OW17866   0.073   2.741   6.612  0.3935  0.0410 -0.1382
 2135SOL    HW117867   0.023   2.822   6.628 -0.1637 -0.1731 -0.8061
 2135SOL    HW217868   0.020   2.676   6.659  1.3622  0.5021  1.5817
 2136SOL     OW17869   3.476   1.046   5.751 -0.2697  0.4521 -0.5140
 2136SOL    HW117870   3.536   1.121   5.758 -0.4834  0.8452 -3.2177
 2136SOL    HW217871   3.507   1.008   5.669  2.2774  1.4959 -0.0397
 2137SOL     OW17872   3.822   1.535   4.492  0.6144 -0.0985 -0.4074
 2137SOL    HW117873   3.786   1.555   4.406 -0.6692  0.2172  0.1973
 2137SOL    HW217874   3.753   1.487   4.538 -0.0263  0.1821 -1.0684
 2138SOL     OW17875   0.687   1.586  13.615 -0.4126  0.0110 -0.2449
 2138SOL    HW117876   0.633   1.601  13.537 -1.7748 -0.7422  0.5542
 2138SOL    HW217877   0.730   1.672  13.615  0.1044 -0.2461  0.0924
 2139SOL     OW17878   2.296   4.032  16.792  0.1328 -1.0069 -0.0624
 2139SOL    HW117879   2.208   4.051  16.760  1.1350  3.0632 -0.4168
 2139SOL    HW217880   2.278   3.987  16.875 -1.0014  0.3120  0.3987
 2140SOL     OW17881   2.683   3.044   4.198  0.5098 -0.1164  0.7735
 2140SOL    HW117882   2.619   3.104   4.158 -0.3254  0.7638  3.4326
 2140SOL    HW217883   2.623   3.009   4.264 -0.6228  1.6229  0.6722
 2141SOL     OW17884   3.109   4.448   1.407 -0.0408 -0.3809 -0.2227
 2141SOL    HW117885   3.054   4.437   1.485 -0.7384  1.9596 -0.3614
 2141SOL    HW217886   3.156   4.527   1.434  0.3284 -0.3112 -1.0884
 2142SOL     OW17887   2.610   1.526  11.091  0.2218 -0.1957 -0.0283
 2142SOL    HW117888   2.635   1.480  11.010  0.2802  0.6339 -0.4836
 2142SOL    HW217889   2.564   1.604  11.060  1.6083  0.9486  0.8686
 2143SOL     OW17890   3.408   0.774  16.235  0.1651 -0.0137 -0.1005
 2143SOL    HW117891   3.448   0.723  16.306 -1.1745 -0.2883  0.4645
 2143SOL    HW217892   3.448   0.859  16.252  0.0756  0.1792 -0.8628
 2144SOL     OW17893   0.791   0.109   7.311 -0.0746  0.0316 -0.1092
 2144SOL    HW117894   0.738   0.187   7.293  1.1144  0.7372 -0.4999
 2144SOL    HW217895   0.758   0.079   7.396 -1.6900  3.0167  0.3322
 2145SOL     OW17896   3.232   3.197  15.061  0.4830  0.6023 -0.1224
 2145SOL    HW117897   3.165   3.254  15.098 -0.2875 -0.7641  0.5391
 2145SOL    HW217898   3.307   3.252  15.087 -0.7315  3.0288 -1.7374
 2146SOL     OW17899   1.847   2.235  13.948 -0.1278 -0.1651  0.2913
 2146SOL    HW117900   1.873   2.159  14.001 -1.4797 -2.2191 -2.0322
 2146SOL    HW217901   1.898   2.307  13.987  0.1553 -0.1078 -0.1888
 2147SOL     OW17902   0.246   3.924   2.893  0.5322  0.2107 -0.0807
 2147SOL    HW117903   0.277   3.840   2.860  0.2317 -0.3692  1.1485
 2147SOL    HW217904   0.287   3.979   2.826 -0.5816  0.2447 -0.7336
 2148SOL     OW17905   2.165   2.404   2.903  0.1072 -0.1127 -0.7827
 2148SOL    HW117906   2.224   2.416   2.977  0.3545  1.4166 -1.2232
 2148SOL    HW217907   2.216   2.332   2.867 -0.0646 -0.3713 -0.5149
 2149SOL     OW17908   2.610   0.943   2.901 -0.5014  0.0635  0.0506
 2149SOL    HW117909   2.609   1.035   2.874 -5.9308 -0.4702 -1.4173
 2149SOL    HW217910   2.620   0.953   2.996 -0.9875 -0.5629  0.1624
 2150SOL     OW17911   1.388   3.692   5.067  0.7646  0.3109  0.1189
 2150SOL    HW117912   1.422   3.613   5.110  1.2087  0.6744  0.4409
 2150SOL    HW217913   1.391   3.674   4.973 -0.1734 -0.4600  0.2409
 2151SOL     OW17914   4.178   0.354  16.124 -0.1121 -0.2057 -0.3293
 2151SOL    HW117915   4.251   0.410  16.097 -1.3148  2.2501  1.4324
 2151SOL    HW217916   4.205   0.320  16.209 -0.8689 -0.8202 -0.3420
 2152SOL     OW17917   4.421   1.250  10.878  0.0742 -0.2949  0.4664
 2152SOL    HW117918   4.516   1.251  10.887  0.0281 -0.0223  0.8904
 2152SOL    HW217919   4.423   1.244  10.782  1.1820  1.5508  0.3685
 2153SOL     OW17920   1.539   2.162   9.346 -0.1893  0.3800  0.5843
 2153SOL    HW117921   1.472   2.200   9.290  1.0610 -1.7623 -2.3258
 2153SOL    HW217922   1.530   2.231   9.413  0.7256  1.6052 -0.5457
 2154SOL     OW17923   2.844   4.051   0.397  0.2064  0.7509  0.0142
 2154SOL    HW117924   2.750   4.033   0.395  0.4268 -0.4247  0.4822
 2154SOL    HW217925   2.872   4.004   0.475 -0.2624  1.1788  0.4406
 2155SOL     OW17926   4.657   4.586   3.340  0.1734  0.0191 -0.4186
 2155SOL    HW117927   4.648   4.506   3.393  1.1123 -0.0142 -0.2987
 2155SOL    HW217928   4.569   4.623   3.343 -0.2380 -0.9578 -0.5394
 2156SOL     OW17929   2.079   3.185   2.208 -0.4020 -0.1020 -0.5304
 2156SOL    HW117930   2.075   3.222   2.297  0.6938  1.0608 -0.9525
 2156SOL    HW217931   1.991   3.186   2.172 -1.0153  0.5370  0.9756
 2157SOL     OW17932   1.858   3.845   1.725  0.1529  0.0866 -0.1479
 2157SOL    HW117933   1.774   3.807   1.750  0.0613  1.6864  1.9315
 2157SOL    HW217934   1.919   3.793   1.779 -1.4092 -2.9765 -1.3263
 2158SOL     OW17935   4.435   3.479   3.768 -0.2062  0.2817 -0.2584
 2158SOL    HW117936   4.447   3.547   3.834 -1.0858  1.4249 -1.2786
 2158SOL    HW217937   4.463   3.523   3.688 -1.2209  0.1342 -0.7004
 2159SOL     OW17938   0.420   0.885  11.896 -0.4173  0.2262 -0.0831
 2159SOL    HW117939   0.407   0.792  11.876 -3.4132  0.4984  0.6457
 2159SOL    HW217940   0.453   0.921  11.814  3.2110 -0.6039  1.0247
 2160SOL     OW17941   1.639   2.834   8.180 -0.3657 -0.3681  0.5886
 2160SOL    HW117942   1.671   2.918   8.212  4.0399 -1.5805 -0.7035
 2160SOL    HW217943   1.627   2.786   8.262  1.2007 -0.2388  0.8896
 2161SOL     OW17944   0.534   1.590  12.871 -0.4369  0.5563  0.0279
 2161SOL    HW117945   0.502   1.672  12.908  0.2125  0.8872 -0.1367
 2161SOL    HW217946   0.500   1.605  12.783 -0.0043 -0.4454 -0.3092
 2162SOL     OW17947   3.930   3.766   8.578  0.1102 -0.2384 -0.2843
 2162SOL    HW117948   3.857   3.755   8.516  1.0750 -1.3851 -1.2143
 2162SOL    HW217949   3.906   3.852   8.613  0.6203 -0.3877  0.4211
 2163SOL     OW17950   2.934   0.951   1.436  0.0648 -0.3789 -0.0421
 2163SOL    HW117951   3.027   0.976   1.442 -0.8191  3.3376 -1.7289
 2163SOL    HW217952   2.938   0.871   1.384 -2.7923  0.1418 -1.0071
 2164SOL     OW17953   0.495   0.546  12.901  0.0739  0.2157  0.2624
 2164SOL    HW117954   0.448   0.466  12.878  0.7507  0.7514 -2.8754
 2164SOL    HW217955   0.585   0.515  12.908  1.2165  3.2907 -1.0338
 2165SOL     OW17956   0.346   1.164  13.666  0.1348  0.0185  0.1724
 2165SOL    HW117957   0.395   1.145  13.746 -1.1599 -0.0682  0.9480
 2165SOL    HW217958   0.366   1.254  13.640  0.3487  1.3077  4.6877
 2166SOL     OW17959   3.842   3.927  14.338 -0.2042  0.3987 -0.0262
 2166SOL    HW117960   3.865   3.964  14.253  0.1058  2.9303  1.1543
 2166SOL    HW217961   3.810   3.839  14.316  0.7642 -0.6324  2.6302
 2167SOL     OW17962   3.439   2.678   8.847  0.0231  0.5155 -0.6861
 2167SOL    HW117963   3.444   2.657   8.941  0.3585  1.7353 -0.4343
 2167SOL    HW217964   3.357   2.727   8.847  0.8181  1.8448 -1.5407
 2168SOL     OW17965   3.282   1.218   8.395  0.1318  0.0083  0.2313
 2168SOL    HW117966   3.256   1.236   8.304 -0.2346 -2.5756 -0.1945
 2168SOL    HW217967   3.374   1.194   8.385  0.6378  1.5036  1.3472
 2169SOL     OW17968   2.171   2.707   5.939  0.3056 -0.4168  0.4635
 2169SOL    HW117969   2.104   2.687   5.874  0.7983  1.3740 -0.6039
 2169SOL    HW217970   2.229   2.631   5.934  0.7194  0.0222 -1.6022
 2170SOL     OW17971   4.300   1.149  14.146 -0.1495 -0.0269  0.2401
 2170SOL    HW117972   4.329   1.234  14.179 -0.0969  0.1103 -0.1574
 2170SOL    HW217973   4.260   1.170  14.061  0.6225 -0.3409 -0.2079
 2171SOL     OW17974   0.503   3.481  12.463 -0.1793 -0.0340  0.3069
 2171SOL    HW117975   0.443   3.469  12.390  2.0585 -1.9162 -1.2277
 2171SOL    HW217976   0.473   3.554  12.517  1.8727 -0.7810  2.4519
 2172SOL     OW17977   1.484   3.415   5.213 -0.5562  0.1106  0.8366
 2172SOL    HW117978   1.473   3.416   5.118 -0.5601 -0.2800  0.8336
 2172SOL    HW217979   1.396   3.417   5.250 -1.2604 -0.4523 -0.7785
 2173SOL     OW17980   2.213   1.348   2.688  0.2917  0.1862 -0.1979
 2173SOL    HW117981   2.288   1.357   2.747  0.2077  1.4165 -0.2877
 2173SOL    HW217982   2.237   1.393   2.608  1.2801  3.6925  2.0866
 2174SOL     OW17983   3.146   1.275   4.775  0.1484 -0.0261  0.1510
 2174SOL    HW117984   3.238   1.266   4.800  0.2268  0.8405  0.1624
 2174SOL    HW217985   3.106   1.324   4.846  0.8787 -0.5007  0.8951
 2175SOL     OW17986   3.707   0.935   0.769 -0.4670  0.1115 -0.2416
 2175SOL    HW117987   3.763   0.940   0.692  0.1489  3.4696  0.4592
 2175SOL    HW217988   3.709   0.841   0.789 -0.1426  0.2120  0.1908
 2176SOL     OW17989   1.223   0.744   8.320 -0.0543  0.3044  0.0958
 2176SOL    HW117990   1.305   0.777   8.285  0.2246  0.6158  1.0591
 2176SOL    HW217991   1.169   0.741   8.241  0.4429  1.4143 -0.2894
 2177SOL     OW17992   2.479   2.231   3.682 -0.2951  0.0524  0.6407
 2177SOL    HW117993   2.476   2.312   3.732  1.2907  1.4143 -1.4435
 2177SOL    HW217994   2.398   2.234   3.630 -0.5221  0.9108  1.0469
 2178SOL     OW17995   1.487   4.442   1.326 -0.5840 -0.0809 -0.1014
 2178SOL    HW117996   1.424   4.421   1.395 -0.4851 -2.3404 -0.6888
 2178SOL    HW217997   1.559   4.468   1.383  0.7928 -0.7442 -1.5264
 2179SOL     OW17998   0.502   4.017   3.191 -0.0740  0.1968  0.6004
 2179SOL    HW117999   0.479   3.998   3.282  0.1348  0.2124  0.6570
 2179SOL    HW218000   0.416   4.023   3.150 -0.2225  1.7206  1.1314
 2180SOL     OW18001   2.688   2.923   6.409 -0.0714  0.2180  0.2414
 2180SOL    HW118002   2.607   2.964   6.379  0.0824  1.4031  1.4639
 2180SOL    HW218003   2.650   2.866   6.476 -0.4067  1.3266  0.9861
 2181SOL     OW18004   4.021   0.996   4.970  0.1442  0.2835 -0.0269
 2181SOL    HW118005   4.061   1.071   5.013 -1.5549  2.2988 -1.9197
 2181SOL    HW218006   3.998   1.033   4.884  0.0294  0.3570  0.0343
 2182SOL     OW18007   0.857   1.613  14.356 -0.1976  0.4026  0.2220
 2182SOL    HW118008   0.856   1.632  14.450 -0.3008  0.8336  0.1340
 2182SOL    HW218009   0.864   1.706  14.335 -1.1302 -0.0787 -2.2238
 2183SOL     OW18010   1.962   1.582   2.159  0.0736 -0.1248 -0.1938
 2183SOL    HW118011   1.923   1.536   2.232  0.8312  1.1025  0.9884
 2183SOL    HW218012   2.053   1.554   2.169 -0.2734 -2.0458 -2.5748
 2184SOL     OW18013   0.402   0.636   9.157  0.4187 -0.2288  0.7804
 2184SOL    HW118014   0.371   0.680   9.079 -0.6698  4.4803  3.8660
 2184SOL    HW218015   0.487   0.609   9.124 -0.0292 -2.0594  1.1193
 2185SOL     OW18016   1.484   2.128   2.268 -0.0285 -0.8095  0.0443
 2185SOL    HW118017   1.468   2.122   2.362 -1.0993 -0.9155 -0.1422
 2185SOL    HW218018   1.539   2.205   2.262  1.5036 -1.9511 -0.3844
 2186SOL     OW18019   2.958   3.965   4.838  0.1573 -0.0065 -0.0331
 2186SOL    HW118020   3.031   3.946   4.778  1.2333  0.8516  1.0061
 2186SOL    HW218021   3.004   3.952   4.921 -0.0209 -1.3324 -0.1470
 2187SOL     OW18022   0.659   0.733   9.475 -0.0648  0.1938  0.3034
 2187SOL    HW118023   0.695   0.741   9.564 -0.8790 -1.1003  0.7520
 2187SOL    HW218024   0.650   0.638   9.464  1.6002  0.0180  0.4771
 2188SOL     OW18025   4.454   3.159   7.450  0.4664 -0.0662 -0.4381
 2188SOL    HW118026   4.471   3.143   7.543  1.9308  1.7251 -0.4059
 2188SOL    HW218027   4.539   3.174   7.408  1.0423  3.2916  1.9366
 2189SOL     OW18028   1.837   2.288   4.122  0.0194  0.3506 -0.8566
 2189SOL    HW118029   1.827   2.278   4.027 -2.7029  0.7352 -0.6108
 2189SOL    HW218030   1.764   2.235   4.154 -0.4424  1.1263 -0.6357
 2190SOL     OW18031   2.152   2.126   6.429 -0.4489  0.1279 -0.2849
 2190SOL    HW118032   2.175   2.070   6.355  0.5634  1.7813 -1.2130
 2190SOL    HW218033   2.104   2.194   6.382 -1.2949 -1.4172 -1.6596
 2191SOL     OW18034   1.816   1.810   9.628 -0.7234 -0.4077  0.3510
 2191SOL    HW118035   1.743   1.843   9.576 -1.1163 -0.2443  1.0009
 2191SOL    HW218036   1.882   1.878   9.618  0.7184 -1.7652  0.6905
 2192SOL     OW18037   2.709   3.546  13.912  0.3110  0.6417  0.0852
 2192SOL    HW118038   2.728   3.623  13.859  0.4158 -0.7290 -1.8376
 2192SOL    HW218039   2.620   3.575  13.935  1.1773  1.8974  1.8947
 2193SOL     OW18040   2.102   1.781   6.007 -0.4231 -0.2888 -0.0709
 2193SOL    HW118041   2.081   1.745   5.921 -0.1541 -1.3325  0.2969
 2193SOL    HW218042   2.041   1.740   6.069 -2.1926  2.1358 -0.2443
 2194SOL     OW18043   1.569   1.156   7.927  0.1351  0.3810 -0.3723
 2194SOL    HW118044   1.646   1.207   7.950  0.3842 -0.6323  1.0457
 2194SOL    HW218045   1.490   1.201   7.958 -0.0717  0.1524 -0.5634
 2195SOL     OW18046   3.752   3.033   8.899 -0.1140 -0.2043  0.6879
 2195SOL    HW118047   3.773   3.032   8.993  2.2487  0.0419  0.1680
 2195SOL    HW218048   3.799   2.956   8.869  0.2070 -0.2477  1.3088
 2196SOL     OW18049   1.039   2.803   2.793  0.2608  0.5738  0.4257
 2196SOL    HW118050   0.975   2.747   2.750  1.9138 -1.9262  1.2173
 2196SOL    HW218051   1.114   2.744   2.801 -0.9662 -0.9163  0.9533
 2197SOL     OW18052   0.592   1.845   4.248  0.0370 -0.6239  0.2738
 2197SOL    HW118053   0.548   1.928   4.265  0.3528 -0.3396 -0.3426
 2197SOL    HW218054   0.536   1.792   4.306 -0.4641 -1.0821 -0.6349
 2198SOL     OW18055   3.171   1.393   7.266  0.0388  0.1619 -0.1081
 2198SOL    HW118056   3.216   1.467   7.226 -0.5919 -0.6890 -2.3542
 2198SOL    HW218057   3.156   1.430   7.354  1.3051  0.0011  0.1701
 2199SOL     OW18058   3.175   2.899   8.278  0.1435  0.1294 -0.2457
 2199SOL    HW118059   3.258   2.931   8.241 -1.2909  1.2550 -2.4760
 2199SOL    HW218060   3.127   2.875   8.199  0.0051 -1.8182  0.4431
 2200SOL     OW18061   4.632   1.892   2.810  0.3032  0.2965  0.3254
 2200SOL    HW118062   4.597   1.979   2.829  0.3532  0.3563  0.1406
 2200SOL    HW218063   4.668   1.901   2.722 -0.9244  2.4403  0.0408
 2201SOL     OW18064   4.587   2.816   5.238  0.2272  0.2280 -0.0780
 2201SOL    HW118065   4.547   2.731   5.222  1.1725  0.2403 -2.5067
 2201SOL    HW218066   4.533   2.857   5.171 -0.4894  0.2386  0.5114
 2202SOL     OW18067   1.748   1.577   6.574  0.3899  0.5410 -0.0223
 2202SOL    HW118068   1.685   1.557   6.505  0.1032  1.7157 -0.0974
 2202SOL    HW218069   1.704   1.540   6.651 -0.2430 -0.0317 -0.6606
 2203SOL     OW18070   0.057   3.230   6.409 -0.4602 -0.0022 -0.0191
 2203SOL    HW118071   0.133   3.174   6.394 -0.2969 -0.2614  1.7964
 2203SOL    HW218072   0.092   3.302   6.357 -3.5229  1.2583 -0.3340
 2204SOL     OW18073   1.530   2.134  17.536 -0.0695  0.3760 -0.3278
 2204SOL    HW118074   1.611   2.159  17.493 -0.7855  1.0274 -1.2957
 2204SOL    HW218075   1.466   2.135  17.465 -1.3153 -0.6522  0.7912
 2205SOL     OW18076   3.259   3.268   7.085  0.6394 -0.0414 -0.1288
 2205SOL    HW118077   3.224   3.188   7.046  0.4359 -0.0815  0.1446
 2205SOL    HW218078   3.322   3.298   7.019  1.2159 -0.5696  0.1853
 2206SOL     OW18079   0.653   0.399   6.207  0.2139  0.0832 -0.0250
 2206SOL    HW118080   0.616   0.488   6.201  0.3918  0.2639  1.5041
 2206SOL    HW218081   0.719   0.400   6.138  0.3678  1.2687  0.1353
 2207SOL     OW18082   2.519   3.780   0.747 -0.5697 -0.4489 -0.3075
 2207SOL    HW118083   2.427   3.786   0.722 -0.7020 -0.8537  0.0846
 2207SOL    HW218084   2.529   3.873   0.767 -0.5652 -0.3017 -0.9879
 2208SOL     OW18085   0.436   4.439   5.342 -0.1902 -0.2966 -0.4144
 2208SOL    HW118086   0.374   4.444   5.269 -1.2844 -0.6925  0.4816
 2208SOL    HW218087   0.372   4.410   5.407 -0.9344  1.7343 -0.2459
 2209SOL     OW18088   1.995   3.541  15.125  0.2584  0.0758 -0.3363
 2209SOL    HW118089   2.033   3.576  15.045 -0.2536  0.8660 -0.2358
 2209SOL    HW218090   1.963   3.456  15.093 -3.2187  0.5075  1.9599
 2210SOL     OW18091   0.616   0.623   9.876 -0.1592  0.0037 -0.2681
 2210SOL    HW118092   0.687   0.564   9.849 -0.9965 -0.9449 -0.4024
 2210SOL    HW218093   0.642   0.694   9.818 -0.3891 -0.3531 -0.8056
 2211SOL     OW18094   1.490   2.803   2.796  0.5294  0.5717 -0.4449
 2211SOL    HW118095   1.420   2.867   2.790  1.3086  1.3793 -1.0053
 2211SOL    HW218096   1.437   2.725   2.783  1.5683 -0.6319  2.4180
 2212SOL     OW18097   1.621   4.367   7.603  0.3392  0.1256  0.0463
 2212SOL    HW118098   1.591   4.278   7.589  0.4410  0.3739 -1.7337
 2212SOL    HW218099   1.541   4.419   7.614  1.4959  1.8574  0.3441
 2213SOL     OW18100   3.016   0.637   3.820  0.2509 -0.7225  0.2179
 2213SOL    HW118101   3.055   0.719   3.792 -1.8695  0.6263  1.1913
 2213SOL    HW218102   2.948   0.631   3.753 -0.8356  0.8732  1.1760
 2214SOL     OW18103   4.290   3.724  16.148 -0.9294  0.3400 -0.2615
 2214SOL    HW118104   4.234   3.657  16.108 -0.7771 -0.0474  0.1765
 2214SOL    HW218105   4.241   3.763  16.221  0.2998 -0.6026  1.0759
 2215SOL     OW18106   0.291   2.771   3.089 -0.2199  0.0222  0.3227
 2215SOL    HW118107   0.240   2.693   3.113  1.5234 -1.2113  0.0097
 2215SOL    HW218108   0.378   2.736   3.069  0.0039  0.9938 -0.3885
 2216SOL     OW18109   2.113   3.083  10.355  0.7276 -0.0475  0.2864
 2216SOL    HW118110   2.195   3.122  10.327  0.7600  1.2165  2.1614
 2216SOL    HW218111   2.137   3.003  10.401  0.6807  0.8653  1.9008
 2217SOL     OW18112   3.934   4.597   2.879  0.4508 -0.3475  0.2976
 2217SOL    HW118113   3.856   4.573   2.929  0.4878 -1.7915 -0.3509
 2217SOL    HW218114   3.937   4.537   2.805 -0.2678 -1.0229  0.8204
 2218SOL     OW18115   2.620   0.940   3.303  0.5696  0.2259 -0.1475
 2218SOL    HW118116   2.636   0.914   3.394  1.6280 -1.1821 -0.7313
 2218SOL    HW218117   2.675   0.882   3.250 -0.7175 -0.3137 -0.8872
 2219SOL     OW18118   4.492   2.435  11.861 -0.3503 -0.2602 -0.2172
 2219SOL    HW118119   4.584   2.409  11.849 -0.9706 -2.9521  0.9579
 2219SOL    HW218120   4.467   2.431  11.769 -1.1915  1.0031 -0.0469
 2220SOL     OW18121   3.428   0.224   3.322  0.3188  0.4645  0.3100
 2220SOL    HW118122   3.504   0.213   3.379 -0.3704 -1.9243  0.7773
 2220SOL    HW218123   3.371   0.150   3.344 -1.0095  1.1745 -0.6631
 2221SOL     OW18124   0.397   4.061   1.869  0.0910  0.0886 -0.1778
 2221SOL    HW118125   0.448   4.067   1.788  1.4297  0.9215  0.7276
 2221SOL    HW218126   0.374   4.153   1.880 -1.2082 -0.1449 -0.9843
 2222SOL     OW18127   2.574   1.423   2.209 -0.2459 -0.6285  0.0898
 2222SOL    HW118128   2.644   1.421   2.144  0.0776  1.6402  0.3824
 2222SOL    HW218129   2.557   1.517   2.203  2.0373 -0.1868  0.3816
 2223SOL     OW18130   3.876   1.307   4.281 -0.1371 -0.4906 -0.0929
 2223SOL    HW118131   3.965   1.338   4.297 -1.1944  2.3762  0.2807
 2223SOL    HW218132   3.842   1.391   4.249  2.1883  0.5181  0.0690
 2224SOL     OW18133   2.101   3.730   8.583  0.0372 -0.2623  0.6542
 2224SOL    HW118134   2.132   3.774   8.662 -0.7370  0.6159  0.4717
 2224SOL    HW218135   2.050   3.799   8.540  2.7144 -0.1919 -2.4450
 2225SOL     OW18136   3.654   1.055  13.440 -0.3443  0.5354  0.1164
 2225SOL    HW118137   3.630   0.990  13.506 -0.0934  1.5953  1.2572
 2225SOL    HW218138   3.646   1.009  13.357 -0.1692 -1.5131  1.2451
 2226SOL     OW18139   4.496   4.649   5.245 -0.1269 -0.3156 -0.3467
 2226SOL    HW118140   4.483   4.591   5.170  1.6431 -1.1536  0.0034
 2226SOL    HW218141   4.512   0.008   5.203  1.4899 -0.6175 -0.3479
 2227SOL     OW18142   2.902   0.318   4.516  0.0773 -0.3724  0.3772
 2227SOL    HW118143   2.949   0.277   4.588 -1.7694 -1.0496  1.1760
 2227SOL    HW218144   2.921   0.267   4.437 -1.6211  1.2728 -1.1226
 2228SOL     OW18145   1.026   1.184   1.614 -0.3674 -0.6086 -0.1620
 2228SOL    HW118146   1.024   1.105   1.668  0.8154 -0.0006  0.7722
 2228SOL    HW218147   0.935   1.200   1.593 -0.4173  1.4750  1.6956
 2229SOL     OW18148   0.066   2.133  10.996 -0.2749  0.0023  0.3735
 2229SOL    HW118149   0.141   2.074  10.996 -1.2596 -1.2655  2.1781
 2229SOL    HW218150   0.098   2.211  10.952 -2.3813  0.9451  0.5062
 2230SOL     OW18151   4.162   1.679  16.179 -0.1428  0.0102  0.4451
 2230SOL    HW118152   4.140   1.682  16.272  0.4699 -1.0185  0.6326
 2230SOL    HW218153   4.078   1.713  16.150 -0.7662 -0.8000  1.2918
 2231SOL     OW18154   3.518   3.568  10.351  0.5451 -0.1815  0.0613
 2231SOL    HW118155   3.504   3.624  10.275  1.9480 -0.3276 -0.3078
 2231SOL    HW218156   3.481   3.621  10.421  0.1193 -0.1158 -0.2121
 2232SOL     OW18157   1.234   0.851   9.398  0.2102 -0.3973 -0.0076
 2232SOL    HW118158   1.229   0.893   9.484  0.1827 -0.4765  0.0304
 2232SOL    HW218159   1.324   0.870   9.374 -0.2155 -0.3026 -1.4870
 2233SOL     OW18160   0.703   2.771  10.176  0.2637 -0.1162  0.4197
 2233SOL    HW118161   0.786   2.733  10.146 -1.7382 -2.6234 -1.8684
 2233SOL    HW218162   0.635   2.711  10.146 -0.7012  0.4730  1.4577
 2234SOL     OW18163   1.641   3.737   1.771 -0.1525 -0.3016 -0.8290
 2234SOL    HW118164   1.575   3.721   1.703 -0.7990 -0.7890 -0.0763
 2234SOL    HW218165   1.658   3.644   1.786 -3.1824 -1.0066 -1.8228
 2235SOL     OW18166   3.103   4.379   4.120 -0.7868  0.1025 -0.3434
 2235SOL    HW118167   3.067   4.374   4.209 -0.4649  0.1058 -0.2148
 2235SOL    HW218168   3.017   4.376   4.079 -0.9538  1.0089 -0.0579
 2236SOL     OW18169   1.065   0.696   6.936 -0.3911 -0.4967  0.6195
 2236SOL    HW118170   1.148   0.690   6.889 -0.0702 -0.5538  1.1911
 2236SOL    HW218171   1.089   0.672   7.025 -0.8232  0.9940  1.1330
 2237SOL     OW18172   4.407   3.752   4.531  0.2516 -0.0761 -0.6060
 2237SOL    HW118173   4.498   3.783   4.538  0.5239 -0.7877 -0.9763
 2237SOL    HW218174   4.402   3.711   4.445 -0.0088  0.5764 -0.8976
 2238SOL     OW18175   2.504   3.634   8.130  0.3321  0.5466  0.2933
 2238SOL    HW118176   2.583   3.679   8.163  1.5556 -1.7536  0.5267
 2238SOL    HW218177   2.534   3.581   8.057  2.4190 -0.7383  2.0544
 2239SOL     OW18178   1.567   0.639   9.438  0.5441 -0.2692 -0.7086
 2239SOL    HW118179   1.491   0.628   9.382  0.3085 -1.2448 -0.2025
 2239SOL    HW218180   1.608   0.712   9.390 -0.1263  0.0359 -0.8127
 2240SOL     OW18181   0.823   2.533   0.955  0.3400  0.2667  0.1458
 2240SOL    HW118182   0.730   2.553   0.961  0.0451 -0.9185 -0.6458
 2240SOL    HW218183   0.839   2.610   0.899 -0.0054 -0.2839 -0.7092
 2241SOL     OW18184   4.128   3.150   1.407  0.1617  0.2990  0.0414
 2241SOL    HW118185   4.217   3.121   1.427 -0.5530 -1.1261  1.2007
 2241SOL    HW218186   4.134   3.243   1.385 -0.3787  0.2596 -0.2700
 2242SOL     OW18187   2.892   4.369   2.887  0.1213  0.1144  0.7068
 2242SOL    HW118188   2.904   4.310   2.961  0.1590 -1.8295 -0.8516
 2242SOL    HW218189   2.917   4.312   2.814  3.9558  0.6440  1.5782
 2243SOL     OW18190   3.860   4.544   9.467  0.0389 -0.2021  0.0673
 2243SOL    HW118191   3.789   4.596   9.505  0.4317 -1.1610  2.1214
 2243SOL    HW218192   3.935   4.579   9.516  0.5707 -0.0747 -0.8273
 2244SOL     OW18193   3.041   0.176   3.915  0.2933 -0.1869 -0.3417
 2244SOL    HW118194   3.101   0.105   3.893 -0.0145 -0.2745 -0.8692
 2244SOL    HW218195   3.004   0.141   3.996  1.6020 -1.2720 -0.2197
 2245SOL     OW18196   4.190   3.557   7.159 -0.7508  0.3853  0.1525
 2245SOL    HW118197   4.104   3.536   7.122  0.7124 -2.6485 -1.5265
 2245SOL    HW218198   4.242   3.482   7.128 -0.0300  1.1430 -0.4800
 2246SOL     OW18199   1.538   4.592  13.033 -0.6379  0.0480  0.2137
 2246SOL    HW118200   1.460   4.536  13.039 -1.2323  0.8332 -0.0842
 2246SOL    HW218201   1.601   4.527  13.003 -1.5432 -1.0200  0.6322
 2247SOL     OW18202   1.461   1.115   9.643 -0.1296  0.2966 -0.1018
 2247SOL    HW118203   1.521   1.100   9.570 -0.6398  1.2121 -0.7044
 2247SOL    HW218204   1.513   1.156   9.712  0.4819  0.8193 -0.8683
 2248SOL     OW18205   1.198   0.994   7.530  0.5068  0.0095  0.0310
 2248SOL    HW118206   1.245   0.919   7.568 -1.5010 -1.1318  0.2692
 2248SOL    HW218207   1.262   1.064   7.528 -0.1765  0.5521 -2.3054
 2249SOL     OW18208   1.028   2.453   8.708 -0.1037  0.0143  0.3162
 2249SOL    HW118209   1.061   2.480   8.622 -2.6636 -0.5423 -0.8425
 2249SOL    HW218210   1.087   2.382   8.732  1.9694  1.5546 -0.1431
 2250SOL     OW18211   0.960   3.880   2.132  0.0069 -0.0346  0.0469
 2250SOL    HW118212   0.887   3.939   2.113 -0.8397 -1.1929 -0.3408
 2250SOL    HW218213   1.018   3.933   2.186  0.1967 -2.1928  1.9699
 2251SOL     OW18214   0.780   2.388  16.532  0.5910  0.3773  0.1637
 2251SOL    HW118215   0.837   2.406  16.458 -0.0093 -0.4439 -0.5007
 2251SOL    HW218216   0.811   2.302  16.561  0.9271 -0.1652 -1.7802
 2252SOL     OW18217   2.500   2.434   6.281 -0.0844  0.3638 -0.2211
 2252SOL    HW118218   2.531   2.360   6.229 -0.5784 -0.2638  0.3782
 2252SOL    HW218219   2.486   2.412   6.373  0.4755  0.5403 -0.0928
 2253SOL     OW18220   2.003   0.709  14.123  0.2293 -0.0198 -0.2066
 2253SOL    HW118221   1.970   0.735  14.037  2.9882  0.8737 -0.9889
 2253SOL    HW218222   1.918   0.681  14.158  0.8111  0.0921  1.2594
 2254SOL     OW18223   1.505   3.119   3.285 -0.2140 -0.6542  0.5928
 2254SOL    HW118224   1.489   3.155   3.372 -1.5308 -2.4305  1.0905
 2254SOL    HW218225   1.583   3.068   3.306  2.8481  2.7440 -2.5074
 2255SOL     OW18226   1.151   1.537   7.470  0.3386 -0.2012  0.0616
 2255SOL    HW118227   1.158   1.496   7.383  1.9541  2.7595 -1.2229
 2255SOL    HW218228   1.241   1.524   7.501 -0.0866 -0.7535  1.0496
 2256SOL     OW18229   2.607   3.638   6.349  0.7880 -0.5634  0.1423
 2256SOL    HW118230   2.659   3.717   6.362  1.1163 -0.4043 -2.2142
 2256SOL    HW218231   2.559   3.654   6.268  0.3827 -1.5191  0.1881
 2257SOL     OW18232   0.248   2.187   3.246  0.4077  0.1188  0.1121
 2257SOL    HW118233   0.290   2.112   3.205 -0.6029 -0.1124 -0.4825
 2257SOL    HW218234   0.180   2.145   3.298 -0.3180  0.3566 -0.6473
 2258SOL     OW18235   3.868   2.234   4.456 -0.1173 -0.5384 -0.0092
 2258SOL    HW118236   3.805   2.304   4.476  0.8023  0.1153  0.6136
 2258SOL    HW218237   3.944   2.282   4.423  1.2039 -3.3721 -1.0669
 2259SOL     OW18238   2.402   1.805   2.356  0.3853 -0.7453  0.3066
 2259SOL    HW118239   2.327   1.857   2.384  0.4772 -0.6631  0.4016
 2259SOL    HW218240   2.475   1.864   2.337 -1.1992  1.2128  0.2424
 2260SOL     OW18241   2.332   0.710   2.893 -0.0461 -0.5513  0.3475
 2260SOL    HW118242   2.403   0.756   2.848 -2.9389  2.2821 -1.2458
 2260SOL    HW218243   2.384   0.689   2.971 -0.5458 -1.7401  0.3627
 2261SOL     OW18244   1.962   3.449   6.442  0.0822  0.4281 -0.4951
 2261SOL    HW118245   1.908   3.464   6.519  1.1361  1.2239  0.0987
 2261SOL    HW218246   1.949   3.529   6.390  0.3787  0.0504 -1.1569
 2262SOL     OW18247   0.652   0.937   2.142  0.3634 -0.7559 -0.3182
 2262SOL    HW118248   0.745   0.958   2.134 -0.3510  1.9760 -1.4023
 2262SOL    HW218249   0.659   0.843   2.156  1.5004 -0.3135  2.1504
 2263SOL     OW18250   0.044   0.206   2.791  0.7000 -0.2031 -0.4550
 2263SOL    HW118251   0.006   0.132   2.744 -1.1790 -1.0945  2.4590
 2263SOL    HW218252   0.092   0.165   2.863 -0.0672  0.2785  0.3465
 2264SOL     OW18253   3.895   2.598   7.782  0.2325  0.1204  0.1363
 2264SOL    HW118254   3.977   2.620   7.738  0.3956  0.3163  0.5433
 2264SOL    HW218255   3.924   2.593   7.873 -1.1341  2.1518  0.6861
 2265SOL     OW18256   1.642   3.630   3.499  0.5513 -0.0601  0.4445
 2265SOL    HW118257   1.568   3.619   3.559 -1.1708  0.1648 -1.6508
 2265SOL    HW218258   1.703   3.681   3.552  1.1923 -0.6838  0.3045
 2266SOL     OW18259   4.377   2.663  11.435  0.1884 -0.3607 -0.1789
 2266SOL    HW118260   4.467   2.692  11.417 -0.7058  1.7342 -1.2547
 2266SOL    HW218261   4.339   2.744  11.401  2.9457 -0.1705 -2.8242
 2267SOL     OW18262   0.878   0.491   9.780 -0.2549 -1.0488  0.0138
 2267SOL    HW118263   0.920   0.577   9.777 -1.2529 -0.5702 -0.3633
 2267SOL    HW218264   0.915   0.448   9.857  0.1272  0.1904  0.5221
 2268SOL     OW18265   2.180   4.032  11.314 -0.7439 -0.8173  0.2767
 2268SOL    HW118266   2.192   4.125  11.295 -2.3439 -0.2525  2.0558
 2268SOL    HW218267   2.275   4.020  11.318 -0.1109  3.2761 -1.7373
 2269SOL     OW18268   0.794   1.552  15.716  0.2511 -0.3924  0.4906
 2269SOL    HW118269   0.757   1.629  15.759 -0.3473 -0.6202  0.3714
 2269SOL    HW218270   0.862   1.597  15.666  1.6124 -3.9419 -0.9006
 2270SOL     OW18271   3.199   1.454   2.771  0.6362 -0.6421 -0.2982
 2270SOL    HW118272   3.262   1.449   2.843 -0.5314 -2.8491  0.5599
 2270SOL    HW218273   3.221   1.543   2.741 -0.0233 -0.3193  0.1741
 2271SOL     OW18274   1.599   2.086   2.935 -0.1083  0.3230 -0.2014
 2271SOL    HW118275   1.518   2.054   2.974 -0.3545  2.6018  1.1063
 2271SOL    HW218276   1.575   2.067   2.844  0.9731  3.0889 -1.0468
 2272SOL     OW18277   0.462   2.424  13.298 -0.4205  0.3084  0.0131
 2272SOL    HW118278   0.545   2.423  13.251  0.2471 -0.4193  1.2152
 2272SOL    HW218279   0.406   2.378  13.235 -1.9992  1.7234  0.3980
 2273SOL     OW18280   4.424   3.873   8.289 -0.3216  0.3135 -0.6479
 2273SOL    HW118281   4.476   3.952   8.304  1.4251 -0.5882 -1.9413
 2273SOL    HW218282   4.350   3.901   8.342 -0.3923 -0.7692 -0.1751
 2274SOL     OW18283   1.497   2.504   2.602 -0.2119  0.2236 -0.2141
 2274SOL    HW118284   1.578   2.553   2.593  1.4313 -2.6712 -1.3531
 2274SOL    HW218285   1.504   2.445   2.527  0.4725  0.3476 -0.2432
 2275SOL     OW18286   0.884   2.406   9.104 -0.6261 -0.3651  0.5056
 2275SOL    HW118287   0.908   2.480   9.048 -0.5408 -1.1518 -0.4875
 2275SOL    HW218288   0.920   2.439   9.187 -1.0013  1.3411 -0.0016
 2276SOL     OW18289   3.610   3.447  13.429  0.1720 -0.1990  0.1708
 2276SOL    HW118290   3.701   3.476  13.439  0.1984 -0.7180  1.4638
 2276SOL    HW218291   3.617   3.375  13.492  0.1531 -0.4575 -0.1242
 2277SOL     OW18292   4.005   1.739   5.379 -0.0800  0.5391  0.7734
 2277SOL    HW118293   4.067   1.694   5.322 -0.9573  0.6189 -0.2499
 2277SOL    HW218294   4.056   1.743   5.460  0.4739 -2.2621  0.5344
 2278SOL     OW18295   0.761   3.425   4.921  0.0549  0.2179 -0.5733
 2278SOL    HW118296   0.769   3.433   4.825  0.1041 -0.7535 -0.6425
 2278SOL    HW218297   0.825   3.358   4.944 -1.0662 -0.5904  0.1586
 2279SOL     OW18298   0.274   1.693  10.649  0.0134 -0.5523 -0.1185
 2279SOL    HW118299   0.346   1.750  10.624 -0.2361 -0.4912 -0.6925
 2279SOL    HW218300   0.231   1.671  10.566  1.9332 -0.7224 -1.0634
 2280SOL     OW18301   0.873   4.122   4.677  0.2081  0.0556  0.2434
 2280SOL    HW118302   0.781   4.123   4.654 -0.2593  0.0242  2.0837
 2280SOL    HW218303   0.877   4.031   4.707 -1.4043 -0.3819 -0.8813
 2281SOL     OW18304   2.229   1.143  10.053  0.1069 -0.5567  0.4382
 2281SOL    HW118305   2.252   1.050  10.050  0.6620 -0.3646 -0.7917
 2281SOL    HW218306   2.262   1.168  10.140 -1.0669 -0.1009  0.7594
 2282SOL     OW18307   3.641   3.558   3.973 -0.2092 -0.2144  0.3431
 2282SOL    HW118308   3.595   3.595   3.898 -0.0078  2.7431  1.6759
 2282SOL    HW218309   3.729   3.538   3.941  0.3730  1.9169  0.5923
 2283SOL     OW18310   0.596   3.880  16.107  0.2670 -0.2805 -0.1229
 2283SOL    HW118311   0.550   3.911  16.029 -1.6498  0.1755  1.1685
 2283SOL    HW218312   0.530   3.865  16.175 -0.8791  1.4432 -0.8537
 2284SOL     OW18313   0.993   2.284   6.042 -0.6279 -0.5875 -0.1406
 2284SOL    HW118314   1.059   2.354   6.036  0.0938 -1.0701  2.6303
 2284SOL    HW218315   0.912   2.334   6.052  1.1517  2.1019  0.6975
 2285SOL     OW18316   3.329   3.541   1.157  0.4713 -0.4874  0.0277
 2285SOL    HW118317   3.262   3.576   1.215  0.4531  2.6913 -1.9332
 2285SOL    HW218318   3.304   3.595   1.082  2.1639 -0.1522 -0.2844
 2286SOL     OW18319   3.217   1.116   4.175  0.2816 -0.3923  0.3959
 2286SOL    HW118320   3.291   1.055   4.172  1.9013  1.5867  0.3849
 2286SOL    HW218321   3.190   1.116   4.083 -1.2775  1.0117  0.8555
 2287SOL     OW18322   0.512   2.559   6.781 -0.0027 -0.1956 -0.0999
 2287SOL    HW118323   0.482   2.631   6.837  0.0049 -1.1738  1.1473
 2287SOL    HW218324   0.451   2.495   6.817  0.2880  0.1645  1.0471
 2288SOL     OW18325   0.885   0.911   3.759 -0.0179 -0.9623  0.4016
 2288SOL    HW118326   0.967   0.879   3.722  0.4093 -0.6631  1.1099
 2288SOL    HW218327   0.913   0.989   3.807  0.4753 -0.6494 -0.3996
 2289SOL     OW18328   3.247   4.033   2.918  0.0083 -0.0106 -0.4123
 2289SOL    HW118329   3.171   3.978   2.902  1.0275 -1.4254 -0.3594
 2289SOL    HW218330   3.234   4.070   3.005 -1.5464 -0.3726 -0.4975
 2290SOL     OW18331   3.416   2.561  11.837  0.8256  0.9690  0.1678
 2290SOL    HW118332   3.329   2.556  11.798  0.7420  2.5437  0.1596
 2290SOL    HW218333   3.458   2.578  11.752 -2.2820  0.0360 -1.5549
 2291SOL     OW18334   4.644   2.918   8.193  0.6758 -0.1895  0.5150
 2291SOL    HW118335   4.668   2.998   8.239 -0.5354  0.6350 -0.2881
 2291SOL    HW218336   4.579   2.882   8.254  0.3100  1.7721  1.2819
 2292SOL     OW18337   2.294   1.066  14.423  0.3979  0.1106 -0.3343
 2292SOL    HW118338   2.260   1.148  14.459  1.1180 -0.2136  1.0690
 2292SOL    HW218339   2.229   1.051  14.355  1.2297  1.1130 -1.3508
 2293SOL     OW18340   4.203   2.746   2.217 -0.0152  0.7078 -0.6873
 2293SOL    HW118341   4.149   2.722   2.141 -1.1621  1.1400 -0.0169
 2293SOL    HW218342   4.148   2.816   2.253  0.0558  1.4928 -2.0965
 2294SOL     OW18343   2.567   4.316   3.949  0.0508 -0.1513 -0.2113
 2294SOL    HW118344   2.557   4.294   3.856 -1.3691 -0.0774 -0.0735
 2294SOL    HW218345   2.487   4.289   3.995 -0.2567 -0.7241 -1.0880
 2295SOL     OW18346   3.233   0.712   7.468  0.2246  0.1332  0.5420
 2295SOL    HW118347   3.316   0.678   7.434 -1.2896 -1.3052 -1.6576
 2295SOL    HW218348   3.239   0.695   7.562 -1.8909 -1.0659  0.4465
 2296SOL     OW18349   3.851   1.158  15.394 -0.3009 -0.2282 -0.1225
 2296SOL    HW118350   3.886   1.126  15.312 -0.8755  0.9090 -0.8233
 2296SOL    HW218351   3.907   1.235  15.395 -1.5330  0.6835 -1.5575
 2297SOL     OW18352   2.558   2.208   6.155 -0.4180 -0.5484  0.3150
 2297SOL    HW118353   2.533   2.122   6.189 -0.5768 -1.8877 -3.2208
 2297SOL    HW218354   2.510   2.214   6.073 -2.2203 -0.4855  1.3848
 2298SOL     OW18355   2.493   1.651   8.776  0.0729  0.6435  0.2182
 2298SOL    HW118356   2.475   1.572   8.724  2.4800  0.7121 -0.7281
 2298SOL    HW218357   2.560   1.696   8.725  1.0234 -1.1491 -0.1347
 2299SOL     OW18358   4.400   1.671   5.461  0.1855  0.1004 -0.4083
 2299SOL    HW118359   4.320   1.724   5.465  0.8883  1.1883 -0.8363
 2299SOL    HW218360   4.424   1.679   5.369  0.5001 -1.4280 -0.4727
 2300SOL     OW18361   4.230   2.148   5.914 -0.2603 -0.1253 -0.4029
 2300SOL    HW118362   4.289   2.183   5.847 -0.5037  2.0413  0.5242
 2300SOL    HW218363   4.170   2.102   5.856  0.1511  0.3575 -1.2033
 2301SOL     OW18364   4.237   2.463   6.165 -0.0034 -0.3319 -0.4286
 2301SOL    HW118365   4.153   2.419   6.152  0.8899 -1.9122 -0.9462
 2301SOL    HW218366   4.243   2.455   6.260  0.8791  0.3897 -0.4295
 2302SOL     OW18367   3.008   1.053  14.436  0.8191 -0.1148  0.3307
 2302SOL    HW118368   2.943   0.983  14.439  0.8781 -0.1938 -0.3081
 2302SOL    HW218369   2.992   1.102  14.517  0.1192  1.4459 -0.7768
 2303SOL     OW18370   1.013   2.251   7.239 -0.7156 -0.0807 -0.4415
 2303SOL    HW118371   1.030   2.275   7.148  2.2664  1.0677  0.3907
 2303SOL    HW218372   0.995   2.157   7.236  0.9878 -0.4695  1.3430
 2304SOL     OW18373   0.092   3.666   3.952 -0.1387 -0.1418 -0.0842
 2304SOL    HW118374   0.158   3.711   3.900 -0.2583 -1.4886 -1.3900
 2304SOL    HW218375   0.111   3.574   3.935 -0.0022 -0.8263  3.7337
 2305SOL     OW18376   0.101   2.708   4.885 -0.2055 -0.0019 -0.0138
 2305SOL    HW118377   0.045   2.747   4.818 -0.0703  1.9983  1.0606
 2305SOL    HW218378   0.043   2.637   4.914 -2.5430  1.6731 -0.6346
 2306SOL     OW18379   0.511   2.366   1.903 -0.0729 -0.0661 -0.6418
 2306SOL    HW118380   0.499   2.346   1.810 -0.0306 -0.9908 -0.4509
 2306SOL    HW218381   0.561   2.447   1.900 -3.2468  1.9094 -0.7852
 2307SOL     OW18382   1.464   2.800   4.001  0.7526  0.0570 -0.3699
 2307SOL    HW118383   1.444   2.790   4.094  1.6108  1.1766 -0.0657
 2307SOL    HW218384   1.549   2.756   3.991 -0.1583 -1.8979  0.5154
 2308SOL     OW18385   4.387   4.091   2.093  0.3194 -0.0577 -0.5467
 2308SOL    HW118386   4.341   4.110   2.011  1.8202  1.5615 -1.0210
 2308SOL    HW218387   4.449   4.164   2.096  0.7309 -0.4729  0.9367
 2309SOL     OW18388   0.073   0.413   2.982 -0.4444  0.5257 -0.1880
 2309SOL    HW118389   0.084   0.353   2.907 -3.7834  0.2262 -0.4429
 2309SOL    HW218390   0.145   0.473   2.967 -0.5276  0.2794 -1.5965
 2310SOL     OW18391   2.942   4.220   3.390  0.2790  0.4329 -0.5198
 2310SOL    HW118392   2.887   4.169   3.331  0.3088  0.3398 -0.4679
 2310SOL    HW218393   2.948   4.306   3.349  1.6394  0.4737 -0.2310
 2311SOL     OW18394   3.887   0.111   3.600  0.2830 -0.5234  0.0800
 2311SOL    HW118395   3.932   0.031   3.574  1.5603  0.1906  0.0465
 2311SOL    HW218396   3.862   0.097   3.691  0.9445 -1.0893  0.1737
 2312SOL     OW18397   4.149   3.501   4.284 -0.0740 -0.1595  0.0503
 2312SOL    HW118398   4.170   3.437   4.216 -2.1101  0.6439 -1.3156
 2312SOL    HW218399   4.087   3.450   4.336 -0.9568  0.1586 -0.6894
 2313SOL     OW18400   4.365   0.294   4.114  0.1348 -0.2441 -0.4344
 2313SOL    HW118401   4.441   0.242   4.139  2.0651  3.0610  0.5394
 2313SOL    HW218402   4.298   0.226   4.105 -0.2719  0.0643  0.2466
 2314SOL     OW18403   2.337   0.012   1.852  0.3918  0.1746 -0.2315
 2314SOL    HW118404   2.259   0.000   1.906  1.0857  1.9237  1.1504
 2314SOL    HW218405   2.319   0.098   1.813  2.4175 -0.2477 -2.1043
 2315SOL     OW18406   0.470   3.700   0.025  0.0780  0.5951 -0.3419
 2315SOL    HW118407   0.534   3.755   0.068 -1.4756  1.5943  0.6826
 2315SOL    HW218408   0.389   3.745   0.050  1.2428  1.2473  2.1767
 2316SOL     OW18409   0.361   2.450   3.949  0.4348 -0.5594 -0.0435
 2316SOL    HW118410   0.380   2.540   3.975 -0.8181  0.0949 -1.4010
 2316SOL    HW218411   0.279   2.442   3.997 -0.9633 -0.4077 -2.4078
 2317SOL     OW18412   3.303   2.458   7.203 -0.1528  0.1919 -0.3100
 2317SOL    HW118413   3.248   2.473   7.280  1.1227 -1.5037  0.9353
 2317SOL    HW218414   3.279   2.375   7.164 -1.0786 -0.9692  2.7000
 2318SOL     OW18415   2.586   0.274   6.210 -0.0270 -0.2197  0.3124
 2318SOL    HW118416   2.570   0.307   6.122  0.9211 -0.2599  0.1241
 2318SOL    HW218417   2.636   0.196   6.188 -1.7241 -1.4101  0.6429
 2319SOL     OW18418   0.004   1.154  12.392  0.2389  0.0776  0.3432
 2319SOL    HW118419   0.038   1.145  12.303  1.7889 -0.2421  0.9783
 2319SOL    HW218420   4.648   1.104  12.393  0.4574 -0.2675  0.7916
 2320SOL     OW18421   0.278   2.063  16.820 -0.2372  0.5540 -0.3493
 2320SOL    HW118422   0.294   2.103  16.905  2.3833 -0.8080 -0.2019
 2320SOL    HW218423   0.254   1.973  16.843 -1.6079  1.1145  0.3883
 2321SOL     OW18424   3.448   3.690  13.503 -0.2870 -0.3902  0.0159
 2321SOL    HW118425   3.437   3.727  13.416  1.4686  1.3915  0.5562
 2321SOL    HW218426   3.521   3.631  13.485 -0.4370 -0.5747  0.0106
 2322SOL     OW18427   0.601   3.463  16.462  0.0570  0.0304 -0.5217
 2322SOL    HW118428   0.681   3.480  16.510  0.2965 -0.4046 -0.7705
 2322SOL    HW218429   0.636   3.407  16.393 -0.3234 -2.2052  1.0904
 2323SOL     OW18430   0.812   2.818  12.980  0.1006  0.5093 -0.0176
 2323SOL    HW118431   0.868   2.842  13.054  0.7135 -2.0376  0.3445
 2323SOL    HW218432   0.749   2.758  13.020 -0.2071  0.1821 -1.0035
 2324SOL     OW18433   0.735   1.872   6.547  0.2540  0.1721  0.3701
 2324SOL    HW118434   0.647   1.878   6.583 -0.0221 -0.1394 -0.2549
 2324SOL    HW218435   0.771   1.803   6.603 -0.3309  0.1929  0.7723
 2325SOL     OW18436   3.205   3.989   6.351  0.4565  0.6554 -0.2067
 2325SOL    HW118437   3.222   4.000   6.258  1.9094  0.4064  0.0394
 2325SOL    HW218438   3.233   4.072   6.387  0.2202 -0.1499  1.8491
 2326SOL     OW18439   1.744   4.548   8.838  0.0138 -0.6952  0.3684
 2326SOL    HW118440   1.698   4.544   8.922 -1.6735 -1.7622 -0.6210
 2326SOL    HW218441   1.787   4.633   8.852 -3.0677  1.0485 -0.8047
 2327SOL     OW18442   3.734   1.176   3.029  0.0466 -0.0735  0.1201
 2327SOL    HW118443   3.801   1.117   3.064 -2.3136 -2.6272  0.3137
 2327SOL    HW218444   3.667   1.179   3.097  0.5435 -1.7954  0.7017
 2328SOL     OW18445   2.822   3.773   1.277 -0.5071  0.0854  0.3125
 2328SOL    HW118446   2.868   3.849   1.242  1.3221 -1.0634  0.2042
 2328SOL    HW218447   2.736   3.811   1.259 -1.2846 -2.0953 -0.5606
 2329SOL     OW18448   4.131   0.269   3.087 -0.3263  0.0780  0.6508
 2329SOL    HW118449   4.207   0.319   3.057  0.3051 -1.8301 -0.9331
 2329SOL    HW218450   4.157   0.252   3.178  2.5387  1.0514  0.0212
 2330SOL     OW18451   4.062   4.234  13.217 -0.4697 -0.4661  0.4185
 2330SOL    HW118452   4.022   4.321  13.211 -0.4944 -0.5743 -0.9502
 2330SOL    HW218453   4.135   4.242  13.156 -0.4337  0.6394  0.6055
 2331SOL     OW18454   4.388   1.285   6.420 -0.4560  0.0123 -0.2543
 2331SOL    HW118455   4.386   1.254   6.329  1.0563  1.2391 -0.7011
 2331SOL    HW218456   4.399   1.205   6.472  2.0946  1.4993  1.4583
 2332SOL     OW18457   0.770   2.150   4.259  0.1299 -0.1656  0.0377
 2332SOL    HW118458   0.700   2.096   4.294  0.8367 -1.0471  0.0903
 2332SOL    HW218459   0.765   2.122   4.167 -1.6641  0.7758 -0.1477
 2333SOL     OW18460   3.126   1.999   8.021  0.3662 -0.1867  0.7711
 2333SOL    HW118461   3.219   2.019   8.022  1.0036 -3.0813 -0.4248
 2333SOL    HW218462   3.103   2.051   7.944  1.1240 -3.4025 -1.6011
 2334SOL     OW18463   4.511   0.056   2.937  0.4333 -0.3767  0.4166
 2334SOL    HW118464   4.566   0.095   3.005  1.8597 -1.8730  0.1125
 2334SOL    HW218465   4.567   0.021   2.868 -2.3426 -2.0368 -0.9844
 2335SOL     OW18466   3.801   3.455  14.754 -0.1082  0.5133  0.0312
 2335SOL    HW118467   3.828   3.369  14.787  0.5690  0.3586 -0.9307
 2335SOL    HW218468   3.882   3.506  14.765 -0.5352  1.1555  0.1903
 2336SOL     OW18469   1.020   2.630   6.221  0.3932  0.0436  0.0512
 2336SOL    HW118470   0.960   2.556   6.211 -2.5674  2.3286  0.8818
 2336SOL    HW218471   1.012   2.683   6.142  1.6811 -1.6260 -1.2086
 2337SOL     OW18472   0.903   2.469  10.853  0.4135  0.2717 -0.0068
 2337SOL    HW118473   0.965   2.398  10.841 -0.6394 -0.7074  0.3286
 2337SOL    HW218474   0.894   2.497  10.762  3.3903 -1.0150 -0.6996
 2338SOL     OW18475   3.550   3.826  13.716  0.4930  0.0171  0.1545
 2338SOL    HW118476   3.509   3.782  13.641  0.6194 -1.9423  1.2317
 2338SOL    HW218477   3.635   3.784  13.701  2.4550  3.4352  1.7747
 2339SOL     OW18478   0.769   3.511   3.146 -0.4681  0.2475  0.1547
 2339SOL    HW118479   0.680   3.546   3.154 -0.9697 -1.0555  0.2902
 2339SOL    HW218480   0.759   3.437   3.086 -0.6171  0.5665 -0.2156
 2340SOL     OW18481   1.555   4.473   6.080 -0.2519  0.0309  0.2856
 2340SOL    HW118482   1.522   4.407   6.141  1.1499 -0.8027  0.1445
 2340SOL    HW218483   1.591   4.542   6.136  1.8935 -3.1093  2.7630
 2341SOL     OW18484   1.778   0.565   7.917 -0.0981  0.2573  0.8596
 2341SOL    HW118485   1.802   0.595   7.829  2.2460  0.5420  1.5782
 2341SOL    HW218486   1.858   0.588   7.966 -0.0482 -0.8267  1.2876
 2342SOL     OW18487   3.334   1.003  13.821 -0.0425 -0.2709 -0.2230
 2342SOL    HW118488   3.325   0.944  13.896  2.3727 -0.7021 -0.2775
 2342SOL    HW218489   3.290   1.080  13.857 -0.3179 -0.8957  0.7821
 2343SOL     OW18490   1.858   0.726   8.790  0.5943 -0.1102 -0.4880
 2343SOL    HW118491   1.830   0.684   8.872  0.3580 -1.5110 -1.2889
 2343SOL    HW218492   1.775   0.753   8.752  0.7104  1.6089  0.4972
 2344SOL     OW18493   1.215   0.774  17.226  0.2677 -0.4407 -0.0107
 2344SOL    HW118494   1.163   0.849  17.197  0.1256 -1.5449 -2.5493
 2344SOL    HW218495   1.158   0.750  17.299 -1.6572 -0.9530 -1.6918
 2345SOL     OW18496   2.657   0.370   5.133 -0.2417 -0.1477  0.1364
 2345SOL    HW118497   2.629   0.462   5.127  0.5185  0.0485 -0.3037
 2345SOL    HW218498   2.583   0.337   5.082 -1.3023  2.0963  0.2334
 2346SOL     OW18499   0.921   2.895  15.250  0.4923  0.3553 -0.5122
 2346SOL    HW118500   0.844   2.949  15.266 -1.1483 -1.5354 -1.9618
 2346SOL    HW218501   0.883   2.825  15.196 -2.1766  1.5491 -0.1738
 2347SOL     OW18502   0.708   4.081   8.950  0.1465  0.2225 -0.1082
 2347SOL    HW118503   0.757   4.159   8.976  1.2607 -0.2837 -0.6627
 2347SOL    HW218504   0.759   4.061   8.871 -1.4839 -1.0438 -0.8488
 2348SOL     OW18505   2.063   4.044   5.983 -0.1594  0.3778 -0.6531
 2348SOL    HW118506   2.030   4.131   5.961  0.3849 -0.1508 -3.5538
 2348SOL    HW218507   1.988   3.987   5.970 -1.2095  1.8856 -1.1727
 2349SOL     OW18508   4.266   2.950   1.871  0.0284  0.3788 -0.0122
 2349SOL    HW118509   4.181   2.927   1.832  0.5159 -0.7817 -0.3946
 2349SOL    HW218510   4.248   3.035   1.911  1.0213 -0.3822  2.0471
 2350SOL     OW18511   2.755   3.565  11.168  0.0237  0.0934  0.5122
 2350SOL    HW118512   2.847   3.540  11.167 -0.3845 -1.4463  1.4736
 2350SOL    HW218513   2.725   3.534  11.082 -0.8403 -0.8775  1.1465
 2351SOL     OW18514   0.061   1.662   3.040  0.2540  0.3612 -0.7662
 2351SOL    HW118515   0.001   1.721   3.084  1.1904  0.7598 -0.0289
 2351SOL    HW218516   0.034   1.673   2.949  0.4515 -1.2642 -1.0373
 2352SOL     OW18517   2.812   0.791   0.574 -0.3092  0.3731  0.3876
 2352SOL    HW118518   2.771   0.740   0.505 -0.6562  0.4591  0.5308
 2352SOL    HW218519   2.858   0.856   0.522 -2.0941  1.9138  0.7342
 2353SOL     OW18520   2.958   4.544   8.469  0.4251  0.3350  0.4452
 2353SOL    HW118521   2.939   4.606   8.540 -0.7755 -0.3610  0.7345
 2353SOL    HW218522   3.053   4.536   8.469  0.3876  0.0194  1.3802
 2354SOL     OW18523   3.438   1.232   9.428 -0.2685 -0.4088  0.3940
 2354SOL    HW118524   3.472   1.322   9.427 -0.3947 -0.3607  0.6105
 2354SOL    HW218525   3.515   1.175   9.432 -1.2936 -1.8147 -0.0689
 2355SOL     OW18526   4.429   1.490   6.779  0.3103  0.0017 -0.3711
 2355SOL    HW118527   4.506   1.472   6.725 -0.5736 -1.0819 -1.2423
 2355SOL    HW218528   4.470   1.478   6.865  1.6072 -0.6123 -1.0733
 2356SOL     OW18529   0.479   2.826  13.306 -0.4834 -0.3451  0.1433
 2356SOL    HW118530   0.517   2.759  13.250  1.7120 -1.4919  2.9534
 2356SOL    HW218531   0.451   2.776  13.383 -0.9556  0.5183  0.5445
 2357SOL     OW18532   2.783   4.271  16.052  0.0237  0.6396 -0.4372
 2357SOL    HW118533   2.760   4.349  16.103  0.5651  0.9498 -0.6670
 2357SOL    HW218534   2.824   4.310  15.976 -1.7829  1.5865 -0.9216
 2358SOL     OW18535   1.350   4.704   5.592  0.3183  0.1504  0.2796
 2358SOL    HW118536   1.292   4.654   5.535  1.5870 -0.5126 -0.4330
 2358SOL    HW218537   1.359   0.056   5.538 -2.3471 -0.6553 -1.3197
 2359SOL     OW18538   2.305   1.935   5.783  0.0007 -0.0401 -0.5646
 2359SOL    HW118539   2.324   1.860   5.839  2.1097 -0.3457 -1.7024
 2359SOL    HW218540   2.248   1.895   5.717  0.0058  0.2838 -0.7677
 2360SOL     OW18541   3.330   2.098   4.307 -0.0335  0.1247  0.4487
 2360SOL    HW118542   3.276   2.092   4.228  0.0405  0.1970  0.3922
 2360SOL    HW218543   3.412   2.130   4.269 -0.0070  0.7693  1.0572
 2361SOL     OW18544   0.410   1.417   7.963 -0.6646 -0.2475  0.1029
 2361SOL    HW118545   0.422   1.503   7.922 -0.6045  0.9347  2.6176
 2361SOL    HW218546   0.472   1.363   7.914  1.9557  1.0803  1.9599
 2362SOL     OW18547   2.796   2.622   4.071  0.3562 -0.0738  0.0137
 2362SOL    HW118548   2.792   2.694   4.007 -0.8255  0.1919  0.3885
 2362SOL    HW218549   2.858   2.657   4.135 -0.1822  1.9291 -0.5485
 2363SOL     OW18550   4.715   3.203   3.473 -0.1012 -0.7703  1.2050
 2363SOL    HW118551   4.721   3.112   3.503 -1.8744 -1.6069 -1.0037
 2363SOL    HW218552   0.066   3.203   3.416 -1.7925 -0.2020 -1.0455
 2364SOL     OW18553   4.277   4.271  13.060 -0.4851  0.1385  0.1769
 2364SOL    HW118554   4.328   4.281  13.141  3.1421 -1.8584 -1.8806
 2364SOL    HW218555   4.335   4.304  12.992 -0.2276  1.1646  0.8897
 2365SOL     OW18556   2.196   1.726   4.505  0.3462 -0.2376  0.2430
 2365SOL    HW118557   2.241   1.771   4.434  1.4860  0.3644  1.3477
 2365SOL    HW218558   2.249   1.753   4.580  1.3077  0.8496 -0.8464
 2366SOL     OW18559   2.976   2.777   8.410  0.2153 -0.0810  0.9147
 2366SOL    HW118560   2.938   2.709   8.355  1.1516 -0.9491  1.3566
 2366SOL    HW218561   3.040   2.825   8.359  0.3094 -0.7919  0.3691
 2367SOL     OW18562   3.195   2.059   7.245  0.2117  0.0470  0.2882
 2367SOL    HW118563   3.105   2.047   7.216  0.9987 -2.1389 -1.2910
 2367SOL    HW218564   3.235   2.107   7.173 -0.9475 -1.2530 -1.2374
 2368SOL     OW18565   4.271   3.551   0.670 -0.4753 -0.3793 -0.0353
 2368SOL    HW118566   4.275   3.552   0.765  0.2179  1.6050 -0.0884
 2368SOL    HW218567   4.189   3.598   0.656  0.1199  0.9156  0.8236
 2369SOL     OW18568   0.164   1.981   4.411  0.2754  0.6582 -0.1033
 2369SOL    HW118569   0.215   1.930   4.348  1.6621 -0.2039  1.7294
 2369SOL    HW218570   0.077   1.941   4.418  0.7450 -0.4323 -0.4472
 2370SOL     OW18571   4.047   3.261   8.286  0.2767 -0.0415 -0.5730
 2370SOL    HW118572   4.095   3.331   8.241 -0.9849  1.1474 -0.0633
 2370SOL    HW218573   4.097   3.187   8.251 -0.2162  0.1785 -1.7440
 2371SOL     OW18574   2.682   3.354   0.127  0.1851  0.1164 -0.5326
 2371SOL    HW118575   2.589   3.367   0.143 -0.8405 -2.7671 -4.2019
 2371SOL    HW218576   2.712   3.409   0.200  2.6241 -0.1560 -1.3394
 2372SOL     OW18577   4.546   3.658   8.871  0.4691 -0.1689 -0.2024
 2372SOL    HW118578   4.568   3.726   8.807  0.1839 -2.2918 -2.5557
 2372SOL    HW218579   4.634   3.636   8.901 -0.0228 -0.3025  1.1482
 2373SOL     OW18580   0.330   2.553  10.428 -0.1784  0.2550  0.6367
 2373SOL    HW118581   0.348   2.637  10.471  1.2811 -0.4106  1.3378
 2373SOL    HW218582   0.304   2.586  10.342  3.6796  2.5237  0.3225
 2374SOL     OW18583   0.366   2.445   8.404 -0.2230 -0.0207 -0.3314
 2374SOL    HW118584   0.443   2.468   8.456  0.1522  0.3651 -1.0601
 2374SOL    HW218585   0.408   2.424   8.320 -0.6466 -2.2763  0.0103
 2375SOL     OW18586   3.732   4.434   8.263  0.1700 -0.6189 -0.3697
 2375SOL    HW118587   3.790   4.358   8.273  1.6119  0.9198  2.9654
 2375SOL    HW218588   3.717   4.425   8.169 -0.0742  0.6373 -0.4512
 2376SOL     OW18589   4.216   1.349   8.995 -0.1013 -0.4897  0.5399
 2376SOL    HW118590   4.223   1.428   8.942 -3.9658 -0.2783  0.3603
 2376SOL    HW218591   4.126   1.354   9.025  0.1041  2.6107  0.6132
 2377SOL     OW18592   1.028   4.235   6.969  0.3934 -0.0933 -0.2401
 2377SOL    HW118593   0.994   4.324   6.974 -0.5249 -0.2714 -3.4928
 2377SOL    HW218594   1.121   4.254   6.979  0.4371 -0.1984 -0.4659
 2378SOL     OW18595   3.934   0.006   8.725  0.3856  0.2295  0.2172
 2378SOL    HW118596   3.880   4.696   8.795 -1.2502  0.5854 -0.8664
 2378SOL    HW218597   3.879   0.076   8.691  1.3638  0.3783 -1.0737
 2379SOL     OW18598   0.551   4.237   6.492 -0.4952  0.0801 -0.1234
 2379SOL    HW118599   0.631   4.203   6.453 -1.2356 -0.2236 -1.3659
 2379SOL    HW218600   0.589   4.285   6.566 -0.1066  0.8313 -0.8112
 2380SOL     OW18601   2.706   0.915   3.546  0.1433 -0.1439  0.2722
 2380SOL    HW118602   2.801   0.907   3.546  0.1477 -0.0925  0.5852
 2380SOL    HW218603   2.696   0.945   3.637 -1.2632 -0.5071  0.2408
 2381SOL     OW18604   1.423   1.399   7.315 -0.7408 -0.2786 -0.3969
 2381SOL    HW118605   1.488   1.329   7.300 -0.4925 -0.3215  0.9182
 2381SOL    HW218606   1.438   1.428   7.405 -3.3536 -0.0817 -0.0384
 2382SOL     OW18607   0.990   2.502   4.116  0.0504 -0.1792  0.1241
 2382SOL    HW118608   0.894   2.505   4.107  0.2992 -1.1666 -2.8467
 2382SOL    HW218609   1.014   2.438   4.183  0.4205  0.2522  0.4024
 2383SOL     OW18610   2.602   1.610  10.418  0.0518  0.5283  0.2493
 2383SOL    HW118611   2.551   1.652  10.487  0.0767  0.9987 -0.0155
 2383SOL    HW218612   2.689   1.608  10.456 -0.6986  0.4124  1.9574
 2384SOL     OW18613   1.292   0.702   7.605  0.1506 -0.4795 -0.5268
 2384SOL    HW118614   1.206   0.700   7.647 -0.4409  1.2494 -1.6465
 2384SOL    HW218615   1.312   0.608   7.597 -1.9289 -1.0920  1.2944
 2385SOL     OW18616   0.945   0.689  10.292  0.2353 -0.4743 -0.3037
 2385SOL    HW118617   0.906   0.775  10.306 -1.8228 -1.0376 -2.5138
 2385SOL    HW218618   0.879   0.629  10.326 -1.7384  1.6378 -0.3708
 2386SOL     OW18619   3.623   2.115   8.075 -0.0917 -0.0021 -0.3617
 2386SOL    HW118620   3.683   2.073   8.013 -1.2763 -2.1033 -0.0691
 2386SOL    HW218621   3.673   2.194   8.096  0.9563 -1.2220  1.8216
 2387SOL     OW18622   1.130   0.035  11.634  0.3135  0.1193  0.0952
 2387SOL    HW118623   1.166   4.674  11.620 -1.5307 -0.4284 -1.2244
 2387SOL    HW218624   1.143   0.069  11.546  0.1001 -0.0073  0.0136
 2388SOL     OW18625   4.174   4.203   4.574  0.1614 -0.1897  0.0068
 2388SOL    HW118626   4.233   4.133   4.548  1.1558 -0.0975  2.0042
 2388SOL    HW218627   4.168   4.185   4.667  0.7344 -2.8541 -0.4826
 2389SOL     OW18628   4.052   2.905   5.917 -0.3522  0.3176 -0.2095
 2389SOL    HW118629   3.987   2.865   5.860 -0.6539 -0.7169  0.8472
 2389SOL    HW218630   4.107   2.832   5.946 -1.0123 -0.0203  0.1950
 2390SOL     OW18631   0.975   4.160   2.946  0.6205  0.1016  0.4684
 2390SOL    HW118632   1.066   4.154   2.974  0.2077 -0.8150  1.6227
 2390SOL    HW218633   0.946   4.069   2.941 -1.2379  0.6861  0.6860
 2391SOL     OW18634   1.013   2.079   5.836 -0.5105 -0.2986 -0.1274
 2391SOL    HW118635   1.003   2.116   5.923 -1.3757  2.4856 -1.4002
 2391SOL    HW218636   0.988   2.154   5.781 -0.8432 -0.5914 -0.3774
 2392SOL     OW18637   2.026   1.392  13.806  0.0482  0.4835  0.0129
 2392SOL    HW118638   2.091   1.462  13.797 -0.2982  0.3955 -3.3346
 2392SOL    HW218639   1.942   1.436  13.802  0.0206  0.4463  0.2312
 2393SOL     OW18640   1.734   4.193   4.714 -0.5995  0.1864 -0.2366
 2393SOL    HW118641   1.650   4.239   4.709  0.5303  2.2716 -0.1675
 2393SOL    HW218642   1.754   4.175   4.622  1.7123  0.7528  0.1414
 2394SOL     OW18643   1.174   3.826  10.545 -0.4135  0.4968  0.5059
 2394SOL    HW118644   1.239   3.853  10.481 -0.3453 -1.4367 -0.2324
 2394SOL    HW218645   1.145   3.739  10.520  2.0558  0.5207 -2.4744
 2395SOL     OW18646   3.419   4.304   3.591 -0.1825  0.2432  0.8656
 2395SOL    HW118647   3.415   4.216   3.629 -3.9303  0.1284  0.2827
 2395SOL    HW218648   3.399   4.355   3.669  1.4823 -0.4845  1.7618
 2396SOL     OW18649   0.270   0.342  17.515 -0.4422  0.2838 -0.0228
 2396SOL    HW118650   0.293   0.268  17.572  4.9323  2.2492  0.2820
 2396SOL    HW218651   0.184   0.367  17.550 -1.4664 -1.2264 -1.4468
 2397SOL     OW18652   4.225   1.294  15.526 -0.3549 -0.3064  0.3700
 2397SOL    HW118653   4.320   1.284  15.523 -0.3474 -0.4623  1.0009
 2397SOL    HW218654   4.200   1.226  15.464  0.4604  0.3951 -0.7255
 2398SOL     OW18655   2.501   0.063   6.639  0.3056 -0.2050  0.2094
 2398SOL    HW118656   2.467   0.126   6.576  0.4323 -0.4957 -0.1498
 2398SOL    HW218657   2.595   0.073   6.626 -0.0150 -1.4372 -2.9650
 2399SOL     OW18658   0.321   0.613   7.664 -0.1904 -0.3334 -0.1911
 2399SOL    HW118659   0.403   0.575   7.697  0.3591 -0.8251 -2.1478
 2399SOL    HW218660   0.270   0.542   7.625  1.0160 -0.6181 -1.2489
 2400SOL     OW18661   0.444   1.561   1.088  0.4161  0.4595 -0.0307
 2400SOL    HW118662   0.456   1.470   1.060 -0.5574  0.0865  0.7414
 2400SOL    HW218663   0.536   1.583   1.104  0.1521  2.3515 -1.1277
 2401SOL     OW18664   3.598   0.264   7.827  0.4502 -0.5878 -0.2811
 2401SOL    HW118665   3.628   0.355   7.834  1.0572 -0.7802 -0.3194
 2401SOL    HW218666   3.664   0.237   7.763  0.1295 -0.7107 -0.5589
 2402SOL     OW18667   0.086   3.132   7.823  0.6366  0.1509 -0.1560
 2402SOL    HW118668   0.169   3.097   7.853  0.3149 -1.2689 -0.9272
 2402SOL    HW218669   0.088   3.220   7.861 -2.4959  0.7382 -1.3368
 2403SOL     OW18670   4.628   0.614   5.050 -0.1614 -0.0013  0.1792
 2403SOL    HW118671   4.616   0.625   4.956  1.8031 -1.4093 -0.2506
 2403SOL    HW218672   4.716   0.575   5.057  0.5733  1.5336 -0.3817
 2404SOL     OW18673   3.316   4.539   5.627  0.0152  0.7300  0.2893
 2404SOL    HW118674   3.358   4.624   5.613  2.6357 -0.5768  0.2289
 2404SOL    HW218675   3.281   4.521   5.540  0.5224 -2.3369  0.7289
 2405SOL     OW18676   0.312   4.587   7.364 -0.0422  0.1272 -0.6706
 2405SOL    HW118677   0.371   4.647   7.317 -0.7082  2.2351  1.1835
 2405SOL    HW218678   0.257   4.642   7.419  0.1128  1.3122 -1.6880
 2406SOL     OW18679   3.348   0.300   7.435  0.4674  0.1219 -0.3506
 2406SOL    HW118680   3.256   0.313   7.414  0.3139  2.0337  1.5575
 2406SOL    HW218681   3.339   0.247   7.515  2.7488  0.2456 -0.0008
 2407SOL     OW18682   3.993   1.933  15.847 -0.6232  0.3346  0.0076
 2407SOL    HW118683   4.085   1.940  15.872 -0.3791 -0.9437 -0.5150
 2407SOL    HW218684   4.007   1.927  15.753 -0.2165  1.0853  0.0165
 2408SOL     OW18685   3.426   3.451   8.759 -0.5989  0.3883 -0.1293
 2408SOL    HW118686   3.339   3.422   8.732 -2.1530  1.5139  3.6924
 2408SOL    HW218687   3.478   3.372   8.769 -0.6447  0.4902  0.8808
 2409SOL     OW18688   3.766   2.896   7.888 -0.1875  0.2951  0.2293
 2409SOL    HW118689   3.720   2.980   7.883 -1.4170 -0.5244 -2.3317
 2409SOL    HW218690   3.805   2.874   7.803 -1.0624 -1.6255  0.3245
 2410SOL     OW18691   3.984   0.987   5.826  0.2923 -0.1507 -0.7738
 2410SOL    HW118692   4.074   0.976   5.855  0.8842  1.2463 -2.0711
 2410SOL    HW218693   3.980   0.972   5.731  0.4209  2.1540 -1.1503
 2411SOL     OW18694   1.414   1.283  16.644  0.4513 -0.2990  0.4543
 2411SOL    HW118695   1.319   1.272  16.644  0.3905  0.2413  0.4463
 2411SOL    HW218696   1.425   1.378  16.648  1.0978 -0.3719  0.3815
 2412SOL     OW18697   3.620   1.087   6.846 -0.0079 -0.7272 -0.0355
 2412SOL    HW118698   3.586   1.092   6.936 -1.1564 -2.2438 -0.3863
 2412SOL    HW218699   3.539   1.108   6.800  0.4518  0.8271 -0.1421
 2413SOL     OW18700   1.139   4.190   2.665  0.4465 -0.1524  0.6201
 2413SOL    HW118701   1.130   4.204   2.760 -0.0179  0.1916  0.5228
 2413SOL    HW218702   1.052   4.185   2.626  1.8551  0.0639 -2.4985
 2414SOL     OW18703   1.346   0.285   6.451  0.3956 -0.1293 -0.1558
 2414SOL    HW118704   1.380   0.276   6.362  0.3864  0.6978 -0.2503
 2414SOL    HW218705   1.426   0.278   6.503  0.3090  1.2468  0.1828
 2415SOL     OW18706   4.139   3.798   6.154 -0.0670  0.4459 -0.0575
 2415SOL    HW118707   4.141   3.863   6.224 -0.0801  0.1579  0.2104
 2415SOL    HW218708   4.205   3.735   6.183 -1.7203 -1.6232 -0.7340
 2416SOL     OW18709   4.067   0.068  17.437 -0.4866 -0.8111  0.1295
 2416SOL    HW118710   4.103   0.137  17.382  2.6602  0.3767  3.7022
 2416SOL    HW218711   4.004   0.033  17.373 -0.1611 -0.1571 -0.5412
 2417SOL     OW18712   1.416   1.273  15.128 -0.4904  0.2982  0.2041
 2417SOL    HW118713   1.379   1.224  15.054 -0.7386  2.0718 -0.8597
 2417SOL    HW218714   1.508   1.247  15.134 -0.7872 -0.6978  0.4695
 2418SOL     OW18715   4.383   3.991   3.094 -0.1867  0.0817 -0.0959
 2418SOL    HW118716   4.442   3.916   3.103  0.0190  0.4098  1.2410
 2418SOL    HW218717   4.423   4.061   3.042 -1.1761  1.5022  1.0645
 2419SOL     OW18718   4.445   3.318   3.520  0.3013 -0.2352 -0.1662
 2419SOL    HW118719   4.470   3.232   3.555  1.0553  0.1165  0.1652
 2419SOL    HW218720   4.533   3.343   3.493  1.9133 -3.9614  1.6003
 2420SOL     OW18721   0.563   3.650   6.705 -0.1445  0.4190  0.4058
 2420SOL    HW118722   0.627   3.722   6.699  2.3987 -1.8343  0.2745
 2420SOL    HW218723   0.484   3.701   6.723  0.9124  1.8731  0.9899
 2421SOL     OW18724   1.645   4.318   3.793  0.0130  0.0862 -0.1761
 2421SOL    HW118725   1.592   4.291   3.718  0.3269 -1.8596  0.3115
 2421SOL    HW218726   1.734   4.297   3.764 -0.2747 -2.2974  0.6288
 2422SOL     OW18727   4.576   0.523   1.588 -0.0774 -0.1839 -0.3408
 2422SOL    HW118728   4.629   0.559   1.658  2.2247 -1.3442 -1.5135
 2422SOL    HW218729   4.634   0.463   1.542  1.5642 -0.1185  1.7033
 2423SOL     OW18730   1.046   0.661  11.560 -1.0203  0.2738  0.0602
 2423SOL    HW118731   1.067   0.754  11.571  1.1080 -0.5146  2.7557
 2423SOL    HW218732   1.103   0.651  11.484  0.2851  1.3373  0.8880
 2424SOL     OW18733   4.436   3.935   5.949 -0.7074 -0.1441 -0.7199
 2424SOL    HW118734   4.353   3.975   5.922 -1.4998 -0.5409  1.0545
 2424SOL    HW218735   4.399   3.885   6.022  0.7431  0.3442  0.3635
 2425SOL     OW18736   2.705   0.109   3.737  0.1282  0.0386  0.5846
 2425SOL    HW118737   2.630   0.099   3.678 -0.0034  1.0073  0.5782
 2425SOL    HW218738   2.726   0.202   3.728  1.9134 -0.4290 -0.0143
 2426SOL     OW18739   1.889   4.302   1.918  0.0080 -0.7538 -0.6165
 2426SOL    HW118740   1.976   4.263   1.927  0.0071 -0.6963 -0.3462
 2426SOL    HW218741   1.913   4.395   1.921 -1.4717 -0.4991  3.9497
 2427SOL     OW18742   0.259   3.041   8.413  0.1769  0.0650 -0.2002
 2427SOL    HW118743   0.197   3.015   8.482  0.5279  0.3612  0.2246
 2427SOL    HW218744   0.340   3.019   8.458 -1.3184 -0.0134  2.4718
 2428SOL     OW18745   4.194   2.432  14.141 -0.0900 -0.0304 -0.3964
 2428SOL    HW118746   4.103   2.409  14.154 -0.1861  0.2892 -0.4923
 2428SOL    HW218747   4.221   2.379  14.065  2.6290  1.5101 -0.5119
 2429SOL     OW18748   1.862   3.936   2.210  0.3026 -0.0821 -0.5075
 2429SOL    HW118749   1.772   3.962   2.231  0.0617  0.4464 -2.1871
 2429SOL    HW218750   1.858   3.891   2.126  2.2390  1.0714 -1.2107
 2430SOL     OW18751   4.275   1.621  10.531  0.1918  0.0473  0.3204
 2430SOL    HW118752   4.368   1.601  10.532 -0.0826 -1.2588 -0.5334
 2430SOL    HW218753   4.249   1.571  10.608  0.9171  1.2093  1.3202
 2431SOL     OW18754   1.586   4.504  10.326  0.4821 -0.2197  0.2046
 2431SOL    HW118755   1.490   4.501  10.324  0.4589  0.2054  0.9748
 2431SOL    HW218756   1.609   4.594  10.301  0.3436 -0.3844 -0.5297
 2432SOL     OW18757   4.331   1.870   6.125  0.2195 -0.6237  0.2097
 2432SOL    HW118758   4.313   1.915   6.042  0.5168  1.1061  1.0729
 2432SOL    HW218759   4.385   1.796   6.098  1.0281  0.1465 -0.2996
 2433SOL     OW18760   4.007   1.235  16.163 -0.1798  0.5891 -0.3434
 2433SOL    HW118761   3.971   1.275  16.084  2.9936 -0.0004 -2.1286
 2433SOL    HW218762   4.088   1.204  16.122 -0.1831  1.8102 -1.2914
 2434SOL     OW18763   0.377   2.207   0.965  0.1771  0.0529  0.0952
 2434SOL    HW118764   0.430   2.286   0.966 -0.3982  0.4668 -2.0967
 2434SOL    HW218765   0.417   2.144   1.025  2.6707 -0.0095 -1.6412
 2435SOL     OW18766   2.791   2.674  17.401  0.0695  0.4456 -0.1206
 2435SOL    HW118767   2.720   2.712  17.452 -0.2065  2.6548 -2.1665
 2435SOL    HW218768   2.748   2.666  17.316 -1.2487  0.7777  0.5265
 2436SOL     OW18769   4.537   0.416   8.561 -0.5177 -0.1383 -0.5390
 2436SOL    HW118770   4.563   0.345   8.503 -0.9254 -0.3424 -0.4744
 2436SOL    HW218771   4.516   0.352   8.629  1.6709  0.0803  0.3312
 2437SOL     OW18772   1.966   0.727  13.157  0.0486  0.4386  0.1421
 2437SOL    HW118773   1.951   0.644  13.112  2.1024  0.6183 -0.8878
 2437SOL    HW218774   2.024   0.768  13.093  0.3704 -3.0958 -1.7978
 2438SOL     OW18775   1.283   4.579   7.854  0.4319 -0.4128  0.9108
 2438SOL    HW118776   1.194   4.608   7.832  0.8941 -0.2139 -0.6632
 2438SOL    HW218777   1.281   4.490   7.820 -3.4386 -0.5891  1.5870
 2439SOL     OW18778   1.607   4.636   8.624  0.0928  0.1116  0.1427
 2439SOL    HW118779   1.676   4.696   8.593  0.8029 -1.3047 -1.0044
 2439SOL    HW218780   1.654   4.597   8.697 -2.5959  0.1354  1.8715
 2440SOL     OW18781   1.232   2.025   7.693  0.0185  0.2815 -0.0663
 2440SOL    HW118782   1.213   1.935   7.666 -0.3946  0.9110 -1.8562
 2440SOL    HW218783   1.173   2.072   7.635  0.4476 -0.3688 -1.0479
 2441SOL     OW18784   1.363   2.616   5.608  0.3008 -0.1285  0.4913
 2441SOL    HW118785   1.439   2.559   5.614 -0.5800 -1.1491  2.2111
 2441SOL    HW218786   1.367   2.655   5.695  1.6451 -1.0310  0.8280
 2442SOL     OW18787   0.938   2.223   4.707  0.7564 -0.5768  0.3213
 2442SOL    HW118788   0.846   2.212   4.731  0.4114  1.9410  0.2426
 2442SOL    HW218789   0.980   2.142   4.735  0.5552 -0.8618 -0.1935
 2443SOL     OW18790   2.384   1.056   3.204 -0.1567  0.2858 -0.4728
 2443SOL    HW118791   2.321   1.019   3.266  0.7777  0.2718  0.4534
 2443SOL    HW218792   2.466   1.011   3.220 -0.0847  0.1527 -1.1970
 2444SOL     OW18793   1.123   1.928  11.232  0.2432 -0.4127 -0.3040
 2444SOL    HW118794   1.132   1.982  11.310  1.1572 -2.4357  1.0128
 2444SOL    HW218795   1.028   1.926  11.219  0.1374 -0.8885  0.5303
 2445SOL     OW18796   3.649   1.105   9.327  0.0231 -0.1525  0.5739
 2445SOL    HW118797   3.624   1.096   9.235  1.7116 -0.1319  0.1084
 2445SOL    HW218798   3.635   1.015   9.357 -1.3514  0.2844  1.2501
 2446SOL     OW18799   1.605   1.272  10.324  0.2247 -0.3460  0.0853
 2446SOL    HW118800   1.625   1.253  10.416  1.2623 -1.3210 -0.3488
 2446SOL    HW218801   1.563   1.358  10.328  0.1016 -0.4489  1.0244
 2447SOL     OW18802   4.182   2.245   4.693 -0.1112 -0.5991  0.1444
 2447SOL    HW118803   4.117   2.190   4.649 -1.8778  0.9210  0.8620
 2447SOL    HW218804   4.256   2.225   4.636 -0.6788 -2.4195  0.0327
 2448SOL     OW18805   1.101   1.761   4.200 -0.5188  0.2041 -0.6024
 2448SOL    HW118806   1.010   1.769   4.227 -1.3772 -1.7198 -2.8978
 2448SOL    HW218807   1.106   1.854   4.176 -2.2291  0.0312 -1.6289
 2449SOL     OW18808   0.604   0.159   4.928 -0.0357  0.0260 -0.2723
 2449SOL    HW118809   0.644   0.234   4.973  1.9468 -0.9180 -0.4651
 2449SOL    HW218810   0.605   0.098   5.002  1.9644 -0.0479 -0.3656
 2450SOL     OW18811   2.030   0.706   4.904 -0.6481  0.1698  0.3029
 2450SOL    HW118812   1.966   0.646   4.867 -1.5852  0.8954  0.7461
 2450SOL    HW218813   2.015   0.781   4.847 -0.1633  0.8036  1.0119
 2451SOL     OW18814   3.056   3.246   8.947 -0.0488  0.2377 -0.8762
 2451SOL    HW118815   3.030   3.208   9.030 -1.4181  3.1298  0.0032
 2451SOL    HW218816   3.125   3.184   8.922 -1.4179 -1.1139 -1.2924
 2452SOL     OW18817   0.138   0.589   9.596 -0.2352 -1.0450  0.0248
 2452SOL    HW118818   0.072   0.622   9.535  1.2067  0.2922 -0.8412
 2452SOL    HW218819   0.222   0.603   9.551 -0.5802  0.5995 -0.1238
 2453SOL     OW18820   2.190   0.548   3.810  0.0245  0.2220 -0.2933
 2453SOL    HW118821   2.193   0.631   3.859 -1.6939 -0.6486  1.2655
 2453SOL    HW218822   2.237   0.480   3.859  0.0484 -1.6505 -2.9626
 2454SOL     OW18823   3.989   2.047   9.187 -0.1260 -0.2695  0.1709
 2454SOL    HW118824   3.935   2.120   9.219 -0.5344 -0.7465  0.5577
 2454SOL    HW218825   3.941   2.024   9.108  1.4237 -1.1663 -0.5108
 2455SOL     OW18826   0.916   2.053  10.980  0.3819 -0.1091 -0.1781
 2455SOL    HW118827   0.898   2.011  11.064  1.2548 -0.0007  0.0675
 2455SOL    HW218828   0.992   2.008  10.942  0.8390 -1.5884  2.5356
 2456SOL     OW18829   2.223   3.809   5.982 -0.4685 -0.0172 -0.3612
 2456SOL    HW118830   2.299   3.863   6.003 -1.3121  0.4199  1.5303
 2456SOL    HW218831   2.156   3.877   5.994 -1.8853 -1.6899  1.1515
 2457SOL     OW18832   0.241   1.008   7.939 -0.2438 -0.0837  0.2890
 2457SOL    HW118833   0.171   1.064   7.974  0.5349  1.1040 -0.0742
 2457SOL    HW218834   0.196   0.958   7.870 -2.3960 -0.2314  1.7641
 2458SOL     OW18835   3.293   1.876   3.597 -0.1902 -0.1139 -0.4007
 2458SOL    HW118836   3.281   1.807   3.532 -1.1201 -0.5350  0.2037
 2458SOL    HW218837   3.304   1.960   3.553  0.9687  0.2094  0.5045
 2459SOL     OW18838   0.992   2.288   4.300  0.4736  0.3855 -0.0735
 2459SOL    HW118839   0.919   2.229   4.283  1.7134 -1.6027  1.5394
 2459SOL    HW218840   1.059   2.223   4.321  0.4572  0.0963 -0.9410
 2460SOL     OW18841   2.019   4.575   9.624  0.3645  0.1875 -0.1804
 2460SOL    HW118842   2.065   4.648   9.665 -0.2719  0.3018  0.3263
 2460SOL    HW218843   1.940   4.605   9.579  1.9144  2.5179 -1.3348
 2461SOL     OW18844   3.499   0.527  15.797  0.9473  0.1137 -0.2094
 2461SOL    HW118845   3.459   0.612  15.779 -2.5016 -0.9759  2.2815
 2461SOL    HW218846   3.515   0.534  15.891 -1.9926  0.6913  0.2470
 2462SOL     OW18847   3.611   4.550   6.342  0.2020 -0.3379  0.4574
 2462SOL    HW118848   3.593   4.579   6.431 -1.8068  0.1495 -0.1169
 2462SOL    HW218849   3.544   4.593   6.289  1.3529 -0.2771 -0.9548
 2463SOL     OW18850   2.470   2.123   2.719  1.2942  0.4123  0.0387
 2463SOL    HW118851   2.410   2.164   2.656  1.6606  0.0872 -0.5171
 2463SOL    HW218852   2.549   2.174   2.702  0.5902  1.2391 -0.7744
 2464SOL     OW18853   0.219   4.240   6.942  0.4233  0.7025 -0.1446
 2464SOL    HW118854   0.285   4.174   6.924  0.1843 -0.6213  3.9113
 2464SOL    HW218855   0.267   4.288   7.009  0.8027  3.2245 -2.1706
 2465SOL     OW18856   4.658   2.774  17.107 -0.0698  0.1074 -0.0734
 2465SOL    HW118857   4.659   2.678  17.113  1.1207 -0.0152 -1.9693
 2465SOL    HW218858   4.651   2.785  17.201  1.2996 -3.1895  0.4365
 2466SOL     OW18859   2.341   2.524   4.221  0.3738  0.4365  0.3194
 2466SOL    HW118860   2.322   2.612   4.190 -1.3061 -0.6624 -1.8020
 2466SOL    HW218861   2.407   2.501   4.156 -1.7279 -2.1605 -0.8974
 2467SOL     OW18862   4.493   4.665  16.777 -0.5990 -0.2025 -0.1644
 2467SOL    HW118863   4.438   4.638  16.703  0.6764 -2.6868 -0.1990
 2467SOL    HW218864   4.465   0.030  16.787  1.3270  0.4449 -0.6562
 2468SOL     OW18865   4.196   0.551   3.237  0.5100 -0.6217  0.9174
 2468SOL    HW118866   4.259   0.544   3.166 -1.1580 -2.8521 -0.3496
 2468SOL    HW218867   4.175   0.459   3.254 -0.7002  0.2846  4.3713
 2469SOL     OW18868   3.958   1.244   7.094  0.4310 -0.2585  0.1442
 2469SOL    HW118869   4.044   1.279   7.115 -0.2616  0.3463  2.0884
 2469SOL    HW218870   3.964   1.163   7.144  0.2997 -0.5502 -0.3208
 2470SOL     OW18871   0.786   1.691  12.773  0.2258  0.3873  0.6552
 2470SOL    HW118872   0.694   1.686  12.799  0.4488  0.2578  1.4051
 2470SOL    HW218873   0.829   1.700  12.858  3.3165  2.3566 -1.0882
 2471SOL     OW18874   2.872   0.003  16.051  0.1968  0.1027  0.2512
 2471SOL    HW118875   2.890   0.096  16.052 -1.4799  0.3910  4.1849
 2471SOL    HW218876   2.951   4.691  16.013 -0.1398 -0.3187 -0.0327
 2472SOL     OW18877   2.935   0.007   2.447  0.4958  0.4750  0.3530
 2472SOL    HW118878   2.878   4.657   2.460 -2.5672  2.1796 -3.0192
 2472SOL    HW218879   2.913   0.030   2.357  0.3500 -1.0503 -0.0113
 2473SOL     OW18880   1.679   0.940  10.674 -0.1503 -0.1261 -0.5938
 2473SOL    HW118881   1.623   0.921  10.598 -0.1813 -0.8167 -0.3979
 2473SOL    HW218882   1.650   0.863  10.724 -2.1710 -0.3444 -2.0834
 2474SOL     OW18883   3.270   1.914  10.278 -0.5411 -0.6058 -0.0969
 2474SOL    HW118884   3.250   1.972  10.352  0.5292 -1.3222  0.7479
 2474SOL    HW218885   3.363   1.934  10.271 -0.3198 -1.7691 -0.4391
 2475SOL     OW18886   2.657   3.487   8.725 -0.1890 -0.1319  0.7083
 2475SOL    HW118887   2.642   3.405   8.678 -1.7407  0.5416  0.0391
 2475SOL    HW218888   2.738   3.455   8.766  0.4196  3.3879  2.2554
 2476SOL     OW18889   3.793   0.749   2.357  0.1080  0.3515  0.3085
 2476SOL    HW118890   3.841   0.672   2.327  1.7615  1.8165 -0.7771
 2476SOL    HW218891   3.779   0.725   2.449  0.1129  0.9363  0.4637
 2477SOL     OW18892   1.504   1.684   3.085 -0.9318 -0.4086  0.2817
 2477SOL    HW118893   1.576   1.744   3.104 -0.3020 -0.3236 -2.3602
 2477SOL    HW218894   1.548   1.636   3.014  0.1896 -0.3592  0.9497
 2478SOL     OW18895   2.870   4.298  16.425 -0.3230  0.0414 -0.2077
 2478SOL    HW118896   2.946   4.239  16.425  1.2378  2.0162  1.5067
 2478SOL    HW218897   2.906   4.367  16.369 -1.3906  1.6981  1.1297
 2479SOL     OW18898   2.343   4.141   7.430 -0.4070 -0.0465 -0.1604
 2479SOL    HW118899   2.299   4.093   7.360 -1.9164  2.0075 -0.6604
 2479SOL    HW218900   2.297   4.225   7.431  0.2366  0.2933  0.3900
 2480SOL     OW18901   3.673   1.718  15.965 -0.4902 -0.9316  0.3535
 2480SOL    HW118902   3.613   1.727  15.891 -0.5046 -0.0524  0.4731
 2480SOL    HW218903   3.625   1.763  16.035 -1.9345 -0.5393 -0.8845
 2481SOL     OW18904   3.135   0.954   4.792 -0.7585  0.0583 -0.2424
 2481SOL    HW118905   3.099   1.022   4.735  2.0606  1.1185 -0.7492
 2481SOL    HW218906   3.124   0.873   4.742  0.1426  0.0621 -0.4386
 2482SOL     OW18907   2.871   3.910   3.535 -0.1432  0.2934 -0.1456
 2482SOL    HW118908   2.947   3.950   3.493  1.6539 -1.7949  1.0748
 2482SOL    HW218909   2.808   3.982   3.530 -0.9373 -0.3487  0.4667
 2483SOL     OW18910   0.958   2.323   2.409  0.0175  0.3382  0.0265
 2483SOL    HW118911   1.020   2.253   2.390 -1.7507 -0.3908 -2.9091
 2483SOL    HW218912   0.917   2.337   2.324  0.0957  0.9610  0.0919
 2484SOL     OW18913   3.147   2.936  17.608 -0.2842  0.5664 -0.2638
 2484SOL    HW118914   3.062   2.959  17.571 -0.1656 -0.1813 -0.9886
 2484SOL    HW218915   3.132   2.875  17.681  3.2838 -0.2990 -0.2545
 2485SOL     OW18916   0.430   0.029  13.897 -0.1002  0.8613 -0.0770
 2485SOL    HW118917   0.425   0.112  13.851 -1.9771  0.0173 -1.3700
 2485SOL    HW218918   0.445   0.057  13.988 -0.7028 -1.2587  0.6741
 2486SOL     OW18919   1.774   3.509   7.645  0.0152 -0.5348 -0.1548
 2486SOL    HW118920   1.753   3.510   7.551 -2.0941  1.1153  0.3326
 2486SOL    HW218921   1.820   3.592   7.658  0.4983 -0.7383 -0.5485
 2487SOL     OW18922   2.504   0.012   9.335 -0.8977 -0.0172  0.4358
 2487SOL    HW118923   2.417   0.039   9.365 -0.3293  0.2926  1.8216
 2487SOL    HW218924   2.480   4.645   9.337 -1.5519  0.1444  0.0599
 2488SOL     OW18925   1.413   2.811   3.543  0.6212 -0.1032 -0.5419
 2488SOL    HW118926   1.414   2.867   3.620 -1.6068 -0.0726 -0.5303
 2488SOL    HW218927   1.499   2.770   3.555 -0.0783 -1.5191 -0.3306
 2489SOL     OW18928   0.975   3.691   8.251 -0.1906  0.0967 -0.1389
 2489SOL    HW118929   0.940   3.776   8.279 -0.6387 -0.5948  1.3415
 2489SOL    HW218930   1.036   3.707   8.179 -0.8353 -1.6964 -1.0762
 2490SOL     OW18931   0.971   0.783  14.217 -0.3718 -0.5783 -0.2623
 2490SOL    HW118932   0.895   0.838  14.200  1.3387  1.3291 -1.7511
 2490SOL    HW218933   0.928   0.702  14.247  0.8376 -1.2919 -0.4591
 2491SOL     OW18934   0.511   1.675  13.914 -0.1351  0.6292 -0.2104
 2491SOL    HW118935   0.477   1.755  13.874 -0.0350  0.9716  0.3882
 2491SOL    HW218936   0.580   1.710  13.970 -0.9119  0.2282  0.9762
 2492SOL     OW18937   0.206   1.959   3.464 -0.2289  0.2835  0.5477
 2492SOL    HW118938   0.148   2.013   3.518 -0.5342 -0.6255  1.1316
 2492SOL    HW218939   0.149   1.891   3.426 -1.3596 -1.5334  5.5680
 2493SOL     OW18940   1.257   4.074   5.651  0.1290 -0.1348  0.0162
 2493SOL    HW118941   1.214   4.008   5.707  0.4094 -0.9889 -0.7788
 2493SOL    HW218942   1.185   4.107   5.598 -0.3611 -1.9009 -0.4222
 2494SOL     OW18943   3.659   1.967   8.874 -0.4242  0.3071  0.1267
 2494SOL    HW118944   3.587   1.919   8.913  0.5997 -0.3733  1.1833
 2494SOL    HW218945   3.717   1.897   8.843  0.4322 -0.4064  3.2817
 2495SOL     OW18946   0.419   0.992   2.043  0.5089 -0.6894 -0.0011
 2495SOL    HW118947   0.510   0.987   2.073  0.1567 -0.6232  1.0782
 2495SOL    HW218948   0.434   0.933   1.969 -3.6340 -0.8642 -0.6961
 2496SOL     OW18949   3.807   3.729   2.199  0.4355  0.2119 -0.1415
 2496SOL    HW118950   3.724   3.763   2.164  0.4328  0.3987  0.0493
 2496SOL    HW218951   3.801   3.634   2.188 -2.7486  0.3234  0.5670
 2497SOL     OW18952   3.005   1.772  16.018 -0.0367 -0.0491 -0.3445
 2497SOL    HW118953   3.038   1.685  15.996 -0.0722  0.4416 -2.3559
 2497SOL    HW218954   3.066   1.837  15.984  1.1108 -1.3142 -0.6955
 2498SOL     OW18955   0.372   0.761   7.034 -0.1798  0.1955 -0.6810
 2498SOL    HW118956   0.436   0.818   7.074  0.2005 -1.0671  0.5152
 2498SOL    HW218957   0.418   0.677   7.034 -0.6706 -0.0644  1.3946
 2499SOL     OW18958   2.034   4.129   4.387 -0.1945  0.0712  0.1624
 2499SOL    HW118959   2.065   4.216   4.363  0.9814 -0.4838 -0.3554
 2499SOL    HW218960   2.096   4.094   4.451  2.7068  2.3495 -1.4067
 2500SOL     OW18961   2.612   2.419   3.194 -0.3105  0.0907  0.5855
 2500SOL    HW118962   2.567   2.489   3.242  1.7054  1.5316  0.3925
 2500SOL    HW218963   2.665   2.468   3.131  0.6657 -0.5008  0.9432
 2501SOL     OW18964   1.414   3.408  10.181  0.6772 -0.1963 -0.1996
 2501SOL    HW118965   1.377   3.344  10.243  1.4157 -0.0450  0.4027
 2501SOL    HW218966   1.335   3.449  10.148  0.3110  0.4504  1.4874
 2502SOL     OW18967   3.556   1.126   8.434  0.2066 -0.2711 -0.1969
 2502SOL    HW118968   3.639   1.109   8.389 -0.0930  1.5184 -1.4041
 2502SOL    HW218969   3.585   1.152   8.521  0.4279 -0.1043 -0.3191
 2503SOL     OW18970   4.561   4.099   5.786 -0.1017 -0.0588  0.2039
 2503SOL    HW118971   4.529   4.178   5.829  1.0077  0.4616  0.0755
 2503SOL    HW218972   4.535   4.042   5.858  0.3392  1.1494  1.3123
 2504SOL     OW18973   4.508   1.575  15.412  0.4260  0.0964 -0.0902
 2504SOL    HW118974   4.482   1.597  15.501  1.0301 -0.9641  0.3477
 2504SOL    HW218975   4.535   1.484  15.424  1.5166  0.0154 -3.0181
 2505SOL     OW18976   3.059   0.610   8.502  0.2614  0.2570 -0.4137
 2505SOL    HW118977   3.036   0.690   8.454  0.2815  0.2707 -0.4003
 2505SOL    HW218978   3.128   0.576   8.446  1.2090  2.0937 -0.3376
 2506SOL     OW18979   4.641   0.859   2.664 -0.4809  0.3276 -0.0666
 2506SOL    HW118980   4.689   0.910   2.728  0.1830  0.2812 -0.5328
 2506SOL    HW218981   4.706   0.880   2.597 -1.9517 -1.0344 -1.9210
 2507SOL     OW18982   3.635   0.320  16.801 -0.4590 -0.4962  0.0999
 2507SOL    HW118983   3.596   0.291  16.883  1.3974  0.2353  1.2474
 2507SOL    HW218984   3.609   0.250  16.742 -1.9347  1.0220 -1.0668
 2508SOL     OW18985   2.051   0.738  13.410 -0.3112 -0.1051 -0.3692
 2508SOL    HW118986   2.009   0.717  13.327  1.4170  0.1666 -1.3201
 2508SOL    HW218987   2.107   0.809  13.379  0.8710 -0.4400  0.9670
 2509SOL     OW18988   3.742   1.962   2.925 -0.0130  0.3013 -0.0776
 2509SOL    HW118989   3.783   1.925   2.847 -2.5521 -3.5315  0.4060
 2509SOL    HW218990   3.805   1.938   2.992 -0.5924 -1.5740 -0.1973
 2510SOL     OW18991   1.732   3.002   6.683  0.0407  0.2546 -0.1377
 2510SOL    HW118992   1.723   2.962   6.770 -0.3578  2.6873  0.9498
 2510SOL    HW218993   1.822   2.977   6.660 -0.1449 -2.1346  1.6782
 2511SOL     OW18994   2.092   2.994   1.200  0.6215  0.3162 -0.0978
 2511SOL    HW118995   2.097   2.902   1.222  0.8355  0.3823  0.1244
 2511SOL    HW218996   2.111   3.014   1.108 -1.9835  1.1684 -0.4412
 2512SOL     OW18997   1.688   0.367   3.909 -0.1586  0.2628 -0.0438
 2512SOL    HW118998   1.688   0.291   3.967 -1.5272  0.0519 -0.3423
 2512SOL    HW218999   1.769   0.349   3.861 -1.5440 -0.0679 -2.2561
 2513SOL     OW19000   4.370   2.752   8.768  0.1164  0.3396 -0.1973
 2513SOL    HW119001   4.342   2.736   8.858 -2.6963  1.3050 -0.8858
 2513SOL    HW219002   4.283   2.777   8.735  0.5964  0.2233 -1.5644
 2514SOL     OW19003   0.394   4.702   4.580 -0.2465  0.7044 -0.4717
 2514SOL    HW119004   0.321   4.683   4.638  0.8572 -1.1411  0.3216
 2514SOL    HW219005   0.355   4.664   4.502 -0.6687  0.7413 -0.2772
 2515SOL     OW19006   1.782   1.440   4.444  0.3458 -0.2101  0.0809
 2515SOL    HW119007   1.852   1.486   4.397 -0.5882  1.5065  0.3405
 2515SOL    HW219008   1.836   1.387   4.502  0.2519 -0.4019 -0.0064
 2516SOL     OW19009   4.640   0.725  17.665  0.2132  0.5050 -0.1019
 2516SOL    HW119010   4.673   0.809  17.634 -1.1076  1.0936  0.0782
 2516SOL    HW219011   4.630   0.740   0.054 -0.7894  0.4451 -0.2001
 2517SOL     OW19012   3.760   2.759   9.960 -0.7032 -0.3979  0.4091
 2517SOL    HW119013   3.771   2.757   9.864 -2.2011  1.5053  0.2072
 2517SOL    HW219014   3.760   2.665   9.982  0.4904 -0.3362  0.6782
 2518SOL     OW19015   2.745   1.258   6.907  0.0017  0.4643 -0.3741
 2518SOL    HW119016   2.780   1.310   6.834  1.8009 -0.7054 -0.3443
 2518SOL    HW219017   2.735   1.326   6.974  0.7825  1.3076 -1.1194
 2519SOL     OW19018   2.179   3.419  12.413 -0.0896 -0.0934  0.3863
 2519SOL    HW119019   2.208   3.506  12.389  2.6051 -0.6255  1.7318
 2519SOL    HW219020   2.185   3.440  12.506  0.0134  0.8542  0.1647
 2520SOL     OW19021   0.143   4.716  17.498 -0.1208 -0.1111  0.2719
 2520SOL    HW119022   0.212   4.652  17.483  0.7201  0.4690  1.7209
 2520SOL    HW219023   0.172   0.026  17.581  1.9117 -1.8239  0.2930
 2521SOL     OW19024   0.363   1.729  13.602  0.2761 -0.1717 -0.3774
 2521SOL    HW119025   0.406   1.800  13.650  1.4530 -1.2514  0.1589
 2521SOL    HW219026   0.390   1.751  13.512  0.0514  0.7895 -0.2155
 2522SOL     OW19027   4.291   2.773   3.534 -0.5875 -0.0020  0.3439
 2522SOL    HW119028   4.199   2.794   3.547 -0.9694  0.3207 -2.7669
 2522SOL    HW219029   4.307   2.722   3.613  0.1902 -0.6954 -0.2618
 2523SOL     OW19030   0.282   1.279  12.373 -0.6666  0.2967 -0.3833
 2523SOL    HW119031   0.320   1.273  12.286  1.4695 -0.9372  0.6489
 2523SOL    HW219032   0.333   1.211  12.417 -2.7538 -0.6650  0.5938
 2524SOL     OW19033   1.985   2.671  11.394 -0.3632  0.2828  0.0361
 2524SOL    HW119034   2.070   2.636  11.420 -1.2245 -3.0740 -1.6843
 2524SOL    HW219035   1.998   2.764  11.414 -0.3152  0.3526 -0.3175
 2525SOL     OW19036   0.983   4.528   8.645 -0.3515 -0.0654 -0.2161
 2525SOL    HW119037   0.945   4.519   8.732  0.8475 -1.5924  0.1451
 2525SOL    HW219038   0.974   4.622   8.629  2.5933  0.4212  0.9840
 2526SOL     OW19039   1.287   3.255  10.415  0.0064  0.9336  0.7525
 2526SOL    HW119040   1.357   3.290  10.471  2.0282 -3.1165  0.8206
 2526SOL    HW219041   1.216   3.220  10.469  0.4343 -1.0143  0.0778
 2527SOL     OW19042   1.540   4.300   9.259 -0.2536  0.0336  0.2905
 2527SOL    HW119043   1.621   4.323   9.213 -0.7460  0.8661 -0.1741
 2527SOL    HW219044   1.472   4.288   9.192  2.5321 -0.9208 -2.3497
 2528SOL     OW19045   1.436   1.032  14.331 -0.4066  0.2242  0.4592
 2528SOL    HW119046   1.364   0.970  14.324  0.5790 -0.8993  0.3135
 2528SOL    HW219047   1.506   0.969  14.344 -1.5784 -0.7639  1.9329
 2529SOL     OW19048   0.518   1.927   5.342  0.4127 -0.6118 -0.0990
 2529SOL    HW119049   0.596   1.981   5.356  0.1086 -0.4003  0.7597
 2529SOL    HW219050   0.555   1.853   5.293 -0.3157 -1.5964  0.8325
 2530SOL     OW19051   2.683   4.712   6.210 -0.0493  0.1635 -0.0951
 2530SOL    HW119052   2.749   0.008   6.145  0.4528  1.2243  0.7640
 2530SOL    HW219053   2.711   4.626   6.244 -1.0075  0.6599  1.9739
 2531SOL     OW19054   3.638   1.954   5.739 -0.1065 -0.6028 -0.4687
 2531SOL    HW119055   3.661   1.869   5.702 -2.3949 -0.6630 -1.7585
 2531SOL    HW219056   3.702   1.953   5.810  1.1122  0.3186 -1.5490
 2532SOL     OW19057   2.874   2.209   5.144  0.0374  0.0793  0.3093
 2532SOL    HW119058   2.845   2.239   5.230  0.6269  2.6994 -0.3933
 2532SOL    HW219059   2.881   2.114   5.152 -1.4087 -0.4381 -4.2024
 2533SOL     OW19060   2.499   1.166   4.175 -0.3275 -0.7764  0.0001
 2533SOL    HW119061   2.572   1.199   4.124 -1.8800 -0.3567 -1.9720
 2533SOL    HW219062   2.499   1.233   4.244 -2.2281  0.4030 -1.1514
 2534SOL     OW19063   2.885   4.427  14.304 -0.7300  0.3540  0.1750
 2534SOL    HW119064   2.967   4.378  14.296 -2.0479 -1.6552 -0.9166
 2534SOL    HW219065   2.843   4.377  14.234  0.9261  2.1963 -2.1328
 2535SOL     OW19066   0.919   1.683  14.639 -0.0141  0.2689 -0.8569
 2535SOL    HW119067   1.003   1.727  14.629 -0.6170  1.5944 -0.0498
 2535SOL    HW219068   0.913   1.665  14.733 -1.7639 -2.7345 -1.5407
 2536SOL     OW19069   0.184   4.294   6.426 -0.8525 -0.0589  0.0254
 2536SOL    HW119070   0.232   4.331   6.500 -0.2314  1.3700 -1.1019
 2536SOL    HW219071   0.238   4.312   6.349 -0.6869 -0.2854  0.0897
 2537SOL     OW19072   0.616   0.643  13.361  0.4617 -0.4526  0.2628
 2537SOL    HW119073   0.624   0.707  13.431 -1.6756  0.0746  0.0451
 2537SOL    HW219074   0.618   0.695  13.280  0.9361 -0.9304 -0.0308
 2538SOL     OW19075   2.683   0.525  17.096  0.2459  0.0066 -0.0391
 2538SOL    HW119076   2.656   0.572  17.017  0.1740  1.7101  0.9946
 2538SOL    HW219077   2.699   0.436  17.066  0.4685 -0.1208  0.4580
 2539SOL     OW19078   4.444   3.364   6.574  0.2683 -0.1996  0.2609
 2539SOL    HW119079   4.371   3.313   6.610  0.6617 -0.5732  0.5378
 2539SOL    HW219080   4.434   3.333   6.484  3.1211  1.7771 -0.7184
 2540SOL     OW19081   3.004   4.463   4.824  0.0889 -0.1788 -0.0093
 2540SOL    HW119082   2.991   4.397   4.756  0.1988 -0.5569  0.3281
 2540SOL    HW219083   3.055   4.414   4.889  0.8951  0.5033 -0.1245
 2541SOL     OW19084   4.476   0.091   4.511 -0.2771 -0.3089  0.1626
 2541SOL    HW119085   4.389   0.126   4.531  0.2558 -0.3277  2.5660
 2541SOL    HW219086   4.466   4.725   4.485 -1.7449  0.2663 -1.2758
 2542SOL     OW19087   4.258   4.228   2.381 -0.2007  0.0612  0.3915
 2542SOL    HW119088   4.348   4.231   2.414  0.1922 -1.2543 -0.5475
 2542SOL    HW219089   4.240   4.135   2.399  1.6549 -0.3638  0.0986
 2543SOL     OW19090   2.555   4.023   5.220 -0.1515 -0.1812  0.0126
 2543SOL    HW119091   2.541   4.111   5.184  0.2823 -0.2762 -0.3873
 2543SOL    HW219092   2.512   4.030   5.305 -4.6907 -0.7534 -2.2342
 2544SOL     OW19093   4.103   1.085  17.013  0.2666 -0.3778  0.6000
 2544SOL    HW119094   4.076   1.176  16.998 -0.3803 -0.8917 -1.3178
 2544SOL    HW219095   4.055   1.068  17.094  0.2614  0.3784  0.7539
 2545SOL     OW19096   0.392   2.483   8.824  0.4141  0.3034 -0.1469
 2545SOL    HW119097   0.388   2.390   8.800 -1.7217  0.8917 -2.0854
 2545SOL    HW219098   0.405   2.480   8.918 -2.5765  0.4829  0.2880
 2546SOL     OW19099   3.441   2.773  14.703  0.2350 -0.6856  0.3627
 2546SOL    HW119100   3.454   2.679  14.688 -0.5456 -0.4061 -1.9634
 2546SOL    HW219101   3.476   2.795  14.790  1.6680 -0.7608 -0.2045
 2547SOL     OW19102   0.715   3.801  11.373 -0.2646 -0.7667  0.2506
 2547SOL    HW119103   0.758   3.881  11.344 -0.4706 -0.6887  0.1556
 2547SOL    HW219104   0.641   3.840  11.420  0.6601 -0.4318  1.4169
 2548SOL     OW19105   2.522   4.281  16.909 -0.9783 -0.1050  0.6525
 2548SOL    HW119106   2.617   4.272  16.910 -0.7903  1.5469 -1.2825
 2548SOL    HW219107   2.514   4.222  16.834 -1.0583  1.8754 -0.8932
 2549SOL     OW19108   0.749   3.458   6.593  0.4925 -0.3717 -0.8737
 2549SOL    HW119109   0.707   3.536   6.630 -0.7398 -2.0552  1.2544
 2549SOL    HW219110   0.672   3.432   6.543 -0.0379  1.0515 -0.7953
 2550SOL     OW19111   0.222   3.934  10.834  0.3407  0.5022 -0.3624
 2550SOL    HW119112   0.270   3.854  10.859  1.1687  0.8264 -0.8973
 2550SOL    HW219113   0.138   3.895  10.810  1.0319 -0.6950 -0.8653
 2551SOL     OW19114   0.758   1.558   8.616  0.0114  0.0874  0.2712
 2551SOL    HW119115   0.760   1.537   8.710  3.1299  0.4630  0.2892
 2551SOL    HW219116   0.804   1.483   8.579 -1.0985 -0.4890  0.0625
 2552SOL     OW19117   4.606   4.049  12.344  0.2442  0.5360 -0.1734
 2552SOL    HW119118   4.615   4.064  12.438  0.7361 -0.7100 -0.0146
 2552SOL    HW219119   4.510   4.042  12.346  0.3498 -1.1740 -1.0214
 2553SOL     OW19120   1.895   3.783  14.392 -0.2463 -0.1979 -0.9086
 2553SOL    HW119121   1.811   3.775  14.345  0.4724  0.0483 -2.2287
 2553SOL    HW219122   1.941   3.709  14.351  0.7629 -0.3082  0.4417
 2554SOL     OW19123   0.687   3.717   8.898  0.1111 -1.1257 -0.1507
 2554SOL    HW119124   0.761   3.678   8.852  1.0180 -1.2425  1.4196
 2554SOL    HW219125   0.648   3.766   8.826  0.1049  1.5120  1.6277
 2555SOL     OW19126   0.749   0.553   1.118  0.2334 -0.7152  0.4150
 2555SOL    HW119127   0.725   0.473   1.165  1.6469 -0.8916  0.8492
 2555SOL    HW219128   0.845   0.550   1.111  0.1350 -0.1207 -1.3093
 2556SOL     OW19129   1.499   2.835   8.867 -0.3354 -0.3690 -0.1298
 2556SOL    HW119130   1.491   2.914   8.813 -0.0928 -0.0023  0.3752
 2556SOL    HW219131   1.418   2.838   8.917  0.2762 -0.0403  0.8334
 2557SOL     OW19132   1.133   2.313   8.082 -0.0942  0.1281 -0.0340
 2557SOL    HW119133   1.107   2.366   8.006  0.9407  0.9650  0.1815
 2557SOL    HW219134   1.116   2.228   8.043 -0.7714 -0.2704  1.1527
 2558SOL     OW19135   2.889   3.058  15.192 -0.5158  0.4372  0.2786
 2558SOL    HW119136   2.901   3.020  15.105  2.0192  0.2676  0.7103
 2558SOL    HW219137   2.982   3.056  15.212 -0.2017  2.1707 -1.0042
 2559SOL     OW19138   1.923   1.539   5.104 -0.0130 -0.2796  0.0512
 2559SOL    HW119139   1.960   1.570   5.022  1.4990 -0.6010  0.6272
 2559SOL    HW219140   1.834   1.521   5.071  0.7469 -1.1248 -1.5372
 2560SOL     OW19141   2.214   1.672   2.966 -0.1692 -0.0709 -0.2941
 2560SOL    HW119142   2.137   1.622   2.939  1.2125 -0.2025 -4.0062
 2560SOL    HW219143   2.277   1.601   2.979  1.3504  1.0610 -1.4850
 2561SOL     OW19144   0.138   1.315   2.811 -0.1697 -0.2000  0.7146
 2561SOL    HW119145   0.108   1.401   2.783 -0.7202 -1.0032 -1.1184
 2561SOL    HW219146   0.232   1.321   2.792  0.1610 -2.6856  1.5590
 2562SOL     OW19147   1.177   2.911   6.306 -0.9341 -0.2976  0.5035
 2562SOL    HW119148   1.186   2.986   6.248  0.3131  0.6167  1.8982
 2562SOL    HW219149   1.097   2.871   6.271  0.3537 -2.7863  0.4051
 2563SOL     OW19150   0.815   4.432   4.484  0.5553 -0.3637  0.3337
 2563SOL    HW119151   0.809   4.350   4.434 -2.5824 -0.5142  0.9959
 2563SOL    HW219152   0.728   4.447   4.521  0.2787  1.0280 -0.8942
 2564SOL     OW19153   2.482   4.708  16.147 -0.0459  0.0472 -0.9861
 2564SOL    HW119154   2.511   0.030  16.224 -1.7547 -1.5001  0.5888
 2564SOL    HW219155   2.477   0.049  16.078  0.2714  1.6163  0.4897
 2565SOL     OW19156   3.435   2.561   0.729 -1.0587 -0.1264 -0.0914
 2565SOL    HW119157   3.507   2.549   0.668 -0.4689 -2.4340  1.0739
 2565SOL    HW219158   3.421   2.656   0.741 -0.5666 -0.0209 -0.3720
 2566SOL     OW19159   4.272   3.118   1.170 -0.0691  0.3486  0.4565
 2566SOL    HW119160   4.208   3.137   1.239 -0.6664  1.4162 -0.3982
 2566SOL    HW219161   4.341   3.078   1.224  0.3707 -1.3739 -1.3863
 2567SOL     OW19162   4.038   2.958   0.331  0.2205  0.2107 -0.4575
 2567SOL    HW119163   4.022   2.914   0.415 -0.2899 -0.6795 -1.0219
 2567SOL    HW219164   3.951   2.945   0.293 -0.7293  0.7921  1.5358
 2568SOL     OW19165   3.533   4.261   6.128 -0.3055  0.6558  0.1398
 2568SOL    HW119166   3.570   4.233   6.211  0.8876 -1.0385 -0.9629
 2568SOL    HW219167   3.546   4.179   6.080 -0.9885  1.2385 -1.0544
 2569SOL     OW19168   3.773   0.153   7.627 -0.6016  0.5721  0.0877
 2569SOL    HW119169   3.865   0.178   7.632 -1.0632  1.9997  1.4174
 2569SOL    HW219170   3.786   0.059   7.638 -1.3500  0.5851  0.9966
 2570SOL     OW19171   3.448   1.588   5.757 -0.6603  1.1332  0.2195
 2570SOL    HW119172   3.384   1.615   5.692 -2.3410  2.2906  2.3560
 2570SOL    HW219173   3.400   1.519   5.803  2.5282 -0.6049  0.9502
 2571SOL     OW19174   0.999   2.509  11.571 -0.1250 -0.1843  0.8451
 2571SOL    HW119175   1.018   2.551  11.487  2.1444 -1.8717  0.5184
 2571SOL    HW219176   1.021   2.578  11.634  0.3084 -0.0079  0.5014
 2572SOL     OW19177   0.459   3.305   7.300  0.5184  0.4399 -0.3387
 2572SOL    HW119178   0.530   3.356   7.338 -1.0755  1.5268  1.2346
 2572SOL    HW219179   0.463   3.222   7.348 -1.8759  0.1158 -0.6935
 2573SOL     OW19180   3.888   0.918   2.868 -0.4541 -0.0780 -0.0797
 2573SOL    HW119181   3.904   0.981   2.939  0.8898  0.9824 -1.3201
 2573SOL    HW219182   3.975   0.879   2.856 -0.7278 -1.0130  0.9523
 2574SOL     OW19183   0.790   3.041   5.109  0.0340  0.7468 -0.4351
 2574SOL    HW119184   0.703   3.081   5.108 -0.6417 -0.5749  3.6599
 2574SOL    HW219185   0.781   2.946   5.113 -0.8187  1.0187  4.1507
 2575SOL     OW19186   1.522   3.701   9.805 -0.3641 -0.6620 -0.4059
 2575SOL    HW119187   1.612   3.719   9.776 -0.3591  1.2849  0.7826
 2575SOL    HW219188   1.474   3.769   9.758  2.9092  1.0180 -1.3754
 2576SOL     OW19189   4.522   3.772  17.277  0.4434  0.2973 -0.4959
 2576SOL    HW119190   4.593   3.835  17.270  0.2135  0.3736 -2.2326
 2576SOL    HW219191   4.473   3.806  17.202  2.1139  0.4141 -1.5170
 2577SOL     OW19192   4.374   1.354  14.309  0.0874 -0.1595  0.0985
 2577SOL    HW119193   4.337   1.353  14.397 -2.5198 -0.5672 -0.9908
 2577SOL    HW219194   4.455   1.305  14.320 -0.5552 -1.5435 -1.2852
 2578SOL     OW19195   3.620   1.711  14.677 -0.0123 -0.0539  0.1713
 2578SOL    HW119196   3.660   1.785  14.632  0.8027 -0.0919  0.8444
 2578SOL    HW219197   3.601   1.667  14.594 -0.8264  1.6399 -0.5326
 2579SOL     OW19198   0.959   1.570   5.795 -0.2534 -0.5315 -0.0070
 2579SOL    HW119199   1.052   1.582   5.814 -0.3222 -0.4960  0.3064
 2579SOL    HW219200   0.935   1.663   5.785  2.5087  0.0539 -1.2915
 2580SOL     OW19201   2.570   2.607   5.518 -0.1610  0.6583 -0.1847
 2580SOL    HW119202   2.656   2.598   5.478 -0.5432  0.6040 -0.9832
 2580SOL    HW219203   2.596   2.605   5.611  0.8263 -0.1097 -0.4800
 2581SOL     OW19204   0.266   4.030  13.173  0.0549 -0.6240 -0.0078
 2581SOL    HW119205   0.198   4.043  13.107 -1.1620 -2.9848  0.7460
 2581SOL    HW219206   0.289   4.112  13.216 -0.8451 -0.9659  1.1353
 2582SOL     OW19207   0.439   0.896   0.308 -0.6152  0.0978  0.2987
 2582SOL    HW119208   0.358   0.899   0.256 -0.7026  2.6896  0.5609
 2582SOL    HW219209   0.421   0.819   0.362  1.8158 -0.6875 -0.0280
 2583SOL     OW19210   0.420   2.182   2.871 -0.4151  0.1092  0.5173
 2583SOL    HW119211   0.417   2.261   2.925  2.0288  0.7649 -0.2897
 2583SOL    HW219212   0.345   2.189   2.812  0.0919 -1.8211 -0.3496
 2584SOL     OW19213   2.042   4.653   4.465 -0.0985 -0.0261  0.0191
 2584SOL    HW119214   1.996   4.703   4.398 -2.2374 -2.6579 -0.4759
 2584SOL    HW219215   2.117   4.711   4.479 -0.4714  0.6681 -0.8563
 2585SOL     OW19216   0.836   0.778   7.743  0.1417  0.1601  0.1880
 2585SOL    HW119217   0.789   0.775   7.660  0.5554  0.5184 -0.0594
 2585SOL    HW219218   0.761   0.767   7.802 -0.9318 -0.2299 -1.2455
 2586SOL     OW19219   1.258   3.359  15.424  0.2233 -0.0363  0.5163
 2586SOL    HW119220   1.186   3.397  15.474  0.5799  1.0516  0.2136
 2586SOL    HW219221   1.244   3.265  15.436 -0.4399 -0.1062 -0.7164
 2587SOL     OW19222   2.483   1.737  10.956 -0.4357  0.0013 -0.3155
 2587SOL    HW119223   2.422   1.786  11.011  0.2007 -0.2892  0.6553
 2587SOL    HW219224   2.456   1.757  10.867 -1.9207 -0.0570  0.1260
 2588SOL     OW19225   3.002   0.408  12.350  0.0734  0.3681  0.3070
 2588SOL    HW119226   2.987   0.317  12.323 -1.4522 -0.0672  2.5681
 2588SOL    HW219227   2.911   0.439  12.355  0.2915  0.9976  0.3808
 2589SOL     OW19228   3.422   4.279   5.351 -0.3333  0.3717 -0.0537
 2589SOL    HW119229   3.461   4.359   5.314 -0.0361  1.3505  2.3474
 2589SOL    HW219230   3.500   4.245   5.396 -0.6528  0.1128  0.3036
 2590SOL     OW19231   0.802   2.302  11.602  0.4756  1.4665 -0.2930
 2590SOL    HW119232   0.850   2.231  11.646 -0.8243  0.6466 -0.1860
 2590SOL    HW219233   0.867   2.371  11.589 -2.0019  3.8440  0.0355
 2591SOL     OW19234   4.471   3.904   9.021 -0.6699 -0.1170  0.5102
 2591SOL    HW119235   4.514   3.820   9.003 -1.4760  0.0213 -2.1627
 2591SOL    HW219236   4.490   3.924   9.112 -0.0104  0.5524  0.2352
 2592SOL     OW19237   2.647   0.460   0.610 -0.1544  0.3574 -0.0265
 2592SOL    HW119238   2.558   0.427   0.625  0.5566 -0.9555  1.3071
 2592SOL    HW219239   2.693   0.417   0.682 -1.5157 -1.5314 -0.2915
 2593SOL     OW19240   4.451   0.958   1.217 -1.0068 -0.2719 -0.7661
 2593SOL    HW119241   4.497   1.001   1.144 -0.6234 -0.0639 -0.4061
 2593SOL    HW219242   4.373   0.910   1.191 -1.6467 -0.9708  2.5635
 2594SOL     OW19243   0.376   1.923   8.765  0.5827  0.1867  0.0900
 2594SOL    HW119244   0.293   1.892   8.730  0.2070  0.0852  1.0634
 2594SOL    HW219245   0.441   1.856   8.747  0.5795 -0.4222  2.3542
 2595SOL     OW19246   3.228   2.498   0.544  0.0632  0.4717 -0.0567
 2595SOL    HW119247   3.306   2.505   0.598 -0.6311 -0.2354  1.0423
 2595SOL    HW219248   3.175   2.560   0.594 -4.7470 -0.0672 -4.5279
 2596SOL     OW19249   3.822   3.332   5.692 -0.7536  0.3390 -0.2842
 2596SOL    HW119250   3.766   3.256   5.681  1.7130 -1.5956  0.4586
 2596SOL    HW219251   3.892   3.317   5.629 -1.2383 -0.6649 -0.5762
 2597SOL     OW19252   4.377   3.030   1.425  0.3204  0.1981 -0.1863
 2597SOL    HW119253   4.445   2.997   1.367  1.5016  0.8639  0.8324
 2597SOL    HW219254   4.406   2.996   1.509 -0.6040  0.8327  0.3899
 2598SOL     OW19255   1.030   4.425   2.258 -0.1603  0.2790 -0.1971
 2598SOL    HW119256   0.976   4.484   2.310 -1.3890 -0.9755 -0.0377
 2598SOL    HW219257   1.042   4.471   2.175 -0.8415  1.7773  0.5514
 2599SOL     OW19258   1.186   3.936   8.748  0.5709 -0.1981  0.0351
 2599SOL    HW119259   1.135   3.861   8.778  2.1534 -0.9416  0.8551
 2599SOL    HW219260   1.243   3.955   8.822  1.6737 -2.0300 -0.3453
 2600SOL     OW19261   0.164   1.746  17.152  0.5446 -0.2380  0.0375
 2600SOL    HW119262   0.162   1.767  17.059  0.3448 -0.9317 -0.1157
 2600SOL    HW219263   0.246   1.698  17.164  1.0111  0.3038 -1.0321
 2601SOL     OW19264   2.846   0.483   8.091 -0.2562  0.3964 -0.1007
 2601SOL    HW119265   2.753   0.484   8.114 -0.2219 -3.9071  0.2682
 2601SOL    HW219266   2.846   0.403   8.040  1.8948 -0.1209  0.7012
 2602SOL     OW19267   4.368   4.121   2.722  0.2304  0.1900 -0.3700
 2602SOL    HW119268   4.404   4.118   2.633  0.4935 -1.2268 -0.2138
 2602SOL    HW219269   4.303   4.191   2.720  1.1158  1.0323  0.4571
 2603SOL     OW19270   3.241   4.556   8.495  0.0539 -0.5044  0.0431
 2603SOL    HW119271   3.237   4.507   8.576  3.0707 -2.1858 -0.8327
 2603SOL    HW219272   3.319   4.514   8.459  0.3545 -0.4533  0.6295
 2604SOL     OW19273   1.879   2.543  11.172 -0.2525 -0.4126  0.3791
 2604SOL    HW119274   1.815   2.482  11.209  0.0422 -1.3083 -0.5830
 2604SOL    HW219275   1.910   2.582  11.254  2.2123 -1.0353 -0.2491
 2605SOL     OW19276   2.843   3.310   4.283  0.3984 -0.5506 -0.2892
 2605SOL    HW119277   2.777   3.240   4.279 -2.1721  1.9427 -1.1273
 2605SOL    HW219278   2.888   3.290   4.365 -2.5648 -1.1100  1.2058
 2606SOL     OW19279   1.999   2.866   7.450  0.2859 -0.6856 -0.2991
 2606SOL    HW119280   1.910   2.830   7.444  0.7900 -2.0060  0.2835
 2606SOL    HW219281   2.003   2.890   7.543 -2.7116  0.1119 -0.3656
 2607SOL     OW19282   1.553   3.509   6.062  0.1178  0.7338  0.1735
 2607SOL    HW119283   1.543   3.500   6.156 -1.6879  0.2715 -0.0637
 2607SOL    HW219284   1.493   3.579   6.037 -0.2254  0.1031 -0.8049
 2608SOL     OW19285   2.774   2.098  15.590 -0.0811  0.2284 -0.3768
 2608SOL    HW119286   2.751   2.151  15.513  1.0397  1.9109  0.4610
 2608SOL    HW219287   2.861   2.070  15.562  0.0435  1.5884 -1.3594
 2609SOL     OW19288   4.522   2.705   1.461 -0.3786 -0.6190  0.4724
 2609SOL    HW119289   4.615   2.686   1.449  0.0338  1.5999  0.1520
 2609SOL    HW219290   4.515   2.767   1.534 -1.4236 -1.3192  0.9701
 2610SOL     OW19291   2.890   2.324   8.234  0.4994 -0.2647 -0.5274
 2610SOL    HW119292   2.952   2.284   8.295  0.2724  0.3709  0.1216
 2610SOL    HW219293   2.819   2.260   8.242  0.1460  0.0663 -1.0132
 2611SOL     OW19294   2.033   3.794  12.001 -1.0770  0.9817  0.0092
 2611SOL    HW119295   1.984   3.863  11.956 -0.9289  0.0313 -1.6210
 2611SOL    HW219296   2.093   3.847  12.053 -0.0326 -0.1214 -0.0807
 2612SOL     OW19297   0.180   2.928   4.528 -0.4890  0.2108  0.3103
 2612SOL    HW119298   0.245   2.869   4.490 -4.2044 -3.0583 -1.0031
 2612SOL    HW219299   0.165   2.987   4.454  1.2195  0.0748 -0.1363
 2613SOL     OW19300   2.377   2.621  11.286  0.4370  0.3203  0.0736
 2613SOL    HW119301   2.299   2.615  11.342 -0.2505 -0.0717 -0.9218
 2613SOL    HW219302   2.387   2.527  11.271 -1.4284  0.0401  0.5348
 2614SOL     OW19303   1.366   0.186  13.687  0.0309 -0.0583 -0.1182
 2614SOL    HW119304   1.441   0.232  13.649  0.5492 -1.2560 -0.5375
 2614SOL    HW219305   1.396   0.095  13.690  0.4060  0.0106 -1.4534
 2615SOL     OW19306   0.552   4.525   7.635  0.1629  0.1023  0.0572
 2615SOL    HW119307   0.484   4.544   7.700  0.2037  0.7691 -0.0982
 2615SOL    HW219308   0.488   4.465   7.598  0.1441 -0.7122  1.4210
 2616SOL     OW19309   0.220   3.224   6.156 -0.6191 -0.0185  0.5139
 2616SOL    HW119310   0.186   3.311   6.179  1.9890  1.2493 -0.3057
 2616SOL    HW219311   0.281   3.202   6.226 -0.3666  0.5431  0.4716
 2617SOL     OW19312   4.358   1.804   4.144  0.5483 -0.7472  1.0573
 2617SOL    HW119313   4.319   1.722   4.117 -0.0594  0.5311 -1.8839
 2617SOL    HW219314   4.320   1.814   4.232  2.8261  2.2981  1.7149
 2618SOL     OW19315   0.891   1.355   1.347  0.0731 -0.3920 -0.6586
 2618SOL    HW119316   0.981   1.348   1.315  0.3304  0.0544 -0.0467
 2618SOL    HW219317   0.885   1.445   1.381  2.4402 -0.4706 -0.0288
 2619SOL     OW19318   3.280   1.363   8.007 -0.5688  0.7592  0.4208
 2619SOL    HW119319   3.250   1.368   8.098  0.6095  0.4224  0.8340
 2619SOL    HW219320   3.200   1.393   7.964 -1.1293  0.0845  0.9880
 2620SOL     OW19321   0.395   3.986   2.323 -0.1299  0.1143 -0.1395
 2620SOL    HW119322   0.323   3.929   2.350 -1.6340  1.4352 -1.3364
 2620SOL    HW219323   0.382   3.969   2.230  0.5431 -2.2110  0.1848
 2621SOL     OW19324   4.413   2.358   6.953  0.3315 -0.1447  0.0062
 2621SOL    HW119325   4.468   2.362   7.031 -1.2609 -0.3555  1.1302
 2621SOL    HW219326   4.345   2.423   6.969  0.7123  0.0384  0.8813
 2622SOL     OW19327   4.118   4.340   3.560  0.8208 -0.1147  0.6549
 2622SOL    HW119328   4.180   4.281   3.517 -1.9967 -0.4196 -3.0418
 2622SOL    HW219329   4.039   4.296   3.530  1.4305 -0.3708 -0.5717
 2623SOL     OW19330   2.962   3.520   9.074  0.1679 -0.1985 -0.1023
 2623SOL    HW119331   2.975   3.492   8.983  1.1061 -0.3077  0.0638
 2623SOL    HW219332   2.889   3.467   9.105  0.2102 -0.0857  0.1957
 2624SOL     OW19333   3.817   1.966   2.420  0.6425 -0.4289 -0.0872
 2624SOL    HW119334   3.784   2.056   2.429  0.6240 -0.5265  0.8558
 2624SOL    HW219335   3.901   1.978   2.375  0.7650 -0.0113  0.2471
 2625SOL     OW19336   3.900   1.949   5.931  0.0323 -0.1267 -0.1024
 2625SOL    HW119337   3.960   1.933   5.858  1.1578  0.2555  0.7306
 2625SOL    HW219338   3.872   1.861   5.955  0.8905 -0.3790 -0.0084
 2626SOL     OW19339   4.018   2.565   8.040 -0.2000 -0.1843  0.2107
 2626SOL    HW119340   4.038   2.474   8.019 -0.7136  0.1914 -1.8744
 2626SOL    HW219341   4.096   2.605   8.002 -0.9946  0.6508 -0.5601
 2627SOL     OW19342   2.843   3.113   8.333  0.1281  0.0479 -0.4600
 2627SOL    HW119343   2.875   3.084   8.248 -0.8975  1.3358 -1.2776
 2627SOL    HW219344   2.750   3.093   8.337 -0.1668  1.5007 -0.1830
 2628SOL     OW19345   1.868   0.363   9.579 -0.2314  0.2248  0.2677
 2628SOL    HW119346   1.850   0.436   9.640  3.3730  1.8954 -0.6434
 2628SOL    HW219347   1.948   0.388   9.534  0.8945 -0.1111  2.0569
 2629SOL     OW19348   4.425   2.291   9.905  0.2175 -0.4005 -0.1924
 2629SOL    HW119349   4.370   2.333   9.838 -1.5617 -0.6760  1.0964
 2629SOL    HW219350   4.515   2.301   9.875 -0.0354  0.3394 -0.7172
 2630SOL     OW19351   3.320   4.046  14.845 -0.3023 -0.1664 -0.1835
 2630SOL    HW119352   3.393   4.105  14.826  0.5411 -0.7343  1.2968
 2630SOL    HW219353   3.305   4.080  14.933  1.5719 -0.2079  0.1532
 2631SOL     OW19354   2.888   1.248  15.051 -0.6047  0.2186  0.2301
 2631SOL    HW119355   2.925   1.307  14.985  0.9831 -0.4634  0.5004
 2631SOL    HW219356   2.948   1.176  15.030  1.3428  1.1395  2.5344
 2632SOL     OW19357   1.394   1.619   8.188  0.7051 -0.2922  0.0971
 2632SOL    HW119358   1.382   1.673   8.266  0.2497 -2.9721  1.8920
 2632SOL    HW219359   1.350   1.663   8.116 -0.8641 -1.0429  0.6143
 2633SOL     OW19360   0.493   3.430  17.600  0.1461 -0.6920 -0.2078
 2633SOL    HW119361   0.588   3.422  17.606  0.2535  0.1727 -0.8204
 2633SOL    HW219362   0.485   3.505  17.658 -1.7015 -0.0356 -1.3127
 2634SOL     OW19363   1.183   1.596  13.893  0.5312 -0.1690  0.3845
 2634SOL    HW119364   1.172   1.582  13.799 -2.5157 -0.5713  0.8077
 2634SOL    HW219365   1.251   1.535  13.922  1.0114  0.0721 -0.2285
 2635SOL     OW19366   3.796   2.093   7.667  0.4458 -0.0378  0.2572
 2635SOL    HW119367   3.876   2.136   7.635  0.6736  0.1387  1.0781
 2635SOL    HW219368   3.760   2.060   7.584  2.0395 -1.8107  0.2644
 2636SOL     OW19369   4.545   4.535  14.804  0.4891 -0.0166  0.4065
 2636SOL    HW119370   4.474   4.562  14.862 -0.3721 -0.7261 -0.3180
 2636SOL    HW219371   4.583   4.462  14.853  1.0315  1.1208  1.7008
 2637SOL     OW19372   3.141   1.181   2.682 -0.5338 -0.4491 -0.0436
 2637SOL    HW119373   3.167   1.210   2.595 -0.0752 -0.4026  0.1062
 2637SOL    HW219374   3.144   1.261   2.734  2.4988 -0.9773  0.5905
 2638SOL     OW19375   1.178   3.840   8.063  0.8032 -0.1424  0.4346
 2638SOL    HW119376   1.178   3.766   8.002 -2.3315 -0.8848  1.3775
 2638SOL    HW219377   1.207   3.913   8.009 -0.6237  0.9899  1.2062
 2639SOL     OW19378   2.575   4.643   9.794 -0.5425 -0.4926  0.1187
 2639SOL    HW119379   2.556   4.666   9.885 -1.6349  1.3049 -0.5623
 2639SOL    HW219380   2.606   4.553   9.787  0.8217  0.1897 -2.5769
 2640SOL     OW19381   3.455   3.341  13.766 -0.7891  0.0617  0.2605
 2640SOL    HW119382   3.362   3.322  13.780 -0.4851 -0.1219  1.9873
 2640SOL    HW219383   3.453   3.430  13.801  3.4476 -0.4829  1.8197
 2641SOL     OW19384   3.027   0.436   6.123  0.2873  0.2628  0.3829
 2641SOL    HW119385   3.099   0.494   6.148 -0.3744  1.5279 -0.5992
 2641SOL    HW219386   3.016   0.385   6.203 -0.4622 -2.6177 -1.5526
 2642SOL     OW19387   3.805   0.796   3.792  0.3719  0.4858 -0.3052
 2642SOL    HW119388   3.849   0.758   3.716  2.3803  0.2329  1.0031
 2642SOL    HW219389   3.833   0.735   3.860 -0.4296  0.9695  0.4620
 2643SOL     OW19390   3.980   0.554  13.307 -0.4438 -0.2386 -0.1142
 2643SOL    HW119391   4.062   0.505  13.306 -0.6681 -0.5990 -1.7439
 2643SOL    HW219392   3.932   0.513  13.235 -0.4027 -1.7745  0.7293
 2644SOL     OW19393   3.343   3.137  17.552  0.0176  0.6742  0.0702
 2644SOL    HW119394   3.297   3.202  17.604  2.3892  1.8056  0.7541
 2644SOL    HW219395   3.270   3.077  17.533  0.4766  0.1253  0.0311
 2645SOL     OW19396   3.724   3.684   8.428 -0.4871  0.2772  0.1234
 2645SOL    HW119397   3.700   3.653   8.341  0.5035  1.1135 -0.4408
 2645SOL    HW219398   3.696   3.608   8.480  1.2408 -0.3238  0.1801
 2646SOL     OW19399   0.367   1.550   8.440  0.0981 -0.2485 -0.0318
 2646SOL    HW119400   0.438   1.499   8.401  0.8363  1.7307 -1.2868
 2646SOL    HW219401   0.409   1.593   8.515  3.4477 -3.1439 -0.2272
 2647SOL     OW19402   3.767   1.515  12.630  0.1121  0.6377  0.1753
 2647SOL    HW119403   3.845   1.531  12.683  0.8031 -0.3374 -0.5716
 2647SOL    HW219404   3.703   1.533  12.700  1.0809 -0.9926  1.4687
 2648SOL     OW19405   4.680   3.747  16.984  0.1737  0.1690  0.2558
 2648SOL    HW119406   4.605   3.688  16.976  0.5189 -0.2165 -0.1921
 2648SOL    HW219407   4.634   3.829  16.969 -1.6768 -0.7958  0.6117
 2649SOL     OW19408   1.294   4.489   6.654  0.3626 -0.0601  0.3286
 2649SOL    HW119409   1.321   4.409   6.699 -2.0898 -0.2942  1.3907
 2649SOL    HW219410   1.379   4.529   6.637 -0.6650  2.3500  0.9017
 2650SOL     OW19411   3.904   0.406  13.968  0.0384 -0.5361 -0.2072
 2650SOL    HW119412   3.931   0.334  14.026 -1.3684 -2.2266 -1.6667
 2650SOL    HW219413   3.985   0.405  13.918 -0.5616 -1.9491 -1.1547
 2651SOL     OW19414   2.103   1.356  10.371  0.2486  0.1147  0.2310
 2651SOL    HW119415   2.065   1.349  10.283  2.9700  1.5038 -1.0572
 2651SOL    HW219416   2.030   1.329  10.426  0.2958  0.7375  0.5960
 2652SOL     OW19417   0.044   1.682   6.018 -0.3711 -0.1617  0.6023
 2652SOL    HW119418   0.121   1.724   6.057  0.8187 -1.6381 -0.1655
 2652SOL    HW219419   0.079   1.595   6.001 -0.9047 -0.0797 -0.9738
 2653SOL     OW19420   1.917   4.242   8.081 -0.0648  0.4641 -0.1641
 2653SOL    HW119421   1.910   4.330   8.116 -0.5852 -0.0114  0.9232
 2653SOL    HW219422   1.885   4.192   8.156  0.3915  2.1763  1.1668
 2654SOL     OW19423   4.212   1.671   3.431  0.2172 -0.2834 -0.3681
 2654SOL    HW119424   4.219   1.614   3.355  1.7008  0.7007 -0.9594
 2654SOL    HW219425   4.286   1.632   3.477  0.1708  0.8523  0.6966
 2655SOL     OW19426   2.505   2.824   6.892 -0.1379  1.1622 -0.2708
 2655SOL    HW119427   2.438   2.789   6.951 -0.8501  0.4011 -1.5236
 2655SOL    HW219428   2.558   2.876   6.952  1.2379  0.4237 -0.8348
 2656SOL     OW19429   0.895   2.102  11.386  0.4204  0.3935  0.1825
 2656SOL    HW119430   0.834   2.172  11.363  0.4774 -0.0021 -1.1988
 2656SOL    HW219431   0.875   2.042  11.314 -0.4914 -1.0312  1.6184
 2657SOL     OW19432   3.031   0.262   3.560 -0.2001 -0.1795  0.0411
 2657SOL    HW119433   3.099   0.324   3.587  0.4584 -0.5386 -0.8412
 2657SOL    HW219434   3.065   0.235   3.475 -1.2724 -0.0616 -0.4239
 2658SOL     OW19435   1.943   2.290   5.878 -0.0917 -0.1144  0.4078
 2658SOL    HW119436   2.024   2.245   5.856  0.1879  1.0810 -1.0006
 2658SOL    HW219437   1.972   2.374   5.844  0.3688 -0.2087  0.5749
 2659SOL     OW19438   2.919   2.321  12.671  0.1288 -0.3190 -0.9116
 2659SOL    HW119439   2.907   2.412  12.698 -0.0076 -0.3094 -1.0094
 2659SOL    HW219440   3.010   2.317  12.701  0.7747 -1.7710 -3.0720
 2660SOL     OW19441   2.713   2.989   6.041  0.7816  0.1685  0.1223
 2660SOL    HW119442   2.673   3.043   6.110 -0.3655  1.7311 -1.7772
 2660SOL    HW219443   2.777   2.936   6.089 -0.5314 -1.1737  0.3889
 2661SOL     OW19444   1.911   2.012   1.884 -0.2727  0.5429 -0.2926
 2661SOL    HW119445   1.845   2.081   1.877 -0.3970  0.6662  2.0760
 2661SOL    HW219446   1.883   1.946   1.820  0.8741 -1.2734  1.0663
 2662SOL     OW19447   0.177   3.243   8.232  0.4552  0.1391 -0.4781
 2662SOL    HW119448   0.205   3.321   8.280 -0.6116 -0.6502  1.4292
 2662SOL    HW219449   0.198   3.179   8.299  0.9794  3.0357  2.1133
 2663SOL     OW19450   2.626   2.513   0.169  0.2624  0.4039  0.7566
 2663SOL    HW119451   2.705   2.548   0.210  0.3424 -0.7934  1.6283
 2663SOL    HW219452   2.656   2.511   0.079 -0.9965  0.4510  0.3360
 2664SOL     OW19453   4.334   3.057   4.403  0.0482 -0.0141 -0.3491
 2664SOL    HW119454   4.316   3.088   4.491  1.1049 -0.5134  0.0396
 2664SOL    HW219455   4.256   3.003   4.389 -1.4492  1.5641  1.8590
 2665SOL     OW19456   1.607   1.577  10.618  0.1987 -0.8044 -0.3424
 2665SOL    HW119457   1.534   1.633  10.645  0.8965 -0.0970  0.1193
 2665SOL    HW219458   1.589   1.494  10.661  1.6530 -0.5072  0.8635
 2666SOL     OW19459   3.979   4.562   1.993  0.0507 -0.0630 -0.7068
 2666SOL    HW119460   4.000   4.599   1.907  1.2234 -0.4548 -0.5892
 2666SOL    HW219461   4.009   4.471   1.989 -0.4828 -0.3334  1.6027
 2667SOL     OW19462   2.247   1.755   6.996 -0.3091  0.4070 -0.3263
 2667SOL    HW119463   2.172   1.800   7.036 -0.3031 -0.5063  0.7489
 2667SOL    HW219464   2.255   1.670   7.041 -1.6052  1.8013  2.5597
 2668SOL     OW19465   4.549   4.155   8.301  0.1703  0.1040  0.2819
 2668SOL    HW119466   4.644   4.150   8.314  0.2774 -0.6101 -0.7828
 2668SOL    HW219467   4.534   4.136   8.209  2.2379  0.4085 -0.1254
 2669SOL     OW19468   0.549   1.469  11.965 -0.4311  0.7890  0.2535
 2669SOL    HW119469   0.605   1.394  11.946 -0.3679  1.0778 -0.6734
 2669SOL    HW219470   0.607   1.511  12.029 -1.5799  2.6883  0.0685
 2670SOL     OW19471   3.800   2.829   2.351  0.1626 -0.1974  0.4024
 2670SOL    HW119472   3.882   2.863   2.316 -0.2853 -0.0834 -0.5479
 2670SOL    HW219473   3.788   2.895   2.419 -2.2891  0.1078 -0.3065
 2671SOL     OW19474   3.185   3.729  17.639 -0.0562 -0.0981 -0.4194
 2671SOL    HW119475   3.120   3.660  17.654  0.2042 -0.1437  0.5175
 2671SOL    HW219476   3.248   3.677  17.589 -1.6087 -3.8527  1.4683
 2672SOL     OW19477   3.647   4.520  15.949  0.5403 -0.2582 -0.0155
 2672SOL    HW119478   3.717   4.454  15.953  1.0896  0.4025  1.0568
 2672SOL    HW219479   3.679   4.563  15.869 -1.7958  1.4469 -0.0260
 2673SOL     OW19480   2.275   1.230  15.292 -0.1860 -0.1525 -1.0108
 2673SOL    HW119481   2.267   1.136  15.276  0.7167 -0.9054  2.8966
 2673SOL    HW219482   2.213   1.260  15.226  0.2050  1.4286 -0.6705
 2674SOL     OW19483   0.925   1.946   5.450  0.9224  0.3750  0.1822
 2674SOL    HW119484   0.923   1.854   5.423  0.9306  0.5676 -0.4739
 2674SOL    HW219485   0.858   2.000   5.409  2.9515  2.8764  0.1175
 2675SOL     OW19486   3.132   2.014   2.806  0.3129 -0.1400 -0.3950
 2675SOL    HW119487   3.122   2.056   2.892 -2.0944 -0.1552 -0.6834
 2675SOL    HW219488   3.166   2.079   2.745 -1.2391  2.4833  1.5314
 2676SOL     OW19489   2.614   2.046  15.840  0.3989 -0.0155 -0.0520
 2676SOL    HW119490   2.665   2.095  15.775  0.2069  0.5773  0.2559
 2676SOL    HW219491   2.641   1.955  15.825  1.0932 -0.0386  1.4064
 2677SOL     OW19492   1.494   4.668   0.814  0.1865  0.3149 -0.0670
 2677SOL    HW119493   1.434   4.637   0.881 -1.2214 -0.6232 -1.7509
 2677SOL    HW219494   1.468   0.029   0.785 -2.4970  0.3254  2.4704
 2678SOL     OW19495   3.794   1.770   9.964  0.4156 -0.5791  0.0110
 2678SOL    HW119496   3.815   1.695  10.020 -1.8990 -0.0140  1.6710
 2678SOL    HW219497   3.856   1.825  10.012  0.1545 -1.0579  0.9059
 2679SOL     OW19498   1.393   0.938   1.929  0.1239  0.0583  0.4837
 2679SOL    HW119499   1.444   0.931   1.848 -0.0989  0.5271  0.3024
 2679SOL    HW219500   1.461   0.965   1.992  0.0864 -0.7367  0.8550
 2680SOL     OW19501   1.406   0.298   3.274 -0.1137 -0.5059  0.1108
 2680SOL    HW119502   1.315   0.294   3.301 -1.1988  0.3336 -3.3704
 2680SOL    HW219503   1.441   0.378   3.313  1.8528  0.1344 -2.9276
 2681SOL     OW19504   0.059   1.851   0.459 -0.0518 -0.6547  0.0260
 2681SOL    HW119505   4.704   1.851   0.409  1.8221  0.3852 -3.0270
 2681SOL    HW219506   0.016   1.836   0.543 -2.3510 -1.3401 -1.2847
 2682SOL     OW19507   0.590   3.836  14.858 -0.0249  0.3171 -0.5740
 2682SOL    HW119508   0.615   3.925  14.834  0.1878  0.6580  0.9338
 2682SOL    HW219509   0.563   3.840  14.950 -0.8979  0.3754 -0.8263
 2683SOL     OW19510   2.428   4.270  11.408  1.1285 -0.3431  0.4240
 2683SOL    HW119511   2.390   4.192  11.449 -1.5441  1.2673  1.0283
 2683SOL    HW219512   2.350   4.325  11.417  2.2290  1.4106 -0.8496
 2684SOL     OW19513   0.171   1.522   1.076  0.5898 -1.0575  0.4391
 2684SOL    HW119514   0.264   1.506   1.090  0.6626 -0.0115  1.1211
 2684SOL    HW219515   0.150   1.497   0.986  0.2656  0.4708  0.0909
 2685SOL     OW19516   0.162   3.423   8.989  0.1900  0.4870 -0.3675
 2685SOL    HW119517   0.128   3.505   8.951 -0.1168 -0.4438 -2.1071
 2685SOL    HW219518   0.232   3.468   9.037  0.8678 -0.0585 -0.8396
 2686SOL     OW19519   0.210   1.669  13.200  0.0422  0.9275  0.3730
 2686SOL    HW119520   0.188   1.744  13.145 -1.3234  0.1338 -0.1612
 2686SOL    HW219521   0.255   1.614  13.136 -0.3145  0.2653  0.6820
 2687SOL     OW19522   2.752   3.062   5.782  0.6730 -0.2593 -0.5857
 2687SOL    HW119523   2.716   3.030   5.865 -2.0084 -0.4194 -1.8226
 2687SOL    HW219524   2.796   3.139   5.818 -0.0078  0.3922 -1.1743
 2688SOL     OW19525   0.881   4.290   8.006  0.4444  0.2284  0.2362
 2688SOL    HW119526   0.965   4.329   8.033  0.1774 -0.4782  2.1113
 2688SOL    HW219527   0.877   4.330   7.920 -1.8923 -0.4912  0.0208
 2689SOL     OW19528   4.000   1.075  14.083 -0.2446  0.0502 -0.1083
 2689SOL    HW119529   4.019   0.995  14.034  0.2942 -0.9655  1.7563
 2689SOL    HW219530   4.078   1.131  14.077 -0.7514  0.8412  0.7219
 2690SOL     OW19531   2.205   2.378  16.124  0.2417 -0.0929  0.1629
 2690SOL    HW119532   2.187   2.460  16.079 -1.1527 -0.3638  0.2251
 2690SOL    HW219533   2.160   2.403  16.205 -1.3989 -0.7566 -0.5512
 2691SOL     OW19534   4.001   3.178   7.274 -0.7826  0.2794  0.0583
 2691SOL    HW119535   4.058   3.137   7.339 -2.0061  0.0013  0.9439
 2691SOL    HW219536   3.920   3.131   7.290 -0.6165  0.0199  0.1296
 2692SOL     OW19537   3.789   0.135  13.368 -0.0673 -1.0536 -0.1409
 2692SOL    HW119538   3.868   0.101  13.410  0.0408 -0.0865  0.4574
 2692SOL    HW219539   3.734   0.141  13.446 -2.2132 -1.8428 -1.5864
 2693SOL     OW19540   4.402   2.415   0.029 -0.1767  0.0674  0.0866
 2693SOL    HW119541   4.493   2.392   0.008 -0.8245 -0.8657 -1.7206
 2693SOL    HW219542   4.385   2.494  17.683 -1.7013  0.2786  0.9234
 2694SOL     OW19543   3.255   1.176   5.666 -0.5694  0.2042 -0.1710
 2694SOL    HW119544   3.242   1.108   5.600  0.4893  1.4258 -1.6440
 2694SOL    HW219545   3.322   1.142   5.725  0.8531  0.1332 -1.8385
 2695SOL     OW19546   2.862   1.660  10.517 -0.0634 -0.1459  0.0897
 2695SOL    HW119547   2.876   1.707  10.435  0.1164  2.4070  1.5513
 2695SOL    HW219548   2.954   1.657  10.542  0.8653  0.7266 -3.2177
 2696SOL     OW19549   0.600   2.817   2.688  0.4879  0.2494  0.3322
 2696SOL    HW119550   0.581   2.907   2.716 -0.3963  0.9075 -2.3965
 2696SOL    HW219551   0.516   2.805   2.643  0.0112 -1.4125  1.6649
 2697SOL     OW19552   4.366   4.707   7.931  0.3421  0.3590  0.4155
 2697SOL    HW119553   4.340   4.615   7.918 -0.4967  0.5368  0.8940
 2697SOL    HW219554   4.449   4.691   7.975  1.0407  0.2292 -0.9560
 2698SOL     OW19555   4.039   0.493  16.361 -0.0671  0.3195  0.2465
 2698SOL    HW119556   4.095   0.416  16.355  0.7739  0.9474 -0.0662
 2698SOL    HW219557   4.075   0.544  16.435  0.9923 -0.4704  0.2832
 2699SOL     OW19558   2.548   4.138   0.143  0.1588  1.0503  0.0898
 2699SOL    HW119559   2.555   4.066   0.081  3.3371 -0.2371  1.9296
 2699SOL    HW219560   2.640   4.164   0.147 -0.3048  2.3489  2.2859
 2700SOL     OW19561   1.091   1.722   8.333  0.1361 -0.2434  0.5596
 2700SOL    HW119562   1.145   1.787   8.288  0.2419  0.1671  1.2838
 2700SOL    HW219563   1.079   1.773   8.413 -0.5048  1.1361 -0.4198
 2701SOL     OW19564   2.306   0.727   4.927  0.3015  0.1733 -0.4961
 2701SOL    HW119565   2.292   0.670   4.851  2.0476 -0.4293 -0.3601
 2701SOL    HW219566   2.214   0.745   4.947  0.4843 -1.6977  2.0102
 2702SOL     OW19567   0.277   1.213   0.154  0.1067  0.3346  0.0472
 2702SOL    HW119568   0.214   1.280   0.181 -0.6502 -0.2252 -0.3089
 2702SOL    HW219569   0.230   1.188   0.074 -0.4281  0.1611  0.4112
 2703SOL     OW19570   2.914   0.302   8.377 -0.2226  0.0797 -0.3436
 2703SOL    HW119571   2.989   0.246   8.394  0.2212  0.6103 -0.5496
 2703SOL    HW219572   2.954   0.364   8.316 -0.2550 -0.5684 -1.0260
 2704SOL     OW19573   2.675   4.234  11.365  0.0609  0.0793  0.0370
 2704SOL    HW119574   2.693   4.270  11.278  0.2597 -0.2013 -0.0388
 2704SOL    HW219575   2.590   4.276  11.377  0.7200  1.4517 -0.1435
 2705SOL     OW19576   2.424   2.244  15.865  0.1396  0.6255  0.2728
 2705SOL    HW119577   2.429   2.276  15.955 -0.2300 -0.9116  0.8258
 2705SOL    HW219578   2.493   2.179  15.866 -1.1084 -0.7314 -1.4450
 2706SOL     OW19579   1.929   0.911  10.217  0.0336 -0.1886  0.0283
 2706SOL    HW119580   1.981   0.950  10.287  0.4288  0.5319 -0.6675
 2706SOL    HW219581   1.839   0.921  10.248 -0.5890 -0.9136 -1.5514
 2707SOL     OW19582   3.323   1.211  16.943  0.6233  0.2145 -0.3597
 2707SOL    HW119583   3.275   1.292  16.927 -0.2320 -0.3381 -0.6280
 2707SOL    HW219584   3.299   1.176  16.857 -1.2662 -3.2211  1.5416
 2708SOL     OW19585   2.397   3.081   5.176  0.4997 -0.4088  0.1791
 2708SOL    HW119586   2.385   3.132   5.256 -0.0014 -1.8055  0.9924
 2708SOL    HW219587   2.492   3.090   5.169  0.5300 -2.2583 -2.0715
 2709SOL     OW19588   2.729   4.269   2.473 -0.3066  0.0109 -0.7707
 2709SOL    HW119589   2.819   4.246   2.499 -0.2600 -0.2968 -1.1983
 2709SOL    HW219590   2.715   4.226   2.389 -0.4384 -0.5738 -0.4528
 2710SOL     OW19591   1.645   3.940   0.595 -0.5328  0.2531 -0.6907
 2710SOL    HW119592   1.610   3.906   0.678  1.0964  1.7011  0.5924
 2710SOL    HW219593   1.649   4.032   0.620  0.5042 -0.4006  1.5575
 2711SOL     OW19594   0.564   1.011  17.155  0.6210  0.0752 -0.3205
 2711SOL    HW119595   0.600   1.089  17.198 -0.9042 -0.4195  1.8886
 2711SOL    HW219596   0.525   0.964  17.230  3.4796 -0.7085  0.6641
 2712SOL     OW19597   2.262   1.291   3.849  0.7020  0.5238  0.5824
 2712SOL    HW119598   2.358   1.289   3.853  0.7317  0.7667  0.0271
 2712SOL    HW219599   2.238   1.339   3.769  1.2046  3.0220  1.9359
 2713SOL     OW19600   0.461   3.946   9.318 -0.3230  0.8146 -0.2030
 2713SOL    HW119601   0.507   3.951   9.235  1.7163  0.2346  0.8974
 2713SOL    HW219602   0.520   3.998   9.373  0.4725 -2.5002  2.0698
 2714SOL     OW19603   1.956   2.203   8.246 -0.2528  0.3150 -0.0949
 2714SOL    HW119604   2.017   2.165   8.183 -1.0301 -0.6345 -0.2751
 2714SOL    HW219605   1.879   2.202   8.189  0.5170  0.8604 -1.1564
 2715SOL     OW19606   1.177   1.741  17.603  0.2329  0.1321  0.0313
 2715SOL    HW119607   1.143   1.831  17.604 -0.4507 -0.1265  0.0514
 2715SOL    HW219608   1.203   1.730  17.694 -0.0013  2.5154  0.3944
 2716SOL     OW19609   3.756   1.134  16.239  0.4575 -0.7057 -0.0572
 2716SOL    HW119610   3.821   1.201  16.260 -0.5396  0.3403 -0.3124
 2716SOL    HW219611   3.802   1.054  16.263  3.2602  0.4416 -1.6830
 2717SOL     OW19612   1.786   4.511   7.786  0.2224  0.0541  0.5598
 2717SOL    HW119613   1.757   4.497   7.876  0.3013  0.2818  0.6193
 2717SOL    HW219614   1.736   4.444   7.737 -0.1770  0.5820  0.2389
 2718SOL     OW19615   4.451   4.499   4.990  0.1091 -0.3582  0.3021
 2718SOL    HW119616   4.372   4.530   4.945  1.7637  0.1589 -2.2482
 2718SOL    HW219617   4.506   4.494   4.911  1.1069  1.9383  0.8554
 2719SOL     OW19618   4.660   1.688   7.375 -0.7758  0.7684  0.3359
 2719SOL    HW119619   4.574   1.659   7.346 -0.2933 -1.8383  1.4229
 2719SOL    HW219620   4.711   1.607   7.365  1.0512  2.0269 -0.6852
 2720SOL     OW19621   0.781   2.875   4.038 -0.1130 -0.1596 -0.3662
 2720SOL    HW119622   0.784   2.783   4.009  0.3515  0.2235 -1.5252
 2720SOL    HW219623   0.752   2.907   3.953 -0.3390 -0.6012 -0.4576
 2721SOL     OW19624   3.789   1.658  12.404  0.7312 -0.2936  0.1198
 2721SOL    HW119625   3.869   1.686  12.447  0.2869 -0.3665  0.9867
 2721SOL    HW219626   3.763   1.587  12.462  2.6468 -1.3451 -0.3149
 2722SOL     OW19627   1.141   3.587  10.719 -0.6404 -0.8729 -0.1288
 2722SOL    HW119628   1.057   3.552  10.689 -0.4341 -0.7480 -0.8480
 2722SOL    HW219629   1.116   3.653  10.783 -0.6757  0.1046 -1.1611
 2723SOL     OW19630   4.235   0.323  16.383  0.2033 -0.5372  0.0113
 2723SOL    HW119631   4.317   0.369  16.399  0.2206 -1.2791  2.0644
 2723SOL    HW219632   4.240   0.257  16.452 -4.0640 -1.1025 -0.2060
 2724SOL     OW19633   3.934   1.820   4.257  0.1554  0.0599  0.3563
 2724SOL    HW119634   3.872   1.880   4.299 -0.5621  0.7000 -1.6314
 2724SOL    HW219635   3.895   1.820   4.170 -0.8694 -1.2362  0.8108
 2725SOL     OW19636   3.568   0.447   5.524  0.5518  0.3466  0.1712
 2725SOL    HW119637   3.581   0.392   5.447 -1.2630 -0.1114  0.1830
 2725SOL    HW219638   3.473   0.437   5.525  0.5912  0.1286  2.1284
 2726SOL     OW19639   3.881   4.060  13.117 -0.3438 -0.4122 -0.1344
 2726SOL    HW119640   3.940   4.121  13.161 -0.4498 -1.6044  1.6608
 2726SOL    HW219641   3.893   3.983  13.173 -0.4330 -0.4503 -0.1667
 2727SOL     OW19642   0.505   2.158   3.513  0.0795  0.3110 -0.0440
 2727SOL    HW119643   0.436   2.182   3.575 -1.8203 -1.1092 -1.5977
 2727SOL    HW219644   0.466   2.089   3.458 -0.1311  1.5821 -1.4777
 2728SOL     OW19645   2.237   1.504   2.175  0.1168 -0.9008 -0.1506
 2728SOL    HW119646   2.309   1.560   2.147  2.5086 -2.5987  2.5943
 2728SOL    HW219647   2.221   1.448   2.099 -0.6564 -2.0618  0.8734
 2729SOL     OW19648   0.670   1.512   9.314 -0.5099  0.0688 -0.2172
 2729SOL    HW119649   0.764   1.498   9.308 -0.1470  2.6320 -0.5139
 2729SOL    HW219650   0.644   1.531   9.224 -0.4424 -0.5285 -0.3594
 2730SOL     OW19651   4.181   1.149   8.803  0.1202  0.5544  0.9108
 2730SOL    HW119652   4.199   1.210   8.875  1.0918 -0.3430  1.4289
 2730SOL    HW219653   4.202   1.204   8.728 -0.2407  0.0487  0.4465
 2731SOL     OW19654   4.180   1.901   7.137  0.2046  0.3114 -0.0964
 2731SOL    HW119655   4.115   1.938   7.078 -2.1557 -0.9242  1.7451
 2731SOL    HW219656   4.118   1.835   7.168  2.8690 -1.7278  0.9552
 2732SOL     OW19657   4.411   4.562   3.691  0.2661 -0.0054  0.0918
 2732SOL    HW119658   4.403   4.468   3.702 -1.0933 -0.0409 -1.0723
 2732SOL    HW219659   4.411   4.580   3.597 -1.4326 -2.9173 -0.4635
 2733SOL     OW19660   2.009   4.592   8.453  0.3477  0.0234 -0.1338
 2733SOL    HW119661   2.095   4.553   8.440 -0.6672 -1.8370 -1.3811
 2733SOL    HW219662   2.005   4.607   8.548  0.2567  1.8264 -0.4236
 2734SOL     OW19663   0.283   0.454  13.687 -0.1150  0.3915 -0.3777
 2734SOL    HW119664   0.203   0.442  13.636 -0.1029  0.0961 -0.3292
 2734SOL    HW219665   0.287   0.549  13.694  1.7288  0.0789  2.6897
 2735SOL     OW19666   4.314   3.623   9.055  0.1397 -0.2168 -0.4013
 2735SOL    HW119667   4.382   3.658   8.998  0.0371  1.4664  0.5072
 2735SOL    HW219668   4.313   3.688   9.125 -0.2508  1.2118 -1.7532
 2736SOL     OW19669   4.104   3.157   0.521 -0.1788 -1.0416  0.5325
 2736SOL    HW119670   4.018   3.170   0.563 -0.2335  2.3913 -0.7190
 2736SOL    HW219671   4.087   3.111   0.439 -0.5559 -0.2670  0.1775
 2737SOL     OW19672   3.502   1.020  16.272 -0.0319 -0.1964  0.2610
 2737SOL    HW119673   3.588   1.061  16.268 -0.3665  0.3321 -1.4843
 2737SOL    HW219674   3.492   1.011  16.367  0.3460 -3.3382  0.0140
 2738SOL     OW19675   0.511   3.847   8.688  0.2120 -0.0690  0.2979
 2738SOL    HW119676   0.441   3.902   8.652 -0.2716 -0.5086  0.5711
 2738SOL    HW219677   0.585   3.906   8.676  0.1550 -0.2163 -0.7707
 2739SOL     OW19678   1.788   0.065   9.514 -0.3865  0.2951 -0.6135
 2739SOL    HW119679   1.726   0.133   9.489 -1.0311 -0.4940 -1.1602
 2739SOL    HW219680   1.863   0.121   9.533  0.4537 -0.9523 -0.2287
 2740SOL     OW19681   1.484   3.341   5.577  0.1569  0.4695 -0.6069
 2740SOL    HW119682   1.433   3.395   5.638 -2.3824 -1.0620 -1.3700
 2740SOL    HW219683   1.497   3.260   5.626  1.4711  1.1659  0.1969
 2741SOL     OW19684   1.452   2.787   6.306  0.2674 -0.2560  0.0865
 2741SOL    HW119685   1.541   2.802   6.336  0.3988  1.5771 -1.2163
 2741SOL    HW219686   1.405   2.868   6.326  2.1311  0.5903  0.9996
 2742SOL     OW19687   3.825   2.195   8.896 -0.2237 -0.0833  0.0168
 2742SOL    HW119688   3.908   2.147   8.887  0.9587  1.8112  0.8205
 2742SOL    HW219689   3.762   2.124   8.904 -0.1500 -0.1951 -0.3720
 2743SOL     OW19690   2.383   3.549   1.035 -0.3985 -0.5937  0.1408
 2743SOL    HW119691   2.327   3.477   1.063  2.3273 -2.7767 -0.0999
 2743SOL    HW219692   2.368   3.604   1.112 -1.1237 -0.2814 -0.2171
 2744SOL     OW19693   1.264   3.243  14.533  0.0218  0.2075 -0.3396
 2744SOL    HW119694   1.200   3.256  14.603  0.4761  0.0922  0.0946
 2744SOL    HW219695   1.343   3.264  14.582 -0.2089  0.2180  0.0269
 2745SOL     OW19696   2.130   1.461  11.834  0.0946 -0.1946 -0.1642
 2745SOL    HW119697   2.050   1.410  11.848  1.1043 -1.1476  2.2719
 2745SOL    HW219698   2.149   1.452  11.741 -0.7425 -2.8684 -0.0764
 2746SOL     OW19699   4.170   2.890   4.067  0.0900 -0.0568 -0.2962
 2746SOL    HW119700   4.111   2.936   4.126 -1.4933 -0.4765 -1.5582
 2746SOL    HW219701   4.257   2.909   4.104 -0.2387  2.5660 -0.8951
 2747SOL     OW19702   2.529   4.715   4.940 -0.1090  0.2357  0.1945
 2747SOL    HW119703   2.461   4.686   4.880  0.3834 -1.1741  0.3154
 2747SOL    HW219704   2.602   4.657   4.915  0.0927  0.8404 -0.6256
 2748SOL     OW19705   3.724   3.593   4.818 -0.4299  0.5816 -0.1383
 2748SOL    HW119706   3.795   3.587   4.755  0.2466 -0.6880  0.7483
 2748SOL    HW219707   3.650   3.580   4.757 -1.1704  0.8642  0.7000
 2749SOL     OW19708   4.503   1.301   4.922  0.0927 -0.0252  0.7306
 2749SOL    HW119709   4.542   1.342   4.845 -0.7054  3.4005  2.1502
 2749SOL    HW219710   4.434   1.248   4.882  2.5865 -1.5057 -1.5668
 2750SOL     OW19711   1.211   3.255   3.520  0.2363  0.3730 -0.0131
 2750SOL    HW119712   1.301   3.224   3.526  0.2609  0.7895  1.7324
 2750SOL    HW219713   1.201   3.282   3.611  1.9557 -1.5779  0.7284
 2751SOL     OW19714   3.839   3.332   9.086  0.0109  0.6558 -0.3075
 2751SOL    HW119715   3.901   3.356   9.154 -0.4855  0.4037  0.2356
 2751SOL    HW219716   3.756   3.347   9.131  0.2425  3.3171 -0.7609
 2752SOL     OW19717   2.928   3.171  17.346  0.6120 -0.1773 -0.6140
 2752SOL    HW119718   2.944   3.235  17.416  0.7535 -2.0415  1.0777
 2752SOL    HW219719   2.860   3.115  17.383 -0.7913  0.4234 -2.3223
 2753SOL     OW19720   3.914   3.885  17.598 -0.7866 -0.0536 -0.1646
 2753SOL    HW119721   3.917   3.800  17.642  0.5930  0.4806  0.7545
 2753SOL    HW219722   3.895   3.936  17.676  0.3477 -1.3875  0.9855
 2754SOL     OW19723   0.573   4.240  15.547  0.1636  0.4250  0.1195
 2754SOL    HW119724   0.656   4.202  15.520 -0.5235 -0.2890 -0.9583
 2754SOL    HW219725   0.604   4.313  15.601 -1.1179  1.7116 -0.8836
 2755SOL     OW19726   0.794   0.556   2.513  0.0877  0.1397  0.2033
 2755SOL    HW119727   0.754   0.521   2.592  0.8937 -0.1558  0.4812
 2755SOL    HW219728   0.877   0.508   2.513  0.9401  1.6070  1.2736
 2756SOL     OW19729   3.405   3.359   6.294  0.0673  0.3111  0.2650
 2756SOL    HW119730   3.403   3.441   6.245 -1.3545 -1.4687 -2.6514
 2756SOL    HW219731   3.319   3.322   6.273  1.4712 -1.8667 -1.6439
 2757SOL     OW19732   4.159   4.399   7.120  0.6245 -0.0473  0.0805
 2757SOL    HW119733   4.085   4.361   7.168 -1.0650  0.6609 -1.9556
 2757SOL    HW219734   4.157   4.346   7.041 -3.1581 -1.7992  1.3392
 2758SOL     OW19735   1.729   0.625  10.246  0.1600 -0.1596 -0.0761
 2758SOL    HW119736   1.805   0.638  10.191 -0.5527  0.7715 -0.8463
 2758SOL    HW219737   1.709   0.717  10.260  0.4988 -0.0823 -0.1223
 2759SOL     OW19738   4.047   4.146  13.664 -0.3587 -0.2488 -0.1967
 2759SOL    HW119739   4.133   4.107  13.677 -0.0584  0.0432 -1.3793
 2759SOL    HW219740   4.065   4.214  13.599 -0.2380  1.9197  2.0802
 2760SOL     OW19741   2.670   0.832   2.395  0.4675  0.5415  0.2260
 2760SOL    HW119742   2.651   0.839   2.302 -1.4577 -1.1057  0.4961
 2760SOL    HW219743   2.693   0.922   2.417  0.8808  0.0147  1.9587
 2761SOL     OW19744   1.911   3.166   2.748 -0.7350 -0.0174 -0.1617
 2761SOL    HW119745   1.838   3.222   2.722 -1.4472 -1.4685 -1.2989
 2761SOL    HW219746   1.867   3.128   2.824 -2.4117  2.2186 -0.0114
 2762SOL     OW19747   0.917   3.755   3.403  0.2066  0.2229  0.2144
 2762SOL    HW119748   0.911   3.728   3.312  2.0361 -0.1629  0.2214
 2762SOL    HW219749   0.902   3.850   3.393  1.4512  0.2070 -1.7483
 2763SOL     OW19750   1.611   0.633   4.669  0.3640 -0.3642  0.3431
 2763SOL    HW119751   1.589   0.718   4.631 -1.3454 -0.0237  2.1209
 2763SOL    HW219752   1.523   0.600   4.686 -0.4920  1.6228 -0.2353
 2764SOL     OW19753   3.256   3.540   6.614  0.4680 -0.7835  0.7751
 2764SOL    HW119754   3.234   3.632   6.624  0.9880 -0.1935 -3.3479
 2764SOL    HW219755   3.325   3.544   6.547 -0.6414 -1.4485 -0.4051
 2765SOL     OW19756   1.957   1.592   1.873 -0.2185 -0.0523  0.0344
 2765SOL    HW119757   1.984   1.501   1.884 -0.5370  0.2912  3.6177
 2765SOL    HW219758   1.949   1.616   1.965  0.8435  2.1320 -0.4450
 2766SOL     OW19759   4.188   0.349   2.284  0.5707 -0.2803 -1.0198
 2766SOL    HW119760   4.245   0.310   2.350  0.0457  1.5965  0.5639
 2766SOL    HW219761   4.185   0.281   2.217 -0.1624 -1.3883  0.1400
 2767SOL     OW19762   2.667   0.643   4.526  0.4809  0.0059  0.3149
 2767SOL    HW119763   2.615   0.684   4.595 -0.1080 -1.3822  0.6940
 2767SOL    HW219764   2.689   0.717   4.470  3.1730  1.1317  2.8269
 2768SOL     OW19765   1.831   3.727   7.817  0.2051 -0.3566  0.0119
 2768SOL    HW119766   1.862   3.816   7.835 -1.4725  0.1539  0.4208
 2768SOL    HW219767   1.848   3.689   7.903 -1.4977 -0.1105  0.4504
 2769SOL     OW19768   2.929   1.313   2.938 -0.1208  0.4471  0.4545
 2769SOL    HW119769   2.904   1.354   2.855 -1.0730  3.4198  2.2006
 2769SOL    HW219770   2.998   1.373   2.969  1.4816 -1.7886  1.1702
 2770SOL     OW19771   4.566   0.507   1.008 -0.1663 -0.5716  0.3895
 2770SOL    HW119772   4.476   0.474   1.011 -0.3509 -0.1906 -1.1309
 2770SOL    HW219773   4.539   0.596   1.033  0.3734 -0.7350  1.5593
 2771SOL     OW19774   3.686   1.155  15.983 -0.6982 -0.4349 -0.1437
 2771SOL    HW119775   3.648   1.237  16.014  0.4077 -0.4777  1.2831
 2771SOL    HW219776   3.738   1.139  16.062  2.2777 -1.5416 -2.3096
 2772SOL     OW19777   0.887   1.093   5.110  0.3190  0.5277 -0.2276
 2772SOL    HW119778   0.855   1.172   5.067 -1.3738  0.0604  0.1872
 2772SOL    HW219779   0.870   1.105   5.203 -1.4138  1.0587 -0.6255
 2773SOL     OW19780   2.058   1.223   3.365  0.1046 -0.1520  0.3829
 2773SOL    HW119781   2.033   1.226   3.273 -0.2135  0.8781  0.5067
 2773SOL    HW219782   2.135   1.165   3.367 -0.5691 -1.0784 -0.3225
 2774SOL     OW19783   3.127   4.175   5.710  0.1030 -0.4545 -0.4064
 2774SOL    HW119784   3.107   4.246   5.771 -0.4400 -1.6812  0.8480
 2774SOL    HW219785   3.143   4.221   5.628  1.9907  3.6872  2.2942
 2775SOL     OW19786   0.451   3.728   3.940 -0.0061  0.3028  0.8879
 2775SOL    HW119787   0.520   3.685   3.890 -0.2306  0.5649  0.3614
 2775SOL    HW219788   0.395   3.753   3.867  1.9989 -0.1754 -0.7993
 2776SOL     OW19789   0.702   4.504   2.414 -0.5022 -0.7475  0.1998
 2776SOL    HW119790   0.736   4.563   2.347  3.3989 -0.6800  2.2702
 2776SOL    HW219791   0.691   4.562   2.489  1.0122 -0.7209  0.3957
 2777SOL     OW19792   3.517   1.442   7.850 -0.0350 -0.1684 -0.9234
 2777SOL    HW119793   3.521   1.537   7.866  0.8447 -1.0267  4.0901
 2777SOL    HW219794   3.456   1.425   7.922  1.5190  1.6346  0.8299
 2778SOL     OW19795   3.467   3.615   3.674 -0.0863 -0.2842 -0.0222
 2778SOL    HW119796   3.455   3.524   3.701  1.2504  0.0052  1.5812
 2778SOL    HW219797   3.474   3.605   3.579 -2.3617 -1.8034 -0.0024
 2779SOL     OW19798   0.966   4.405  13.451  0.2134 -0.1419  0.1050
 2779SOL    HW119799   0.895   4.428  13.391  0.1512  0.0775  0.2635
 2779SOL    HW219800   0.982   4.315  13.423 -1.3279 -0.3077 -0.2363
 2780SOL     OW19801   3.167   1.986   9.926 -0.6327  0.2631 -0.3566
 2780SOL    HW119802   3.168   2.060   9.987 -0.1638 -0.8719  1.0063
 2780SOL    HW219803   3.139   1.913   9.982 -0.8519  1.6758  1.3678
 2781SOL     OW19804   0.726   0.605   0.401  0.0581  0.1076  0.0726
 2781SOL    HW119805   0.819   0.614   0.422 -0.3438  1.0327  1.5296
 2781SOL    HW219806   0.716   0.516   0.368 -3.1285  0.5273 -0.0741
 2782SOL     OW19807   0.335   0.553   3.950  0.2685 -0.3356  0.2350
 2782SOL    HW119808   0.392   0.497   4.003 -0.3841 -1.1770  0.0603
 2782SOL    HW219809   0.397   0.586   3.886  1.1577 -3.3223 -0.4407
 2783SOL     OW19810   2.911   2.607   8.219  0.1960 -0.5433 -0.2693
 2783SOL    HW119811   2.859   2.527   8.213  2.3649 -1.7959 -2.0400
 2783SOL    HW219812   2.992   2.570   8.183  1.9773  3.8839 -0.8149
 2784SOL     OW19813   1.147   0.160   5.808  0.1754 -0.0950  0.2299
 2784SOL    HW119814   1.079   0.109   5.854 -1.5448  0.9729 -1.1259
 2784SOL    HW219815   1.143   0.133   5.716 -0.4829 -0.6980  0.4318
 2785SOL     OW19816   1.746   1.000   1.841 -0.4430  0.3419  0.1797
 2785SOL    HW119817   1.779   1.089   1.858  1.9527 -0.7189  1.0106
 2785SOL    HW219818   1.826   0.963   1.805 -0.2134  0.9076  0.1055
 2786SOL     OW19819   3.777   3.418  11.096  0.3511  0.0047 -0.3884
 2786SOL    HW119820   3.750   3.403  11.187 -3.0750  2.2274 -1.0176
 2786SOL    HW219821   3.708   3.478  11.065 -0.7520  0.3805  2.7375
 2787SOL     OW19822   3.040   2.399   6.585 -0.4049 -0.0050 -0.3917
 2787SOL    HW119823   3.102   2.371   6.517 -2.2254 -2.1285 -1.1561
 2787SOL    HW219824   2.998   2.313   6.590  0.4287 -0.4775 -1.3454
 2788SOL     OW19825   2.338   2.141  16.504  0.3216 -0.3310  0.1489
 2788SOL    HW119826   2.428   2.172  16.508  0.1397  0.0991  0.9088
 2788SOL    HW219827   2.311   2.126  16.413 -1.1462 -1.0535  0.7079
 2789SOL     OW19828   1.445   3.751   4.547  0.5924  0.0977 -0.0543
 2789SOL    HW119829   1.459   3.715   4.635  0.4975 -0.5948 -0.3191
 2789SOL    HW219830   1.381   3.820   4.562 -1.0216 -1.3742 -0.2103
 2790SOL     OW19831   1.432   2.443   4.400 -0.2286 -0.5609 -0.2641
 2790SOL    HW119832   1.494   2.399   4.459  1.2475 -2.4624 -3.2263
 2790SOL    HW219833   1.433   2.524   4.450 -2.7706 -0.4003 -0.4687
 2791SOL     OW19834   0.209   2.898  16.308  0.0176 -0.2217 -0.2760
 2791SOL    HW119835   0.202   2.994  16.307 -1.1194 -0.2987  0.3019
 2791SOL    HW219836   0.241   2.872  16.222  2.8890 -0.8141  0.9604
 2792SOL     OW19837   1.900   2.571   4.789 -0.2848 -0.0721  0.3475
 2792SOL    HW119838   1.934   2.510   4.855 -0.1298  0.1519  0.4717
 2792SOL    HW219839   1.977   2.582   4.734 -0.7399  0.0149 -0.2678
 2793SOL     OW19840   2.700   0.578   0.370 -0.3022 -0.3393 -0.1187
 2793SOL    HW119841   2.679   0.530   0.450 -1.3085 -1.4875 -1.0657
 2793SOL    HW219842   2.627   0.640   0.372 -0.0508  0.0435 -2.7994
 2794SOL     OW19843   1.160   2.563   8.217 -0.2405  0.2521 -0.2997
 2794SOL    HW119844   1.081   2.522   8.250 -2.9162  5.8630  0.3375
 2794SOL    HW219845   1.154   2.521   8.131  2.6870  0.0134 -0.3997
 2795SOL     OW19846   3.741   0.257   6.954 -0.3389  0.1830 -0.3322
 2795SOL    HW119847   3.736   0.350   6.931  0.6341  0.4325  0.4552
 2795SOL    HW219848   3.832   0.240   6.979 -0.6114  1.0839  1.2957
 2796SOL     OW19849   4.591   0.647   7.942  0.5957  0.4840  0.2829
 2796SOL    HW119850   4.583   0.738   7.971  2.8302  0.9680 -0.6341
 2796SOL    HW219851   4.591   0.660   7.847  0.8568 -1.8493 -0.0242
 2797SOL     OW19852   4.626   0.673   9.794  0.3579  0.4225 -0.2912
 2797SOL    HW119853   4.661   0.584   9.783 -1.2070 -0.4131  1.4193
 2797SOL    HW219854   4.614   0.676   9.889 -0.6603  0.8911 -0.4380
 2798SOL     OW19855   2.547   1.651   6.959 -0.7338  0.7002  0.4625
 2798SOL    HW119856   2.479   1.585   6.969  1.6665 -1.5287  1.9978
 2798SOL    HW219857   2.557   1.637   6.865  2.7658 -1.2335  1.1114
 2799SOL     OW19858   0.220   1.583   5.232 -0.3229 -0.0905  0.3684
 2799SOL    HW119859   0.265   1.605   5.314 -0.4704  1.1071  0.1215
 2799SOL    HW219860   0.294   1.547   5.184 -1.6259 -1.7423 -0.4144
 2800SOL     OW19861   3.323   1.556   5.333 -0.1078 -0.2081  0.2970
 2800SOL    HW119862   3.393   1.565   5.268  2.3773  1.1840  3.1424
 2800SOL    HW219863   3.322   1.460   5.341  1.9031 -0.2353  0.4075
 2801SOL     OW19864   1.048   3.615   8.673  0.3819 -0.2894 -0.4987
 2801SOL    HW119865   1.073   3.637   8.584 -2.2185 -0.3717 -1.2562
 2801SOL    HW219866   0.961   3.575   8.667  0.9308 -1.6728  0.7413
 2802SOL     OW19867   2.305   1.155   4.733 -0.3998 -0.0807  0.0049
 2802SOL    HW119868   2.367   1.129   4.801  0.9845  0.7106 -0.9587
 2802SOL    HW219869   2.228   1.113   4.773 -2.0135  1.7374 -1.1936
 2803SOL     OW19870   0.100   4.638   6.734 -0.5260 -0.2110 -0.3623
 2803SOL    HW119871   0.074   4.676   6.650  1.1443  0.3087 -0.6399
 2803SOL    HW219872   0.013   4.608   6.758 -0.0135 -0.9404  0.5861
 2804SOL     OW19873   3.183   4.677   3.035  0.1317 -0.0220  0.1141
 2804SOL    HW119874   3.098   4.698   3.075  1.4061  2.5508  1.4582
 2804SOL    HW219875   3.243   4.692   3.107 -0.1905 -0.3017  0.4378
 2805SOL     OW19876   1.704   3.328   2.688 -0.0545 -0.1862  0.0716
 2805SOL    HW119877   1.667   3.284   2.611  1.5409  1.8813 -1.8671
 2805SOL    HW219878   1.670   3.417   2.677  0.0783 -0.5521 -3.1954
 2806SOL     OW19879   1.314   2.403   9.695 -0.0091  0.0711  0.1757
 2806SOL    HW119880   1.356   2.398   9.610  0.2382 -0.7409  0.3455
 2806SOL    HW219881   1.298   2.497   9.703  0.9016  0.1605  0.9415
 2807SOL     OW19882   0.499   4.295   2.869  0.0993  0.1635  0.2446
 2807SOL    HW119883   0.475   4.387   2.864  1.1924  0.4608  0.4077
 2807SOL    HW219884   0.586   4.285   2.829 -0.1025 -0.9927  0.0921
 2808SOL     OW19885   1.063   3.197   7.483  0.3831  0.1747  0.3135
 2808SOL    HW119886   1.113   3.115   7.481 -1.7962 -1.1763  1.5898
 2808SOL    HW219887   1.023   3.209   7.397  1.9911  0.5756 -0.3684
 2809SOL     OW19888   3.148   2.496   8.167 -0.7914 -0.7526  0.2530
 2809SOL    HW119889   3.182   2.407   8.154  2.4351  0.2609  1.8204
 2809SOL    HW219890   3.190   2.513   8.251  2.8735  0.6647 -1.8887
 2810SOL     OW19891   0.961   2.953  17.527  0.2368  0.1054 -0.5790
 2810SOL    HW119892   0.994   2.959  17.437 -0.5102  1.4131 -0.7632
 2810SOL    HW219893   0.965   2.859  17.541  1.2991 -0.0322 -1.7969
 2811SOL     OW19894   1.521   2.026  10.456 -0.1265  0.0051 -0.4891
 2811SOL    HW119895   1.572   1.955  10.416  1.5336  0.7211  0.3556
 2811SOL    HW219896   1.570   2.063  10.529  0.5789  0.2498 -1.0815
 2812SOL     OW19897   2.129   2.596   5.281 -0.1147  0.1618 -0.0836
 2812SOL    HW119898   2.220   2.572   5.260  0.2373  0.8799  0.6467
 2812SOL    HW219899   2.119   2.683   5.243 -0.8606 -1.4216 -3.5366
 2813SOL     OW19900   3.350   4.346   3.214 -0.3427 -1.1144 -0.1461
 2813SOL    HW119901   3.360   4.402   3.291  3.0303  0.8793 -2.0253
 2813SOL    HW219902   3.443   4.349   3.190 -0.5094  0.0199 -0.6304
 2814SOL     OW19903   0.069   0.414  16.312  0.1761  0.0400  0.0352
 2814SOL    HW119904   0.150   0.436  16.359 -0.5232  0.1721  1.1584
 2814SOL    HW219905   0.026   0.339  16.352 -0.9523 -1.0865 -3.2362
 2815SOL     OW19906   1.763   0.773   0.431  0.1475 -0.6458  0.2501
 2815SOL    HW119907   1.779   0.790   0.338 -1.2541 -0.6851 -0.0098
 2815SOL    HW219908   1.849   0.786   0.470  0.6949  0.8738 -1.4677
 2816SOL     OW19909   2.095   4.360   5.085  0.4534  0.0517 -0.4459
 2816SOL    HW119910   2.105   4.281   5.032 -0.6753  0.5025 -1.3414
 2816SOL    HW219911   2.027   4.338   5.149  0.1000 -1.8274 -1.4452
 2817SOL     OW19912   3.455   3.576  13.957  0.8741 -0.2977  0.5261
 2817SOL    HW119913   3.502   3.656  13.979  0.3826 -0.1371  0.9904
 2817SOL    HW219914   3.440   3.553  14.049 -0.7746  1.7192  0.7531
 2818SOL     OW19915   3.187   4.705   7.172  0.2062 -0.3385  0.1409
 2818SOL    HW119916   3.222   4.634   7.120 -1.9724 -0.1226 -1.6123
 2818SOL    HW219917   3.262   0.001   7.228 -0.7404  1.3299  0.7699
 2819SOL     OW19918   0.570   0.142   3.613 -0.5378  0.1990  0.2987
 2819SOL    HW119919   0.587   0.094   3.532  0.1723 -0.0490  0.6020
 2819SOL    HW219920   0.656   0.123   3.649  0.4000  1.1189 -1.4641
 2820SOL     OW19921   2.443   4.032  11.236  0.0380 -0.3824 -0.2142
 2820SOL    HW119922   2.509   4.101  11.242 -0.0467 -0.2761 -0.5230
 2820SOL    HW219923   2.475   3.966  11.298  1.8597  0.7972  0.0989
 2821SOL     OW19924   1.511   2.056   3.784  0.0524  0.3242  0.3307
 2821SOL    HW119925   1.482   2.077   3.873 -1.3561  1.5803 -0.4331
 2821SOL    HW219926   1.504   1.961   3.793  0.7009  0.2011 -0.4954
 2822SOL     OW19927   1.697   2.730  12.733 -0.1731  0.2189  0.1231
 2822SOL    HW119928   1.669   2.756  12.820  0.4371  0.2059  0.3222
 2822SOL    HW219929   1.772   2.673  12.751  0.9545  2.0452  1.1230
 2823SOL     OW19930   2.552   1.799   5.568  0.1481  0.1865  0.3750
 2823SOL    HW119931   2.549   1.713   5.526 -0.7744 -0.0308  0.8979
 2823SOL    HW219932   2.630   1.791   5.624  0.8406  2.5745 -0.2174
 2824SOL     OW19933   0.603   3.523   3.527 -0.2295  0.4532 -0.0320
 2824SOL    HW119934   0.622   3.439   3.568  0.0818 -0.7252 -2.5764
 2824SOL    HW219935   0.619   3.494   3.437  0.5141  1.7130 -0.3127
 2825SOL     OW19936   3.965   0.980  11.166 -0.2167  0.2556 -0.1403
 2825SOL    HW119937   3.916   0.956  11.245 -0.3542  0.3880 -0.1868
 2825SOL    HW219938   4.009   1.061  11.193 -0.5260  0.3287  0.1482
 2826SOL     OW19939   1.897   3.029   5.467  0.2014 -0.3067 -0.2593
 2826SOL    HW119940   1.958   3.072   5.407 -0.5687  0.6430 -0.3625
 2826SOL    HW219941   1.871   3.100   5.525 -0.2731  0.4188 -1.3738
 2827SOL     OW19942   1.016   4.592   7.749  0.0317 -0.2398  0.7916
 2827SOL    HW119943   0.964   4.515   7.728 -0.4044  0.2076  0.2475
 2827SOL    HW219944   0.944   4.648   7.778 -0.2157  0.3178 -0.8727
 2828SOL     OW19945   0.088   0.401   6.237 -0.5492 -0.2608 -0.0520
 2828SOL    HW119946   0.059   0.452   6.162 -0.7575  0.5319  0.5620
 2828SOL    HW219947   4.725   0.374   6.263 -0.0451 -0.1595  1.7460
 2829SOL     OW19948   3.617   4.078   8.352 -1.0748 -0.2303  0.9379
 2829SOL    HW119949   3.691   4.089   8.413 -1.2914 -0.2298  1.2024
 2829SOL    HW219950   3.667   4.023   8.291  1.7160  2.1784  1.0659
 2830SOL     OW19951   2.940   4.700   3.154  0.5513 -0.3134 -0.1736
 2830SOL    HW119952   2.856   4.719   3.196  1.1663 -1.0484  1.3846
 2830SOL    HW219953   2.917   0.002   3.065 -0.1854 -0.6658 -0.0941
 2831SOL     OW19954   4.167   1.026  14.346  0.6783  0.0115  0.2371
 2831SOL    HW119955   4.168   1.097  14.410 -0.5251  0.6364 -0.4192
 2831SOL    HW219956   4.214   1.060  14.270  1.4353  1.3485  1.3051
 2832SOL     OW19957   2.565   0.296  13.838 -0.4650 -0.2835  0.1621
 2832SOL    HW119958   2.655   0.323  13.821 -0.4178  0.0523  0.9200
 2832SOL    HW219959   2.571   0.279  13.932  2.8500 -0.4437 -0.0745
 2833SOL     OW19960   0.990   1.870   7.849  0.0329 -0.2851 -0.3337
 2833SOL    HW119961   0.922   1.837   7.790  0.2581  0.9926 -1.3161
 2833SOL    HW219962   1.074   1.847   7.810  1.2573  1.0510  1.5174
 2834SOL     OW19963   1.609   1.746   0.585  0.0039  0.0403 -0.0821
 2834SOL    HW119964   1.644   1.660   0.561 -2.3891 -0.4197 -1.9132
 2834SOL    HW219965   1.520   1.716   0.600 -0.0272  0.1218 -0.1023
 2835SOL     OW19966   0.594   0.667   7.315 -0.0457  0.2262  0.4462
 2835SOL    HW119967   0.556   0.580   7.308  0.4090  0.0620  0.0096
 2835SOL    HW219968   0.645   0.669   7.234 -0.8438  3.1450  0.0026
 2836SOL     OW19969   1.856   2.423   3.397  0.6459  0.1043 -0.5325
 2836SOL    HW119970   1.761   2.426   3.413  0.6452 -0.0032 -0.5151
 2836SOL    HW219971   1.865   2.454   3.307  1.3117  1.9724  0.1776
 2837SOL     OW19972   1.051   1.591   4.752  0.1250 -0.1598 -0.0011
 2837SOL    HW119973   0.962   1.618   4.770  0.3558  1.2523 -0.9962
 2837SOL    HW219974   1.066   1.502   4.784 -0.8426 -0.9524 -1.7621
 2838SOL     OW19975   2.298   0.321  13.571 -0.3062  0.3776 -0.2651
 2838SOL    HW119976   2.382   0.367  13.571 -0.7380  1.1764 -1.7186
 2838SOL    HW219977   2.307   0.282  13.484 -2.4038 -0.1454 -0.2529
 2839SOL     OW19978   1.648   3.146   7.169  0.1164  0.0318  0.5442
 2839SOL    HW119979   1.566   3.153   7.217  0.8184 -1.0565  1.8948
 2839SOL    HW219980   1.641   3.053   7.150  0.9887 -0.3369  2.0569
 2840SOL     OW19981   4.318   3.045   9.605  0.2227  0.2494 -0.2647
 2840SOL    HW119982   4.365   3.108   9.660  0.5902  1.4770 -1.9683
 2840SOL    HW219983   4.268   3.099   9.543  0.0413  0.2076 -0.1569
 2841SOL     OW19984   4.378   0.663   8.838 -0.5077 -0.4252  0.4338
 2841SOL    HW119985   4.448   0.711   8.883 -1.9650  4.4508 -2.5278
 2841SOL    HW219986   4.314   0.733   8.843  1.4279  1.1897  2.5721
 2842SOL     OW19987   4.332   0.597   1.548 -0.3779 -0.8641 -0.4056
 2842SOL    HW119988   4.361   0.643   1.469 -0.4463  1.2952  0.8267
 2842SOL    HW219989   4.417   0.559   1.572  1.8146  2.4520 -2.8322
 2843SOL     OW19990   4.211   4.055  16.031  0.0476 -0.2590  0.3399
 2843SOL    HW119991   4.178   4.143  16.013  0.4788 -0.2330 -0.3314
 2843SOL    HW219992   4.304   4.076  16.024 -0.5284  2.3763  0.6138
 2844SOL     OW19993   0.699   1.103   9.310 -0.8040 -0.3060  0.6901
 2844SOL    HW119994   0.794   1.090   9.318 -0.4924  0.3875 -1.7357
 2844SOL    HW219995   0.680   1.163   9.381  0.0212 -0.2928  0.8927
 2845SOL     OW19996   1.719   2.944   3.320 -0.1452 -0.0867 -0.6519
 2845SOL    HW119997   1.704   2.866   3.266  0.1379 -2.2881  2.4250
 2845SOL    HW219998   1.814   2.953   3.326 -0.1580  0.0967 -0.7247
 2846SOL     OW19999   2.085   0.765   2.327  0.2253  0.4199 -0.6657
 2846SOL    HW120000   2.120   0.797   2.243 -0.1556 -0.0716 -1.0100
 2846SOL    HW220001   2.162   0.743   2.380 -0.5143  0.5810  0.4629
 2847SOL     OW20002   4.463   4.322   6.712 -0.0399 -0.1464 -0.4751
 2847SOL    HW120003   4.449   4.279   6.796 -2.3177  1.2333 -0.1510
 2847SOL    HW220004   4.553   4.353   6.719 -0.2813  0.5742 -0.5530
 2848SOL     OW20005   2.431   1.683   5.864  0.2017  0.0116 -0.2497
 2848SOL    HW120006   2.496   1.731   5.812  0.8089  1.2899  1.6891
 2848SOL    HW220007   2.377   1.653   5.792 -0.8715  2.0678 -0.3092
 2849SOL     OW20008   2.857   0.749  16.782 -0.4543 -0.0030  0.2758
 2849SOL    HW120009   2.941   0.778  16.746 -0.8761  0.7705 -0.0815
 2849SOL    HW220010   2.791   0.809  16.748  0.9908  1.3653 -0.1044
 2850SOL     OW20011   1.934   1.218  16.191  0.2489 -0.3570  0.1043
 2850SOL    HW120012   1.870   1.280  16.155 -1.8029 -1.6845  1.4324
 2850SOL    HW220013   1.883   1.137  16.188 -0.8802  0.3502 -0.0092
 2851SOL     OW20014   3.691   3.634   5.219  0.4129  0.2688 -0.3111
 2851SOL    HW120015   3.759   3.646   5.285 -0.1039  0.6846  0.1435
 2851SOL    HW220016   3.622   3.590   5.268  1.4224 -0.2121  0.6710
 2852SOL     OW20017   0.126   0.883  14.144 -0.4863  0.5419 -0.5770
 2852SOL    HW120018   0.049   0.910  14.093 -0.9023 -0.0828 -0.2794
 2852SOL    HW220019   0.182   0.838  14.081 -3.1381 -1.5206 -1.4569
 2853SOL     OW20020   0.136   0.612   1.118  0.3474 -0.0021 -0.3851
 2853SOL    HW120021   0.209   0.671   1.097  0.6761 -0.5461 -0.7494
 2853SOL    HW220022   0.110   0.654   1.200 -2.6425 -1.3027 -0.6533
 2854SOL     OW20023   1.467   1.837   3.508  0.6367 -0.2749 -0.0841
 2854SOL    HW120024   1.458   1.744   3.485  0.7057 -1.0469  2.9432
 2854SOL    HW220025   1.427   1.841   3.595  0.1178  1.7991 -0.4363
 2855SOL     OW20026   0.456   2.857   9.005 -0.0955 -0.0528  0.0811
 2855SOL    HW120027   0.537   2.908   9.002 -1.4257  2.2664  3.5936
 2855SOL    HW220028   0.487   2.767   9.015 -0.5630 -0.1836  0.3618
 2856SOL     OW20029   0.481   0.512   5.033  0.5097 -0.7312 -0.7183
 2856SOL    HW120030   0.556   0.567   5.057  1.0105  0.0724 -4.0728
 2856SOL    HW220031   0.516   0.429   5.064 -0.7897 -1.5291 -1.3822
 2857SOL     OW20032   1.716   2.561   6.372  0.2252  0.2984  0.3437
 2857SOL    HW120033   1.728   2.546   6.278  1.6499 -0.0123  0.5780
 2857SOL    HW220034   1.701   2.655   6.380  0.1974  0.3079  0.1754
 2858SOL     OW20035   2.634   1.032   3.815  0.1964  0.3763  0.3424
 2858SOL    HW120036   2.581   1.108   3.840  1.9139  1.2581  1.3060
 2858SOL    HW220037   2.663   0.998   3.900 -0.6401 -1.8503 -0.2500
 2859SOL     OW20038   2.222   2.120  10.909  0.2285 -0.3037  0.2383
 2859SOL    HW120039   2.227   2.048  10.972  0.3652 -2.2410 -1.9726
 2859SOL    HW220040   2.151   2.093  10.851  1.2171  0.8169 -1.4700
 2860SOL     OW20041   1.732   1.553   9.596 -0.1310  0.3472  0.0891
 2860SOL    HW120042   1.769   1.551   9.508 -1.9511 -0.2768 -0.6567
 2860SOL    HW220043   1.750   1.646   9.613  1.0958  0.2697 -0.7895
 2861SOL     OW20044   2.722   0.238   8.862 -0.3225  0.3042 -0.1384
 2861SOL    HW120045   2.786   0.230   8.791  2.2790 -0.1585  2.2532
 2861SOL    HW220046   2.731   0.332   8.878  0.9797  0.0907  0.3243
 2862SOL     OW20047   3.032   4.334  17.592  0.0106  0.1962  0.1272
 2862SOL    HW120048   3.079   4.279  17.655 -0.4746  0.1937  0.4839
 2862SOL    HW220049   2.992   4.256  17.554  0.2872 -0.5383  1.3540
 2863SOL     OW20050   0.874   1.391   4.931 -0.1207 -0.0461  0.5153
 2863SOL    HW120051   0.781   1.375   4.914 -0.1222 -0.9930  1.4821
 2863SOL    HW220052   0.922   1.352   4.858  1.7882 -0.0288  1.7658
 2864SOL     OW20053   4.667   1.666  10.799 -0.0407  0.1886 -0.0371
 2864SOL    HW120054   4.590   1.629  10.757 -0.8280  1.7089  0.0771
 2864SOL    HW220055   0.009   1.619  10.750  0.4642  0.7725  0.0924
 2865SOL     OW20056   0.444   2.672   7.058  0.3303  0.1079 -0.0510
 2865SOL    HW120057   0.399   2.755   7.075  0.1377 -0.0962  0.4540
 2865SOL    HW220058   0.374   2.627   7.012  1.4872 -2.2750  0.5316
 2866SOL     OW20059   3.007   3.521   3.034  0.6756  0.8385  0.4377
 2866SOL    HW120060   2.931   3.480   3.076  2.1550  0.5522  2.8317
 2866SOL    HW220061   3.069   3.451   3.017 -0.2102  0.2683 -0.4211
 2867SOL     OW20062   1.245   3.350   5.879 -0.6143 -0.3347 -0.0936
 2867SOL    HW120063   1.239   3.336   5.785  2.3668  2.7681 -0.7410
 2867SOL    HW220064   1.273   3.441   5.882 -1.5193 -0.0524 -0.1778
 2868SOL     OW20065   0.161   4.309   3.302  0.4631  0.3898 -0.1934
 2868SOL    HW120066   0.206   4.247   3.245  0.4209  2.3590 -2.3698
 2868SOL    HW220067   0.073   4.317   3.265 -0.5438  0.9037  2.3489
 2869SOL     OW20068   0.897   3.567   2.594 -0.0624 -0.2723  0.0840
 2869SOL    HW120069   0.949   3.637   2.634 -0.8321 -0.4447  1.3941
 2869SOL    HW220070   0.939   3.541   2.512  1.4735 -1.2338  1.1684
 2870SOL     OW20071   4.512   2.497   4.212 -0.6449  0.0225  0.2045
 2870SOL    HW120072   4.479   2.408   4.225  0.8206 -0.4997  0.3505
 2870SOL    HW220073   4.441   2.531   4.156  0.6213  1.1964 -0.6986
 2871SOL     OW20074   2.377   0.916   7.037  0.3164 -0.2276  0.3702
 2871SOL    HW120075   2.426   0.874   7.108 -0.2205  0.1874  0.9856
 2871SOL    HW220076   2.450   0.950   6.986 -1.4502  1.4244 -1.0240
 2872SOL     OW20077   2.598   4.524   8.494  0.3101 -0.0242 -0.1517
 2872SOL    HW120078   2.625   4.546   8.583 -2.4874  0.3594  0.5952
 2872SOL    HW220079   2.527   4.587   8.485  1.5212  1.7859  2.9571
 2873SOL     OW20080   0.959   4.468   4.718  0.3747  0.5986  0.6378
 2873SOL    HW120081   1.050   4.492   4.697  0.4723 -0.8504 -0.6214
 2873SOL    HW220082   0.926   4.437   4.634  0.1482 -0.2198  1.0280
 2874SOL     OW20083   3.592   3.996   6.040  0.4054 -0.4571  0.1104
 2874SOL    HW120084   3.512   3.954   6.071 -0.1861 -0.1205 -0.9676
 2874SOL    HW220085   3.617   3.925   5.981  0.0807 -0.2779 -0.2396
 2875SOL     OW20086   4.115   4.574   5.143  0.7800  0.0957 -0.1580
 2875SOL    HW120087   4.088   4.662   5.172 -2.1767 -0.6216 -0.7616
 2875SOL    HW220088   4.088   4.531   5.224  0.6243  1.6854  0.6452
 2876SOL     OW20089   2.099   3.461   5.588 -0.4433  0.1235 -0.0096
 2876SOL    HW120090   2.095   3.552   5.559 -2.1975  0.0114 -0.1108
 2876SOL    HW220091   2.024   3.446   5.646 -1.0732  1.0194 -0.5841
 2877SOL     OW20092   2.177   3.684  10.823  0.8381 -0.0168  0.0550
 2877SOL    HW120093   2.118   3.760  10.830 -1.5546 -1.8013 -0.4549
 2877SOL    HW220094   2.127   3.629  10.884 -0.9350  0.7182 -0.7150
 2878SOL     OW20095   3.467   3.176   1.478 -0.6153  0.7838 -0.0417
 2878SOL    HW120096   3.539   3.177   1.415 -0.1426  1.4022  0.5168
 2878SOL    HW220097   3.420   3.259   1.473 -0.9287  0.6423  0.6001
 2879SOL     OW20098   3.777   2.494   0.795  0.5966  0.1825  0.0120
 2879SOL    HW120099   3.731   2.527   0.718  1.1368  2.3089  0.6260
 2879SOL    HW220100   3.860   2.492   0.748  1.4535  1.2644  1.4971
 2880SOL     OW20101   4.367   1.544  16.787  0.1221 -0.3950 -0.4347
 2880SOL    HW120102   4.329   1.612  16.731  0.4418 -0.7818 -1.1266
 2880SOL    HW220103   4.337   1.465  16.741 -0.6719  0.2624 -1.0410
 2881SOL     OW20104   0.028   1.601  10.026  0.4414 -0.1917 -0.7159
 2881SOL    HW120105   0.091   1.531  10.013 -0.0671 -0.8676  0.4276
 2881SOL    HW220106   0.062   1.661   9.960  0.1289  1.1154  0.3027
 2882SOL     OW20107   0.182   1.391   4.036 -0.1849 -0.1954 -0.2418
 2882SOL    HW120108   0.231   1.472   4.051 -0.8694  0.2100 -0.1817
 2882SOL    HW220109   0.243   1.330   4.078  1.4422  2.2831  1.0909
 2883SOL     OW20110   4.496   1.159   7.524 -0.1777 -0.4355 -0.0237
 2883SOL    HW120111   4.453   1.153   7.609 -0.4886  0.3195 -0.1230
 2883SOL    HW220112   4.480   1.074   7.483  0.6885 -1.1163  1.0767
 2884SOL     OW20113   3.505   0.329  13.856 -0.7999 -0.9358 -0.0520
 2884SOL    HW120114   3.533   0.362  13.771 -2.8204 -1.2962 -0.8483
 2884SOL    HW220115   3.428   0.385  13.872 -0.1964  0.0052 -0.4383
 2885SOL     OW20116   2.875   3.716   5.881 -0.6467 -0.1990  0.0118
 2885SOL    HW120117   2.792   3.720   5.834 -0.2059  2.4263 -0.5367
 2885SOL    HW220118   2.861   3.775   5.955  1.3696 -0.8219  0.8821
 2886SOL     OW20119   2.176   3.736   3.396 -0.1355  0.1605 -0.3411
 2886SOL    HW120120   2.183   3.775   3.484  1.0522 -3.0539  0.9975
 2886SOL    HW220121   2.102   3.789   3.368  0.9198  1.9488  0.2553
 2887SOL     OW20122   3.802   4.605  12.279  0.0011  0.3258  0.5632
 2887SOL    HW120123   3.739   4.607  12.350 -0.8151  0.3341 -0.1585
 2887SOL    HW220124   3.854   4.526  12.297  2.3023  1.6071 -0.3856
 2888SOL     OW20125   0.787   3.294   2.469 -0.0388 -0.0517 -0.1312
 2888SOL    HW120126   0.833   3.361   2.419 -0.1813 -1.0914 -1.6369
 2888SOL    HW220127   0.716   3.346   2.508 -0.3369 -0.2683 -0.3769
 2889SOL     OW20128   2.465   3.214  13.034 -0.3734 -0.2777 -0.2299
 2889SOL    HW120129   2.383   3.243  12.994  0.7403  1.4521 -1.2658
 2889SOL    HW220130   2.458   3.230  13.128  1.2936 -1.6767  0.1387
 2890SOL     OW20131   0.718   2.099   5.302 -0.0728  0.4423  0.0163
 2890SOL    HW120132   0.745   2.183   5.339  1.9906 -0.0697 -0.2784
 2890SOL    HW220133   0.755   2.114   5.215  0.2269  2.8267  0.5788
 2891SOL     OW20134   1.112   1.711   6.631  0.1072  0.5461  0.3060
 2891SOL    HW120135   1.028   1.665   6.626  1.1235 -1.4234  1.4434
 2891SOL    HW220136   1.166   1.644   6.589 -0.5085 -0.3822  1.0021
 2892SOL     OW20137   1.554   4.008   4.533  0.2077  0.8088 -0.2207
 2892SOL    HW120138   1.527   4.027   4.443 -3.0446 -2.9468 -0.0275
 2892SOL    HW220139   1.646   4.035   4.528  0.5858 -0.7387 -1.8823
 2893SOL     OW20140   2.166   0.235   3.642  0.3365 -0.6880  0.3576
 2893SOL    HW120141   2.240   0.278   3.685 -0.0078  0.4916 -0.2422
 2893SOL    HW220142   2.193   0.252   3.552 -0.2820  0.2684  0.3554
 2894SOL     OW20143   1.231   1.671   3.075 -0.0565 -0.0719  0.2185
 2894SOL    HW120144   1.323   1.663   3.098  0.6176 -2.1342 -3.2560
 2894SOL    HW220145   1.238   1.726   2.996  0.8781  0.6655  0.8243
 2895SOL     OW20146   4.200   0.910   3.033 -0.1627 -0.3487  0.6324
 2895SOL    HW120147   4.259   0.893   3.107 -1.3295  4.6448  2.6787
 2895SOL    HW220148   4.241   0.988   2.995 -1.6737 -0.9772 -2.2452
 2896SOL     OW20149   4.318   4.404   8.253 -0.6092 -0.0302 -0.0390
 2896SOL    HW120150   4.286   4.315   8.237 -1.6837  0.3231  0.1230
 2896SOL    HW220151   4.237   4.436   8.292 -0.7259 -1.4124  0.8628
 2897SOL     OW20152   3.062   3.516  17.278 -0.5495  0.3229  0.4221
 2897SOL    HW120153   3.110   3.459  17.337 -0.0964 -2.1773 -2.3243
 2897SOL    HW220154   3.114   3.496  17.199  0.9157 -0.4282  1.5784
 2898SOL     OW20155   2.923   3.946   0.645 -0.3057  0.5441  0.3388
 2898SOL    HW120156   2.967   3.981   0.723  1.4850  2.8236 -1.6815
 2898SOL    HW220157   2.895   3.857   0.666 -2.4721  0.9316 -0.8952
 2899SOL     OW20158   1.343   0.428   4.464 -0.3660  0.1735  0.6334
 2899SOL    HW120159   1.352   0.446   4.558  0.5213 -0.4185  0.6708
 2899SOL    HW220160   1.249   0.429   4.450 -0.1322 -1.6834 -0.9829
 2900SOL     OW20161   3.566   2.253   3.263 -0.1835 -0.6874  0.1258
 2900SOL    HW120162   3.572   2.244   3.168  3.3225  1.4052  0.1572
 2900SOL    HW220163   3.587   2.346   3.272 -1.7867 -0.2336 -0.8508
 2901SOL     OW20164   1.691   3.184   4.298 -0.1570 -0.1131 -0.5668
 2901SOL    HW120165   1.769   3.162   4.350 -0.6456  1.1127  0.6903
 2901SOL    HW220166   1.715   3.236   4.221  1.0936  2.2976  1.4516
 2902SOL     OW20167   4.109   3.411   6.782 -0.5088 -0.5141 -0.3501
 2902SOL    HW120168   4.072   3.365   6.857  2.4107  0.0927  1.4390
 2902SOL    HW220169   4.065   3.494   6.798  0.2298 -0.0521 -0.7338
 2903SOL     OW20170   0.119   0.638   5.358 -0.0225 -0.2357  0.4318
 2903SOL    HW120171   0.146   0.547   5.372  0.3986 -0.1118  0.4509
 2903SOL    HW220172   0.181   0.662   5.288 -1.4849  0.0477 -0.7656
 2904SOL     OW20173   4.675   3.899   3.389  0.1264  0.2378  0.0615
 2904SOL    HW120174   4.696   3.924   3.299  0.3003 -0.6953 -0.1627
 2904SOL    HW220175   4.660   3.804   3.383 -0.8936  0.4235 -0.3526
 2905SOL     OW20176   3.199   4.051  15.593  0.3768  0.1974 -0.2004
 2905SOL    HW120177   3.196   4.146  15.591  0.2407  0.1680 -1.4339
 2905SOL    HW220178   3.203   4.035  15.687 -0.7405 -0.3688 -0.2458
 2906SOL     OW20179   1.212   1.600   5.837  0.6341 -0.1258 -0.0024
 2906SOL    HW120180   1.263   1.677   5.811 -0.6853  0.4429 -0.9417
 2906SOL    HW220181   1.278   1.532   5.824  0.4021 -0.2955 -0.2885
 2907SOL     OW20182   2.360   3.481   6.054  0.0793  0.3539 -0.4834
 2907SOL    HW120183   2.420   3.409   6.071  1.1742  0.9241 -1.9727
 2907SOL    HW220184   2.291   3.479   6.120 -0.6533 -0.4057 -1.2731
 2908SOL     OW20185   0.864   4.251   1.714 -0.1433  0.1414  0.5117
 2908SOL    HW120186   0.793   4.201   1.676  0.6038 -0.4027 -0.1671
 2908SOL    HW220187   0.892   4.197   1.788 -3.0545 -0.8823  0.8534
 2909SOL     OW20188   3.716   1.111   5.489  0.7364 -0.3192  0.5110
 2909SOL    HW120189   3.645   1.049   5.472  0.7558  0.4320 -2.3777
 2909SOL    HW220190   3.668   1.194   5.491  2.4382  0.6530  1.2019
 2910SOL     OW20191   0.038   0.546  16.077 -0.2649 -0.2776  0.1144
 2910SOL    HW120192   4.698   0.607  16.109 -1.0846 -2.5136  2.7691
 2910SOL    HW220193   0.056   0.487  16.151 -0.6181  1.4289  1.5626
 2911SOL     OW20194   3.400   3.901  14.246 -0.4503 -0.4867  0.3349
 2911SOL    HW120195   3.388   3.806  14.245  0.5126 -0.6154  1.0093
 2911SOL    HW220196   3.350   3.937  14.173  0.6884  0.6675  0.1317
 2912SOL     OW20197   4.441   1.751  16.189 -0.0348  0.3862 -0.1452
 2912SOL    HW120198   4.349   1.730  16.200 -0.1882  1.5125  0.7839
 2912SOL    HW220199   4.431   1.846  16.203  0.7332  0.3326  0.7919
 2913SOL     OW20200   4.096   0.175  15.794 -0.3164 -0.3054 -0.2518
 2913SOL    HW120201   4.052   0.249  15.835 -1.3551 -0.2617 -1.4608
 2913SOL    HW220202   4.112   0.219  15.711  0.8495  1.8412  1.1314
 2914SOL     OW20203   3.919   0.756   6.229  0.5018 -0.2992 -0.1260
 2914SOL    HW120204   3.857   0.828   6.234 -1.9572 -2.4226  0.0873
 2914SOL    HW220205   3.880   0.704   6.299 -0.5599  1.5986  0.6981
 2915SOL     OW20206   1.174   2.570   5.371 -0.0967 -0.0963 -0.0253
 2915SOL    HW120207   1.183   2.482   5.410  0.6512 -0.5653 -1.2656
 2915SOL    HW220208   1.198   2.627   5.444 -0.1250 -1.0935  0.7756
 2916SOL     OW20209   2.092   1.268  13.520 -0.3106 -0.0620  1.1311
 2916SOL    HW120210   2.064   1.306  13.604 -0.4737  0.0741  1.0143
 2916SOL    HW220211   2.063   1.331  13.454 -1.7740 -1.7176  0.2132
 2917SOL     OW20212   0.328   1.712   3.097  0.4519 -0.1797 -0.2142
 2917SOL    HW120213   0.235   1.692   3.082 -0.5959  3.4810  1.4684
 2917SOL    HW220214   0.324   1.806   3.111 -0.0468 -0.0614 -1.1387
 2918SOL     OW20215   0.207   0.354  13.185  0.3767  0.4116 -0.1758
 2918SOL    HW120216   0.140   0.372  13.119  2.4370  0.6745 -2.2022
 2918SOL    HW220217   0.285   0.329  13.134  1.2585  1.7959  0.5088
 2919SOL     OW20218   1.689   2.261   8.670 -0.6013 -0.1703  0.2904
 2919SOL    HW120219   1.748   2.256   8.745  2.1379 -0.1634 -1.9039
 2919SOL    HW220220   1.626   2.325   8.703  0.0815  0.5648  0.1409
 2920SOL     OW20221   3.797   0.797   6.920  0.0834 -0.0922  0.4061
 2920SOL    HW120222   3.755   0.883   6.924 -0.3036 -0.2583 -0.1386
 2920SOL    HW220223   3.844   0.808   6.837  0.3527 -1.8321  0.3418
 2921SOL     OW20224   0.183   4.594   3.157 -0.1429  0.0442  0.0298
 2921SOL    HW120225   0.158   4.541   3.081 -0.7796 -1.4734  1.2983
 2921SOL    HW220226   0.111   4.585   3.220  0.5138 -0.6276  0.6752
 2922SOL     OW20227   1.072   1.039   8.227  0.5205  0.8359 -0.1780
 2922SOL    HW120228   1.012   1.100   8.184 -0.9072  0.3528  1.1498
 2922SOL    HW220229   1.060   0.950   8.195  0.0248  0.7816  0.1721
 2923SOL     OW20230   2.863   4.518   6.030 -0.1910 -0.8017 -0.3194
 2923SOL    HW120231   2.818   4.499   5.948 -0.2374  0.6132 -0.6249
 2923SOL    HW220232   2.951   4.517   5.992 -0.4258 -1.2452 -0.8576
 2924SOL     OW20233   4.503   4.656   8.682  0.3572  0.4321 -0.0071
 2924SOL    HW120234   4.575   4.664   8.744  0.1015 -0.8165  0.4495
 2924SOL    HW220235   4.563   4.620   8.616  0.1256 -1.3238  0.7521
 2925SOL     OW20236   2.649   1.497   2.756 -0.1858  0.2504 -0.2093
 2925SOL    HW120237   2.598   1.539   2.687 -0.4659  0.2859  0.0159
 2925SOL    HW220238   2.721   1.464   2.703 -0.5591 -1.0748  0.1133
 2926SOL     OW20239   1.983   1.683   5.739  0.1649 -0.7130 -0.4986
 2926SOL    HW120240   1.910   1.620   5.746  1.2338 -2.1274 -2.1357
 2926SOL    HW220241   1.924   1.758   5.739 -1.6814 -2.1427 -2.1538
 2927SOL     OW20242   0.783   4.079  11.363  0.1779 -0.0282  0.2607
 2927SOL    HW120243   0.786   4.081  11.458  0.3831 -0.6381  0.2626
 2927SOL    HW220244   0.726   4.155  11.349  2.6279  1.4611 -1.6397
 2928SOL     OW20245   0.875   2.157   0.142 -0.7460  0.0464  0.2927
 2928SOL    HW120246   0.800   2.104   0.166 -0.2417  0.0013  1.7920
 2928SOL    HW220247   0.856   2.175   0.050  2.3477 -1.4273 -0.6539
 2929SOL     OW20248   2.084   2.438   8.352  0.3261  0.8292 -0.4380
 2929SOL    HW120249   2.023   2.495   8.306  1.2922  2.1105 -0.1436
 2929SOL    HW220250   2.051   2.361   8.306 -1.0052  0.5879  0.9334
 2930SOL     OW20251   3.647   1.696   9.130 -0.4105 -0.6250 -0.1775
 2930SOL    HW120252   3.568   1.747   9.110 -0.5356 -0.1488  1.5645
 2930SOL    HW220253   3.627   1.671   9.220 -1.7104 -1.9382 -0.8234
 2931SOL     OW20254   1.023   4.406  15.962  0.3370 -0.0165  1.0463
 2931SOL    HW120255   1.091   4.444  16.017 -0.1340 -0.2797  1.8201
 2931SOL    HW220256   0.948   4.464  15.974 -0.4714 -1.1527  1.4848
 2932SOL     OW20257   2.810   1.595  12.745  0.0758 -0.3451 -0.4644
 2932SOL    HW120258   2.743   1.606  12.813 -0.7128 -0.3674 -1.2374
 2932SOL    HW220259   2.776   1.522  12.693 -0.6630  1.5120 -2.5736
 2933SOL     OW20260   2.621   4.270   1.967  0.4358 -1.0165  0.1909
 2933SOL    HW120261   2.610   4.365   1.958  0.0276 -1.1019 -0.2017
 2933SOL    HW220262   2.578   4.238   1.888  2.4305 -0.8869 -0.9570
 2934SOL     OW20263   4.558   1.083   3.706 -0.3668 -0.1054  0.1985
 2934SOL    HW120264   4.509   1.105   3.785  0.5135 -1.8718  1.2322
 2934SOL    HW220265   4.630   1.027   3.736  0.1374 -0.1499 -1.0879
 2935SOL     OW20266   0.624   4.255   5.635  0.8331 -0.0313 -0.4113
 2935SOL    HW120267   0.530   4.247   5.645  1.0803 -1.2482  0.9934
 2935SOL    HW220268   0.650   4.164   5.646 -0.1821 -0.1520  0.9293
 2936SOL     OW20269   4.669   1.783   4.805 -0.2483 -0.5039 -0.1730
 2936SOL    HW120270   0.011   1.810   4.866  0.3811 -3.0297  0.2397
 2936SOL    HW220271   4.715   1.706   4.771 -0.8413 -0.8428 -0.2003
 2937SOL     OW20272   3.216   0.953   5.906  0.8522 -0.2209 -0.1259
 2937SOL    HW120273   3.246   0.922   5.820 -0.4042  0.9257 -0.9840
 2937SOL    HW220274   3.220   0.875   5.961  1.0399 -1.4489 -1.8565
 2938SOL     OW20275   1.784   2.862  15.803  0.2956  0.6930 -0.1861
 2938SOL    HW120276   1.705   2.809  15.815  0.6950  0.2966  0.7687
 2938SOL    HW220277   1.830   2.839  15.884 -0.5927  0.9090  0.3784
 2939SOL     OW20278   3.620   2.196   6.082 -0.2300 -0.5454 -0.2179
 2939SOL    HW120279   3.544   2.185   6.025 -0.5566  3.1705 -0.4711
 2939SOL    HW220280   3.651   2.282   6.055 -0.2049 -0.4090  0.2345
 2940SOL     OW20281   4.092   0.881   8.285  0.2001 -0.1425  0.4141
 2940SOL    HW120282   4.123   0.870   8.375 -0.5772  2.0752  0.9289
 2940SOL    HW220283   4.134   0.805   8.245  0.9337  2.0248 -2.9036
 2941SOL     OW20284   0.439   2.269  15.204  0.5123  0.4298  0.5487
 2941SOL    HW120285   0.378   2.215  15.254 -1.7662  2.0727 -0.4183
 2941SOL    HW220286   0.407   2.253  15.115  0.3552  0.8084  0.5332
 2942SOL     OW20287   1.652   0.070   0.165 -0.2720  0.4870 -0.7282
 2942SOL    HW120288   1.733   0.092   0.211  0.5113  0.4451 -2.0892
 2942SOL    HW220289   1.614   4.720   0.211  1.5929 -0.1270 -0.1872
 2943SOL     OW20290   2.565   4.257   1.049  0.1113 -0.3995  0.3001
 2943SOL    HW120291   2.515   4.302   0.981 -0.6566  0.0154  1.1387
 2943SOL    HW220292   2.577   4.333   1.107  1.4586 -1.1802  1.0411
 2944SOL     OW20293   0.812   2.839   6.519 -0.7003 -0.3853  0.6277
 2944SOL    HW120294   0.728   2.807   6.551 -1.5129  1.0883  0.0240
 2944SOL    HW220295   0.789   2.906   6.454 -1.3424 -0.8956  0.3255
 2945SOL     OW20296   2.880   0.533   4.657 -0.0740 -0.3340 -0.1702
 2945SOL    HW120297   2.864   0.465   4.591 -1.1230 -0.8780  0.6383
 2945SOL    HW220298   2.809   0.596   4.640 -1.0003 -0.7213  2.2614
 2946SOL     OW20299   2.555   3.194   2.297 -0.1281  0.0260  0.5324
 2946SOL    HW120300   2.612   3.177   2.372 -0.4481 -0.2565  0.7160
 2946SOL    HW220301   2.617   3.210   2.226 -0.5421 -0.1354  0.1310
 2947SOL     OW20302   3.042   3.373   2.488 -0.2297 -0.0718  0.2123
 2947SOL    HW120303   3.022   3.383   2.582  1.9844 -1.5205  0.8265
 2947SOL    HW220304   3.123   3.422   2.473  1.1954 -1.9842  1.5619
 2948SOL     OW20305   4.461   0.343   5.284  0.0730 -0.1814 -0.0613
 2948SOL    HW120306   4.517   0.268   5.265 -1.2689 -1.0356 -0.6278
 2948SOL    HW220307   4.430   0.313   5.370 -0.6119  2.3547  0.5939
 2949SOL     OW20308   0.875   2.405   2.914  0.5394 -0.3323 -0.0910
 2949SOL    HW120309   0.852   2.493   2.885  1.4492 -0.2208 -0.4731
 2949SOL    HW220310   0.795   2.355   2.905  1.0758 -1.1235 -0.4288
 2950SOL     OW20311   1.415   2.039   6.686 -0.0115 -0.3241 -0.0581
 2950SOL    HW120312   1.366   1.986   6.749 -1.9537  1.0352 -0.3914
 2950SOL    HW220313   1.507   2.023   6.707  0.3687 -0.1481 -1.5714
 2951SOL     OW20314   0.608   4.018  15.729 -0.1937  0.1116 -0.5725
 2951SOL    HW120315   0.559   4.084  15.681 -1.1959 -0.0679  0.2168
 2951SOL    HW220316   0.538   3.992  15.788 -2.2630 -0.7216 -3.4283
 2952SOL     OW20317   0.176   2.183   7.125 -0.3843  0.0987 -0.3658
 2952SOL    HW120318   0.177   2.200   7.219 -0.8296  0.7543 -0.4841
 2952SOL    HW220319   0.102   2.123   7.135  0.0872 -0.5527 -0.7902
 2953SOL     OW20320   2.865   4.253   0.637 -0.0791 -0.1868 -0.3223
 2953SOL    HW120321   2.957   4.229   0.640 -0.0593  0.4872  3.8234
 2953SOL    HW220322   2.862   4.304   0.556 -1.0383  0.0242 -0.1597
 2954SOL     OW20323   4.301   3.130   4.654  0.3289  0.8432 -0.0557
 2954SOL    HW120324   4.232   3.068   4.678 -0.8600  1.6678 -1.2837
 2954SOL    HW220325   4.339   3.138   4.741 -0.7597 -0.6944  0.5665
 2955SOL     OW20326   0.200   2.876  17.248 -0.3904  0.4949 -0.0993
 2955SOL    HW120327   0.106   2.860  17.252 -0.4625  1.1951  1.1270
 2955SOL    HW220328   0.236   2.803  17.197 -0.6186 -1.7760  3.0033
 2956SOL     OW20329   3.167   4.719   2.569 -0.7684 -0.4632  0.1909
 2956SOL    HW120330   3.076   0.009   2.544 -0.5205  1.7070  0.6374
 2956SOL    HW220331   3.147   4.675   2.652  0.7530 -2.4986 -0.5372
 2957SOL     OW20332   4.648   2.777   3.149 -0.1310 -0.1131 -0.2758
 2957SOL    HW120333   4.577   2.750   3.206  0.0290  0.3108  0.1193
 2957SOL    HW220334   4.629   2.724   3.071  1.8630 -1.1919 -0.0217
 2958SOL     OW20335   4.486   2.039   7.507  0.0433 -0.0951 -1.0289
 2958SOL    HW120336   4.572   2.013   7.475  0.1742 -0.1202 -0.6509
 2958SOL    HW220337   4.510   2.055   7.598  0.1158 -1.2975 -0.8435
 2959SOL     OW20338   3.877   0.607  13.569  0.0305 -0.3121  0.3845
 2959SOL    HW120339   3.912   0.610  13.480  3.0617  2.2878  1.6441
 2959SOL    HW220340   3.931   0.549  13.624 -0.5648 -1.6469 -0.4594
 2960SOL     OW20341   3.853   1.418   9.479 -0.1959  0.2253  0.0253
 2960SOL    HW120342   3.832   1.335   9.523 -0.6054 -0.0062 -0.5944
 2960SOL    HW220343   3.768   1.426   9.435 -0.8842 -3.5307  0.5883
 2961SOL     OW20344   1.040   0.617   7.674  0.1974 -0.4271  0.5207
 2961SOL    HW120345   1.029   0.554   7.745 -0.4582 -0.5148  0.3373
 2961SOL    HW220346   0.966   0.676   7.681 -0.8701 -1.5169 -1.4289
 2962SOL     OW20347   4.342   2.727  14.997  0.2314  0.0025  0.3072
 2962SOL    HW120348   4.398   2.673  14.942 -1.0555 -0.0827 -0.9351
 2962SOL    HW220349   4.405   2.790  15.032  1.6527 -0.1673 -1.9932
 2963SOL     OW20350   4.582   3.267   2.344  0.1160 -0.6925 -0.4641
 2963SOL    HW120351   4.546   3.337   2.399  0.7968  0.3338 -1.3295
 2963SOL    HW220352   4.674   3.292   2.346  0.1225 -0.6854 -0.9364
 2964SOL     OW20353   0.615   0.785   1.100  0.0225 -0.8097  0.1350
 2964SOL    HW120354   0.672   0.814   1.028 -0.1179  0.7487  0.6711
 2964SOL    HW220355   0.677   0.718   1.127  0.2395 -1.1733 -1.2381
 2965SOL     OW20356   3.295   4.339   7.968 -0.1042 -0.1673  0.0856
 2965SOL    HW120357   3.380   4.382   7.962  0.1857 -0.8408 -0.6136
 2965SOL    HW220358   3.328   4.270   8.025  2.3039  2.7195  2.1566
 2966SOL     OW20359   4.293   3.350   0.148  0.1639 -0.0341  0.3365
 2966SOL    HW120360   4.372   3.396   0.178 -1.1175  1.5185  1.3309
 2966SOL    HW220361   4.220   3.410   0.160  1.2448  1.6893 -1.7382
 2967SOL     OW20362   3.583   4.610   4.066 -1.1624 -0.3579  0.7157
 2967SOL    HW120363   3.488   4.598   4.067 -1.2525  0.1413 -1.8437
 2967SOL    HW220364   3.596   4.704   4.079 -0.4915 -0.3187 -0.2761
 2968SOL     OW20365   2.580   2.355   5.800  0.8903 -0.2273  0.5863
 2968SOL    HW120366   2.533   2.287   5.849 -0.0809  0.6283  0.8423
 2968SOL    HW220367   2.585   2.316   5.713 -1.2033 -1.0402  0.8270
 2969SOL     OW20368   0.547   0.112   4.357  0.6578 -0.1625 -0.7389
 2969SOL    HW120369   0.552   0.037   4.297 -1.3497 -0.9807  0.1129
 2969SOL    HW220370   0.528   0.077   4.444  1.4654 -1.6565 -1.1517
 2970SOL     OW20371   2.930   3.013  15.794  0.2378 -0.3728  0.0583
 2970SOL    HW120372   3.003   3.006  15.734 -0.1114 -2.0567 -0.1841
 2970SOL    HW220373   2.935   3.108  15.806 -0.4966 -0.4255  0.7953
 2971SOL     OW20374   2.075   2.331   1.837  0.6171 -0.6492 -0.2255
 2971SOL    HW120375   2.091   2.260   1.775 -1.7377 -0.6023 -0.8887
 2971SOL    HW220376   2.162   2.365   1.858 -1.7260  5.7804 -0.9713
 2972SOL     OW20377   4.360   3.213   8.613 -0.0944 -0.1580 -0.1478
 2972SOL    HW120378   4.400   3.281   8.559  1.6419 -3.5692 -3.1083
 2972SOL    HW220379   4.342   3.264   8.692  1.4245 -0.0187  0.0952
 2973SOL     OW20380   2.512   3.258   4.867  0.3333  0.4849 -0.0232
 2973SOL    HW120381   2.582   3.282   4.928  0.6902  2.0767 -1.0743
 2973SOL    HW220382   2.549   3.284   4.783  1.5437  1.2672  0.7450
 2974SOL     OW20383   2.218   0.180   2.136  1.0291  0.4712 -0.1759
 2974SOL    HW120384   2.197   0.136   2.219 -0.7969 -1.5490 -1.7208
 2974SOL    HW220385   2.189   0.111   2.077  1.6809 -1.4684  1.7635
 2975SOL     OW20386   4.296   4.615   6.919  0.0441  0.1560 -0.2699
 2975SOL    HW120387   4.296   4.589   7.011  2.6150  2.1350  0.3263
 2975SOL    HW220388   4.211   4.579   6.895  0.6905 -0.2218 -2.0260
 2976SOL     OW20389   4.414   2.538   2.159 -0.3570  0.0447  0.4521
 2976SOL    HW120390   4.364   2.612   2.192 -3.2319 -1.0605 -1.3306
 2976SOL    HW220391   4.450   2.557   2.072 -0.0713  0.5566  0.6876
 2977SOL     OW20392   4.403   0.198   6.595  0.1354 -0.2341  0.5991
 2977SOL    HW120393   4.308   0.197   6.587  0.0553 -1.1029  1.6411
 2977SOL    HW220394   4.411   0.185   6.690  0.0000  1.2688  0.8104
 2978SOL     OW20395   1.624   3.246   6.720 -0.3785  0.0703  0.1805
 2978SOL    HW120396   1.657   3.249   6.810 -0.9978  0.0821  0.4042
 2978SOL    HW220397   1.662   3.163   6.691 -1.6758 -0.8142  1.0061
 2979SOL     OW20398   2.359   0.928   8.965  0.1130 -0.6582 -0.0160
 2979SOL    HW120399   2.444   0.905   9.003 -1.3028 -1.7725  2.5495
 2979SOL    HW220400   2.299   0.901   9.035  1.3496  0.1804  1.3558
 2980SOL     OW20401   2.180   2.705   1.266 -0.2920 -0.0240  0.5747
 2980SOL    HW120402   2.110   2.640   1.265 -1.1336  0.9077  0.1685
 2980SOL    HW220403   2.221   2.691   1.352  1.9445  2.7676 -0.0359
 2981SOL     OW20404   1.943   2.284  16.577  0.0862 -0.6442 -0.3625
 2981SOL    HW120405   1.907   2.224  16.511 -0.5926  0.1297 -0.6922
 2981SOL    HW220406   1.995   2.346  16.527  0.8072 -2.7759 -2.2983
 2982SOL     OW20407   2.104   3.694   7.688  0.4170 -0.2839 -0.0950
 2982SOL    HW120408   2.100   3.598   7.695 -1.0941 -0.2849 -0.8057
 2982SOL    HW220409   2.060   3.709   7.603 -0.3941  1.0571  0.5617
 2983SOL     OW20410   2.568   3.860   1.836 -0.2522  0.1240 -0.0100
 2983SOL    HW120411   2.603   3.799   1.772  0.8570  0.4945  0.2341
 2983SOL    HW220412   2.585   3.939   1.784  1.7934 -0.1065  0.3112
 2984SOL     OW20413   2.419   2.620  12.230 -0.3769  0.2662  0.0169
 2984SOL    HW120414   2.442   2.574  12.311 -2.4064 -1.2106 -0.2589
 2984SOL    HW220415   2.362   2.565  12.177  0.3785 -0.8101  0.3185
 2985SOL     OW20416   1.860   2.668   8.735 -0.7025 -0.0795 -0.3103
 2985SOL    HW120417   1.928   2.662   8.803  2.8163 -2.3291 -3.9888
 2985SOL    HW220418   1.880   2.593   8.679 -1.0656 -0.4451  0.0470
 2986SOL     OW20419   4.542   3.400   4.815  0.3724  0.5857  0.4838
 2986SOL    HW120420   4.464   3.455   4.804 -1.1801 -1.5570  0.7406
 2986SOL    HW220421   4.602   3.467   4.846  0.4669  0.8190 -0.2036
 2987SOL     OW20422   2.671   2.258  10.961  0.2880 -0.0657 -0.2086
 2987SOL    HW120423   2.623   2.189  11.006  1.2123  0.7381  2.0169
 2987SOL    HW220424   2.650   2.240  10.870 -2.4536 -3.3946  1.1213
 2988SOL     OW20425   2.276   0.694  13.131  0.7979 -0.3568  0.7129
 2988SOL    HW120426   2.289   0.599  13.137 -1.1365 -0.4672  2.9733
 2988SOL    HW220427   2.322   0.716  13.050  0.7679  1.9944  1.3396
 2989SOL     OW20428   3.225   1.035  13.398 -0.0194  0.0078 -0.3004
 2989SOL    HW120429   3.259   0.999  13.481  1.8185 -0.3481 -1.1940
 2989SOL    HW220430   3.134   1.020  13.421  0.4171 -0.9212  0.8274
 2990SOL     OW20431   3.407   0.601   9.308 -0.8065 -0.3689  0.3321
 2990SOL    HW120432   3.399   0.536   9.239  0.6117  0.1733 -0.3503
 2990SOL    HW220433   3.452   0.544   9.370 -2.8914 -0.8717  1.3953
 2991SOL     OW20434   4.230   1.800   9.392  0.2624 -0.4760 -0.0257
 2991SOL    HW120435   4.316   1.760   9.402 -0.0630 -1.3928 -0.9422
 2991SOL    HW220436   4.178   1.721   9.378  0.4231 -0.9552  2.0713
 2992SOL     OW20437   2.653   2.407  14.141  0.3561  0.2405  0.0564
 2992SOL    HW120438   2.655   2.380  14.049 -2.5166 -0.6770  0.2549
 2992SOL    HW220439   2.743   2.382  14.160 -0.0920 -1.4586 -0.0197
 2993SOL     OW20440   1.710   3.405  11.000  0.1172  0.1561 -0.2210
 2993SOL    HW120441   1.789   3.377  11.047 -1.1512 -0.3343  1.5984
 2993SOL    HW220442   1.655   3.424  11.076  0.8334 -0.6195  0.4979
 2994SOL     OW20443   3.574   0.857   7.760 -0.3197 -0.2771  0.0851
 2994SOL    HW120444   3.510   0.891   7.823 -0.5508 -0.7274  0.0932
 2994SOL    HW220445   3.651   0.845   7.816 -0.4650 -0.3851  0.2633
 2995SOL     OW20446   4.381   3.487   5.825  0.6818  0.3576  0.0950
 2995SOL    HW120447   4.343   3.417   5.773 -0.1568  0.6510  0.3180
 2995SOL    HW220448   4.344   3.478   5.913 -2.1334 -0.5624 -1.2022
 2996SOL     OW20449   2.585   1.641   6.693 -0.4263  0.0479 -0.0118
 2996SOL    HW120450   2.552   1.584   6.624 -2.1155 -1.4458  2.0250
 2996SOL    HW220451   2.615   1.719   6.648  1.7287 -1.5365 -1.2935
 2997SOL     OW20452   2.968   1.271   3.457 -0.1959  0.3402 -0.6301
 2997SOL    HW120453   2.945   1.364   3.455  0.0815  0.4207 -0.2337
 2997SOL    HW220454   2.893   1.223   3.425  1.5983 -3.2698  0.5900
 2998SOL     OW20455   1.816   4.004   6.936 -0.1183 -0.0027 -0.1297
 2998SOL    HW120456   1.905   4.019   6.904 -0.2583  1.8504  0.3662
 2998SOL    HW220457   1.833   4.047   7.020  2.6817 -0.5629 -0.4170
 2999SOL     OW20458   1.677   4.626  17.652 -0.3929  0.4115 -0.3574
 2999SOL    HW120459   1.678   4.554   0.010  3.0751 -0.5369 -1.4900
 2999SOL    HW220460   1.666   4.700   0.006 -3.0205 -0.8735  0.7508
 3000SOL     OW20461   2.913   0.332   2.492 -0.1449  0.5448  0.5368
 3000SOL    HW120462   2.888   0.269   2.425  2.1130 -0.4338  0.6349
 3000SOL    HW220463   2.848   0.403   2.489  0.0782  0.7354  0.2527
 3001SOL     OW20464   2.120   2.245   3.835 -0.3876 -0.4002  0.4580
 3001SOL    HW120465   2.078   2.264   3.750  0.5824 -1.6359 -0.2889
 3001SOL    HW220466   2.089   2.155   3.845 -0.2812 -0.5829 -0.7801
 3002SOL     OW20467   3.053   1.415  11.589  0.0821  0.3527 -0.2507
 3002SOL    HW120468   3.034   1.488  11.648 -0.5997 -1.8681  2.2698
 3002SOL    HW220469   3.062   1.465  11.508  0.6624  0.2366 -0.2519
 3003SOL     OW20470   3.874   4.041   3.163 -0.4507 -0.2595  0.5707
 3003SOL    HW120471   3.868   4.135   3.143 -0.9174 -0.9518 -2.5297
 3003SOL    HW220472   3.968   4.022   3.163 -0.5328 -0.6644  0.3001
 3004SOL     OW20473   0.493   1.300   6.701 -0.4443  0.5398 -0.2590
 3004SOL    HW120474   0.482   1.214   6.743 -0.9258  1.3105  1.1750
 3004SOL    HW220475   0.465   1.358   6.771  0.7508  1.7888 -0.8258
 3005SOL     OW20476   3.309   3.306   8.180 -0.7695  0.3520  0.7066
 3005SOL    HW120477   3.366   3.316   8.256  0.6075  1.5796 -0.4710
 3005SOL    HW220478   3.300   3.212   8.164  1.8112 -0.0098  1.3824
 3006SOL     OW20479   2.043   3.276   7.977 -0.0464 -0.1418  0.0488
 3006SOL    HW120480   2.078   3.365   7.976 -1.1485  0.3209  2.9827
 3006SOL    HW220481   1.952   3.279   7.947  0.3107  1.0502 -0.9133
 3007SOL     OW20482   3.648   2.602  16.644  0.2180  0.7205 -0.1530
 3007SOL    HW120483   3.714   2.587  16.712 -0.3657 -0.3076  0.1920
 3007SOL    HW220484   3.566   2.587  16.692  2.4036 -0.5449  3.2089
 3008SOL     OW20485   4.383   0.422  13.014  0.5803  0.6770  0.4098
 3008SOL    HW120486   4.423   0.359  13.075 -0.8376 -1.2744 -0.6542
 3008SOL    HW220487   4.293   0.401  13.037  0.8619 -0.1708  0.7398
 3009SOL     OW20488   4.059   2.211   7.530 -0.5411  0.1777  0.5100
 3009SOL    HW120489   4.109   2.155   7.470 -0.2297 -2.7959  3.5447
 3009SOL    HW220490   4.017   2.271   7.468 -0.1628 -0.4296 -0.3514
 3010SOL     OW20491   3.904   1.668   7.678 -0.8799 -0.4410  0.1351
 3010SOL    HW120492   3.988   1.712   7.689 -1.3802  0.9527 -1.5876
 3010SOL    HW220493   3.940   1.583   7.653  1.2548  0.7733 -0.8475
 3011SOL     OW20494   1.875   1.813   1.703 -0.0474 -0.1009 -0.4221
 3011SOL    HW120495   1.914   1.731   1.733  0.0364 -0.3804 -1.2871
 3011SOL    HW220496   1.819   1.785   1.631 -1.5464 -1.2682  1.2119
 3012SOL     OW20497   0.117   0.897   8.951  0.5199  0.0071  0.6540
 3012SOL    HW120498   0.161   0.934   8.874  1.6040  1.0856  1.7799
 3012SOL    HW220499   0.120   0.975   9.006 -0.3661 -0.1291  0.8905
 3013SOL     OW20500   3.733   1.080   4.206  0.7430  0.4789  0.3088
 3013SOL    HW120501   3.656   1.129   4.177 -0.1937 -1.2918 -0.2103
 3013SOL    HW220502   3.794   1.149   4.230 -0.2823  1.1518  0.9602
 3014SOL     OW20503   4.662   3.802   2.675 -0.0629  0.4941 -0.0932
 3014SOL    HW120504   4.589   3.824   2.616 -0.9179  0.9620  1.1452
 3014SOL    HW220505   4.693   3.885   2.710  2.6358 -0.1455 -0.9815
 3015SOL     OW20506   2.511   3.576   5.427  0.0627 -0.1885  0.1547
 3015SOL    HW120507   2.533   3.669   5.425 -0.8197 -0.0195 -1.9944
 3015SOL    HW220508   2.458   3.558   5.505 -0.2246  1.1845  0.2784
 3016SOL     OW20509   2.535   2.380   7.561 -0.2293 -0.1130 -0.1529
 3016SOL    HW120510   2.543   2.455   7.620  0.0289 -0.2820  0.0265
 3016SOL    HW220511   2.625   2.357   7.538 -0.5336  0.9662 -2.4814
 3017SOL     OW20512   3.791   2.987   1.646  0.1155  0.1031  0.3626
 3017SOL    HW120513   3.822   2.987   1.556  0.3809  0.1776  0.4541
 3017SOL    HW220514   3.749   2.901   1.652 -1.0541  0.8137  2.4266
 3018SOL     OW20515   2.800   3.843   6.822 -0.2423  0.2741  0.3704
 3018SOL    HW120516   2.865   3.807   6.762 -1.4103 -0.7199 -0.2822
 3018SOL    HW220517   2.848   3.919   6.855  3.4633 -0.6055 -3.0144
 3019SOL     OW20518   1.151   1.546   7.853 -0.6564  0.7280  0.0001
 3019SOL    HW120519   1.129   1.464   7.895 -4.1495  1.0610 -1.1622
 3019SOL    HW220520   1.243   1.551   7.878 -0.6644  0.4570  0.0780
 3020SOL     OW20521   3.976   0.242   4.512 -0.5220 -0.3998 -0.8045
 3020SOL    HW120522   3.901   0.301   4.502 -0.4943 -0.1729  0.3843
 3020SOL    HW220523   3.973   0.197   4.428 -1.6419 -0.8997 -0.4876
 3021SOL     OW20524   1.591   0.298  13.531  0.0598  0.4367  0.0397
 3021SOL    HW120525   1.670   0.326  13.578 -0.0077 -1.1050  1.0570
 3021SOL    HW220526   1.608   0.335  13.444  1.4062  0.5305  0.3418
 3022SOL     OW20527   0.144   0.958   4.611  0.4016  0.2854 -0.7503
 3022SOL    HW120528   0.137   0.880   4.666 -0.1047 -0.8194 -2.4048
 3022SOL    HW220529   0.078   0.941   4.544 -0.5163  2.5537 -0.4206
 3023SOL     OW20530   1.906   1.661   8.542  0.5023 -0.1125  0.1252
 3023SOL    HW120531   1.938   1.589   8.488  0.4170  0.7046 -1.0226
 3023SOL    HW220532   1.814   1.637   8.533  0.2756  0.8762 -0.2221
 3024SOL     OW20533   2.502   2.584   8.585 -0.2265  0.2628 -0.3079
 3024SOL    HW120534   2.530   2.514   8.643 -2.4781  0.6041  1.1588
 3024SOL    HW220535   2.519   2.545   8.499  0.0115  1.5471 -0.8412
 3025SOL     OW20536   3.390   2.942  11.935 -0.9802 -0.3571 -0.0789
 3025SOL    HW120537   3.328   2.874  11.912 -2.3440  0.7123  0.4420
 3025SOL    HW220538   3.326   3.003  11.971 -1.8387 -0.9316 -0.6478
 3026SOL     OW20539   2.382   2.592  16.541 -0.1338  0.2689  0.5147
 3026SOL    HW120540   2.417   2.641  16.616  1.0798  2.3937 -1.4349
 3026SOL    HW220541   2.294   2.629  16.546 -0.0129  0.8490 -1.5921
 3027SOL     OW20542   3.219   2.169  11.848  0.2898  0.5979  0.1545
 3027SOL    HW120543   3.158   2.242  11.841 -0.8542 -0.3250  0.4252
 3027SOL    HW220544   3.253   2.168  11.937  0.3713 -0.0772  0.1141
 3028SOL     OW20545   2.411   2.054   8.152  0.8091  0.0470  0.6130
 3028SOL    HW120546   2.326   2.088   8.126  1.3726 -0.7489 -2.2430
 3028SOL    HW220547   2.392   1.990   8.220  0.1363 -1.1725 -0.7245
 3029SOL     OW20548   0.724   0.021   7.557 -0.2085  0.1501  0.4199
 3029SOL    HW120549   0.650   4.693   7.586 -0.6437  0.9426  0.7786
 3029SOL    HW220550   0.753   0.040   7.646 -0.5629  0.5238  0.4558
 3030SOL     OW20551   0.569   1.838   7.203 -0.0876 -0.2648 -0.4220
 3030SOL    HW120552   0.654   1.848   7.160 -0.4674  1.3392 -0.8034
 3030SOL    HW220553   0.538   1.929   7.199 -0.0547 -0.2032  0.6854
 3031SOL     OW20554   4.035   4.605   3.559  0.1240 -0.0791 -0.3353
 3031SOL    HW120555   4.090   4.660   3.615 -1.0139  0.8980 -0.1823
 3031SOL    HW220556   4.058   4.513   3.576 -0.7552 -0.3426 -0.5575
 3032SOL     OW20557   3.064   1.423   5.003 -0.3458  0.6307 -0.0467
 3032SOL    HW120558   3.098   1.504   5.041  0.9587  0.2901 -0.4867
 3032SOL    HW220559   3.061   1.366   5.080  1.4663  0.0384 -0.4238
 3033SOL     OW20560   3.441   1.948   7.305  0.3725 -0.3134  0.2422
 3033SOL    HW120561   3.414   1.869   7.352  0.2760 -1.4760 -1.8077
 3033SOL    HW220562   3.353   1.986   7.297  0.5341  0.3580  1.6357
 3034SOL     OW20563   0.508   0.821   5.239  0.3553  0.0656  0.3783
 3034SOL    HW120564   0.524   0.779   5.154 -1.9004  0.3824 -0.1922
 3034SOL    HW220565   0.469   0.753   5.294 -1.3349 -0.0670 -0.9952
 3035SOL     OW20566   3.370   0.898  13.593 -0.3944 -0.1487 -0.0020
 3035SOL    HW120567   3.350   0.919  13.684 -0.6095 -2.7815  0.5698
 3035SOL    HW220568   3.443   0.837  13.604  0.1459  0.4846 -0.0704
 3036SOL     OW20569   3.899   3.659  11.200 -0.1477  0.0220 -0.4103
 3036SOL    HW120570   3.878   3.587  11.140 -0.3453 -0.9304  0.7922
 3036SOL    HW220571   3.954   3.620  11.268  0.8065  0.9016 -0.6877
 3037SOL     OW20572   1.876   1.805   6.804  0.1003  0.3347 -0.1996
 3037SOL    HW120573   1.962   1.829   6.769  0.2246 -0.7309 -0.6187
 3037SOL    HW220574   1.912   1.745   6.869 -1.6636 -1.1225 -0.5578
 3038SOL     OW20575   4.677   1.863  11.757 -0.1127  0.2561  0.2469
 3038SOL    HW120576   4.717   1.863  11.670  2.3247 -2.5761  1.3682
 3038SOL    HW220577   0.024   1.831  11.809  0.7760  0.1349 -1.0799
 3039SOL     OW20578   4.287   0.847   8.525 -0.1568  0.5344 -0.5631
 3039SOL    HW120579   4.241   0.834   8.607  0.1513  2.9303 -0.0174
 3039SOL    HW220580   4.300   0.939   8.504  1.9465  1.0028  2.8079
 3040SOL     OW20581   4.140   3.160   6.656  0.1175  0.2771 -0.6269
 3040SOL    HW120582   4.143   3.159   6.561 -2.0058  0.0817 -0.7055
 3040SOL    HW220583   4.109   3.248   6.678 -1.3603 -1.1022  2.8165
 3041SOL     OW20584   3.077   2.570   2.729  0.0336  0.3331  0.0753
 3041SOL    HW120585   3.146   2.594   2.667  0.4104 -0.1425  0.3154
 3041SOL    HW220586   3.006   2.569   2.665  0.6852  3.1216 -0.6851
 3042SOL     OW20587   1.320   4.008  17.383  0.2225  0.1304 -0.4497
 3042SOL    HW120588   1.299   3.996  17.476  1.6372 -0.2058 -0.1680
 3042SOL    HW220589   1.339   4.101  17.396  1.0003  0.0767 -1.1899
 3043SOL     OW20590   1.209   1.061  16.284  0.5316  0.0609  0.6710
 3043SOL    HW120591   1.290   1.041  16.332  0.8984 -2.1051 -0.8707
 3043SOL    HW220592   1.218   1.020  16.198  1.5910  2.7437 -0.5259
 3044SOL     OW20593   2.390   1.433   4.975  0.0336  0.5209  0.1769
 3044SOL    HW120594   2.388   1.495   5.048  0.3139  0.3105  0.3631
 3044SOL    HW220595   2.415   1.494   4.905 -2.0687  0.6949 -0.4427
 3045SOL     OW20596   3.030   3.400   0.844 -0.4718  0.5795 -0.1623
 3045SOL    HW120597   2.942   3.374   0.818 -0.1625 -2.8878  2.2327
 3045SOL    HW220598   3.030   3.369   0.935 -0.2962 -1.1746 -0.7547
 3046SOL     OW20599   3.246   0.745   4.220 -0.4121 -0.2002  0.1446
 3046SOL    HW120600   3.244   0.677   4.287 -0.4151  1.0443  1.4135
 3046SOL    HW220601   3.160   0.786   4.230 -0.0874  0.2962  0.8999
 3047SOL     OW20602   2.581   4.286   5.119 -0.4341  0.5068  0.6556
 3047SOL    HW120603   2.578   4.325   5.206  0.9277  0.2395  0.8247
 3047SOL    HW220604   2.503   4.326   5.081  1.1786  2.9728 -0.0485
 3048SOL     OW20605   0.851   4.718  10.182  0.0294 -0.2712 -0.7070
 3048SOL    HW120606   0.780   4.705  10.245  0.9778  1.4161  0.7109
 3048SOL    HW220607   0.828   4.657  10.112  2.2298 -0.3996 -1.3193
 3049SOL     OW20608   2.796   3.365   6.630  0.5708  0.1435 -0.4369
 3049SOL    HW120609   2.756   3.451   6.641  0.5284  0.0337  0.2556
 3049SOL    HW220610   2.885   3.390   6.654  0.5986  0.6883 -1.1338
 3050SOL     OW20611   0.138   0.742   5.943  0.8291  0.2382  0.0535
 3050SOL    HW120612   0.056   0.712   5.904  1.8798 -1.3822 -0.9194
 3050SOL    HW220613   0.180   0.656   5.952 -1.0667 -0.7644 -0.6560
 3051SOL     OW20614   3.689   1.606  15.411 -0.0444 -0.3311  0.3601
 3051SOL    HW120615   3.710   1.588  15.319 -2.1445  0.1380 -0.2029
 3051SOL    HW220616   3.594   1.597  15.415 -0.1522  0.0753 -1.1303
 3052SOL     OW20617   4.282   2.755   4.321  0.3167  0.3627 -0.1971
 3052SOL    HW120618   4.195   2.769   4.358 -0.1668  0.6586 -1.4538
 3052SOL    HW220619   4.267   2.677   4.267 -1.1257  0.9466 -0.6432
 3053SOL     OW20620   1.142   1.146   1.218 -0.4021 -0.0742  0.0173
 3053SOL    HW120621   1.228   1.141   1.176 -0.0417  2.0883  0.4905
 3053SOL    HW220622   1.120   1.232   1.183  1.0807  1.0120  1.7438
 3054SOL     OW20623   3.000   2.807   2.847 -0.2461  0.0939  0.1837
 3054SOL    HW120624   3.056   2.850   2.912  2.4006 -1.2169 -1.2576
 3054SOL    HW220625   3.042   2.726   2.819  1.5005  1.2697 -0.6215
 3055SOL     OW20626   0.614   1.749   3.130  0.2933  0.5773  0.1829
 3055SOL    HW120627   0.520   1.735   3.122 -0.1513  1.9660  2.9747
 3055SOL    HW220628   0.639   1.666   3.172 -0.7291  0.3048  0.2487
 3056SOL     OW20629   1.061   4.232   4.861 -0.2669  0.1055 -0.1627
 3056SOL    HW120630   1.018   4.315   4.840  1.0930  0.3975 -1.8475
 3056SOL    HW220631   1.003   4.177   4.808 -0.3643  0.5236 -0.4931
 3057SOL     OW20632   3.325   4.399   2.933 -0.4362  0.2076  0.3505
 3057SOL    HW120633   3.318   4.494   2.926 -1.5988  0.1736  1.0015
 3057SOL    HW220634   3.292   4.381   3.021  0.7231 -1.5578  0.4440
 3058SOL     OW20635   0.808   3.925   8.640  0.3820 -0.4389 -0.5925
 3058SOL    HW120636   0.840   3.998   8.693 -0.0011  1.6557 -3.2418
 3058SOL    HW220637   0.881   3.901   8.584  2.2263  1.3852  1.0524
 3059SOL     OW20638   0.009   3.015   4.951  0.6473 -0.4973  0.8308
 3059SOL    HW120639   0.090   2.965   4.966  0.2315 -1.7550 -1.0239
 3059SOL    HW220640   0.035   3.096   4.907 -0.4779 -0.6075 -0.0415
 3060SOL     OW20641   0.545   3.796   2.104 -0.1594  0.1770  0.6624
 3060SOL    HW120642   0.488   3.752   2.167 -0.2747  0.1865  0.5660
 3060SOL    HW220643   0.501   3.769   2.023 -1.6618  2.4178  0.7095
 3061SOL     OW20644   3.736   4.334   7.953 -0.0523  0.7184  0.5983
 3061SOL    HW120645   3.788   4.253   7.959  0.0735  0.8697  1.5864
 3061SOL    HW220646   3.752   4.355   7.861  0.2321 -0.7576  0.2969
 3062SOL     OW20647   4.526   3.838   0.152 -0.2758  0.4654  0.0142
 3062SOL    HW120648   4.521   3.894   0.075 -4.2863  1.3054  0.9071
 3062SOL    HW220649   4.611   3.795   0.141 -0.4571 -0.3160  1.6974
 3063SOL     OW20650   4.123   2.406   5.152 -0.0743 -0.2282  0.7859
 3063SOL    HW120651   4.171   2.354   5.089 -1.6915 -0.0855 -0.5710
 3063SOL    HW220652   4.040   2.360   5.139  0.3524 -0.6865 -0.2812
 3064SOL     OW20653   2.489   4.074   9.133 -0.1150 -0.3209  0.2420
 3064SOL    HW120654   2.537   4.153   9.160  0.9502 -0.7549 -0.3774
 3064SOL    HW220655   2.558   4.039   9.076 -0.7089 -2.1311  0.6667
 3065SOL     OW20656   2.897   0.952   7.834 -0.2306  0.2670  0.2210
 3065SOL    HW120657   2.807   0.983   7.825  0.5848  1.7740 -2.7541
 3065SOL    HW220658   2.909   0.874   7.779  0.7178  1.7773 -1.7562
 3066SOL     OW20659   2.143   4.099   8.053 -0.4552 -0.8284 -0.4061
 3066SOL    HW120660   2.063   4.150   8.066 -0.5266 -1.1740  0.5215
 3066SOL    HW220661   2.128   4.055   7.969 -0.3881 -1.4314 -0.1046
 3067SOL     OW20662   4.220   1.986  15.062  0.4807  0.0423  0.2742
 3067SOL    HW120663   4.190   1.935  14.987  2.9668 -0.5971 -0.2549
 3067SOL    HW220664   4.249   2.069  15.024  0.4150  0.0358  0.2104
 3068SOL     OW20665   3.489   2.391  13.446 -0.0286 -0.6987 -1.0704
 3068SOL    HW120666   3.575   2.413  13.410  0.0861  0.2669 -0.2230
 3068SOL    HW220667   3.446   2.340  13.378 -1.5502 -1.3704  0.3881
 3069SOL     OW20668   2.709   3.009   3.228  0.1395 -0.4401 -0.0006
 3069SOL    HW120669   2.692   2.918   3.206  2.0013 -0.7841 -0.0001
 3069SOL    HW220670   2.658   3.050   3.158  0.9048  0.0483 -0.2784
 3070SOL     OW20671   3.211   0.736  10.529 -0.3693  0.6936 -0.1109
 3070SOL    HW120672   3.258   0.718  10.611  0.0670 -1.2061 -0.7732
 3070SOL    HW220673   3.164   0.653  10.522  1.2286 -0.2628  0.5290
 3071SOL     OW20674   3.352   2.734  13.561 -0.5835  1.1481  0.3477
 3071SOL    HW120675   3.363   2.829  13.564  3.2503  0.7537 -0.4531
 3071SOL    HW220676   3.417   2.703  13.624 -1.2280 -1.6790 -0.4033
 3072SOL     OW20677   2.707   4.074   4.472 -0.0329 -0.1041 -0.1567
 3072SOL    HW120678   2.718   4.157   4.425  1.5510 -0.5838 -0.6384
 3072SOL    HW220679   2.671   4.101   4.557 -0.2558 -0.5217 -0.1197
 3073SOL     OW20680   3.624   2.992  17.537 -0.4628 -0.2007  0.1053
 3073SOL    HW120681   3.563   3.058  17.504  1.1783  1.5340  0.4950
 3073SOL    HW220682   3.664   3.053  17.599 -1.2769 -0.9938  1.3910
 3074SOL     OW20683   2.097   2.565   3.618 -0.1657 -0.3452  0.2985
 3074SOL    HW120684   2.017   2.514   3.636 -1.2297  0.2857 -2.6984
 3074SOL    HW220685   2.078   2.614   3.539  0.0261  1.7856  1.5632
 3075SOL     OW20686   3.970   3.157   2.051 -0.1860 -0.4423 -0.1451
 3075SOL    HW120687   3.887   3.185   2.090 -1.6311  0.4864 -3.8265
 3075SOL    HW220688   3.940   3.129   1.964  1.6346 -0.4438 -0.7775
 3076SOL     OW20689   3.830   4.108  14.864  0.2867  0.2200  0.1641
 3076SOL    HW120690   3.759   4.100  14.801 -0.1616 -0.0476  0.7007
 3076SOL    HW220691   3.880   4.178  14.822  1.1765  0.7150  2.0248
 3077SOL     OW20692   0.885   0.148   1.126  0.4360 -0.5427 -0.8075
 3077SOL    HW120693   0.924   0.098   1.054  1.8545  0.3210 -0.6358
 3077SOL    HW220694   0.897   0.098   1.207 -1.5200  0.1212 -0.0964
 3078SOL     OW20695   4.111   4.575   1.747 -0.0627 -0.4489  0.3365
 3078SOL    HW120696   4.110   4.671   1.739  0.3918 -0.4311  0.4881
 3078SOL    HW220697   4.146   4.554   1.661 -0.9569  1.7055 -0.5427
 3079SOL     OW20698   3.752   1.911  13.306  0.0620 -0.2530 -0.3760
 3079SOL    HW120699   3.825   1.953  13.262  1.3678 -1.4137  0.6680
 3079SOL    HW220700   3.737   1.854  13.231 -2.7509  0.6046 -0.4846
 3080SOL     OW20701   0.804   0.568   8.017 -0.4743 -0.0289  0.3784
 3080SOL    HW120702   0.758   0.497   8.063  0.5916  0.4845  2.2259
 3080SOL    HW220703   0.732   0.625   7.991 -1.2184  0.0647  2.6152
 3081SOL     OW20704   3.110   1.132   7.684  0.1422  0.5579 -0.1014
 3081SOL    HW120705   3.130   1.058   7.627  2.1964 -0.0634  1.4208
 3081SOL    HW220706   3.026   1.156   7.644 -0.5261  0.0750  1.0057
 3082SOL     OW20707   1.911   3.447   5.831  0.2811  0.4381 -0.2482
 3082SOL    HW120708   1.993   3.485   5.862 -0.6734  1.4176  1.0384
 3082SOL    HW220709   1.879   3.516   5.773 -0.9335 -0.1723 -0.3126
 3083SOL     OW20710   1.194   3.215  10.166  0.4073 -0.0128  0.0686
 3083SOL    HW120711   1.216   3.219  10.259  1.3086  0.9673 -0.1829
 3083SOL    HW220712   1.122   3.277  10.153  0.6345  0.1009 -0.6615
 3084SOL     OW20713   0.210   0.305   7.670 -0.1473  0.3829 -0.0803
 3084SOL    HW120714   0.155   0.271   7.740 -1.5331 -0.5507 -1.6270
 3084SOL    HW220715   0.161   0.378   7.632  0.3626 -0.1872 -1.8438
 3085SOL     OW20716   3.797   1.297   5.239  0.2505  0.2662  0.2682
 3085SOL    HW120717   3.769   1.208   5.219 -0.6298  0.4757  0.5757
 3085SOL    HW220718   3.870   1.311   5.178 -0.2958 -2.4128 -0.9883
 3086SOL     OW20719   1.492   1.232   1.351  0.3298 -0.2335  0.3419
 3086SOL    HW120720   1.418   1.250   1.408  0.4855 -3.2585  1.4923
 3086SOL    HW220721   1.442   1.171   1.296 -0.9196  1.5807 -0.5499
 3087SOL     OW20722   3.122   4.250   6.115  0.2374 -0.1608  0.2829
 3087SOL    HW120723   3.190   4.313   6.091 -0.3567  0.5832  0.5129
 3087SOL    HW220724   3.079   4.278   6.197 -1.1698  3.0055 -1.5114
 3088SOL     OW20725   0.181   0.084  16.545  0.1870  0.3987 -0.3143
 3088SOL    HW120726   0.110   0.053  16.489 -0.7886 -1.5093  1.9355
 3088SOL    HW220727   0.156   0.036  16.624 -0.3854 -1.8989 -1.8741
 3089SOL     OW20728   2.822   4.270   4.974 -0.7562 -0.1113  0.0755
 3089SOL    HW120729   2.889   4.241   5.036 -0.0259 -0.5352 -0.9069
 3089SOL    HW220730   2.744   4.266   5.030 -0.9438  0.2838 -0.1609
 3090SOL     OW20731   2.629   2.100   0.188 -0.3136 -0.2070 -0.5915
 3090SOL    HW120732   2.561   2.092   0.121  0.0544 -0.3099 -0.9509
 3090SOL    HW220733   2.656   2.008   0.184  1.7156  0.3992 -0.9494
 3091SOL     OW20734   0.680   0.101   9.274 -0.0623 -0.3756 -0.9296
 3091SOL    HW120735   0.618   0.167   9.305  1.7357  0.7047  0.3646
 3091SOL    HW220736   0.764   0.146   9.271 -0.5860  0.6463 -0.2840
 3092SOL     OW20737   1.979   1.556   6.950 -0.2816 -0.3045  0.2708
 3092SOL    HW120738   2.002   1.469   6.919 -1.4190 -0.0703 -1.2774
 3092SOL    HW220739   2.009   1.549   7.040  0.2286 -0.3200  0.0977
 3093SOL     OW20740   0.343   0.239  13.425 -0.1263  0.2305 -0.2165
 3093SOL    HW120741   0.273   0.174  13.422 -0.3159  0.3052  2.5274
 3093SOL    HW220742   0.322   0.283  13.343  0.9833  1.6128  0.2493
 3094SOL     OW20743   2.836   1.746   6.022  0.6952  0.3931  0.0477
 3094SOL    HW120744   2.855   1.749   6.115 -0.8765 -1.7414  0.4332
 3094SOL    HW220745   2.911   1.804   6.007  1.5144 -0.1970  1.9190
 3095SOL     OW20746   4.310   4.307   6.146  0.4386 -0.4179  0.8907
 3095SOL    HW120747   4.401   4.279   6.136  0.3551  0.1509 -1.4031
 3095SOL    HW220748   4.256   4.266   6.079  1.4536 -0.2055 -0.0402
 3096SOL     OW20749   2.435   1.232   6.040 -0.1980  0.5571  0.2195
 3096SOL    HW120750   2.494   1.305   6.057 -0.5936  1.0343 -0.4505
 3096SOL    HW220751   2.356   1.285   6.042  0.7342  2.0554 -2.7976
 3097SOL     OW20752   3.710   4.325   9.500 -0.3593  0.0714  0.0120
 3097SOL    HW120753   3.763   4.405   9.502 -0.2846  0.0651 -1.4907
 3097SOL    HW220754   3.780   4.259   9.500  0.6968  1.2035  2.7658
 3098SOL     OW20755   0.876   3.866   9.507 -0.4612 -0.4648  0.5464
 3098SOL    HW120756   0.890   3.940   9.566 -0.7730  0.6704 -0.8131
 3098SOL    HW220757   0.937   3.799   9.538 -1.1173 -1.0057  0.6966
 3099SOL     OW20758   1.374   2.748   9.961  0.2555 -0.6654 -0.2980
 3099SOL    HW120759   1.313   2.698   9.906  1.4652  0.8744 -3.0035
 3099SOL    HW220760   1.373   2.699  10.044  2.3759 -3.5551 -1.9835
 3100SOL     OW20761   2.211   1.247  11.627 -0.0126 -0.1591  0.2154
 3100SOL    HW120762   2.228   1.161  11.666 -2.6827 -1.1537 -0.7475
 3100SOL    HW220763   2.239   1.223  11.539 -0.3324  0.5943 -0.0889
 3101SOL     OW20764   3.859   3.752   1.851 -0.2461 -0.1807  0.0355
 3101SOL    HW120765   3.858   3.772   1.758  1.4031  0.9506  0.2485
 3101SOL    HW220766   3.778   3.791   1.884  0.0317 -1.1140  1.8490
 3102SOL     OW20767   4.149   2.349   3.068  0.1614 -0.1473 -0.2783
 3102SOL    HW120768   4.131   2.310   2.983  0.6479 -0.1339 -0.3854
 3102SOL    HW220769   4.065   2.367   3.110  0.5147  2.1514 -0.5223
 3103SOL     OW20770   3.024   3.225  17.105  0.3971  0.5776 -0.2331
 3103SOL    HW120771   3.106   3.251  17.147  0.7206  1.7593 -1.6085
 3103SOL    HW220772   2.967   3.201  17.178 -0.6540 -0.1077 -1.2960
 3104SOL     OW20773   1.981   3.325   6.065  0.3988 -0.6438  0.7589
 3104SOL    HW120774   1.944   3.237   6.061 -0.7611 -0.1744  1.1915
 3104SOL    HW220775   1.928   3.371   6.000  2.3218 -0.6910 -0.8545
 3105SOL     OW20776   2.873   1.797   4.267 -0.0220  0.1879  0.2965
 3105SOL    HW120777   2.913   1.870   4.315 -0.6992  1.3728 -0.9550
 3105SOL    HW220778   2.783   1.829   4.255 -0.3629 -0.5848  0.7778
 3106SOL     OW20779   3.034   3.795  12.143 -0.3250 -0.1015  0.1249
 3106SOL    HW120780   2.979   3.786  12.065  0.0143  1.9875 -0.3604
 3106SOL    HW220781   3.075   3.709  12.135  2.3757  1.1813  0.2050
 3107SOL     OW20782   3.274   4.238  11.715 -0.4231  0.1939 -0.3334
 3107SOL    HW120783   3.338   4.268  11.780  0.7490  0.0773 -1.4358
 3107SOL    HW220784   3.259   4.145  11.730  1.3119 -0.4124 -2.4091
 3108SOL     OW20785   3.867   3.950   6.297  0.0141 -0.2004 -0.0853
 3108SOL    HW120786   3.795   3.980   6.242 -0.0866 -0.5170 -0.1251
 3108SOL    HW220787   3.842   3.858   6.309 -1.4571  0.1359 -0.5688
 3109SOL     OW20788   2.011   3.988  12.546  0.1654  0.0966 -0.5332
 3109SOL    HW120789   1.960   3.930  12.602 -0.6510  1.3507 -0.0058
 3109SOL    HW220790   1.978   3.949  12.465  1.4190 -0.0562 -0.9696
 3110SOL     OW20791   2.759   2.436  13.181  0.2982 -0.1845  0.0967
 3110SOL    HW120792   2.779   2.350  13.218 -0.9494 -0.5031  0.0309
 3110SOL    HW220793   2.830   2.489  13.217 -0.6275 -0.3878  2.2653
 3111SOL     OW20794   4.277   1.358   3.481  0.0154 -0.1736 -0.1797
 3111SOL    HW120795   4.227   1.400   3.550  1.8768  2.1229 -0.2183
 3111SOL    HW220796   4.365   1.357   3.517 -0.4502  1.7806  1.0323
 3112SOL     OW20797   4.191   0.437   5.992 -0.2869 -0.0984  0.2647
 3112SOL    HW120798   4.109   0.476   5.963  0.1330 -0.1571 -1.0084
 3112SOL    HW220799   4.165   0.362   6.047  0.6346 -0.9346 -0.4399
 3113SOL     OW20800   0.981   2.725   5.964 -0.6144  0.1113 -0.2667
 3113SOL    HW120801   0.938   2.684   5.889  1.3875 -1.2335 -0.6567
 3113SOL    HW220802   1.010   2.807   5.923  0.8034 -0.7189 -0.8910
 3114SOL     OW20803   0.665   1.492   2.801 -0.0881  0.3252 -0.5344
 3114SOL    HW120804   0.623   1.578   2.790 -1.1139 -0.4209 -2.5262
 3114SOL    HW220805   0.742   1.519   2.751 -0.2140  0.7671 -0.4881
 3115SOL     OW20806   4.148   2.385   8.910  0.3144  0.2376 -0.3350
 3115SOL    HW120807   4.148   2.300   8.954  1.2247  0.2724 -0.2805
 3115SOL    HW220808   4.206   2.367   8.836 -0.4245  1.9707 -1.3398
 3116SOL     OW20809   4.162   1.739   8.554 -0.1919 -0.4432  0.0518
 3116SOL    HW120810   4.124   1.737   8.466 -0.3905  1.3111  0.0990
 3116SOL    HW220811   4.176   1.832   8.575  0.5342 -0.6478  0.4934
 3117SOL     OW20812   1.800   4.156  16.647 -0.4840  0.2397  0.2636
 3117SOL    HW120813   1.870   4.166  16.582 -1.6814 -0.8572 -1.2214
 3117SOL    HW220814   1.741   4.226  16.622 -0.3298  0.9609  1.9646
 3118SOL     OW20815   0.425   3.222  14.681  0.4739 -0.4549 -0.9863
 3118SOL    HW120816   0.493   3.268  14.630 -1.3520  4.0505  0.6076
 3118SOL    HW220817   0.369   3.297  14.703 -1.0715 -1.9909  0.2513
 3119SOL     OW20818   0.583   2.486  16.713 -0.1507  0.3705  0.1938
 3119SOL    HW120819   0.660   2.500  16.659  0.0591  0.3009  0.4737
 3119SOL    HW220820   0.614   2.405  16.752  0.9730  0.2882 -0.8848
 3120SOL     OW20821   1.391   2.563   1.079 -0.6926  0.0810  0.3690
 3120SOL    HW120822   1.324   2.575   1.012  1.5667 -1.3802 -2.1706
 3120SOL    HW220823   1.365   2.631   1.140 -0.1577  0.6877 -0.0864
 3121SOL     OW20824   2.832   0.521  17.681  0.3392  0.8745  0.3030
 3121SOL    HW120825   2.748   0.490  17.648  1.0237  0.7460 -1.3025
 3121SOL    HW220826   2.859   0.573  17.605  0.3781  0.3718 -0.0260
 3122SOL     OW20827   0.929   1.279   0.999 -0.0268 -0.1094  0.2607
 3122SOL    HW120828   0.928   1.206   0.937  2.1862 -0.5316  0.7157
 3122SOL    HW220829   0.983   1.344   0.954 -0.5481 -0.2366 -0.5315
 3123SOL     OW20830   4.532   4.255  15.301 -0.1195 -0.1017  0.1215
 3123SOL    HW120831   4.501   4.171  15.265 -1.4706 -0.2280  1.5912
 3123SOL    HW220832   4.569   4.225  15.383  0.1288 -0.7968 -0.2461
 3124SOL     OW20833   3.830   2.513   6.358  0.5459 -0.0028 -0.5002
 3124SOL    HW120834   3.818   2.418   6.353 -4.0287  0.5108  1.0279
 3124SOL    HW220835   3.889   2.527   6.283 -1.3963  2.8209 -1.5276
 3125SOL     OW20836   2.616   4.056   9.914 -0.3670 -0.2731 -0.3460
 3125SOL    HW120837   2.542   4.083   9.860  0.7462  1.6315 -0.9133
 3125SOL    HW220838   2.592   3.969   9.945  1.1729 -0.5686  0.0004
 3126SOL     OW20839   2.564   1.081   7.500  0.2815 -0.1140  0.1569
 3126SOL    HW120840   2.608   1.096   7.416  1.5885  0.7543  1.0032
 3126SOL    HW220841   2.623   1.124   7.561 -0.7507 -3.4246  3.4801
 3127SOL     OW20842   0.017   4.330   6.768  0.1836 -0.6445  0.1494
 3127SOL    HW120843   0.088   4.365   6.715  0.3471  0.7636  1.2989
 3127SOL    HW220844   0.066   4.290   6.839 -0.6731  0.0328  1.1105
 3128SOL     OW20845   2.299   0.091  10.890  0.0793  0.2145  0.6755
 3128SOL    HW120846   2.395   0.093  10.884  0.1544 -0.3530  1.7083
 3128SOL    HW220847   2.291   0.007  10.935 -1.8879  0.5142  0.8989
 3129SOL     OW20848   1.021   3.811  11.487  0.3758  0.1051 -0.2904
 3129SOL    HW120849   0.933   3.787  11.458  0.2140 -0.5669  0.7921
 3129SOL    HW220850   1.003   3.856  11.569 -0.4758 -1.2961  0.2776
 3130SOL     OW20851   0.452   0.472  16.086 -0.4783 -0.5233 -0.0501
 3130SOL    HW120852   0.503   0.413  16.140  0.9031  0.5894 -0.1348
 3130SOL    HW220853   0.405   0.527  16.149  0.1926  0.4575 -0.4063
 3131SOL     OW20854   1.598   0.540   1.887 -0.0565 -0.2469  0.9763
 3131SOL    HW120855   1.674   0.572   1.839 -0.2710 -2.0916 -0.6103
 3131SOL    HW220856   1.520   0.568   1.839  1.7454  1.5936 -0.8244
 3132SOL     OW20857   4.290   2.849  10.762 -0.2778  0.4288  0.3949
 3132SOL    HW120858   4.219   2.914  10.757  1.3219  2.0193 -1.8061
 3132SOL    HW220859   4.236   2.776  10.733  0.3974 -0.9735  2.6940
 3133SOL     OW20860   2.923   1.967  14.055 -0.1470  0.1961 -0.4581
 3133SOL    HW120861   3.004   1.999  14.095  0.8167 -1.5238 -1.0038
 3133SOL    HW220862   2.960   1.919  13.981 -0.5608  0.9885 -1.1805
 3134SOL     OW20863   1.770   3.669   7.411  0.3345  0.6935 -0.0964
 3134SOL    HW120864   1.708   3.641   7.344 -0.6980  1.9914  0.3067
 3134SOL    HW220865   1.723   3.717   7.480 -0.9973  0.3479 -0.7523
 3135SOL     OW20866   0.414   3.837   5.408  0.2482 -0.3824 -0.0276
 3135SOL    HW120867   0.482   3.856   5.343  0.4793  0.5925  0.5008
 3135SOL    HW220868   0.360   3.773   5.360  0.3536  0.2935 -1.0374
 3136SOL     OW20869   4.310   1.868   0.434  0.1748  0.4294 -0.5795
 3136SOL    HW120870   4.291   1.809   0.506  2.5487 -0.5702 -0.7599
 3136SOL    HW220871   4.312   1.956   0.470  0.3770 -1.1455  3.2577
 3137SOL     OW20872   1.904   0.544  11.304  0.3939  0.1492  0.5189
 3137SOL    HW120873   1.833   0.488  11.333  0.1091 -1.0111 -2.3698
 3137SOL    HW220874   1.881   0.629  11.343  0.5316  1.0373 -1.3173
 3138SOL     OW20875   2.085   3.890   1.012  0.5634 -0.1296 -0.0230
 3138SOL    HW120876   2.107   3.864   1.101  1.6768  0.7009 -0.0535
 3138SOL    HW220877   1.993   3.906   1.033  0.6805 -1.3503  1.4547
 3139SOL     OW20878   0.199   0.721   2.538  0.2105  0.2930  0.0139
 3139SOL    HW120879   0.181   0.814   2.548  1.8779  0.7666 -1.4511
 3139SOL    HW220880   0.259   0.724   2.463 -0.6474 -0.6422 -0.7287
 3140SOL     OW20881   0.051   4.080   2.135 -0.3459  0.6504  0.1357
 3140SOL    HW120882   0.012   4.022   2.200  0.5671 -0.6129 -0.4357
 3140SOL    HW220883   0.120   4.022   2.101 -1.0205 -0.1858  0.1883
 3141SOL     OW20884   3.598   1.421   4.605  0.3716 -0.0146  0.2514
 3141SOL    HW120885   3.557   1.462   4.681  1.4158 -1.0370  1.3665
 3141SOL    HW220886   3.582   1.328   4.619 -1.0215  0.4524  1.7290
 3142SOL     OW20887   1.708   2.829   5.504  0.4607 -0.5253 -0.2383
 3142SOL    HW120888   1.773   2.897   5.488 -1.1212  1.4026  1.5227
 3142SOL    HW220889   1.645   2.854   5.436 -0.7841 -3.9350 -0.3847
 3143SOL     OW20890   3.385   3.113   0.113 -0.1758  0.1241  0.8339
 3143SOL    HW120891   3.303   3.156   0.137 -0.0389  0.1650  1.2334
 3143SOL    HW220892   3.401   3.146   0.025 -2.0533 -1.8727 -0.2464
 3144SOL     OW20893   3.206   2.392   2.374 -0.3007  0.0526  0.4597
 3144SOL    HW120894   3.210   2.488   2.368 -0.9677 -0.0178 -1.1125
 3144SOL    HW220895   3.124   2.368   2.331 -0.1058 -2.8592  1.7055
 3145SOL     OW20896   2.319   2.417   1.934  0.2142 -0.6489 -0.5965
 3145SOL    HW120897   2.314   2.508   1.962  0.6519 -1.0995  0.9056
 3145SOL    HW220898   2.406   2.383   1.952  0.1936  0.5009  1.6140
 3146SOL     OW20899   3.190   4.499  11.603  0.2902  0.4349  0.1931
 3146SOL    HW120900   3.277   4.535  11.618 -0.6691  2.3949  1.0101
 3146SOL    HW220901   3.159   4.495  11.693 -2.4431  0.6837 -0.7273
 3147SOL     OW20902   3.901   3.284   6.382 -0.0950  0.3763 -0.6210
 3147SOL    HW120903   3.897   3.198   6.341 -2.6858  0.1113  0.2107
 3147SOL    HW220904   3.811   3.289   6.415  0.1671  1.6499 -0.0856
 3148SOL     OW20905   1.747   0.009   2.382  0.1963  0.0777 -0.3482
 3148SOL    HW120906   1.761   0.101   2.359  4.8233  0.2279  3.1066
 3148SOL    HW220907   1.697   0.020   2.463 -0.2816 -1.2879 -0.4563
 3149SOL     OW20908   0.636   3.217   8.852  0.7521  0.4554 -0.4105
 3149SOL    HW120909   0.581   3.209   8.774  0.2748  1.4441 -0.1723
 3149SOL    HW220910   0.628   3.309   8.879  0.5644 -0.6974  3.4815
 3150SOL     OW20911   0.889   0.038   4.688 -0.2258 -0.3774 -0.5742
 3150SOL    HW120912   0.923   4.676   4.674  0.2260 -0.4432  0.8686
 3150SOL    HW220913   0.798   0.027   4.661 -1.1780  3.0319  1.2520
 3151SOL     OW20914   2.677   4.512  16.161  0.5496 -0.2598  0.3731
 3151SOL    HW120915   2.749   4.568  16.133  0.2546  0.2203  0.5677
 3151SOL    HW220916   2.605   4.558  16.117 -0.5443 -3.3997 -1.1330
 3152SOL     OW20917   0.674   0.755   4.633  0.1737  0.0391 -0.3252
 3152SOL    HW120918   0.628   0.795   4.560 -2.0381 -1.2960  0.3545
 3152SOL    HW220919   0.616   0.681   4.650  1.8340 -1.5178 -1.3068
 3153SOL     OW20920   0.062   3.706   2.986  0.6954 -0.0522  0.3863
 3153SOL    HW120921   0.117   3.757   2.926 -0.7886 -0.1734 -1.0952
 3153SOL    HW220922   0.026   3.641   2.926  3.4850 -0.3770 -0.9470
 3154SOL     OW20923   4.125   4.236   5.881 -0.6718  0.0320 -0.0933
 3154SOL    HW120924   4.046   4.284   5.904  0.3709  1.4220  0.6043
 3154SOL    HW220925   4.090   4.152   5.911 -1.2851 -0.7504 -3.0305
 3155SOL     OW20926   0.253   2.866   7.348 -0.2440  0.0227  0.3110
 3155SOL    HW120927   0.249   2.845   7.441 -1.0310  0.7665  0.4466
 3155SOL    HW220928   0.295   2.952   7.346  0.7791 -0.4206  3.3900
 3156SOL     OW20929   3.605   2.129  15.796  0.9048  0.0714  0.1606
 3156SOL    HW120930   3.620   2.091  15.709  1.0607  1.1601 -0.2949
 3156SOL    HW220931   3.555   2.207  15.773 -0.9399 -0.9288  0.7639
 3157SOL     OW20932   4.121   1.426   5.458 -0.9853 -0.3318 -0.0783
 3157SOL    HW120933   4.157   1.431   5.370 -0.9596  1.4202  0.0164
 3157SOL    HW220934   4.149   1.340   5.489  0.3063  0.9076  2.2406
 3158SOL     OW20935   3.800   0.258   8.678 -0.4468  0.3164 -0.0173
 3158SOL    HW120936   3.864   0.328   8.686 -0.0282  0.0537 -0.9785
 3158SOL    HW220937   3.757   0.289   8.598 -1.6165  1.9065  1.2245
 3159SOL     OW20938   1.901   4.692   1.441  0.1452  0.2695  0.7715
 3159SOL    HW120939   1.914   4.625   1.508  1.5130 -0.0315  0.2114
 3159SOL    HW220940   1.904   0.047   1.491  2.0389  0.3331  0.5630
 3160SOL     OW20941   2.523   3.579  16.158  0.3019 -0.6812 -0.0118
 3160SOL    HW120942   2.615   3.591  16.135 -0.7277  1.7587 -2.7721
 3160SOL    HW220943   2.496   3.671  16.162  1.1180 -0.3759 -1.8175
 3161SOL     OW20944   0.824   0.220   4.329 -0.5825 -0.2202 -0.1168
 3161SOL    HW120945   0.829   0.248   4.237 -2.0653  1.0356  0.1900
 3161SOL    HW220946   0.738   0.181   4.343 -0.5275  0.0094  0.8181
 3162SOL     OW20947   2.415   1.323   5.493  0.3844  0.0317 -0.5403
 3162SOL    HW120948   2.413   1.237   5.451 -0.3354 -0.8159  1.2171
 3162SOL    HW220949   2.320   1.334   5.497  0.4838  1.2498 -1.7547
 3163SOL     OW20950   4.247   1.129   4.813 -0.2908 -1.1135  0.3786
 3163SOL    HW120951   4.162   1.091   4.790 -1.1347  1.8179 -1.2857
 3163SOL    HW220952   4.306   1.084   4.751  1.7138  1.0231  0.7344
 3164SOL     OW20953   4.278   3.794  15.509 -0.5141  0.7509 -0.1093
 3164SOL    HW120954   4.224   3.854  15.559  0.6064  0.4180  1.4906
 3164SOL    HW220955   4.301   3.849  15.434  0.1537  2.8402  1.6292
 3165SOL     OW20956   3.656   3.254  14.194  0.8121  0.0285  0.4630
 3165SOL    HW120957   3.610   3.187  14.144 -0.6783  1.9593 -0.7413
 3165SOL    HW220958   3.733   3.257  14.138  1.6008  0.7212  1.5739
 3166SOL     OW20959   4.421   3.307   1.611  0.1375 -0.0430  0.5845
 3166SOL    HW120960   4.473   3.352   1.678  0.9991 -0.7606  0.3906
 3166SOL    HW220961   4.330   3.324   1.634  0.3145 -0.0002  1.2577
 3167SOL     OW20962   2.116   3.587   0.540 -0.7411  0.4069 -0.5151
 3167SOL    HW120963   2.032   3.621   0.511 -0.8836 -0.1209 -0.7168
 3167SOL    HW220964   2.124   3.617   0.630 -0.7461  1.3044 -0.8105
 3168SOL     OW20965   4.245   3.876   9.638  0.0363  0.5276  0.2616
 3168SOL    HW120966   4.179   3.861   9.570  0.2639 -1.5896  0.4916
 3168SOL    HW220967   4.265   3.969   9.635 -1.6726  0.9172  0.5412
 3169SOL     OW20968   3.677   3.540   8.191  0.1213  0.6428 -0.5410
 3169SOL    HW120969   3.715   3.458   8.222 -3.3085  0.2768  2.7107
 3169SOL    HW220970   3.645   3.508   8.107  0.2809 -0.6938 -0.0974
 3170SOL     OW20971   0.720   0.371   0.227  0.1370  0.5646  0.2403
 3170SOL    HW120972   0.747   0.281   0.212 -1.0669  0.2406 -0.0117
 3170SOL    HW220973   0.799   0.421   0.205  1.5002 -1.3418  0.8547
 3171SOL     OW20974   0.689   1.591  13.142  0.1770  0.5424 -0.0575
 3171SOL    HW120975   0.760   1.646  13.111  1.7689 -1.2739  0.3802
 3171SOL    HW220976   0.646   1.569  13.059  0.8014 -1.5517  0.1643
 3172SOL     OW20977   1.094   2.151  14.244 -0.2650 -0.3987 -0.7175
 3172SOL    HW120978   1.151   2.210  14.195  0.3095  0.4185  0.9497
 3172SOL    HW220979   1.083   2.103  14.162 -1.5974 -1.8946  0.3319
 3173SOL     OW20980   0.537   3.252   4.162  0.0007 -0.3189  0.3760
 3173SOL    HW120981   0.608   3.189   4.178  0.9324 -0.1858 -3.0982
 3173SOL    HW220982   0.479   3.237   4.236  0.1123  0.8427  0.7070
 3174SOL     OW20983   1.999   0.418  10.514  0.6184  0.8556  0.1808
 3174SOL    HW120984   2.003   0.451  10.604 -2.2979  0.4780  0.4432
 3174SOL    HW220985   1.951   0.335  10.518 -0.2994  1.3569 -0.4450
 3175SOL     OW20986   2.064   0.001   6.786 -0.1262  0.3390  0.1281
 3175SOL    HW120987   2.099   0.054   6.858 -3.1727  2.2914  0.1589
 3175SOL    HW220988   2.104   0.050   6.714 -1.2045  0.7760 -0.1690
 3176SOL     OW20989   1.891   1.005   8.935  0.1356  0.0738  0.2774
 3176SOL    HW120990   1.800   0.995   8.906  0.1196 -0.6401  0.5894
 3176SOL    HW220991   1.935   0.930   8.894 -0.7178 -0.5101  0.4348
 3177SOL     OW20992   0.175   4.215   3.547  0.4027 -0.1167 -0.1010
 3177SOL    HW120993   0.166   4.238   3.455  2.3334  0.2369 -0.2042
 3177SOL    HW220994   0.270   4.209   3.561  0.8307  0.7429 -2.6593
 3178SOL     OW20995   3.470   0.515   7.516 -0.5889 -0.3389 -0.3172
 3178SOL    HW120996   3.516   0.478   7.591 -1.1500  1.1246  0.7481
 3178SOL    HW220997   3.448   0.438   7.463  1.1888 -0.0227 -1.5220
 3179SOL     OW20998   2.121   0.079   9.774  0.3528 -0.0561 -0.2057
 3179SOL    HW120999   2.134   0.019   9.847 -1.5585  0.4413  0.5616
 3179SOL    HW221000   2.055   0.139   9.810  2.2256 -0.4107  3.8846
 3180SOL     OW21001   4.179   1.761   2.087 -0.0149 -0.4898 -0.1863
 3180SOL    HW121002   4.101   1.716   2.054 -0.8337 -0.5181  1.8293
 3180SOL    HW221003   4.243   1.722   2.027  0.8761 -0.0853  0.5055
 3181SOL     OW21004   2.393   4.419   4.325  0.1353 -0.1417  0.0399
 3181SOL    HW121005   2.440   4.497   4.295  0.5990 -0.5214 -0.2226
 3181SOL    HW221006   2.361   4.457   4.407 -2.7160 -1.4121 -0.5087
 3182SOL     OW21007   2.212   1.730   9.863 -0.0779  0.3097 -0.4765
 3182SOL    HW121008   2.122   1.701   9.853  0.7186 -2.3922  0.1327
 3182SOL    HW221009   2.228   1.712   9.956  0.0066  0.4412 -0.4644
 3183SOL     OW21010   1.011   0.510  10.938  0.4745  0.2328 -0.0557
 3183SOL    HW121011   0.924   0.472  10.925 -0.7155  2.9117 -0.0262
 3183SOL    HW221012   1.004   0.597  10.899 -1.4918  0.4580  0.7933
 3184SOL     OW21013   2.720   3.393   7.491  0.0343 -0.1652  0.3563
 3184SOL    HW121014   2.750   3.420   7.404  0.7483  1.5509  1.1225
 3184SOL    HW221015   2.695   3.474   7.537 -0.7404  0.6810 -1.5222
 3185SOL     OW21016   2.340   0.963   6.389 -0.5922  0.4994  0.3310
 3185SOL    HW121017   2.297   0.955   6.304 -1.4187  0.8297  0.7216
 3185SOL    HW221018   2.376   0.874   6.396  1.9100  1.3542 -1.7359
 3186SOL     OW21019   0.319   0.574   0.096 -0.4596 -0.0328  0.1074
 3186SOL    HW121020   0.343   0.646   0.038  0.4928  0.2379  0.8507
 3186SOL    HW221021   0.241   0.620   0.128  0.5982 -0.3759  3.1329
 3187SOL     OW21022   2.071   1.988   0.279 -1.2025  0.4834  0.2352
 3187SOL    HW121023   2.017   2.043   0.337 -0.2391  0.9378  0.7032
 3187SOL    HW221024   2.152   1.981   0.330  0.7309  1.0565 -2.7528
 3188SOL     OW21025   2.230   0.754   0.416  0.3942  0.1345  0.0085
 3188SOL    HW121026   2.222   0.848   0.433 -2.9510 -0.2142  0.2593
 3188SOL    HW221027   2.187   0.746   0.331  0.0686 -0.9923  0.2764
 3189SOL     OW21028   1.041   4.372   5.296  0.1396 -0.1459 -0.6109
 3189SOL    HW121029   1.051   4.315   5.220 -0.0985  0.0255 -0.7713
 3189SOL    HW221030   0.971   4.332   5.347 -0.2093  2.5118  1.0065
 3190SOL     OW21031   3.614   4.354   1.152 -0.2510  0.1889 -0.1330
 3190SOL    HW121032   3.673   4.357   1.228  1.9931 -0.6125 -1.8772
 3190SOL    HW221033   3.663   4.298   1.093  0.8226  0.2107  0.7305
 3191SOL     OW21034   2.789   1.007  11.218  0.1070 -0.2468  0.0944
 3191SOL    HW121035   2.724   1.062  11.174 -1.6270  0.1476  3.0888
 3191SOL    HW221036   2.802   1.063  11.295 -1.5374  0.2810  0.0058
 3192SOL     OW21037   0.458   3.049  14.109  0.0528  0.6952 -0.2458
 3192SOL    HW121038   0.446   3.062  14.203 -0.1990 -1.3471 -0.0087
 3192SOL    HW221039   0.480   2.956  14.107 -3.1928 -0.0731  0.4880
 3193SOL     OW21040   0.572   3.689  16.331  0.2496 -0.2171  0.5452
 3193SOL    HW121041   0.537   3.770  16.369  0.0801 -1.2286  2.5550
 3193SOL    HW221042   0.558   3.625  16.401  0.7038  0.3735  1.1777
 3194SOL     OW21043   3.158   1.958  12.835 -0.0179  0.4826  0.1696
 3194SOL    HW121044   3.106   1.918  12.905  0.3698  2.9277  1.8696
 3194SOL    HW221045   3.237   1.954  12.889  1.6524  1.2931 -2.2387
 3195SOL     OW21046   3.647   2.774   3.027 -0.5698  0.0959  0.4064
 3195SOL    HW121047   3.718   2.711   3.021 -0.6216  0.3548 -2.9425
 3195SOL    HW221048   3.570   2.721   3.005  0.7140 -0.7830 -1.9966
 3196SOL     OW21049   0.500   4.604   6.739 -0.6434 -0.1504 -0.5528
 3196SOL    HW121050   0.569   4.618   6.804  0.6847  2.2711 -2.4821
 3196SOL    HW221051   0.506   4.689   6.694  2.5457 -0.7134 -1.1478
 3197SOL     OW21052   0.732   0.578  10.889 -0.4364  0.2761  0.2945
 3197SOL    HW121053   0.642   0.580  10.920  0.1923  0.7523  2.0704
 3197SOL    HW221054   0.720   0.519  10.815 -1.6526 -0.0566  0.7562
 3198SOL     OW21055   3.711   1.684   8.067  0.0982 -0.5317 -0.0335
 3198SOL    HW121056   3.759   1.746   8.013 -0.4585 -1.4275 -1.5660
 3198SOL    HW221057   3.740   1.596   8.043  1.6933  0.1870 -0.6692
 3199SOL     OW21058   4.281   3.350   9.085 -0.0943  0.1673  0.2063
 3199SOL    HW121059   4.309   3.436   9.056  0.1405 -0.5400 -1.6603
 3199SOL    HW221060   4.215   3.333   9.018  2.2164  1.5369 -2.3830
 3200SOL     OW21061   4.711   2.303   7.871 -0.2466 -0.3904 -0.6645
 3200SOL    HW121062   0.058   2.286   7.931 -1.4493 -0.9512  0.6389
 3200SOL    HW221063   0.013   2.258   7.791 -0.1421 -0.3882 -0.6297
 3201SOL     OW21064   2.302   3.875   2.570 -0.0658 -0.0871 -0.0576
 3201SOL    HW121065   2.286   3.900   2.661  0.1357  3.0936 -0.8897
 3201SOL    HW221066   2.354   3.796   2.585  0.3215  0.4602  1.4696
 3202SOL     OW21067   0.851   2.819   5.486 -0.5039  0.6953 -0.3484
 3202SOL    HW121068   0.935   2.864   5.484 -0.3724  0.5969  2.3074
 3202SOL    HW221069   0.787   2.890   5.481 -0.6129  0.6615  0.5650
 3203SOL     OW21070   2.425   3.563   3.901 -0.2292  0.2736 -0.3358
 3203SOL    HW121071   2.503   3.566   3.846  0.1152  1.0450  0.2044
 3203SOL    HW221072   2.386   3.491   3.851 -1.4354  0.6204  0.0979
 3204SOL     OW21073   4.375   2.656   0.348  0.1474 -0.2032  0.2410
 3204SOL    HW121074   4.396   2.747   0.371 -0.6275  0.3128 -1.1054
 3204SOL    HW221075   4.284   2.672   0.325 -0.1344 -1.9984  0.1617
 3205SOL     OW21076   2.326   2.102  17.335 -0.1512 -0.3996 -0.0223
 3205SOL    HW121077   2.291   2.173  17.281 -1.5648  0.6105  2.2424
 3205SOL    HW221078   2.375   2.153  17.400 -2.2274 -0.9247  1.9654
 3206SOL     OW21079   2.864   0.714   0.177  0.1625  0.7603 -0.2037
 3206SOL    HW121080   2.859   0.644   0.112 -1.2625  0.4409  0.2684
 3206SOL    HW221081   2.838   0.673   0.260  1.1751 -1.3213 -0.9287
 3207SOL     OW21082   1.009   4.403   3.651  0.5048 -0.3777  0.7895
 3207SOL    HW121083   1.039   4.318   3.619 -0.0661 -1.2794  2.6607
 3207SOL    HW221084   0.999   4.444   3.564  1.2345  0.7863  1.2505
 3208SOL     OW21085   1.514   2.907  10.966  0.1143  0.3909 -0.5161
 3208SOL    HW121086   1.500   2.902  10.871 -4.4157  2.1859  0.0212
 3208SOL    HW221087   1.443   2.967  10.991  0.2278 -0.4699  1.8104
 3209SOL     OW21088   1.508   0.197   4.338 -0.2114  0.2360  0.6316
 3209SOL    HW121089   1.478   0.276   4.384 -0.8215 -0.4569  1.4270
 3209SOL    HW221090   1.447   0.128   4.365  0.2408  0.0889  1.2808
 3210SOL     OW21091   3.253   0.550   8.312 -0.1191  0.1083  0.1496
 3210SOL    HW121092   3.240   0.464   8.273 -0.4519  0.8697 -1.4093
 3210SOL    HW221093   3.341   0.546   8.349 -0.6855 -0.5638  1.4263
 3211SOL     OW21094   0.337   0.106   8.578 -0.6314 -0.0682  0.1865
 3211SOL    HW121095   0.348   0.201   8.582  1.3565 -0.3049  0.1268
 3211SOL    HW221096   0.286   0.101   8.659 -1.8919 -0.6868 -0.6508
 3212SOL     OW21097   1.178   2.205   8.747 -0.5718 -0.0066  0.0612
 3212SOL    HW121098   1.203   2.208   8.655 -0.5738 -1.1287  0.0171
 3212SOL    HW221099   1.263   2.196   8.792 -1.6551 -0.7446  1.9526
 3213SOL     OW21100   0.848   1.182   3.571  0.0714  0.4785 -0.1116
 3213SOL    HW121101   0.884   1.132   3.498 -0.4954 -0.3989  0.2175
 3213SOL    HW221102   0.923   1.201   3.628  0.0609  0.8251 -0.2111
 3214SOL     OW21103   2.405   0.279  16.922  0.4557 -0.0422  0.0469
 3214SOL    HW121104   2.395   0.262  17.015 -0.9537 -1.9910 -0.4683
 3214SOL    HW221105   2.313   0.269  16.896  0.2957  0.8599  0.2578
 3215SOL     OW21106   2.363   3.754   5.690 -0.0633  0.6459  0.0589
 3215SOL    HW121107   2.320   3.780   5.771  0.1255  0.4065  0.2394
 3215SOL    HW221108   2.371   3.661   5.714 -1.2695  0.9775  1.6958
 3216SOL     OW21109   4.163   2.312  17.670 -0.1760 -0.5133 -0.6802
 3216SOL    HW121110   4.157   2.265   0.047  1.9973 -0.3775 -0.4529
 3216SOL    HW221111   4.252   2.346  17.679 -0.5144  0.4316 -0.8001
 3217SOL     OW21112   1.570   3.838   8.027  0.0186 -0.1279 -0.2618
 3217SOL    HW121113   1.604   3.748   8.030  0.8064  0.1978  0.4297
 3217SOL    HW221114   1.651   3.888   8.015  0.0172 -0.4483 -1.6904
 3218SOL     OW21115   1.185   1.412   4.911 -0.3319  0.3163  0.2436
 3218SOL    HW121116   1.196   1.330   4.959  0.1288  1.3336  1.8753
 3218SOL    HW221117   1.138   1.459   4.980 -0.6965  2.3177 -1.3485
 3219SOL     OW21118   2.705   0.696   6.959  0.0010 -0.5157 -0.4885
 3219SOL    HW121119   2.676   0.776   7.004 -0.6062 -1.2729  0.4747
 3219SOL    HW221120   2.653   0.626   6.998  1.2776 -0.5854  1.1283
 3220SOL     OW21121   1.002   2.913   9.019 -0.3563 -0.1234 -0.7304
 3220SOL    HW121122   0.922   2.887   8.975  0.2390 -1.4263 -1.0417
 3220SOL    HW221123   0.992   3.006   9.037  2.5619  0.2594 -1.0894
 3221SOL     OW21124   2.846   1.491  11.292  0.3944 -0.4457  0.4344
 3221SOL    HW121125   2.901   1.541  11.232 -0.5513  0.0801  0.0086
 3221SOL    HW221126   2.757   1.523  11.276  0.8589  0.0050 -1.2120
 3222SOL     OW21127   2.558   3.016  11.224  0.1638 -0.0814 -0.3497
 3222SOL    HW121128   2.480   3.008  11.168 -0.2560  1.5717 -0.0029
 3222SOL    HW221129   2.523   3.021  11.313 -0.9688  0.0328 -0.8031
 3223SOL     OW21130   2.050   1.548  11.555  0.0087 -0.3487  0.2276
 3223SOL    HW121131   1.993   1.596  11.495  0.3020 -0.0709  0.1737
 3223SOL    HW221132   2.119   1.611  11.571  0.7825 -0.5516 -2.3554
 3224SOL     OW21133   3.540   3.087  11.765  0.6855 -0.3146  0.3817
 3224SOL    HW121134   3.490   3.034  11.828  1.1131 -1.1688  0.0078
 3224SOL    HW221135   3.522   3.039  11.684 -0.5332 -1.4173  1.3061
 3225SOL     OW21136   1.163   2.406   4.515 -0.0281 -0.7442 -0.6516
 3225SOL    HW121137   1.094   2.388   4.450 -1.4879 -0.0220  0.6932
 3225SOL    HW221138   1.242   2.410   4.460 -0.3678  1.1342 -0.9977
 3226SOL     OW21139   1.630   1.798   7.411 -0.1167  0.0716 -0.3719
 3226SOL    HW121140   1.666   1.774   7.325 -2.3367  0.7452 -1.4806
 3226SOL    HW221141   1.535   1.801   7.405 -0.2643 -0.3597  2.0694
 3227SOL     OW21142   3.142   0.271   3.054 -0.7059 -0.4196 -0.0286
 3227SOL    HW121143   3.186   0.211   2.993  0.4760  1.3443 -0.9001
 3227SOL    HW221144   3.046   0.275   3.043 -0.6123 -1.2808 -1.2104
 3228SOL     OW21145   2.581   1.858   4.043 -0.1923 -0.1083  0.4548
 3228SOL    HW121146   2.530   1.841   3.964  0.0198 -0.4797  0.3920
 3228SOL    HW221147   2.667   1.874   4.003 -0.1138  2.4105  1.6834
 3229SOL     OW21148   0.862   4.481   1.896 -0.2497 -0.4557 -0.7948
 3229SOL    HW121149   0.892   4.391   1.897 -0.3170 -0.5041 -2.6123
 3229SOL    HW221150   0.906   4.517   1.974 -4.2171 -1.0015  1.6905
 3230SOL     OW21151   0.131   3.182  16.341  0.7385  0.1951 -0.0733
 3230SOL    HW121152   0.161   3.272  16.329  0.3161  0.4016  0.4068
 3230SOL    HW221153   0.049   3.178  16.291  1.0179  0.2145 -0.5237
 3231SOL     OW21154   3.654   1.941  16.159  0.5407 -0.1550  0.1394
 3231SOL    HW121155   3.649   2.027  16.201 -0.8259 -1.1381  1.9767
 3231SOL    HW221156   3.706   1.969  16.084 -0.9572  2.5795  0.1367
 3232SOL     OW21157   1.067   0.930   6.144 -0.2685  0.0444 -0.9165
 3232SOL    HW121158   1.029   1.018   6.142 -0.0242  0.1587 -0.4862
 3232SOL    HW221159   1.003   0.882   6.197  1.2882 -1.6837 -0.5857
 3233SOL     OW21160   1.748   1.157   2.416  0.2690  0.5208 -0.0857
 3233SOL    HW121161   1.659   1.161   2.450  0.8389 -1.2525  1.6610
 3233SOL    HW221162   1.781   1.246   2.407 -0.8995  1.0491  0.9709
 3234SOL     OW21163   3.464   3.745   2.924 -0.2319 -0.0174 -0.2470
 3234SOL    HW121164   3.504   3.803   2.858  0.2506 -0.5897 -0.4540
 3234SOL    HW221165   3.388   3.719   2.871 -1.2116  1.2791  0.5185
 3235SOL     OW21166   1.756   0.776   5.855 -0.2178 -0.2643 -0.2725
 3235SOL    HW121167   1.678   0.768   5.910 -0.0174  1.3139  0.2616
 3235SOL    HW221168   1.720   0.827   5.782 -0.3428  1.2449  0.8500
 3236SOL     OW21169   2.088   3.034  16.510 -0.0337 -0.0149 -0.2874
 3236SOL    HW121170   2.115   3.117  16.472 -1.1344  1.7223  2.7285
 3236SOL    HW221171   1.994   3.035  16.496  0.0124 -2.2955 -0.8646
 3237SOL     OW21172   1.359   0.257  10.114  0.2368  0.0220  0.1567
 3237SOL    HW121173   1.316   0.182  10.072 -0.2435  0.1252  0.4588
 3237SOL    HW221174   1.284   0.303  10.150  0.7713  0.6450  0.4569
 3238SOL     OW21175   2.606   3.675  11.915 -0.5613 -0.5715  0.8377
 3238SOL    HW121176   2.624   3.669  12.009  1.0224  1.1686  0.6557
 3238SOL    HW221177   2.535   3.612  11.905  0.0049 -0.8275 -1.3464
 3239SOL     OW21178   0.851   2.347   2.168 -0.4475  0.4676 -0.4170
 3239SOL    HW121179   0.810   2.271   2.127 -2.6539  0.0142  2.6513
 3239SOL    HW221180   0.867   2.402   2.091  2.3747 -0.5215 -0.5590
 3240SOL     OW21181   4.328   0.017   8.344 -0.2942  0.4335  0.4731
 3240SOL    HW121182   4.259   0.019   8.410  1.2303 -1.9025  2.1154
 3240SOL    HW221183   4.410   0.008   8.391  0.5708  0.5368 -1.0027
 3241SOL     OW21184   1.342   3.673   2.101  0.5109 -0.0785 -0.1987
 3241SOL    HW121185   1.409   3.701   2.039 -0.2339 -0.8388 -1.3539
 3241SOL    HW221186   1.284   3.626   2.042  0.8899 -2.0056  0.9404
 3242SOL     OW21187   0.185   0.959   5.759  0.4341  0.1175 -0.5298
 3242SOL    HW121188   0.166   0.877   5.714  1.1238 -0.1670 -0.3047
 3242SOL    HW221189   0.184   0.925   5.849 -1.1318  0.2380 -0.4994
 3243SOL     OW21190   3.536   0.114   9.160 -0.1728  0.0213  0.2393
 3243SOL    HW121191   3.529   0.089   9.068  0.1703 -0.0925  0.2468
 3243SOL    HW221192   3.465   0.065   9.202  0.1311 -0.2703  0.4095
 3244SOL     OW21193   3.282   2.611  17.533  0.0034 -0.1835 -0.3163
 3244SOL    HW121194   3.304   2.529  17.577 -1.0169 -0.0811  0.3841
 3244SOL    HW221195   3.334   2.677  17.579  2.2996 -2.4889  0.3732
 3245SOL     OW21196   1.960   1.617   9.810 -0.3929  0.1705 -0.4838
 3245SOL    HW121197   1.943   1.548   9.745 -0.3195  0.0802 -0.4067
 3245SOL    HW221198   1.945   1.692   9.752  0.0901  1.1339  0.6314
 3246SOL     OW21199   1.882   4.531   3.500  0.1244  0.9165 -0.3018
 3246SOL    HW121200   1.977   4.545   3.493  0.3139  0.3012  1.2078
 3246SOL    HW221201   1.874   4.456   3.558 -0.6254  1.0520 -0.2249
 3247SOL     OW21202   3.397   4.123   4.843  0.2129 -0.2126 -0.3200
 3247SOL    HW121203   3.404   4.128   4.748  1.6795  1.4521 -0.1262
 3247SOL    HW221204   3.492   4.124   4.855  0.1987  0.4276 -0.2250
 3248SOL     OW21205   0.439   0.159   3.013 -0.1393  0.0211 -0.3513
 3248SOL    HW121206   0.390   0.217   3.072  1.6322 -0.4239  1.5456
 3248SOL    HW221207   0.378   0.160   2.940  1.0473  1.2160 -1.3129
 3249SOL     OW21208   3.856   1.808  12.762 -0.4746  0.0503 -0.0629
 3249SOL    HW121209   3.762   1.795  12.751 -0.7175  1.4197  0.3309
 3249SOL    HW221210   3.848   1.904  12.761  0.1512  0.1109  0.1320
 3250SOL     OW21211   0.103   0.779   3.193 -0.2679 -0.0300  0.1348
 3250SOL    HW121212   0.082   0.802   3.284 -0.1373 -0.7778  0.3548
 3250SOL    HW221213   0.133   0.864   3.161 -0.5166  0.5487  1.4474
 3251SOL     OW21214   4.416   1.196   5.328 -0.2952  0.1513 -0.1128
 3251SOL    HW121215   4.467   1.130   5.374 -1.3247  0.7997  1.9527
 3251SOL    HW221216   4.435   1.274   5.380  0.2790  0.0074 -0.1128
 3252SOL     OW21217   1.278   4.285   3.856  0.3959 -0.0733 -0.2753
 3252SOL    HW121218   1.243   4.374   3.862 -1.4009 -0.7160 -1.2095
 3252SOL    HW221219   1.214   4.241   3.913 -1.4039  0.5909 -1.7595
 3253SOL     OW21220   1.285   0.342   7.094  0.2779  0.2579 -0.0646
 3253SOL    HW121221   1.217   0.274   7.095  0.6615 -0.1403 -0.9722
 3253SOL    HW221222   1.304   0.358   7.186  2.1800 -3.1417  0.1460
 3254SOL     OW21223   3.725   3.665   9.185 -0.5076 -0.2306  0.4816
 3254SOL    HW121224   3.758   3.752   9.166 -1.0182 -0.5232 -1.7434
 3254SOL    HW221225   3.687   3.636   9.102 -0.9097 -1.1352  0.9764
 3255SOL     OW21226   2.762   4.636  11.048 -0.3014  0.7369  0.2791
 3255SOL    HW121227   2.765   4.540  11.046 -0.4860  0.7547 -0.8654
 3255SOL    HW221228   2.771   4.653  11.142 -0.6527 -0.2511  0.4886
 3256SOL     OW21229   1.836   2.520   8.249  0.0671  0.0476  0.9692
 3256SOL    HW121230   1.826   2.483   8.337  1.3554 -1.1158  0.6149
 3256SOL    HW221231   1.776   2.594   8.255 -1.2036 -0.9304  0.3669
 3257SOL     OW21232   0.322   2.578  11.226  0.2502 -0.2070  0.1517
 3257SOL    HW121233   0.338   2.597  11.133 -0.2348 -0.2632  0.0537
 3257SOL    HW221234   0.404   2.583  11.275  1.2600  2.8522 -1.8285
 3258SOL     OW21235   4.144   0.359   5.102  0.5516 -0.2725  0.4197
 3258SOL    HW121236   4.208   0.425   5.075 -0.1294 -0.1928 -1.0130
 3258SOL    HW221237   4.153   0.362   5.197  3.5060 -0.0555  0.1186
 3259SOL     OW21238   3.483   1.442   7.269 -0.1068 -0.4451 -0.0658
 3259SOL    HW121239   3.472   1.350   7.291 -2.7339 -0.1711 -0.1495
 3259SOL    HW221240   3.434   1.485   7.339 -1.3085  1.9494 -2.3276
 3260SOL     OW21241   2.536   2.338   4.054  0.0620  0.4543 -0.1228
 3260SOL    HW121242   2.549   2.394   3.978 -3.8098  0.0996 -1.0417
 3260SOL    HW221243   2.483   2.263   4.028  0.4196  0.6040 -1.2909
 3261SOL     OW21244   2.302   1.224  16.954  0.0313  0.6180  0.0183
 3261SOL    HW121245   2.280   1.215  17.047 -0.5664 -1.6846 -0.3376
 3261SOL    HW221246   2.265   1.145  16.914 -0.1716  1.4413 -1.3967
 3262SOL     OW21247   3.540   3.822   2.227 -0.6893  0.6463  0.2228
 3262SOL    HW121248   3.540   3.869   2.310 -2.7675  1.2493 -0.0938
 3262SOL    HW221249   3.524   3.900   2.173  1.9893  1.5003  0.6536
 3263SOL     OW21250   2.019   3.883   8.336 -0.4538  0.1734 -0.0683
 3263SOL    HW121251   2.062   3.814   8.286 -0.8577  1.7780 -2.6625
 3263SOL    HW221252   1.925   3.862   8.332 -0.5549  0.6371 -0.2248
 3264SOL     OW21253   1.092   0.753   6.528 -0.2641 -0.0778  0.4813
 3264SOL    HW121254   1.065   0.783   6.615 -1.2663  0.8028 -0.1244
 3264SOL    HW221255   1.165   0.699   6.558  0.8784  1.0616 -0.2316
 3265SOL     OW21256   2.606   4.540   3.485 -0.1856 -0.2089 -0.2083
 3265SOL    HW121257   2.516   4.564   3.466 -0.0394  0.6625  0.1772
 3265SOL    HW221258   2.646   4.516   3.401  2.7023 -0.3544  1.1928
 3266SOL     OW21259   1.681   0.600  10.499 -0.7000  0.0044 -0.1991
 3266SOL    HW121260   1.726   0.606  10.415  0.0272 -1.4160  0.0958
 3266SOL    HW221261   1.742   0.636  10.563  0.2381 -0.9820 -0.5479
 3267SOL     OW21262   1.673   0.028   8.107  0.4972 -0.2881  0.1063
 3267SOL    HW121263   1.697   4.707   8.187 -1.3387 -0.0652  0.7905
 3267SOL    HW221264   1.753   0.079   8.090  0.0251 -0.0833 -1.4707
 3268SOL     OW21265   3.471   1.235   3.682  0.4830  0.0321 -0.1311
 3268SOL    HW121266   3.421   1.293   3.625  2.5151  0.8687 -1.0549
 3268SOL    HW221267   3.537   1.196   3.625 -0.8155 -1.3147 -0.7187
 3269SOL     OW21268   3.297   4.249   8.320 -0.2240 -0.5080  0.0324
 3269SOL    HW121269   3.356   4.317   8.354 -0.5232  0.4024 -1.2928
 3269SOL    HW221270   3.336   4.227   8.235  0.7896 -1.2338  0.6832
 3270SOL     OW21271   2.838   2.134   2.361 -0.6760 -0.2085 -0.1824
 3270SOL    HW121272   2.878   2.071   2.421  0.8481  0.0664 -0.9027
 3270SOL    HW221273   2.876   2.103   2.279  1.0749 -0.4782  0.7264
 3271SOL     OW21274   1.303   2.727   4.694 -0.8626 -0.6092  0.2760
 3271SOL    HW121275   1.224   2.753   4.741 -0.3753  0.0089  0.7579
 3271SOL    HW221276   1.349   2.683   4.765 -0.2069 -0.6276 -0.1602
 3272SOL     OW21277   1.849   1.957   2.537  0.0820 -0.1797  0.1814
 3272SOL    HW121278   1.813   1.945   2.449 -1.3310  1.8648  0.4722
 3272SOL    HW221279   1.859   2.052   2.535  2.6078 -0.4527  0.3697
 3273SOL     OW21280   3.148   3.767  10.418 -0.7383  0.1555 -0.1558
 3273SOL    HW121281   3.225   3.765  10.474 -0.6386 -0.5212 -0.3122
 3273SOL    HW221282   3.082   3.738  10.481 -1.2261 -0.9847 -1.1899
 3274SOL     OW21283   4.092   1.146   5.541  0.2235  0.3308 -0.3103
 3274SOL    HW121284   4.030   1.079   5.514  0.6877 -1.5739  3.2744
 3274SOL    HW221285   4.176   1.101   5.526 -0.4037 -0.8710 -0.1722
 3275SOL     OW21286   2.068   0.683  15.778  0.5556 -0.0862  0.3675
 3275SOL    HW121287   1.981   0.690  15.819  0.9719  0.7106  1.1153
 3275SOL    HW221288   2.048   0.643  15.694  1.9831 -0.2126  0.0934
 3276SOL     OW21289   2.399   2.797   9.896  0.4590  0.1892 -0.4366
 3276SOL    HW121290   2.425   2.746   9.973 -0.1152 -0.2214 -0.5139
 3276SOL    HW221291   2.362   2.884   9.915  1.0758  0.2606  0.4363
 3277SOL     OW21292   2.830   3.710   3.382 -0.2516  0.1313  0.2507
 3277SOL    HW121293   2.856   3.786   3.433 -2.1749  1.9777 -1.5304
 3277SOL    HW221294   2.742   3.737   3.356 -0.6116 -1.0108  0.2540
 3278SOL     OW21295   3.803   3.564   2.867  0.4664  0.0905 -0.3761
 3278SOL    HW121296   3.879   3.602   2.911  1.3066 -1.4093 -0.5484
 3278SOL    HW221297   3.836   3.475   2.861  0.8155  0.2004 -0.0467
 3279SOL     OW21298   2.277   4.576   8.691 -0.0789  0.3361  0.0548
 3279SOL    HW121299   2.199   4.625   8.716 -0.1882  0.7907 -1.1885
 3279SOL    HW221300   2.327   4.643   8.645  1.4081 -0.3357  0.6870
 3280SOL     OW21301   0.077   3.973   8.962 -0.4130 -0.0746 -0.3470
 3280SOL    HW121302   0.002   4.033   8.958  0.3473  0.7908 -2.1024
 3280SOL    HW221303   0.144   4.015   8.907 -1.6200 -1.7295 -3.1027
 3281SOL     OW21304   2.056   3.819   1.917  0.2763  0.4765  0.1358
 3281SOL    HW121305   2.104   3.738   1.935  2.0773  1.0370 -2.0120
 3281SOL    HW221306   2.096   3.879   1.980 -1.9520  0.7169  1.3022
 3282SOL     OW21307   3.756   3.305   7.838  0.0039  0.1586  0.2549
 3282SOL    HW121308   3.806   3.242   7.890 -0.2860  0.2397  0.6332
 3282SOL    HW221309   3.820   3.309   7.767  0.1471 -0.4146  0.3445
 3283SOL     OW21310   2.873   2.947  17.503 -0.1736  0.4360 -0.5023
 3283SOL    HW121311   2.783   2.944  17.535  0.4548 -0.6716  1.2050
 3283SOL    HW221312   2.891   2.854  17.487 -1.2670  0.4064 -1.4970
 3284SOL     OW21313   2.442   0.459  17.213  0.2871  0.3479 -0.2542
 3284SOL    HW121314   2.518   0.465  17.154 -0.2118 -2.5660 -1.1724
 3284SOL    HW221315   2.441   0.543  17.259 -0.9268  0.6139 -0.7750
 3285SOL     OW21316   3.254   1.679   4.524  0.1783  0.1006 -0.0146
 3285SOL    HW121317   3.192   1.606   4.511  1.7539 -1.2021 -0.2137
 3285SOL    HW221318   3.197   1.756   4.528 -0.3820 -0.3030 -0.1410
 3286SOL     OW21319   1.726   0.540   6.690 -0.3755 -0.6358 -0.3803
 3286SOL    HW121320   1.633   0.544   6.671  0.1009  0.1165 -2.6549
 3286SOL    HW221321   1.746   0.624   6.649  3.2509 -2.0307 -1.5326
 3287SOL     OW21322   2.519   3.348  15.161 -0.4961 -0.2872 -0.4955
 3287SOL    HW121323   2.534   3.284  15.230  1.3667  2.3604  1.5961
 3287SOL    HW221324   2.605   3.343  15.118 -0.6470 -1.6141 -0.6373
 3288SOL     OW21325   2.855   3.888   3.057  0.5852 -0.4076 -0.2657
 3288SOL    HW121326   2.790   3.820   3.073 -1.7809  1.2266 -3.1241
 3288SOL    HW221327   2.857   3.938   3.140  0.2103 -0.9413  0.0627
 3289SOL     OW21328   2.314   4.400  14.863 -0.0276 -0.6545 -0.1775
 3289SOL    HW121329   2.320   4.314  14.903 -1.2765 -0.4617  0.4384
 3289SOL    HW221330   2.396   4.433  14.901  0.7364 -1.0819 -1.4804
 3290SOL     OW21331   1.972   0.000  10.248 -0.3347 -0.0330  0.3217
 3290SOL    HW121332   2.009   0.047  10.323 -0.4386  0.7344 -0.1042
 3290SOL    HW221333   1.904   4.678  10.294 -1.8477 -0.6687 -2.5534
 3291SOL     OW21334   1.771   0.781   6.552 -0.3113  0.5073 -0.9188
 3291SOL    HW121335   1.705   0.770   6.483  0.1243 -1.3606 -1.0337
 3291SOL    HW221336   1.797   0.871   6.535  1.7328  0.1878  0.6457
 3292SOL     OW21337   1.122   0.160   6.533 -0.2286 -0.6246 -0.2597
 3292SOL    HW121338   1.096   0.203   6.452 -0.1473  0.8243  0.4719
 3292SOL    HW221339   1.210   0.196   6.542 -1.2104  1.5068  0.8027
 3293SOL     OW21340   1.690   1.934   7.628  0.1034 -0.5063  0.0536
 3293SOL    HW121341   1.649   1.886   7.556 -1.1861  0.7365 -0.0484
 3293SOL    HW221342   1.682   2.025   7.600  2.2838 -0.5547 -0.7444
 3294SOL     OW21343   0.204   0.771  14.391 -0.2176  0.0383  0.1031
 3294SOL    HW121344   0.177   0.788  14.301 -0.3332 -2.6262 -0.3822
 3294SOL    HW221345   0.127   0.804  14.439 -0.3349 -1.3554  0.8906
 3295SOL     OW21346   3.280   4.443   7.701  0.0831 -0.5697 -0.4338
 3295SOL    HW121347   3.302   4.402   7.785 -0.8264  1.8866  0.9904
 3295SOL    HW221348   3.348   4.510   7.701 -0.5765  0.1113  1.7717
 3296SOL     OW21349   2.490   2.471  13.288 -0.2791  0.7998 -0.2630
 3296SOL    HW121350   2.580   2.465  13.255 -0.7949  1.9424 -1.8900
 3296SOL    HW221351   2.496   2.560  13.323  2.8873  0.1810  0.7936
 3297SOL     OW21352   2.170   2.238  15.816 -0.3601 -0.2091  0.4844
 3297SOL    HW121353   2.160   2.319  15.865 -1.5046  0.7825 -1.3845
 3297SOL    HW221354   2.265   2.228  15.826 -0.3446  0.2096  0.7511
 3298SOL     OW21355   2.620   0.214  14.088  0.5554 -0.0923  0.6398
 3298SOL    HW121356   2.539   0.171  14.113  0.1733  0.3972  0.2419
 3298SOL    HW221357   2.694   0.153  14.087  0.7874  0.2060 -0.3707
 3299SOL     OW21358   4.544   1.292   3.938 -0.6597 -0.7119 -0.2883
 3299SOL    HW121359   4.526   1.284   4.032 -1.7640  0.5130 -0.4091
 3299SOL    HW221360   4.608   1.364   3.937  0.0591 -1.3119  3.4537
 3300SOL     OW21361   0.372   0.592   4.388  0.2249 -0.1910 -0.0202
 3300SOL    HW121362   0.443   0.556   4.334 -1.3199 -3.2757  0.0286
 3300SOL    HW221363   0.346   0.524   4.450  0.0241 -0.0226  0.0780
 3301SOL     OW21364   1.808   3.627  10.756  0.1332 -0.0263 -0.1594
 3301SOL    HW121365   1.845   3.550  10.800 -0.6649  0.1574  0.8352
 3301SOL    HW221366   1.865   3.701  10.776  2.1839 -1.6131 -0.0983
 3302SOL     OW21367   4.368   1.648   1.934 -0.6185 -0.2816 -1.0960
 3302SOL    HW121368   4.455   1.662   1.895  0.2412 -1.3484  0.4120
 3302SOL    HW221369   4.379   1.562   1.974 -0.4117  1.1644  1.9882
 3303SOL     OW21370   1.035   1.571   4.021  0.0397 -0.1276  0.1586
 3303SOL    HW121371   1.050   1.654   4.066 -0.4927  0.9749 -1.7132
 3303SOL    HW221372   0.951   1.596   3.983 -0.1768 -0.5906  0.3266
 3304SOL     OW21373   2.594   1.386  10.273  0.4270 -0.2490  0.2077
 3304SOL    HW121374   2.594   1.472  10.314 -0.7878 -0.2630  0.2281
 3304SOL    HW221375   2.609   1.412  10.182 -2.7959  1.4135  0.1468
 3305SOL     OW21376   3.429   3.424   5.115  0.7421 -0.1552 -0.8858
 3305SOL    HW121377   3.409   3.486   5.184  1.4879  0.1392 -0.9423
 3305SOL    HW221378   3.523   3.415   5.131  0.7932 -2.1660 -2.2434
 3306SOL     OW21379   0.876   3.470   1.657 -0.1522  0.6291  0.4526
 3306SOL    HW121380   0.948   3.531   1.641 -0.8798  1.5459  0.6709
 3306SOL    HW221381   0.918   3.389   1.682  2.1309  1.7368  0.1726
 3307SOL     OW21382   4.270   2.733   8.320 -0.2077  0.1907  0.1220
 3307SOL    HW121383   4.215   2.672   8.368 -0.0506 -0.8236 -0.9722
 3307SOL    HW221384   4.213   2.808   8.334 -0.1782  0.4933 -1.3223
 3308SOL     OW21385   3.376   2.240  11.624  0.3980 -0.0287 -0.6640
 3308SOL    HW121386   3.325   2.319  11.608 -0.1502  0.0773  1.5245
 3308SOL    HW221387   3.328   2.214  11.703 -1.3233 -1.7833 -2.2863
 3309SOL     OW21388   2.193   1.552   5.679  0.1246  0.2897  0.2894
 3309SOL    HW121389   2.122   1.615   5.693  0.0057 -0.4783  3.0835
 3309SOL    HW221390   2.158   1.478   5.728 -1.7853  1.8842  1.3544
 3310SOL     OW21391   4.071   2.541  12.091 -1.3916  0.0061 -0.7673
 3310SOL    HW121392   4.140   2.477  12.073  0.9762  2.0971  0.9130
 3310SOL    HW221393   4.115   2.603  12.034 -0.2455  1.6293  1.8813
 3311SOL     OW21394   1.646   0.101  12.106  0.1192 -0.3032 -0.2864
 3311SOL    HW121395   1.619   0.169  12.044 -3.4619 -0.5347  1.0159
 3311SOL    HW221396   1.725   0.145  12.137  0.7513 -1.6359 -0.0069
 3312SOL     OW21397   0.279   1.780   4.213 -0.2840  0.1628  0.6314
 3312SOL    HW121398   0.321   1.719   4.152 -1.9206 -0.8946  0.5674
 3312SOL    HW221399   0.323   1.761   4.296 -1.8562  1.3105  1.7430
 3313SOL     OW21400   1.904   1.141   9.985 -0.5922 -0.4654 -0.1426
 3313SOL    HW121401   1.930   1.084  10.057 -1.4340 -0.1475  0.4239
 3313SOL    HW221402   1.945   1.225  10.007  0.6029 -1.3470  0.9579
 3314SOL     OW21403   3.077   0.877   8.957  0.4059 -0.3322 -0.1941
 3314SOL    HW121404   3.116   0.837   9.036  0.4503  0.7958  0.3556
 3314SOL    HW221405   3.089   0.797   8.905 -2.1293  0.2904 -1.6952
 3315SOL     OW21406   4.433   1.510   5.171  0.3658  0.0181  0.5285
 3315SOL    HW121407   4.526   1.501   5.192  0.6893  0.8826 -0.5146
 3315SOL    HW221408   4.441   1.568   5.095  0.1601 -0.3024  0.2620
 3316SOL     OW21409   2.946   2.861  11.348  0.0723 -0.4104 -0.0725
 3316SOL    HW121410   2.931   2.955  11.341  0.0661 -0.4356 -0.4246
 3316SOL    HW221411   2.866   2.830  11.306 -1.2311  2.0947  0.5495
 3317SOL     OW21412   0.777   4.210   4.350 -0.1283 -0.0439 -0.2826
 3317SOL    HW121413   0.750   4.185   4.261 -0.8086 -2.8343  0.7143
 3317SOL    HW221414   0.777   4.122   4.387 -0.4968  0.6352  1.3323
 3318SOL     OW21415   0.558   1.685   5.222 -0.1170 -0.2230 -0.3769
 3318SOL    HW121416   0.552   1.603   5.271 -0.2547 -1.0988 -1.8582
 3318SOL    HW221417   0.630   1.669   5.160 -0.9251  0.0976 -1.3920
 3319SOL     OW21418   3.425   2.541  14.971  0.4842 -0.3820 -0.0512
 3319SOL    HW121419   3.430   2.507  14.881 -1.1210  1.2228 -0.7225
 3319SOL    HW221420   3.515   2.524  15.000  0.0316 -0.9042  1.0225
 3320SOL     OW21421   3.621   0.184   4.095  0.6809 -0.6760 -0.0612
 3320SOL    HW121422   3.555   0.207   4.030  2.3423 -1.1548 -1.9172
 3320SOL    HW221423   3.675   0.263   4.094  1.0040 -0.9581 -3.6798
 3321SOL     OW21424   1.420   3.128   2.545  0.0612 -0.3363  0.1107
 3321SOL    HW121425   1.428   3.055   2.606 -0.2593 -0.9896 -0.6225
 3321SOL    HW221426   1.374   3.187   2.605  1.2557 -2.7400  3.3427
 3322SOL     OW21427   0.634   0.413   6.709  0.4452  0.4741  0.7729
 3322SOL    HW121428   0.569   0.483   6.718 -0.9292 -0.7016 -0.0557
 3322SOL    HW221429   0.689   0.463   6.647 -1.2448  2.1704  0.6404
 3323SOL     OW21430   3.001   3.813   7.853 -0.5008  0.1700 -0.5722
 3323SOL    HW121431   3.054   3.889   7.827 -0.6972  1.3313  2.3527
 3323SOL    HW221432   3.064   3.751   7.817 -2.2523 -0.9230 -1.7116
 3324SOL     OW21433   2.233   3.746   6.320  0.0873  0.1799 -0.0069
 3324SOL    HW121434   2.207   3.691   6.394  0.2975  0.0793 -0.0051
 3324SOL    HW221435   2.196   3.691   6.251 -0.6271 -1.2512  1.5119
 3325SOL     OW21436   3.389   3.763  15.884  0.6970  0.0737 -0.4555
 3325SOL    HW121437   3.439   3.840  15.911 -1.3713  1.1486  0.3085
 3325SOL    HW221438   3.299   3.797  15.881  0.2338 -1.0699  0.6542
 3326SOL     OW21439   3.585   3.450   6.729 -0.1549  0.4129  0.7122
 3326SOL    HW121440   3.545   3.482   6.647  1.2132  0.6462  0.1370
 3326SOL    HW221441   3.674   3.429   6.700 -0.4847  1.1783 -0.8632
 3327SOL     OW21442   4.126   0.555   2.555 -0.6284  0.1316  0.0933
 3327SOL    HW121443   4.221   0.564   2.553 -0.5257 -0.6987  1.2653
 3327SOL    HW221444   4.110   0.475   2.604  0.3201  0.9449  1.7074
 3328SOL     OW21445   0.366   2.773   1.413  0.3416  0.3446 -0.5020
 3328SOL    HW121446   0.309   2.730   1.478 -0.8691  1.3432 -0.9081
 3328SOL    HW221447   0.327   2.860   1.420 -0.5075 -0.2399  2.3719
 3329SOL     OW21448   2.637   0.053   7.950  0.1009 -0.1987  0.2833
 3329SOL    HW121449   2.634   4.710   7.883  1.7229 -1.4972  1.5418
 3329SOL    HW221450   2.687   0.020   8.024  1.9516 -0.3096 -0.9979
 3330SOL     OW21451   2.074   4.357   7.180 -0.0276 -0.3198 -0.3509
 3330SOL    HW121452   2.157   4.356   7.132 -0.6198  0.1401 -1.3807
 3330SOL    HW221453   2.020   4.381   7.105 -3.4215 -1.5923  1.6841
 3331SOL     OW21454   2.322   1.926   3.018 -0.1222  0.0713  0.1354
 3331SOL    HW121455   2.287   1.844   2.985 -1.0072 -0.3498  2.0999
 3331SOL    HW221456   2.276   1.984   2.957 -1.3914 -1.1588 -0.0618
 3332SOL     OW21457   1.520   0.945   4.633  0.2742  0.2220 -0.1096
 3332SOL    HW121458   1.478   0.958   4.548  0.1929  0.4191 -0.0390
 3332SOL    HW221459   1.600   0.997   4.633 -0.2212  0.9776 -1.1788
 3333SOL     OW21460   0.012   0.646   1.759 -0.0209  0.0523  0.0803
 3333SOL    HW121461   4.698   0.712   1.815  0.0040  0.5027 -0.4454
 3333SOL    HW221462   0.077   0.615   1.823 -1.3955 -2.1326  0.4126
 3334SOL     OW21463   0.985   0.733  12.912  0.1201  0.0997  0.4815
 3334SOL    HW121464   1.078   0.750  12.894  0.3116 -1.0442  0.3991
 3334SOL    HW221465   0.942   0.815  12.891  1.6610  1.1453  1.3851
 3335SOL     OW21466   2.030   1.930  12.311 -0.5615 -0.7669 -0.1795
 3335SOL    HW121467   2.101   1.866  12.309 -0.7505 -0.9999  0.5609
 3335SOL    HW221468   2.070   1.998  12.365  1.1341  0.1904 -2.6265
 3336SOL     OW21469   1.267   4.491   0.154  0.2000  0.5648 -0.3522
 3336SOL    HW121470   1.315   4.476   0.235  0.0781  0.0627 -0.3673
 3336SOL    HW221471   1.301   4.578   0.134  1.0687  0.5580  1.1280
 3337SOL     OW21472   1.667   1.123   2.753 -0.6101 -0.0395 -0.0075
 3337SOL    HW121473   1.742   1.081   2.795 -1.2177  0.6006  1.7061
 3337SOL    HW221474   1.591   1.106   2.808  0.0903 -0.5693  0.7794
 3338SOL     OW21475   4.117   2.076   6.533 -0.1586  0.0063  0.1772
 3338SOL    HW121476   4.152   2.116   6.453  0.1100  0.7194  0.6527
 3338SOL    HW221477   4.089   2.154   6.579 -1.0165  0.0487 -0.4303
 3339SOL     OW21478   1.302   1.847   2.459 -0.3931 -0.0663  0.4934
 3339SOL    HW121479   1.366   1.837   2.529 -1.7220 -0.1241  1.6944
 3339SOL    HW221480   1.371   1.850   2.393 -0.8429 -0.9777 -0.0164
 3340SOL     OW21481   4.251   4.454   7.927 -0.5034 -0.1121 -0.3834
 3340SOL    HW121482   4.338   4.429   7.897 -0.0825  0.3947  0.4235
 3340SOL    HW221483   4.214   4.394   7.992  0.6294 -1.8450 -1.3605
 3341SOL     OW21484   3.668   1.033   3.843  0.5240 -0.4746 -0.6324
 3341SOL    HW121485   3.726   0.957   3.836  1.1833 -0.2512  2.5164
 3341SOL    HW221486   3.730   1.102   3.822  0.7538 -0.4515  0.1181
 3342SOL     OW21487   4.500   0.577  16.239  0.0188 -0.2349 -0.2672
 3342SOL    HW121488   4.439   0.634  16.287 -0.3933  0.3454 -1.4845
 3342SOL    HW221489   4.473   0.596  16.149 -1.4947 -0.9639  0.0192
 3343SOL     OW21490   3.912   3.875   3.594  0.1358  0.5105 -0.1200
 3343SOL    HW121491   3.876   3.796   3.554 -2.2574  2.2674 -1.4753
 3343SOL    HW221492   3.966   3.898   3.518  0.1615 -1.2398 -0.6211
 3344SOL     OW21493   3.518   4.141   7.593 -0.2388  0.3860  0.1318
 3344SOL    HW121494   3.491   4.232   7.605 -2.8467 -0.3632 -0.0988
 3344SOL    HW221495   3.461   4.116   7.521  0.9367 -0.9986 -0.3315
 3345SOL     OW21496   0.473   0.001   7.216 -1.3877 -0.3362  0.1661
 3345SOL    HW121497   0.547   4.669   7.237 -2.0853 -1.3206 -0.1109
 3345SOL    HW221498   0.482   0.002   7.121 -1.1780 -2.8688  0.1680
 3346SOL     OW21499   3.462   0.402  17.155  0.0948  0.4227 -0.9056
 3346SOL    HW121500   3.414   0.388  17.237 -1.0784 -1.2652 -1.8775
 3346SOL    HW221501   3.488   0.315  17.125 -1.4040  0.2059 -1.5596
 3347SOL     OW21502   0.574   4.068   7.145  0.1800 -0.4197  0.0455
 3347SOL    HW121503   0.482   4.039   7.148 -0.3332  0.9203 -2.6076
 3347SOL    HW221504   0.594   4.090   7.236 -0.1956  0.6706 -0.1441
 3348SOL     OW21505   2.828   2.475   7.404  0.5882  0.0870  0.4664
 3348SOL    HW121506   2.883   2.534   7.352 -1.4474  1.0635 -0.5649
 3348SOL    HW221507   2.754   2.473   7.344  1.3167  2.7155 -0.5274
 3349SOL     OW21508   0.167   1.463  13.434 -0.3322 -0.1374  0.3571
 3349SOL    HW121509   0.205   1.503  13.356 -0.9716  0.9903  0.6303
 3349SOL    HW221510   0.233   1.396  13.448 -1.2770 -0.9900  0.7573
 3350SOL     OW21511   1.138   3.818   0.710  0.8744  0.0171 -0.0162
 3350SOL    HW121512   1.218   3.767   0.696  0.4297 -0.9967  1.0968
 3350SOL    HW221513   1.117   3.798   0.801  1.3955 -2.7655 -0.5305
 3351SOL     OW21514   3.489   4.106   1.776 -0.8941  0.2107  0.2466
 3351SOL    HW121515   3.459   4.089   1.865 -0.3080  2.0667  0.7968
 3351SOL    HW221516   3.582   4.105   1.800 -0.0724  0.8417 -2.9111
 3352SOL     OW21517   2.404   2.399  14.005  0.2545 -0.2060  0.3604
 3352SOL    HW121518   2.413   2.480  13.955  1.2756  0.6696  1.9987
 3352SOL    HW221519   2.490   2.388  14.045  0.7288 -2.1676 -1.1747
 3353SOL     OW21520   2.765   3.937  15.560 -0.4991  0.2433  0.4391
 3353SOL    HW121521   2.696   3.930  15.626 -3.2893  3.1993 -2.1427
 3353SOL    HW221522   2.708   3.940  15.483  0.9446  1.2238 -0.5888
 3354SOL     OW21523   2.609   3.612   3.714 -0.3275  0.0536 -0.0793
 3354SOL    HW121524   2.584   3.685   3.656  1.3882  1.0700  0.4451
 3354SOL    HW221525   2.679   3.647   3.768  2.4196 -0.2652 -3.4157
 3355SOL     OW21526   3.427   0.017   8.907  0.1223  0.0482 -0.7440
 3355SOL    HW121527   3.338   0.042   8.883 -0.9197  0.7293  3.8681
 3355SOL    HW221528   3.424   4.648   8.899 -1.5035  0.0519 -0.1816
 3356SOL     OW21529   0.440   0.826   4.489  0.1191 -0.1145  0.2448
 3356SOL    HW121530   0.419   0.738   4.458  0.4290  1.0879 -3.3183
 3356SOL    HW221531   0.374   0.844   4.555  2.5712  0.9077  2.4339
 3357SOL     OW21532   4.342   0.825   3.256  0.2173 -0.2895 -0.0693
 3357SOL    HW121533   4.364   0.838   3.348 -0.7567  3.1363 -0.3012
 3357SOL    HW221534   4.257   0.782   3.268 -0.6404  1.3748 -0.1022
 3358SOL     OW21535   0.779   1.707   7.980 -0.4055 -0.1042  0.3327
 3358SOL    HW121536   0.825   1.783   8.019  0.1631 -0.0761 -0.3966
 3358SOL    HW221537   0.782   1.725   7.886  2.2900  0.4401  0.5032
 3359SOL     OW21538   2.464   2.987   1.709  0.3941 -0.4344  0.3760
 3359SOL    HW121539   2.400   2.984   1.781  0.4934  1.7552  0.5590
 3359SOL    HW221540   2.403   2.980   1.636 -0.3058 -1.4909  1.0566
 3360SOL     OW21541   0.537   3.549   6.256 -0.1512  0.4160  0.0527
 3360SOL    HW121542   0.616   3.601   6.241  0.9342 -1.0185  0.7694
 3360SOL    HW221543   0.486   3.559   6.175  1.4263 -0.0669 -1.0066
 3361SOL     OW21544   4.174   0.368  10.371 -0.1395  0.6141 -0.2351
 3361SOL    HW121545   4.126   0.288  10.389 -1.4599  1.3191 -0.6169
 3361SOL    HW221546   4.104   0.433  10.361  0.0615  0.7289 -0.8950
 3362SOL     OW21547   3.884   4.162  14.510  0.1849  0.0900 -0.2839
 3362SOL    HW121548   3.954   4.159  14.444  1.0183  1.7463  0.5425
 3362SOL    HW221549   3.834   4.085  14.483  1.4507 -0.9503  0.3354
 3363SOL     OW21550   2.097   1.285   6.842 -0.3307 -0.0647  0.5013
 3363SOL    HW121551   2.035   1.218   6.812 -0.6640  0.7366 -0.5983
 3363SOL    HW221552   2.156   1.233   6.897  0.1107  0.6039  0.6522
 3364SOL     OW21553   0.959   0.236   8.055 -0.3974  0.3060 -0.0109
 3364SOL    HW121554   0.883   0.177   8.052  1.2316 -1.6011 -3.1853
 3364SOL    HW221555   1.001   0.208   8.136  0.7943  0.1107 -0.6991
 3365SOL     OW21556   2.443   2.774   9.467 -0.6222 -0.3777 -0.5402
 3365SOL    HW121557   2.371   2.823   9.507 -1.5134  1.3527 -4.2755
 3365SOL    HW221558   2.413   2.683   9.465 -0.1445 -0.4701 -2.9916
 3366SOL     OW21559   3.491   2.355   5.492  0.4364 -0.9851  0.0379
 3366SOL    HW121560   3.458   2.327   5.577  0.6222 -0.1274  0.3935
 3366SOL    HW221561   3.511   2.274   5.443 -0.8314 -1.7102  0.7300
 3367SOL     OW21562   2.159   3.591   0.815 -0.9546  0.1101  0.4221
 3367SOL    HW121563   2.207   3.588   0.897  0.1621  3.7611 -0.1383
 3367SOL    HW221564   2.111   3.673   0.823  0.0281  0.5565  1.6341
 3368SOL     OW21565   3.412   1.645   7.463  0.2848  0.1951 -0.1463
 3368SOL    HW121566   3.495   1.675   7.501  0.2699 -2.0931  1.7267
 3368SOL    HW221567   3.374   1.600   7.539  1.1198 -2.8808 -1.5396
 3369SOL     OW21568   3.140   4.663  12.526 -0.1419 -0.0271  0.5394
 3369SOL    HW121569   3.090   4.662  12.444  0.3229  0.6150  0.2501
 3369SOL    HW221570   3.137   0.032  12.543 -1.6710  0.3170 -1.6330
 3370SOL     OW21571   1.561   1.184   6.470 -0.7373  0.6570  0.1179
 3370SOL    HW121572   1.466   1.191   6.461 -0.8115  0.5725  0.8289
 3370SOL    HW221573   1.569   1.166   6.564  4.1691  1.5253 -0.1018
 3371SOL     OW21574   2.704   3.518   4.190  0.3224  0.1292  0.6037
 3371SOL    HW121575   2.734   3.428   4.197  2.0379  0.6111 -0.7412
 3371SOL    HW221576   2.779   3.562   4.150 -0.2393  1.2796  0.8170
 3372SOL     OW21577   0.405   4.624   9.972  0.0781 -0.2965 -0.5951
 3372SOL    HW121578   0.446   4.556  10.025  2.8793  1.3009 -0.7345
 3372SOL    HW221579   0.472   4.682   9.936 -0.4245 -0.5493 -1.9342
 3373SOL     OW21580   3.125   0.935   9.502 -0.4393 -0.9291 -0.1191
 3373SOL    HW121581   3.115   1.001   9.433  1.6390 -1.8427 -1.3052
 3373SOL    HW221582   3.080   0.969   9.580  0.1035  2.2985 -1.2066
 3374SOL     OW21583   4.701   1.651   5.338 -0.3139  0.3022 -0.5183
 3374SOL    HW121584   4.697   1.556   5.342 -1.9538  0.3163 -1.7088
 3374SOL    HW221585   0.040   1.673   5.272  0.5298  0.7096  0.4535
 3375SOL     OW21586   0.149   4.447   7.994 -0.2639  0.0916 -0.1883
 3375SOL    HW121587   0.107   4.370   7.957  2.5916 -1.6828  0.2341
 3375SOL    HW221588   0.152   4.417   8.085  2.3146 -0.4786 -0.4460
 3376SOL     OW21589   3.099   1.103   6.778 -0.4107 -0.0982  0.3236
 3376SOL    HW121590   3.104   1.055   6.696  1.8632 -1.1162  1.0609
 3376SOL    HW221591   3.119   1.193   6.752  0.9841 -0.2444  0.8831
 3377SOL     OW21592   4.505   1.177  17.584 -0.0491  0.0141 -0.3855
 3377SOL    HW121593   4.468   1.227  17.656 -0.7249 -0.7824 -0.1904
 3377SOL    HW221594   4.455   1.214  17.511 -0.6851 -3.0268 -1.4887
 3378SOL     OW21595   0.755   0.988   3.067 -0.1419  0.6117  0.3965
 3378SOL    HW121596   0.670   1.033   3.059 -0.5897 -0.5987 -1.6360
 3378SOL    HW221597   0.727   0.897   3.066 -1.8600  1.1262  0.6725
 3379SOL     OW21598   0.555   0.502   7.648 -0.0591  0.1701  0.2272
 3379SOL    HW121599   0.595   0.464   7.570 -0.4076 -1.0740  0.6640
 3379SOL    HW221600   0.621   0.462   7.703  1.2501 -0.6176 -1.9109
 3380SOL     OW21601   1.100   3.889   2.892 -0.3920 -0.1415  0.3640
 3380SOL    HW121602   1.092   3.831   2.817  2.2295  2.0699 -1.6368
 3380SOL    HW221603   1.059   3.840   2.963  0.1219 -1.6271 -0.3605
 3381SOL     OW21604   0.315   3.038   5.001  0.3317 -0.4752 -0.5678
 3381SOL    HW121605   0.383   2.975   5.024 -0.3112 -0.6284  0.9341
 3381SOL    HW221606   0.319   3.061   4.909  1.7157  1.1068 -0.1078
 3382SOL     OW21607   0.180   0.726   4.745 -0.9332  0.8897 -0.2275
 3382SOL    HW121608   0.109   0.669   4.716 -0.5470 -0.4561  1.5323
 3382SOL    HW221609   0.232   0.665   4.796 -0.4351  1.2766 -0.2716
 3383SOL     OW21610   1.029   4.550   6.192 -0.7065 -0.1562  0.2177
 3383SOL    HW121611   1.117   4.521   6.166 -1.0425 -1.3116  0.3683
 3383SOL    HW221612   1.062   4.620   6.249  0.8705  0.6152 -1.6255
 3384SOL     OW21613   3.248   0.790   9.183  0.1789 -0.8248  0.2000
 3384SOL    HW121614   3.277   0.881   9.173  0.2678 -0.8598  0.1402
 3384SOL    HW221615   3.300   0.751   9.253 -0.0622 -0.2427  0.7081
 3385SOL     OW21616   0.136   0.317   0.628 -0.9224  0.2170 -0.1953
 3385SOL    HW121617   0.042   0.315   0.608 -1.0148  1.3368  0.1320
 3385SOL    HW221618   0.160   0.397   0.581  2.7078  0.3985  2.0006
 3386SOL     OW21619   2.384   4.056   1.064 -0.1264  0.0952 -0.5724
 3386SOL    HW121620   2.440   4.134   1.069  1.4233 -1.1290  1.1468
 3386SOL    HW221621   2.376   4.038   1.158  0.2306 -1.5704 -0.8581
 3387SOL     OW21622   3.792   2.309   8.169  0.0844  0.2223  0.5834
 3387SOL    HW121623   3.856   2.291   8.238 -0.6998  0.0216  1.2553
 3387SOL    HW221624   3.822   2.387   8.123 -0.7981  0.8031  0.9839
 3388SOL     OW21625   4.595   2.809  17.368  0.1998  0.1602  0.1522
 3388SOL    HW121626   4.518   2.851  17.406 -0.1907 -1.3429  1.0459
 3388SOL    HW221627   4.645   2.802  17.450  0.8423  0.7295 -0.1898
 3389SOL     OW21628   4.465   3.922   7.750  0.4984  0.1143  0.5979
 3389SOL    HW121629   4.463   3.860   7.823  0.6605 -0.5915  0.0012
 3389SOL    HW221630   4.480   3.873   7.669 -2.2128  1.2300 -0.5834
 3390SOL     OW21631   1.267   4.404   1.169  0.0023  0.1038  0.2361
 3390SOL    HW121632   1.285   4.490   1.133  0.6589 -0.1652 -0.0830
 3390SOL    HW221633   1.342   4.393   1.228 -0.0484 -2.2366 -0.1230
 3391SOL     OW21634   3.798   1.434   2.933 -0.4186  0.4706  0.1200
 3391SOL    HW121635   3.747   1.370   2.982  0.8134  1.4367  2.6186
 3391SOL    HW221636   3.733   1.491   2.892  1.8228  1.7481 -1.6838
 3392SOL     OW21637   0.260   1.777  10.932  0.0316  0.0662 -0.2262
 3392SOL    HW121638   0.277   1.871  10.924  1.5217 -0.3049 -1.5893
 3392SOL    HW221639   0.198   1.753  10.862 -2.5888  2.2212  1.3599
 3393SOL     OW21640   4.138   3.605   5.123 -0.1612 -0.1156 -0.5083
 3393SOL    HW121641   4.128   3.699   5.140 -0.1357  0.0513 -1.4007
 3393SOL    HW221642   4.211   3.601   5.062 -0.9612 -1.3823 -1.3763
 3394SOL     OW21643   0.057   1.598   3.689  0.1873  0.3524 -1.0452
 3394SOL    HW121644   0.087   1.652   3.763 -1.2961 -0.3063  0.0311
 3394SOL    HW221645   0.053   1.514   3.735 -2.3580  1.5108  0.8722
 3395SOL     OW21646   1.791   1.426   3.775 -0.6071 -0.1861  0.8335
 3395SOL    HW121647   1.828   1.509   3.805  2.0362 -0.7788 -0.8001
 3395SOL    HW221648   1.814   1.436   3.683  0.3465  1.2046  1.2115
 3396SOL     OW21649   0.042   1.368   5.334 -0.0592  0.1423  0.2702
 3396SOL    HW121650   0.044   1.289   5.280 -0.0557  0.2200  0.1580
 3396SOL    HW221651   0.129   1.396   5.308 -0.4955 -1.1467 -2.5979
 3397SOL     OW21652   1.676   2.724   3.575  0.1313 -0.0579  0.5130
 3397SOL    HW121653   1.744   2.657   3.583 -0.0868 -0.3792 -0.3365
 3397SOL    HW221654   1.715   2.805   3.607 -0.6778  1.3624 -2.1858
 3398SOL     OW21655   0.891   3.383   7.568 -0.4277 -0.1135  0.0385
 3398SOL    HW121656   0.879   3.323   7.641  1.2840 -0.0221  0.3975
 3398SOL    HW221657   0.958   3.333   7.522 -1.0649 -0.4605 -0.5030
 3399SOL     OW21658   3.583   3.221   5.408  0.0794  0.5570  0.0412
 3399SOL    HW121659   3.663   3.271   5.395 -0.2532  1.2481  0.6636
 3399SOL    HW221660   3.526   3.288   5.446 -1.0593 -0.2042 -0.3299
 3400SOL     OW21661   1.594   4.226  10.969 -1.0898 -0.3822  0.6794
 3400SOL    HW121662   1.515   4.188  11.007 -2.0023 -0.7739 -1.6445
 3400SOL    HW221663   1.624   4.146  10.926 -1.8602 -0.1421 -0.2949
 3401SOL     OW21664   3.175   2.128   4.876 -0.1784  0.2258 -0.9053
 3401SOL    HW121665   3.095   2.131   4.824 -0.5769  0.5993 -0.2721
 3401SOL    HW221666   3.237   2.118   4.804  0.5029  0.1383 -0.3179
 3402SOL     OW21667   3.258   0.227   5.698  0.4897 -0.0340  0.1807
 3402SOL    HW121668   3.270   0.309   5.650 -0.5740  1.7179  2.9280
 3402SOL    HW221669   3.330   0.174   5.662  1.8635  0.9928  1.3944
 3403SOL     OW21670   3.111   0.017   5.576 -0.3570 -0.3242  0.1711
 3403SOL    HW121671   3.046   4.713   5.640  1.6872 -1.4514  1.7144
 3403SOL    HW221672   3.140   0.100   5.615  2.6604 -1.4039  0.2077
 3404SOL     OW21673   0.202   2.899   2.422  0.1480  0.2831 -0.0389
 3404SOL    HW121674   0.183   2.919   2.513 -0.3970 -3.0765  0.5802
 3404SOL    HW221675   0.115   2.926   2.392  0.6518  1.5638 -0.3615
 3405SOL     OW21676   1.747   2.417   0.517 -0.4967  0.2141  0.6477
 3405SOL    HW121677   1.724   2.453   0.432  0.6320 -1.3138 -0.3164
 3405SOL    HW221678   1.666   2.427   0.567  0.0191  1.3367  1.2497
 3406SOL     OW21679   3.242   1.315   3.454  0.2177  0.9901 -0.4972
 3406SOL    HW121680   3.283   1.242   3.407 -0.5744  0.7774 -0.8493
 3406SOL    HW221681   3.148   1.307   3.438  0.2113 -1.3738  0.7032
 3407SOL     OW21682   3.909   1.377   5.627  0.2698  0.5112 -0.5417
 3407SOL    HW121683   3.979   1.403   5.567  1.1554  0.0608  0.2942
 3407SOL    HW221684   3.878   1.292   5.595 -1.3129  1.0205 -0.3740
 3408SOL     OW21685   1.390   4.133   8.428  0.2402  0.2930  0.7021
 3408SOL    HW121686   1.426   4.074   8.361  1.4224  1.3059  0.4535
 3408SOL    HW221687   1.376   4.070   8.499 -1.0637  1.8491  1.8197
 3409SOL     OW21688   2.187   2.544   6.896  0.1411 -1.1414  0.1112
 3409SOL    HW121689   2.155   2.463   6.856  1.8927 -0.5566 -2.4524
 3409SOL    HW221690   2.168   2.525   6.988 -1.5844 -0.2061 -0.0495
 3410SOL     OW21691   3.390   3.173   4.480 -0.2788  0.8110 -0.4972
 3410SOL    HW121692   3.382   3.110   4.551  2.3976  0.8115 -0.1806
 3410SOL    HW221693   3.308   3.222   4.482 -0.5955  0.3247 -1.2011
 3411SOL     OW21694   2.880   3.494  11.894 -0.4894  0.2310  0.1571
 3411SOL    HW121695   2.900   3.586  11.878 -1.0980 -0.0201 -2.0662
 3411SOL    HW221696   2.848   3.497  11.984  2.5601  0.0718  1.2339
 3412SOL     OW21697   4.353   1.301  15.194 -0.2352 -0.0504  0.0667
 3412SOL    HW121698   4.271   1.348  15.204 -0.3635 -0.0975 -0.7447
 3412SOL    HW221699   4.335   1.215  15.155 -0.8177  0.0567  0.1090
 3413SOL     OW21700   1.887   1.035  13.506  0.4455 -0.4203  0.0022
 3413SOL    HW121701   1.821   1.065  13.569 -1.1226  0.4673 -2.0488
 3413SOL    HW221702   1.952   1.105  13.508  1.8372 -1.6841 -1.0116
 3414SOL     OW21703   4.322   2.355   5.368 -0.2206 -0.1277 -0.2629
 3414SOL    HW121704   4.263   2.363   5.293  0.8515 -0.5501 -1.1596
 3414SOL    HW221705   4.361   2.271   5.342 -0.7801 -0.5184  0.1624
 3415SOL     OW21706   0.698   0.586   5.185  0.0244 -0.4903 -0.4992
 3415SOL    HW121707   0.734   0.593   5.273 -0.2892  2.3579 -0.6149
 3415SOL    HW221708   0.729   0.672   5.157 -1.1427  0.7762  2.1210
 3416SOL     OW21709   1.260   1.564   5.221  0.4294  0.1882 -0.2142
 3416SOL    HW121710   1.231   1.655   5.229  2.4637  0.8674 -0.5025
 3416SOL    HW221711   1.180   1.527   5.185 -0.2573  2.0637 -0.6198
 3417SOL     OW21712   4.609   1.749   7.886  0.4739 -0.2132  0.4507
 3417SOL    HW121713   4.684   1.801   7.856 -1.0211  1.9433  0.4464
 3417SOL    HW221714   4.652   1.664   7.891 -0.3997 -0.6911 -0.1994
 3418SOL     OW21715   4.257   1.782  17.605 -0.2683 -0.0204  0.2654
 3418SOL    HW121716   4.251   1.824  17.519  0.3262  1.7826  1.0952
 3418SOL    HW221717   4.311   1.843  17.656 -2.3047  0.9639  1.2503
 3419SOL     OW21718   3.183   0.014   7.548  0.4817 -0.1675 -0.1949
 3419SOL    HW121719   3.126   4.699   7.612  2.7243 -2.2749  0.4350
 3419SOL    HW221720   3.204   0.091   7.601  1.0435  0.8594 -1.8886
 3420SOL     OW21721   3.253   2.215   3.640 -0.2883 -0.0366  0.4230
 3420SOL    HW121722   3.162   2.193   3.620 -0.2493 -0.5698  0.8191
 3420SOL    HW221723   3.294   2.205   3.554  0.5992  1.5341  0.6686
 3421SOL     OW21724   4.300   3.001   2.658  0.4613  1.3114  0.1820
 3421SOL    HW121725   4.359   3.029   2.588  0.5679 -0.2772 -0.3566
 3421SOL    HW221726   4.349   2.937   2.709 -1.3105 -1.0135 -1.0510
 3422SOL     OW21727   0.761   4.136  14.177 -0.2711  0.6619 -0.0040
 3422SOL    HW121728   0.720   4.222  14.189 -0.7982  0.3380  0.5810
 3422SOL    HW221729   0.790   4.115  14.266  0.2323 -0.3797 -0.4124
 3423SOL     OW21730   0.677   2.465  11.052 -0.1953 -0.4892 -0.0639
 3423SOL    HW121731   0.628   2.529  11.001 -1.8720 -0.4224  1.6334
 3423SOL    HW221732   0.748   2.438  10.993  0.3177  0.7453 -0.0149
 3424SOL     OW21733   3.666   2.650  13.936 -0.0731 -0.5484  0.2079
 3424SOL    HW121734   3.738   2.654  14.000 -0.4723 -0.7748  0.6752
 3424SOL    HW221735   3.626   2.567  13.962 -1.8828  0.0728 -0.6281
 3425SOL     OW21736   3.770   3.369  10.282 -0.5656 -0.4189 -0.5147
 3425SOL    HW121737   3.785   3.278  10.308  3.1687 -0.7297 -3.8529
 3425SOL    HW221738   3.852   3.415  10.299 -0.4998 -0.7640  0.0842
 3426SOL     OW21739   1.429   2.571   2.271 -0.0788  0.2989 -0.0524
 3426SOL    HW121740   1.461   2.599   2.185 -1.9923  1.8896 -0.2466
 3426SOL    HW221741   1.484   2.631   2.322  1.0773 -0.9716  0.2052
 3427SOL     OW21742   4.491   1.054   9.146  0.2571  0.1797  0.0514
 3427SOL    HW121743   4.512   1.132   9.094  0.3741 -0.1255 -0.3601
 3427SOL    HW221744   4.428   1.086   9.211 -0.6403 -0.1178 -0.6648
 3428SOL     OW21745   1.957   4.044   2.442 -0.3866 -0.0525  0.2712
 3428SOL    HW121746   2.024   4.099   2.400 -0.4671 -1.0612 -1.1860
 3428SOL    HW221747   1.907   4.014   2.366 -0.5542  0.1983  0.2809
 3429SOL     OW21748   1.173   1.333   7.277  0.3458 -0.2053 -0.0248
 3429SOL    HW121749   1.180   1.275   7.201 -0.3415  0.7778 -0.8524
 3429SOL    HW221750   1.263   1.359   7.298  0.3210  0.5003 -0.7477
 3430SOL     OW21751   4.095   4.510   1.173  0.1958 -0.1491 -0.2617
 3430SOL    HW121752   4.127   4.549   1.092 -1.1660  0.4117 -0.5299
 3430SOL    HW221753   4.171   4.455   1.190  0.5328 -0.7562 -3.6782
 3431SOL     OW21754   1.137   3.763   2.642 -0.2226 -0.2757 -0.3711
 3431SOL    HW121755   1.147   3.691   2.580 -0.6339  0.2496 -1.0424
 3431SOL    HW221756   1.176   3.833   2.591 -0.2256 -0.0698 -0.0887
 3432SOL     OW21757   1.514   3.666   4.809 -0.2928 -0.4269 -0.9234
 3432SOL    HW121758   1.593   3.718   4.822 -0.2717 -0.7696  0.2541
 3432SOL    HW221759   1.543   3.579   4.835 -0.5348 -0.7652 -1.7621
 3433SOL     OW21760   4.277   2.777  12.262  0.2314  0.3210 -0.0888
 3433SOL    HW121761   4.313   2.721  12.194  0.7513 -1.1822  1.4169
 3433SOL    HW221762   4.337   2.764  12.336 -2.0910  0.6440  1.8517
 3434SOL     OW21763   1.622   1.179   7.383 -0.1688 -0.2673  0.0089
 3434SOL    HW121764   1.640   1.196   7.475 -3.1234 -1.4781  0.8112
 3434SOL    HW221765   1.703   1.213   7.344 -0.7069  0.8496 -0.1265
 3435SOL     OW21766   1.180   1.309  12.159  0.6590 -0.1353  0.1359
 3435SOL    HW121767   1.155   1.233  12.106  0.9532  0.7798 -1.3339
 3435SOL    HW221768   1.102   1.363  12.149 -0.5936 -1.9762 -0.0358
 3436SOL     OW21769   1.681   3.142   7.521  0.1922 -0.0421  0.0024
 3436SOL    HW121770   1.604   3.168   7.470 -0.8305  0.3917  1.7511
 3436SOL    HW221771   1.659   3.051   7.543  0.5848 -0.8144 -2.8499
 3437SOL     OW21772   0.335   3.032   4.724  0.0776  0.0367  0.4799
 3437SOL    HW121773   0.275   2.990   4.662  0.1643  0.7932 -0.1179
 3437SOL    HW221774   0.410   3.071   4.678 -0.5296  0.3945 -0.2053
 3438SOL     OW21775   4.274   4.066  13.415  0.0859 -0.1789  0.2241
 3438SOL    HW121776   4.199   4.073  13.355 -0.8265  1.5191  1.5620
 3438SOL    HW221777   4.261   3.980  13.456  0.9759 -0.8717 -0.9468
 3439SOL     OW21778   3.702   2.795   7.163 -0.2612  0.0283 -0.1514
 3439SOL    HW121779   3.723   2.713   7.117  1.2053 -0.0269  0.6227
 3439SOL    HW221780   3.638   2.765   7.227  0.3942 -1.8405 -0.3662
 3440SOL     OW21781   0.109   3.676   8.874  1.0049  0.7517 -1.1475
 3440SOL    HW121782   0.082   3.768   8.872 -0.0123  0.4194 -2.6631
 3440SOL    HW221783   0.152   3.679   8.788  1.5641 -0.8095 -0.9312
 3441SOL     OW21784   0.753   2.525   6.973 -0.2877 -0.1578 -0.6374
 3441SOL    HW121785   0.683   2.539   6.910 -0.8443 -1.6044 -0.3546
 3441SOL    HW221786   0.769   2.432   6.955  1.1105 -0.7391  3.5808
 3442SOL     OW21787   0.438   3.261   3.548  0.0762  0.0338  0.3672
 3442SOL    HW121788   0.440   3.166   3.561  3.1598  0.2393  1.3388
 3442SOL    HW221789   0.497   3.268   3.474  0.4220 -0.4926  0.5937
 3443SOL     OW21790   3.537   3.466   7.314  0.7259  0.0704 -0.5457
 3443SOL    HW121791   3.523   3.372   7.326  0.1749  0.1336 -0.6937
 3443SOL    HW221792   3.445   3.491   7.310  0.7563  0.3689  0.6634
 3444SOL     OW21793   2.192   0.510   6.765  0.0084 -0.1182  0.1464
 3444SOL    HW121794   2.102   0.481   6.752  0.4063 -0.8142 -1.0970
 3444SOL    HW221795   2.188   0.603   6.743 -1.0353 -0.0010  0.8494
 3445SOL     OW21796   3.833   0.008   7.355 -0.2518  0.3720  0.5081
 3445SOL    HW121797   3.818   4.654   7.305 -0.5916 -0.5903  2.1332
 3445SOL    HW221798   3.917   4.705   7.392 -0.9749 -0.3915  1.5747
 3446SOL     OW21799   1.614   3.882   5.965 -0.2821 -0.1225  0.4743
 3446SOL    HW121800   1.623   3.887   6.060  1.1604  2.1335  0.2129
 3446SOL    HW221801   1.577   3.968   5.944 -0.7886 -0.7768 -1.3384
 3447SOL     OW21802   2.799   1.900   3.918 -0.2225 -0.0658 -0.1924
 3447SOL    HW121803   2.812   1.985   3.875 -0.7891 -0.0935 -0.4150
 3447SOL    HW221804   2.879   1.856   3.887  1.1500 -0.4423  3.9721
 3448SOL     OW21805   1.214   3.648  17.028 -0.4116 -0.7801 -0.1065
 3448SOL    HW121806   1.187   3.694  17.108  0.4935  1.3899 -1.0484
 3448SOL    HW221807   1.309   3.664  17.027 -0.4060 -0.7312  1.7978
 3449SOL     OW21808   0.504   4.452   7.909  0.0309  0.3503  0.3326
 3449SOL    HW121809   0.450   4.528   7.888  1.7851  1.8832  1.3342
 3449SOL    HW221810   0.456   4.388   7.856  2.0065  1.4607 -2.8613
 3450SOL     OW21811   4.166   3.294   3.484  0.0446  0.4838 -0.0152
 3450SOL    HW121812   4.258   3.285   3.507 -0.4662  2.2791  2.8089
 3450SOL    HW221813   4.152   3.212   3.437  0.5515  0.3143  0.1261
 3451SOL     OW21814   2.380   3.306   7.631 -0.1908  0.0317  0.2089
 3451SOL    HW121815   2.430   3.308   7.549 -2.5289  0.8515 -1.2112
 3451SOL    HW221816   2.445   3.351   7.685 -1.6815  0.6836  1.4535
 3452SOL     OW21817   0.846   1.117   6.047  0.4266 -0.2888 -0.3474
 3452SOL    HW121818   0.834   1.179   6.119 -1.7625 -0.7565 -0.3232
 3452SOL    HW221819   0.801   1.166   5.978  1.0911  0.6592 -0.1075
 3453SOL     OW21820   0.951   1.959   3.634  0.4298 -0.0721 -0.3034
 3453SOL    HW121821   0.880   1.993   3.578 -0.2256  0.0428  0.6007
 3453SOL    HW221822   0.983   1.880   3.589 -0.1587 -0.7451  0.4437
 3454SOL     OW21823   2.300   3.930   0.843 -0.1611  0.2893  0.2074
 3454SOL    HW121824   2.223   3.889   0.882 -0.6354  1.9875  1.0665
 3454SOL    HW221825   2.319   3.984   0.920  1.6996  0.0439 -0.0921
 3455SOL     OW21826   1.146   1.811   5.227 -0.3146  0.2901 -0.1520
 3455SOL    HW121827   1.092   1.830   5.150 -1.1731 -0.2210  0.3223
 3455SOL    HW221828   1.152   1.898   5.268 -2.1092  0.7238 -0.7961
 3456SOL     OW21829   0.656   2.542  13.821 -0.0831 -0.2778  0.1834
 3456SOL    HW121830   0.652   2.635  13.845 -4.5139 -0.5965  0.7630
 3456SOL    HW221831   0.704   2.497  13.890 -0.3504 -1.2238 -0.2506
 3457SOL     OW21832   1.246   3.938  14.833  0.0906 -0.3158 -0.0839
 3457SOL    HW121833   1.153   3.928  14.816 -0.1455  1.5750  0.0543
 3457SOL    HW221834   1.237   3.971  14.923 -0.3722  2.4295 -1.1467
 3458SOL     OW21835   3.039   2.222   5.907  0.1867 -0.2061  0.0963
 3458SOL    HW121836   2.954   2.227   5.951  0.3157  2.9538 -0.0226
 3458SOL    HW221837   3.028   2.274   5.827 -2.6064 -0.8656  0.0492
 3459SOL     OW21838   2.371   1.632   6.494  0.1171  0.2991  0.0422
 3459SOL    HW121839   2.332   1.587   6.569 -1.6224 -2.0849 -2.2862
 3459SOL    HW221840   2.292   1.681   6.467 -0.1867  0.0195  0.4186
 3460SOL     OW21841   2.444   2.635  17.563  0.5855  0.2202 -0.1537
 3460SOL    HW121842   2.421   2.561  17.619 -0.2442  0.2106 -0.5064
 3460SOL    HW221843   2.354   2.660  17.545 -0.1468 -1.7908  0.6933
 3461SOL     OW21844   4.238   3.584   2.515  0.4698  0.0567  0.0220
 3461SOL    HW121845   4.166   3.642   2.493 -0.1466 -1.0558 -0.9268
 3461SOL    HW221846   4.223   3.566   2.607  0.3536 -2.7106 -0.5158
 3462SOL     OW21847   0.273   2.753   7.605  0.0086 -0.0484  0.0739
 3462SOL    HW121848   0.266   2.718   7.693 -2.5561  1.2893  0.4046
 3462SOL    HW221849   0.343   2.698   7.568  1.2066  2.1600 -0.9752
 3463SOL     OW21850   3.024   1.209   5.213 -0.0521  0.7022  0.3101
 3463SOL    HW121851   2.979   1.141   5.264  0.6188 -1.2273 -1.6306
 3463SOL    HW221852   3.111   1.174   5.196 -0.8105 -0.4880 -1.2134
 3464SOL     OW21853   3.608   3.353   9.230 -0.2996  0.4423 -0.9787
 3464SOL    HW121854   3.645   3.306   9.305  0.0548 -0.0222 -1.4395
 3464SOL    HW221855   3.572   3.431   9.272 -2.5201  0.2565 -2.5192
 3465SOL     OW21856   3.659   3.894   3.188 -0.5041  0.6740  0.7170
 3465SOL    HW121857   3.643   3.932   3.101  1.2166 -0.2203  0.0005
 3465SOL    HW221858   3.748   3.928   3.199  0.5676 -2.3866  1.6700
 3466SOL     OW21859   0.146   4.320   2.070  0.1587  0.7032 -0.0434
 3466SOL    HW121860   0.101   4.236   2.060  0.6225  0.4552 -0.0448
 3466SOL    HW221861   0.221   4.319   2.011  1.2388  3.8925  1.2902
 3467SOL     OW21862   0.617   2.994  14.820  0.3123 -0.3103 -0.5822
 3467SOL    HW121863   0.564   2.919  14.793 -2.0657  0.8313  0.8903
 3467SOL    HW221864   0.595   3.059  14.753 -0.4186  1.0246  0.9465
 3468SOL     OW21865   4.283   4.669   4.870  0.0215 -0.1889  0.0760
 3468SOL    HW121866   4.288   0.039   4.879  0.8216 -0.2941  0.7253
 3468SOL    HW221867   4.230   4.657   4.791  0.9695  0.3993 -0.6568
 3469SOL     OW21868   0.027   2.207   5.463  0.0138  0.1403 -0.3655
 3469SOL    HW121869   0.117   2.184   5.487 -0.4571 -0.0696  1.2312
 3469SOL    HW221870   0.047   2.213   5.370  4.0191 -1.1048  0.3957
 3470SOL     OW21871   1.776   4.606   6.211 -0.2278 -0.4674 -0.7509
 3470SOL    HW121872   1.833   4.530   6.225 -0.2949 -0.7812 -2.1932
 3470SOL    HW221873   1.817   4.643   6.133  0.3734 -0.7476 -0.5702
 3471SOL     OW21874   4.010   1.960   6.946  0.3347 -0.2915 -0.4151
 3471SOL    HW121875   3.948   1.908   6.894  0.5322 -1.6572  0.7057
 3471SOL    HW221876   3.970   2.047   6.947 -0.5245 -0.6984  0.6056
 3472SOL     OW21877   4.725   2.912   7.578 -0.3228  0.8604 -0.1023
 3472SOL    HW121878   0.069   2.849   7.596 -0.3577  1.0557  0.6930
 3472SOL    HW221879   4.652   2.877   7.629  1.7494 -2.5967  0.4866
 3473SOL     OW21880   1.874   2.502   2.329 -0.1943  0.1511  0.4251
 3473SOL    HW121881   1.919   2.504   2.413  1.9857 -0.0191 -0.7311
 3473SOL    HW221882   1.952   2.521   2.276 -1.2297 -0.3846 -1.3015
 3474SOL     OW21883   0.705   1.187  12.977 -0.0807 -0.5245  0.3206
 3474SOL    HW121884   0.783   1.132  12.985 -1.3448 -2.1053  1.7162
 3474SOL    HW221885   0.732   1.253  12.914 -2.1658 -2.1760 -2.2802
 3475SOL     OW21886   0.506   4.695   0.427 -0.4501  0.2200  0.2575
 3475SOL    HW121887   0.422   4.664   0.462  0.1771 -1.1465  0.5789
 3475SOL    HW221888   0.499   0.064   0.435  3.9290  0.4104  1.6060
 3476SOL     OW21889   2.330   3.896   0.535  0.8257 -0.2605  0.9869
 3476SOL    HW121890   2.242   3.895   0.497  0.6449  0.6711  1.3883
 3476SOL    HW221891   2.326   3.970   0.596  0.5039 -0.3337  1.0538
 3477SOL     OW21892   0.326   3.378  14.159  0.6421  0.0693  0.2246
 3477SOL    HW121893   0.236   3.396  14.188  0.4153  0.0168 -0.4470
 3477SOL    HW221894   0.377   3.397  14.238 -1.4252  2.1476  1.0780
 3478SOL     OW21895   1.342   1.264   8.051 -0.2740 -0.2691  0.3723
 3478SOL    HW121896   1.352   1.223   8.137 -1.0502  1.9843  1.5232
 3478SOL    HW221897   1.248   1.272   8.037 -0.2375 -0.1688  0.1757
 3479SOL     OW21898   0.383   0.629  16.287 -0.0950 -0.0193  0.3699
 3479SOL    HW121899   0.453   0.681  16.327 -0.7373  1.0866  0.0510
 3479SOL    HW221900   0.304   0.678  16.311  0.1945  1.3810 -1.5105
 3480SOL     OW21901   3.978   1.035   3.093 -0.0628  0.0164  0.6685
 3480SOL    HW121902   4.061   0.988   3.088 -0.5967 -0.6801 -1.5282
 3480SOL    HW221903   4.014   1.121   3.115  0.1517  0.5421 -1.7232
 3481SOL     OW21904   2.477   3.085   8.586  0.3392  0.1966  0.3374
 3481SOL    HW121905   2.468   3.088   8.681 -0.3121  0.5685  0.2586
 3481SOL    HW221906   2.479   3.178   8.563  0.1292  0.3029  0.7444
 3482SOL     OW21907   4.607   3.444   7.075  0.0248  0.1423  0.3599
 3482SOL    HW121908   4.645   3.357   7.059 -0.7233  0.0755 -1.0150
 3482SOL    HW221909   4.668   3.488   7.015  1.7157 -2.1236  0.4102
 3483SOL     OW21910   1.324   2.333   8.282 -0.0884 -0.1759 -0.7299
 3483SOL    HW121911   1.382   2.331   8.206 -0.5408 -0.3218 -1.0744
 3483SOL    HW221912   1.243   2.337   8.231 -1.9611 -1.6597  2.0920
 3484SOL     OW21913   1.022   4.036  10.634 -0.4010 -0.2428 -0.6249
 3484SOL    HW121914   1.022   4.018  10.728  0.7221 -0.8646 -0.7467
 3484SOL    HW221915   1.087   3.979  10.593 -1.3449 -1.5707 -0.2769
 3485SOL     OW21916   4.358   3.032   5.647 -0.7806  0.3376 -0.1667
 3485SOL    HW121917   4.433   2.998   5.599  1.3060 -0.0269  3.3651
 3485SOL    HW221918   4.330   2.951   5.691 -0.7222 -1.0822 -2.7720
 3486SOL     OW21919   0.109   2.449   4.511 -0.2399 -0.2436 -0.2351
 3486SOL    HW121920   0.014   2.442   4.525 -0.5302 -0.7441 -2.5289
 3486SOL    HW221921   0.148   2.461   4.598 -2.1843  0.1520  0.5847
 3487SOL     OW21922   3.164   2.078  14.085 -0.2133  0.1547 -0.1264
 3487SOL    HW121923   3.224   2.073  14.160  1.6415  0.1703 -1.6094
 3487SOL    HW221924   3.220   2.066  14.008  0.9737 -0.1330  0.7794
 3488SOL     OW21925   3.324   3.807   6.664 -0.2611  0.3531  0.0921
 3488SOL    HW121926   3.398   3.767   6.709 -0.3522 -3.5547 -3.2967
 3488SOL    HW221927   3.361   3.827   6.579 -0.6715  1.3181  0.1300
 3489SOL     OW21928   2.829   0.210   1.898 -0.4051 -0.7821 -0.2326
 3489SOL    HW121929   2.915   0.246   1.920  0.1321 -2.9233  1.2304
 3489SOL    HW221930   2.780   0.292   1.896  0.0301 -0.4764  1.2346
 3490SOL     OW21931   2.880   3.509   1.267  0.6589  0.0371  0.6668
 3490SOL    HW121932   2.835   3.592   1.286 -2.6644 -2.1332  2.2288
 3490SOL    HW221933   2.805   3.451   1.253  0.4781  0.5023 -0.2994
 3491SOL     OW21934   3.443   1.141   7.617 -0.7277  0.2779  0.0072
 3491SOL    HW121935   3.482   1.059   7.647  1.0663  1.7455  1.6389
 3491SOL    HW221936   3.444   1.141   7.521 -1.3561  0.4360 -0.0041
 3492SOL     OW21937   2.969   3.883   8.132 -0.0852  0.0341  0.3423
 3492SOL    HW121938   2.986   3.858   8.041  1.9158 -0.2150  0.7829
 3492SOL    HW221939   3.006   3.812   8.185  0.7946 -0.6597 -1.1973
 3493SOL     OW21940   4.013   2.649  10.369  0.0610  0.1443 -0.1509
 3493SOL    HW121941   3.958   2.594  10.425  1.5628 -1.6923 -0.4928
 3493SOL    HW221942   4.094   2.599  10.371 -0.9322 -1.4567 -0.4992
 3494SOL     OW21943   2.998   2.261   6.870 -0.6239  0.1199  0.0306
 3494SOL    HW121944   2.911   2.238   6.903 -0.9360  3.4262  1.5282
 3494SOL    HW221945   2.983   2.355   6.859  0.4027  0.2835 -0.0244
 3495SOL     OW21946   1.377   1.433   6.213 -0.2849 -0.0323  0.3507
 3495SOL    HW121947   1.381   1.339   6.197  1.8251 -0.4555  3.2969
 3495SOL    HW221948   1.307   1.457   6.153  0.3096  0.2817 -0.2111
 3496SOL     OW21949   4.608   1.353   7.893  0.2401  0.0822  0.0101
 3496SOL    HW121950   4.520   1.359   7.857  0.3489  0.7015 -0.1498
 3496SOL    HW221951   4.582   1.339   7.984  0.4636  1.2994  0.2689
 3497SOL     OW21952   3.382   0.170  10.994 -0.0401 -0.0369 -0.1375
 3497SOL    HW121953   3.374   0.201  11.084 -0.1326 -0.8851  0.1493
 3497SOL    HW221954   3.302   0.211  10.963 -0.5211  0.2468  1.4646
 3498SOL     OW21955   3.588   1.928   7.083  0.0373  0.3944 -0.6354
 3498SOL    HW121956   3.543   1.901   7.163 -1.4892 -0.2459 -1.7109
 3498SOL    HW221957   3.630   1.847   7.054 -1.4200  0.0257 -1.7314
 3499SOL     OW21958   2.558   3.370  14.172  0.2871  0.4658 -0.4295
 3499SOL    HW121959   2.604   3.300  14.125  1.0544 -0.2409  1.3747
 3499SOL    HW221960   2.511   3.396  14.093  1.2544 -0.7206 -1.4050
 3500SOL     OW21961   0.854   4.452  17.620  0.2601  0.1441  0.3562
 3500SOL    HW121962   0.873   4.421  17.531 -0.9797 -2.3278  0.9695
 3500SOL    HW221963   0.913   4.404  17.678  1.1158 -0.2648 -0.8513
 3501SOL     OW21964   0.883   1.529  12.083  0.0982 -0.4901  0.2894
 3501SOL    HW121965   0.870   1.531  11.988 -1.1667 -1.0807  0.4501
 3501SOL    HW221966   0.874   1.624  12.091  0.7927 -0.5207  1.4655
 3502SOL     OW21967   4.112   4.396   9.145  0.2860 -0.2272 -0.0758
 3502SOL    HW121968   4.151   4.386   9.058  1.0295 -0.2708  0.2635
 3502SOL    HW221969   4.142   4.325   9.202 -0.8265  0.2715  1.1343
 3503SOL     OW21970   1.749   0.614   9.650 -0.2857  0.7633  0.1561
 3503SOL    HW121971   1.817   0.668   9.610 -1.3438  3.7543  2.3714
 3503SOL    HW221972   1.679   0.622   9.586 -1.5930 -3.2107  1.0948
 3504SOL     OW21973   0.393   2.783   6.413  0.4079 -0.0119 -0.3550
 3504SOL    HW121974   0.302   2.807   6.395 -0.2091 -0.2087  2.6486
 3504SOL    HW221975   0.433   2.867   6.433 -4.6038  1.7846  2.0311
 3505SOL     OW21976   4.544   0.803   1.880 -0.1007 -0.1106  0.0703
 3505SOL    HW121977   4.522   0.849   1.799  0.0737  0.3311  0.2726
 3505SOL    HW221978   4.460   0.759   1.895 -0.4911  1.4309  2.3895
 3506SOL     OW21979   4.430   3.820   2.459 -0.1412  0.2674  0.1364
 3506SOL    HW121980   4.371   3.745   2.449  2.5913 -1.7860 -0.4176
 3506SOL    HW221981   4.381   3.901   2.444 -0.5910 -0.4261 -2.2085
 3507SOL     OW21982   2.198   2.563   9.199 -0.1944  0.5874 -1.0764
 3507SOL    HW121983   2.258   2.627   9.160  0.4647  1.0581  0.7216
 3507SOL    HW221984   2.245   2.543   9.280 -2.7905 -2.6934 -0.3683
 3508SOL     OW21985   4.243   0.684   3.488 -0.0209  0.0629 -0.0377
 3508SOL    HW121986   4.152   0.705   3.466 -0.5610  0.1713  2.3335
 3508SOL    HW221987   4.270   0.646   3.405  0.6762  1.3702 -0.4203
 3509SOL     OW21988   3.283   4.231   6.480 -0.8740 -0.4385 -0.0547
 3509SOL    HW121989   3.232   4.232   6.561  1.8514  0.7573  1.6596
 3509SOL    HW221990   3.305   4.324   6.486 -1.0966 -0.5268  2.1869
 3510SOL     OW21991   1.955   0.864   1.710  1.1046  0.7241 -0.3322
 3510SOL    HW121992   1.918   0.875   1.622  0.8156 -1.6222 -0.5229
 3510SOL    HW221993   2.048   0.876   1.691  0.7027  1.8344 -1.6288
 3511SOL     OW21994   2.278   2.943   8.989 -0.0294  0.0342  0.7521
 3511SOL    HW121995   2.208   2.905   8.937  0.5165  1.3710 -0.9575
 3511SOL    HW221996   2.314   3.008   8.929 -0.6260 -1.1775 -0.9085
 3512SOL     OW21997   1.798   3.886   4.293 -0.5318  0.3940  0.0436
 3512SOL    HW121998   1.780   3.813   4.353  0.0540 -0.3510 -0.6993
 3512SOL    HW221999   1.711   3.908   4.259 -1.1354  0.6110  1.6757
 3513SOL     OW22000   1.694   2.895   0.938  0.6702 -0.4109 -0.7428
 3513SOL    HW122001   1.626   2.928   0.997  0.1011  0.8425 -2.1166
 3513SOL    HW222002   1.682   2.952   0.862  1.1261  1.2490  0.4414
 3514SOL     OW22003   2.437   3.652   6.830 -0.1552 -0.0373  0.0845
 3514SOL    HW122004   2.459   3.738   6.865 -0.0557 -0.2265  0.4909
 3514SOL    HW222005   2.489   3.647   6.750  0.1169 -3.4765  0.4783
 3515SOL     OW22006   3.501   1.582   5.103  0.3522  0.3324  0.4393
 3515SOL    HW122007   3.433   1.625   5.051  0.0213  0.6087  1.0891
 3515SOL    HW222008   3.580   1.584   5.049 -1.1633  0.8695 -1.7728
 3516SOL     OW22009   3.685   2.401   5.907  0.6791  0.2641  0.0336
 3516SOL    HW122010   3.632   2.478   5.888  0.8387  0.0542 -1.2794
 3516SOL    HW222011   3.745   2.395   5.832  0.4144  1.9931 -0.3049
 3517SOL     OW22012   1.590   0.244   6.602 -0.4754  0.5540  0.3654
 3517SOL    HW122013   1.622   0.174   6.547 -3.1673 -0.7151  0.4287
 3517SOL    HW222014   1.666   0.276   6.651 -1.4684  1.6052  1.2347
 3518SOL     OW22015   2.151   3.582   2.043 -0.9356 -0.4752 -0.1446
 3518SOL    HW122016   2.211   3.518   2.083 -0.0942  0.8819  0.7655
 3518SOL    HW222017   2.090   3.616   2.108  0.4112  2.6694 -0.5456
 3519SOL     OW22018   1.352   0.974  11.730 -0.1497  0.0950 -0.0297
 3519SOL    HW122019   1.271   0.974  11.679  0.8269 -1.6074 -1.5918
 3519SOL    HW222020   1.379   0.893  11.687  1.0962  1.1598 -1.2415
 3520SOL     OW22021   1.560   0.271   1.750 -0.0388 -0.1233 -0.5629
 3520SOL    HW122022   1.466   0.255   1.753  0.1561 -1.1398  0.0586
 3520SOL    HW222023   1.586   0.324   1.826  2.9908  0.2353 -1.8684
 3521SOL     OW22024   1.349   3.660   8.905 -0.0670  0.1445  0.3260
 3521SOL    HW122025   1.358   3.570   8.877  1.0461  0.4744 -0.3473
 3521SOL    HW222026   1.434   3.676   8.944  1.4049 -2.4991 -1.8653
 3522SOL     OW22027   3.087   0.657   9.479 -0.5170  0.5347 -0.5331
 3522SOL    HW122028   3.131   0.742   9.470  1.3866 -0.2127  1.7440
 3522SOL    HW222029   3.159   0.610   9.521 -2.0848 -1.3119  0.0481
 3523SOL     OW22030   3.913   0.955  12.939 -0.0947  0.0984 -0.0375
 3523SOL    HW122031   3.915   0.931  13.031 -0.1897 -0.5547 -0.2034
 3523SOL    HW222032   3.963   1.037  12.936  0.7758 -0.4354 -0.3911
 3524SOL     OW22033   2.647   1.920   5.876  0.0585  0.1020  0.5762
 3524SOL    HW122034   2.704   1.844   5.889  1.1838  1.1197  1.6050
 3524SOL    HW222035   2.713   1.979   5.841  0.1132 -1.1983 -1.5221
 3525SOL     OW22036   3.396   1.941  12.637 -0.1305  0.2575 -0.0554
 3525SOL    HW122037   3.312   1.980  12.611 -0.8119 -0.2281  1.4293
 3525SOL    HW222038   3.442   1.925  12.555 -2.5373  2.2993 -1.8206
 3526SOL     OW22039   2.406   1.756   0.162 -0.1281 -0.4000  0.3995
 3526SOL    HW122040   2.331   1.764   0.103 -0.8665 -1.1960  1.2431
 3526SOL    HW222041   2.393   1.666   0.191 -1.6632  0.3990  2.2375
 3527SOL     OW22042   3.225   1.701  16.653 -0.2651  0.0063 -0.4111
 3527SOL    HW122043   3.277   1.713  16.574  0.0332  0.7985 -0.0957
 3527SOL    HW222044   3.137   1.672  16.627 -0.8554  0.8501  0.6666
 3528SOL     OW22045   1.651   0.578   8.303 -0.0736 -0.2728 -0.1764
 3528SOL    HW122046   1.645   0.579   8.398  1.1455  3.4768 -0.1341
 3528SOL    HW222047   1.680   0.668   8.287 -0.2447 -0.4731 -1.6348
 3529SOL     OW22048   1.333   3.667   9.230 -0.7198 -0.2330 -0.5394
 3529SOL    HW122049   1.243   3.693   9.212 -0.5329  0.2508 -0.7682
 3529SOL    HW222050   1.382   3.711   9.161 -0.4031  2.1092  1.1836
 3530SOL     OW22051   1.370   0.065   3.817  0.1381 -0.1479 -0.1269
 3530SOL    HW122052   1.431   4.718   3.804  2.7781  1.7379  1.7975
 3530SOL    HW222053   1.373   0.077   3.911 -1.1892  3.1225 -0.5039
 3531SOL     OW22054   2.818   2.923   4.958  0.0185 -0.0517 -0.6227
 3531SOL    HW122055   2.856   2.890   4.876 -0.1369 -0.7676 -0.4029
 3531SOL    HW222056   2.896   2.908   5.012  1.0662  3.4856 -1.1013
 3532SOL     OW22057   3.557   2.671   7.364 -0.5818 -0.0296 -0.1175
 3532SOL    HW122058   3.494   2.602   7.344 -0.8006 -0.2062  1.1616
 3532SOL    HW222059   3.605   2.642   7.442  0.7178  1.0441 -0.5085
 3533SOL     OW22060   3.799   3.627  13.999 -0.2761 -0.0680 -0.0737
 3533SOL    HW122061   3.857   3.672  13.938  1.0875  0.4522  1.6209
 3533SOL    HW222062   3.722   3.684  13.994  0.0412  0.3236 -0.5157
 3534SOL     OW22063   2.791   4.617   6.793  0.1006  0.1300  0.7067
 3534SOL    HW122064   2.833   4.601   6.709 -2.4295  0.4363 -0.6070
 3534SOL    HW222065   2.818   4.708   6.810 -2.2337  1.4825 -2.9590
 3535SOL     OW22066   4.705   0.192   6.739  0.4937 -0.9325  0.5627
 3535SOL    HW122067   4.616   0.161   6.727  0.3943 -1.0310  1.5486
 3535SOL    HW222068   0.026   0.147   6.669  0.5761 -0.1110  0.0950
 3536SOL     OW22069   2.090   3.633   8.178 -0.6120 -0.2618  0.1807
 3536SOL    HW122070   2.140   3.586   8.245  0.9613  1.1178 -0.0359
 3536SOL    HW222071   2.160   3.693   8.150 -1.9679  1.3001  0.1778
 3537SOL     OW22072   0.796   0.583   5.462  0.1222 -0.0054  0.2448
 3537SOL    HW122073   0.885   0.553   5.441 -1.0149 -3.7619  0.8460
 3537SOL    HW222074   0.768   0.538   5.541 -1.0901  1.1194  0.4609
 3538SOL     OW22075   4.316   4.394   5.191  0.2916  0.0023  0.7934
 3538SOL    HW122076   4.385   4.404   5.125 -1.6799 -0.1088 -1.2749
 3538SOL    HW222077   4.262   4.470   5.171  0.3280 -0.1645  0.0566
 3539SOL     OW22078   3.885   0.783   8.680  0.5913  0.5377  0.1758
 3539SOL    HW122079   3.948   0.853   8.664 -0.7617  1.8617  0.6522
 3539SOL    HW222080   3.804   0.824   8.650  0.6946  1.0106  0.5303
 3540SOL     OW22081   1.054   0.429   2.464 -0.3753  0.4554 -0.4241
 3540SOL    HW122082   1.028   0.351   2.416  2.2608  0.2370 -1.5193
 3540SOL    HW222083   1.051   0.500   2.399  0.1806 -0.7478 -1.7620
 3541SOL     OW22084   2.969   4.466  16.225  0.1787  0.0465 -0.5582
 3541SOL    HW122085   2.963   4.479  16.130 -0.9911  1.3819 -0.2957
 3541SOL    HW222086   3.054   4.509  16.229  0.4429 -0.4887 -0.4502
 3542SOL     OW22087   3.714   0.622   8.376  0.4265 -0.5567  0.7270
 3542SOL    HW122088   3.630   0.578   8.386 -0.2134  0.3219 -0.7492
 3542SOL    HW222089   3.709   0.699   8.433 -0.2261 -0.5291  0.6241
 3543SOL     OW22090   2.539   0.705   0.692  0.0579  1.1139 -0.1915
 3543SOL    HW122091   2.484   0.638   0.733  1.9296 -0.3637 -0.1224
 3543SOL    HW222092   2.581   0.646   0.630 -1.0297  0.0345  0.1066
 3544SOL     OW22093   2.303   3.344   2.110  0.7208 -0.1434 -0.2681
 3544SOL    HW122094   2.225   3.289   2.109 -0.3021  1.2789  0.8638
 3544SOL    HW222095   2.343   3.299   2.035 -1.0380 -1.5607 -0.3525
 3545SOL     OW22096   3.571   1.892   4.608 -0.1434  0.0415 -0.4715
 3545SOL    HW122097   3.648   1.838   4.623  0.5398  1.6394  1.7227
 3545SOL    HW222098   3.524   1.851   4.535  0.4282 -0.2876 -0.6591
 3546SOL     OW22099   2.857   2.528   3.095  0.3951 -0.3457 -0.1957
 3546SOL    HW122100   2.905   2.523   3.177  1.8175 -0.3181 -1.0144
 3546SOL    HW222101   2.908   2.460   3.050 -0.3617 -1.0777  0.0559
 3547SOL     OW22102   2.994   4.720   7.365  0.1391  0.4544  0.0173
 3547SOL    HW122103   3.052   4.694   7.294 -1.3853 -0.4575 -0.8928
 3547SOL    HW222104   3.060   0.018   7.430  1.1728 -1.9599 -0.1618
 3548SOL     OW22105   2.421   3.996   5.467  0.0577  0.4550 -0.2514
 3548SOL    HW122106   2.365   4.018   5.541 -3.3470  0.0669 -2.7094
 3548SOL    HW222107   2.496   3.968   5.520 -0.5937 -0.5464  0.1435
 3549SOL     OW22108   2.527   2.275   0.639  0.4471 -0.5068 -0.2627
 3549SOL    HW122109   2.504   2.308   0.553 -0.8787 -1.1134 -0.1436
 3549SOL    HW222110   2.541   2.182   0.619  0.4691  0.4263 -4.5236
 3550SOL     OW22111   2.140   3.692   4.793  0.3328 -0.1766 -0.6336
 3550SOL    HW122112   2.046   3.702   4.808 -0.0162 -0.8025 -2.4395
 3550SOL    HW222113   2.174   3.723   4.877 -2.1563  0.8055  0.0170
 3551SOL     OW22114   4.593   0.120   5.084  0.3900  0.1987  0.2814
 3551SOL    HW122115   4.678   0.163   5.081  0.1840  0.3989 -3.1039
 3551SOL    HW222116   4.547   0.143   5.002  0.7976 -0.2815 -0.0807
 3552SOL     OW22117   2.126   2.265  17.518 -0.6314  0.7472  0.5784
 3552SOL    HW122118   2.128   2.173  17.492 -2.3469  1.0121 -0.4849
 3552SOL    HW222119   2.154   2.260  17.610 -0.5350 -0.1790  0.5040
 3553SOL     OW22120   4.049   2.446   0.316  0.5993  0.3229 -0.5964
 3553SOL    HW122121   3.978   2.450   0.251  0.4434  1.0969 -0.3717
 3553SOL    HW222122   4.117   2.501   0.280  1.4024 -0.0350  0.3814
 3554SOL     OW22123   3.651   4.274   3.408  0.1457  0.2369  0.4112
 3554SOL    HW122124   3.603   4.238   3.334  1.2501  1.0230 -0.6866
 3554SOL    HW222125   3.572   4.288   3.460  0.3980 -1.1261  1.1382
 3555SOL     OW22126   0.476   1.454  13.763  0.5069  0.0678 -0.5842
 3555SOL    HW122127   0.470   1.536  13.812  0.5270 -0.3443  0.1184
 3555SOL    HW222128   0.536   1.487  13.696 -0.0004  1.1803 -0.4822
 3556SOL     OW22129   0.694   2.385   6.297 -0.0598  0.1532  0.6668
 3556SOL    HW122130   0.712   2.414   6.386  0.1941 -0.0454  0.6795
 3556SOL    HW222131   0.674   2.294   6.315 -0.0286 -0.3062 -1.5819
 3557SOL     OW22132   1.085   2.077   2.366  0.2431 -0.3254  0.7437
 3557SOL    HW122133   1.149   2.071   2.295  0.8790  1.7233  1.1247
 3557SOL    HW222134   1.075   1.986   2.392 -2.1345 -0.3723 -0.2518
 3558SOL     OW22135   1.529   0.883   6.389  0.6096  0.2705 -0.0368
 3558SOL    HW122136   1.603   0.915   6.338  0.2462  0.7398 -0.2770
 3558SOL    HW222137   1.481   0.962   6.417  1.0660 -0.7106  3.5224
 3559SOL     OW22138   4.284   0.016   5.391 -0.5079  0.1632 -0.2403
 3559SOL    HW122139   4.362   4.695   5.364 -0.5834  0.7967 -1.5372
 3559SOL    HW222140   4.277   4.699   5.476  1.5143  0.0666 -0.1316
 3560SOL     OW22141   4.016   2.920   6.616 -0.2459 -0.0531 -0.1470
 3560SOL    HW122142   4.060   2.995   6.658  0.4255 -0.2641 -0.4672
 3560SOL    HW222143   4.085   2.882   6.562  2.5230  1.3409  2.4125
 3561SOL     OW22144   0.480   3.766   5.137 -0.2306 -0.0430  1.0009
 3561SOL    HW122145   0.434   3.692   5.176 -1.3864  0.9610  1.5616
 3561SOL    HW222146   0.455   3.770   5.045 -0.7777  0.4630  1.1685
 3562SOL     OW22147   1.041   2.377  12.191  0.0890  0.1646  0.0840
 3562SOL    HW122148   1.070   2.314  12.257 -1.0048 -0.1996  0.2164
 3562SOL    HW222149   1.023   2.327  12.111 -2.5864 -2.4889  2.3758
 3563SOL     OW22150   2.937   1.726   5.367 -0.2325  0.1247 -0.2143
 3563SOL    HW122151   2.875   1.749   5.298  1.0644 -1.3662 -1.8860
 3563SOL    HW222152   2.908   1.642   5.403 -0.1737  0.6354  1.0282
 3564SOL     OW22153   2.095   1.465   0.346  0.4306 -0.6391 -0.1297
 3564SOL    HW122154   2.163   1.449   0.280 -0.1456 -0.7136 -0.6979
 3564SOL    HW222155   2.061   1.548   0.313 -1.9654 -1.9155 -0.8723
 3565SOL     OW22156   2.185   0.318   1.273  0.1477  0.0582  0.6366
 3565SOL    HW122157   2.182   0.253   1.343  0.0834  0.1300  0.7011
 3565SOL    HW222158   2.241   0.270   1.212 -0.0430 -0.3482  0.7836
 3566SOL     OW22159   2.233   0.047  12.463  0.3802  0.0381  0.6107
 3566SOL    HW122160   2.189   4.692  12.437 -1.4274  1.4481 -0.6424
 3566SOL    HW222161   2.161   0.110  12.462  0.8132  0.5579  1.5249
 3567SOL     OW22162   3.747   2.253   6.344  0.3500 -0.6708  0.3285
 3567SOL    HW122163   3.691   2.190   6.391 -0.0813 -0.7118 -0.2414
 3567SOL    HW222164   3.733   2.234   6.252 -1.1966 -1.4880  0.7273
 3568SOL     OW22165   1.414   2.253   5.176  0.3155  0.0852  0.2803
 3568SOL    HW122166   1.459   2.334   5.199  1.0841  0.4244 -2.4084
 3568SOL    HW222167   1.480   2.197   5.135  1.1462  3.0264 -2.4244
 3569SOL     OW22168   2.916   1.717   3.152 -0.2000  0.2695  0.0399
 3569SOL    HW122169   2.864   1.721   3.072  0.6570 -0.4980 -0.5644
 3569SOL    HW222170   2.924   1.811   3.165  0.3964  0.4742 -1.8144
 3570SOL     OW22171   1.158   0.789   8.563 -0.8974  0.4973 -0.0934
 3570SOL    HW122172   1.184   0.779   8.471  0.1848 -1.0144  0.3749
 3570SOL    HW222173   1.065   0.795   8.540 -0.8785 -2.3039 -0.8408
 3571SOL     OW22174   4.635   4.034   0.363 -0.3025 -0.3286  0.8184
 3571SOL    HW122175   4.651   4.041   0.457  3.7742 -1.2139  0.1837
 3571SOL    HW222176   4.541   4.020   0.361 -0.6064  1.8955 -0.4037
 3572SOL     OW22177   0.951   0.066   8.482  0.0071  0.6935 -0.5989
 3572SOL    HW122178   1.023   0.086   8.542 -0.1633  2.2516 -0.9175
 3572SOL    HW222179   0.988   0.041   8.397 -0.9747 -1.4969 -0.3914
 3573SOL     OW22180   3.145   2.581   2.058 -0.2967 -0.3259 -0.0679
 3573SOL    HW122181   3.122   2.652   2.117  2.4036  0.6317 -0.1682
 3573SOL    HW222182   3.090   2.509   2.088 -0.2130 -0.7444 -0.8986
 3574SOL     OW22183   4.186   2.768   5.612  0.1612  0.0706  0.0607
 3574SOL    HW122184   4.119   2.716   5.567 -0.3875 -0.9170  2.0099
 3574SOL    HW222185   4.266   2.717   5.595  0.0699 -0.3276  0.8418
 3575SOL     OW22186   4.156   0.303  13.905 -0.0368  0.1397  0.5084
 3575SOL    HW122187   4.132   0.216  13.871  1.7716 -0.0519 -0.2855
 3575SOL    HW222188   4.227   0.279  13.965  1.6394 -0.4913 -1.6921
 3576SOL     OW22189   0.104   3.684  11.947  0.3691  0.3412 -0.0287
 3576SOL    HW122190   0.105   3.732  11.864  0.3602 -0.5406 -0.5508
 3576SOL    HW222191   0.027   3.712  11.996  0.2240  1.0311 -0.6623
 3577SOL     OW22192   4.598   0.191   3.165  1.2523  0.1134  0.1921
 3577SOL    HW122193   4.581   0.284   3.149  2.5444  0.2334 -0.4826
 3577SOL    HW222194   4.560   0.186   3.253  0.1588 -1.4414 -0.3744
 3578SOL     OW22195   2.895   2.545  11.499  0.2977  0.5061  0.3176
 3578SOL    HW122196   2.946   2.614  11.541  3.2557 -2.4105  1.4750
 3578SOL    HW222197   2.953   2.527  11.425  1.0948  0.5697  0.9222
 3579SOL     OW22198   2.408   0.433   9.326  0.1497  0.1347  0.1329
 3579SOL    HW122199   2.480   0.469   9.275  2.5230 -2.7803  1.3802
 3579SOL    HW222200   2.342   0.496   9.300 -0.5400 -1.0226 -0.9298
 3580SOL     OW22201   3.899   3.243   3.247  0.0568 -0.3548  0.2862
 3580SOL    HW122202   3.944   3.188   3.312 -0.0355  2.0035  2.3808
 3580SOL    HW222203   3.917   3.196   3.166 -3.9099 -0.8038 -0.3535
 3581SOL     OW22204   0.583   0.670   6.235  0.1001 -0.2896  0.1832
 3581SOL    HW122205   0.508   0.707   6.190  0.4453 -1.4088 -1.3058
 3581SOL    HW222206   0.638   0.742   6.206  0.5316 -0.7822 -0.2103
 3582SOL     OW22207   2.769   3.552  10.519 -0.2446 -0.1918  0.2105
 3582SOL    HW122208   2.799   3.465  10.546 -1.5387 -0.4415  0.8666
 3582SOL    HW222209   2.674   3.536  10.521 -0.2070 -0.1286  2.0046
 3583SOL     OW22210   0.480   3.901   4.145 -0.1747 -0.0717  0.6647
 3583SOL    HW122211   0.438   3.850   4.076 -1.2095  4.6349 -2.1671
 3583SOL    HW222212   0.565   3.859   4.161  0.3120  0.1374 -1.3222
 3584SOL     OW22213   1.537   1.585   5.632 -0.4287  0.1571 -0.2140
 3584SOL    HW122214   1.628   1.560   5.645 -0.6587 -0.8562 -0.5151
 3584SOL    HW222215   1.526   1.559   5.541 -1.3812  1.7255 -0.5464
 3585SOL     OW22216   3.792   2.202   4.877  0.1297  0.2531 -0.4562
 3585SOL    HW122217   3.776   2.198   4.783 -0.8463  2.3576 -0.3874
 3585SOL    HW222218   3.724   2.263   4.905  0.9034  0.1819  1.5914
 3586SOL     OW22219   2.037   2.604   7.629  0.4979  0.3745  0.2074
 3586SOL    HW122220   1.999   2.660   7.562  3.0856  0.8450 -0.8803
 3586SOL    HW222221   2.129   2.629   7.622  0.2475  1.1277 -0.3509
 3587SOL     OW22222   1.342   2.764   8.141  0.4902  0.4417 -0.2586
 3587SOL    HW122223   1.281   2.698   8.174 -1.3441  2.1501 -0.1792
 3587SOL    HW222224   1.317   2.848   8.180  2.9874  0.6235  0.9390
 3588SOL     OW22225   0.562   1.676  13.373 -0.2195  0.4492  0.5091
 3588SOL    HW122226   0.615   1.639  13.302  0.4150 -1.9793  2.2564
 3588SOL    HW222227   0.539   1.760  13.335 -1.0261  0.2145  0.4586
 3589SOL     OW22228   3.665   0.189   3.460 -0.0125 -0.3139 -0.1061
 3589SOL    HW122229   3.669   0.281   3.435  2.4380 -1.1166 -2.7459
 3589SOL    HW222230   3.745   0.183   3.513  0.0462 -1.4076 -0.3244
 3590SOL     OW22231   2.650   4.420   4.608 -0.2592  0.1815 -0.8860
 3590SOL    HW122232   2.557   4.438   4.593 -0.1677  0.3818 -1.2096
 3590SOL    HW222233   2.689   4.476   4.542 -0.2268 -0.4057 -1.3624
 3591SOL     OW22234   1.727   1.177   5.931 -0.0314 -0.3986 -0.4886
 3591SOL    HW122235   1.787   1.104   5.919  2.9256  1.8638  0.3816
 3591SOL    HW222236   1.664   1.161   5.861 -1.4961  0.9830  0.5106
 3592SOL     OW22237   1.064   2.358   7.492  0.0477  0.2656  0.0589
 3592SOL    HW122238   1.050   2.292   7.560 -3.0265  0.0988 -0.7396
 3592SOL    HW222239   1.033   2.315   7.413  0.3859 -2.0962  1.1987
 3593SOL     OW22240   2.029   3.778   7.431  0.0790  0.2035 -0.7984
 3593SOL    HW122241   2.073   3.716   7.372 -0.4471  0.0444 -1.0241
 3593SOL    HW222242   1.936   3.761   7.416 -0.3048  2.5209 -1.0599
 3594SOL     OW22243   3.521   2.677   6.536 -0.0283  0.2468  0.3514
 3594SOL    HW122244   3.444   2.733   6.540 -1.1409 -1.2988  0.3251
 3594SOL    HW222245   3.592   2.732   6.503  0.9568 -1.1329  0.1621
 3595SOL     OW22246   0.957   3.945   7.772  0.0252  0.1356 -0.3092
 3595SOL    HW122247   1.026   3.941   7.838  0.2899  0.7610 -0.5474
 3595SOL    HW222248   0.961   4.038   7.750  1.2504  0.0555 -0.4014
 3596SOL     OW22249   1.777   4.104   5.667  0.2866 -0.2762  0.5330
 3596SOL    HW122250   1.772   4.191   5.626 -1.5612  0.3768  2.0974
 3596SOL    HW222251   1.696   4.061   5.639 -0.6309  1.0703  1.0911
 3597SOL     OW22252   4.174   2.370   7.221  0.3474  0.0064  0.0580
 3597SOL    HW122253   4.099   2.351   7.276  1.4202 -0.6489  1.2950
 3597SOL    HW222254   4.243   2.308   7.246  0.5834  0.2091 -0.0924
 3598SOL     OW22255   4.051   0.203   1.822 -0.5496  0.8572  0.4432
 3598SOL    HW122256   4.008   0.185   1.906  0.6130  0.2295  0.9138
 3598SOL    HW222257   3.988   0.183   1.753 -0.5010  1.0054  0.3554
 3599SOL     OW22258   0.724   2.183   0.922 -0.3445 -0.2202  0.1489
 3599SOL    HW122259   0.795   2.208   0.981  0.8751  1.8812 -2.1861
 3599SOL    HW222260   0.693   2.271   0.901 -1.9740 -1.5989 -3.3094
 3600SOL     OW22261   1.583   2.022   3.332  0.2606 -0.1528 -0.0052
 3600SOL    HW122262   1.549   1.950   3.385  0.7091 -0.5935 -0.3151
 3600SOL    HW222263   1.618   1.979   3.254  2.0779  0.2205  0.5962
 3601SOL     OW22264   3.339   0.024   8.217 -0.3622 -0.5618  0.0318
 3601SOL    HW122265   3.433   0.005   8.210  0.1888  2.0659  0.2691
 3601SOL    HW222266   3.310   4.692   8.146 -0.4102 -0.7184  0.1788
 3602SOL     OW22267   3.066   1.815  15.620  0.1556  0.7775  0.5165
 3602SOL    HW122268   3.130   1.886  15.624  1.0950  0.0777 -2.1383
 3602SOL    HW222269   2.993   1.853  15.572  1.9760  1.9493 -1.3463
 3603SOL     OW22270   2.931   3.670   5.118 -0.3568  0.2274  1.0698
 3603SOL    HW122271   2.934   3.674   5.022 -0.1324 -2.6604  0.9627
 3603SOL    HW222272   3.016   3.708   5.141 -0.2567 -1.2361  3.0914
 3604SOL     OW22273   2.127   3.771   4.529  0.2097 -0.2656 -0.2118
 3604SOL    HW122274   2.173   3.847   4.493 -0.0268  0.8073  1.7859
 3604SOL    HW222275   2.122   3.782   4.624  1.5458 -1.4811 -0.0010
 3605SOL     OW22276   0.567   3.734   7.022 -0.1042  0.0872 -0.3227
 3605SOL    HW122277   0.547   3.651   7.065 -0.3654  0.6305  0.6176
 3605SOL    HW222278   0.494   3.739   6.960 -0.6128 -1.5283  0.1501
 3606SOL     OW22279   1.214   3.544  15.231 -0.3080 -0.2879  0.8421
 3606SOL    HW122280   1.125   3.518  15.208 -0.7199  0.7290  1.2930
 3606SOL    HW222281   1.235   3.482  15.301 -0.9253 -1.6166 -0.1593
 3607SOL     OW22282   1.241   2.712   3.175  0.3249  0.0212 -0.1725
 3607SOL    HW122283   1.318   2.669   3.211  0.0697 -0.1136  0.2109
 3607SOL    HW222284   1.254   2.801   3.208  0.5290 -0.2260  0.4156
 3608SOL     OW22285   1.425   2.127   8.877  0.2909 -0.7853 -0.5401
 3608SOL    HW122286   1.387   2.082   8.952  1.0448  0.0572  0.3557
 3608SOL    HW222287   1.505   2.162   8.916 -0.3885  2.1307 -1.7592
 3609SOL     OW22288   2.312   2.386   5.537  0.0286 -0.1492  0.2141
 3609SOL    HW122289   2.305   2.478   5.561 -2.0793  0.3670 -2.3071
 3609SOL    HW222290   2.308   2.391   5.441  0.5627 -0.4384  0.1735
 3610SOL     OW22291   3.839   4.518   3.356  0.2399  0.4582  0.2755
 3610SOL    HW122292   3.923   4.479   3.332  1.1736  0.5453  3.3796
 3610SOL    HW222293   3.782   4.449   3.388 -1.3362  0.6248 -2.1428
 3611SOL     OW22294   2.539   3.854  10.096 -0.2903 -0.1511  0.8138
 3611SOL    HW122295   2.482   3.802  10.152  0.1477 -2.9194 -1.2740
 3611SOL    HW222296   2.576   3.906  10.167  1.5062 -0.6238  0.2186
 3612SOL     OW22297   0.450   0.379   1.413  0.7923 -0.1206  0.2023
 3612SOL    HW122298   0.514   0.355   1.346 -0.4467  0.6307 -1.2588
 3612SOL    HW222299   0.453   0.300   1.467 -0.4386 -0.2055  0.1326
 3613SOL     OW22300   4.430   1.261   5.707 -0.4037 -0.3253  0.0250
 3613SOL    HW122301   4.480   1.184   5.679  0.6152 -1.1564  4.1493
 3613SOL    HW222302   4.456   1.322   5.638 -1.4486 -0.5949 -0.5980
 3614SOL     OW22303   4.652   3.544  10.086 -0.3623  0.4609  0.3423
 3614SOL    HW122304   0.014   3.541  10.123 -1.1181 -1.1635  2.0175
 3614SOL    HW222305   4.603   3.487  10.145  0.1310 -0.5783 -0.2376
 3615SOL     OW22306   4.281   2.407  11.262  0.5661 -0.2933  0.2578
 3615SOL    HW122307   4.336   2.463  11.209  1.9585  0.0996  2.1094
 3615SOL    HW222308   4.339   2.332  11.277 -0.9327 -2.2063 -3.4205
 3616SOL     OW22309   3.476   4.255   9.034 -0.4412 -0.4821 -0.3882
 3616SOL    HW122310   3.507   4.328   9.088 -1.8564  2.1169 -3.1046
 3616SOL    HW222311   3.428   4.215   9.107  1.1916 -0.1457  0.8707
 3617SOL     OW22312   3.159   2.847   1.142 -0.4175  0.3271 -0.2936
 3617SOL    HW122313   3.148   2.753   1.147 -1.1153  0.5011  1.3311
 3617SOL    HW222314   3.254   2.852   1.131 -0.3602 -2.1182 -0.8979
 3618SOL     OW22315   2.966   0.982   3.534  0.1241 -1.4457 -0.5664
 3618SOL    HW122316   3.040   0.957   3.479  2.1461  2.0827  0.6176
 3618SOL    HW222317   2.979   1.070   3.568  1.2988 -1.3889 -1.1965
 3619SOL     OW22318   2.690   0.450   6.409 -0.3893  0.1398  0.2240
 3619SOL    HW122319   2.618   0.431   6.471 -0.0742 -2.2786 -0.1536
 3619SOL    HW222320   2.656   0.394   6.340  0.6229 -0.7472  0.4520
 3620SOL     OW22321   2.015   3.979   9.215 -0.0329  0.5446  0.6770
 3620SOL    HW122322   2.033   3.884   9.215 -1.0656  0.3535  0.1491
 3620SOL    HW222323   2.091   4.011   9.166 -0.7325  0.9145 -0.1579
 3621SOL     OW22324   0.169   1.948   2.887  0.1757 -0.1475 -0.1555
 3621SOL    HW122325   0.165   1.906   2.802  2.5846 -1.2738  0.2947
 3621SOL    HW222326   0.077   1.971   2.903  0.7398  2.3952 -0.6331
 3622SOL     OW22327   2.156   1.813   6.507  0.2723 -0.1007 -0.0034
 3622SOL    HW122328   2.141   1.845   6.596 -3.1815 -0.6935 -0.3705
 3622SOL    HW222329   2.120   1.876   6.445  1.9104  2.1835  1.3715
 3623SOL     OW22330   3.937   0.563   1.247  0.7472  0.2996 -0.8108
 3623SOL    HW122331   3.991   0.584   1.323  1.5303  0.2383 -1.3538
 3623SOL    HW222332   3.860   0.620   1.253  0.7612  0.2918 -0.5258
 3624SOL     OW22333   3.459   3.569   9.329 -0.2660 -0.0443  0.2840
 3624SOL    HW122334   3.412   3.547   9.410 -0.2859 -1.4526 -0.1028
 3624SOL    HW222335   3.494   3.657   9.340  1.5814 -0.4921 -2.1137
 3625SOL     OW22336   3.557   2.052  13.450  0.0993 -0.3908  0.1882
 3625SOL    HW122337   3.618   2.075  13.521  0.9751 -1.6820 -0.1505
 3625SOL    HW222338   3.629   2.014  13.399  0.7472 -1.8467  2.1975
 3626SOL     OW22339   1.894   0.445  15.326 -0.2806 -0.2139 -0.3331
 3626SOL    HW122340   1.945   0.497  15.264  1.1178  0.3682  1.3117
 3626SOL    HW222341   1.807   0.428  15.289 -0.3794 -0.4987  0.0193
 3627SOL     OW22342   1.517   3.877   7.361  0.2990 -0.9545  0.1554
 3627SOL    HW122343   1.501   3.853   7.452 -2.4201  0.6612  0.1126
 3627SOL    HW222344   1.495   3.793   7.321  0.5404  0.5153 -3.0995
 3628SOL     OW22345   2.137   0.519   9.672 -0.7348 -0.3627  0.2539
 3628SOL    HW122346   2.112   0.450   9.733 -2.4636  1.4816  1.5999
 3628SOL    HW222347   2.214   0.475   9.636 -0.2203  0.8277 -0.1072
 3629SOL     OW22348   3.131   3.318   7.363 -0.6349  0.3311 -0.2004
 3629SOL    HW122349   3.063   3.373   7.404  0.3128 -0.7742  2.9095
 3629SOL    HW222350   3.213   3.347   7.403 -0.5972  0.4562 -0.3732
 3630SOL     OW22351   3.067   4.026   0.031  0.3771  0.8874 -0.3979
 3630SOL    HW122352   3.064   3.933   0.005  3.1447  1.1806 -1.7584
 3630SOL    HW222353   3.162   4.031   0.041 -0.1091  2.6905  3.0041
 3631SOL     OW22354   1.799   0.130   1.899 -0.1961 -0.1178  0.6042
 3631SOL    HW122355   1.751   0.127   1.816 -0.0863  1.8233  0.4565
 3631SOL    HW222356   1.865   0.192   1.868 -1.6845  1.7140  1.1129
 3632SOL     OW22357   4.534   3.468  17.076 -0.0015  0.3576 -0.3974
 3632SOL    HW122358   4.548   3.504  17.163 -0.2813 -0.5266  0.0039
 3632SOL    HW222359   4.544   3.374  17.086 -1.9859 -0.2263 -3.8529
 3633SOL     OW22360   2.110   0.179  10.706  0.3311  0.6232  0.1153
 3633SOL    HW122361   2.186   0.162  10.762 -1.1876 -0.4705  1.8466
 3633SOL    HW222362   2.082   0.263  10.743 -1.2998  0.6174 -1.0878
 3634SOL     OW22363   2.934   0.283   6.367  0.5980 -0.4893 -0.3014
 3634SOL    HW122364   3.005   0.342   6.394  0.2829  0.6220 -1.8407
 3634SOL    HW222365   2.856   0.324   6.405  0.2377 -1.6276  0.1608
 3635SOL     OW22366   1.748   4.259  11.204 -0.6586  0.3473  0.1660
 3635SOL    HW122367   1.810   4.332  11.210 -1.7180  1.2724 -0.0180
 3635SOL    HW222368   1.736   4.244  11.110  1.6162 -0.9786  0.0913
 3636SOL     OW22369   3.813   2.122  15.966 -0.6223 -0.0510 -0.4104
 3636SOL    HW122370   3.751   2.147  15.896 -0.9259 -3.0082 -1.2064
 3636SOL    HW222371   3.853   2.045  15.926  0.7831 -0.6815  2.2472
 3637SOL     OW22372   0.989   0.390   1.000  0.0907 -0.3830 -0.4605
 3637SOL    HW122373   0.945   0.386   0.915  0.3419 -1.6697 -0.5354
 3637SOL    HW222374   0.945   0.317   1.045  0.3681  0.3366  0.9717
 3638SOL     OW22375   3.412   0.608  13.675  0.1514 -0.4500  0.2449
 3638SOL    HW122376   3.377   0.613  13.763  0.7286  1.4567  0.3816
 3638SOL    HW222377   3.333   0.605  13.621 -0.6819 -0.6751  1.4855
 3639SOL     OW22378   3.997   4.661  17.176 -0.2078 -0.3908 -0.3767
 3639SOL    HW122379   4.089   4.686  17.166 -0.5552  0.9218 -0.2700
 3639SOL    HW222380   3.994   4.585  17.118 -0.5993 -0.5548 -0.1453
 3640SOL     OW22381   1.607   0.210   1.465 -0.3107 -0.2387  0.4693
 3640SOL    HW122382   1.566   0.250   1.388 -1.1943 -1.2433  0.4105
 3640SOL    HW222383   1.559   0.260   1.531 -0.3798 -1.9401  1.7071
 3641SOL     OW22384   4.627   3.620   4.965 -0.4910 -0.1124 -0.0931
 3641SOL    HW122385   4.714   3.658   4.973 -1.7081  2.2435  1.6441
 3641SOL    HW222386   4.618   3.561   5.040 -2.4828  2.1541  1.4094
 3642SOL     OW22387   2.282   2.669   6.677 -0.3709 -0.3077 -0.0341
 3642SOL    HW122388   2.254   2.758   6.697 -1.1708 -0.6848  0.4949
 3642SOL    HW222389   2.253   2.627   6.758 -0.6917  0.8313  0.4384
 3643SOL     OW22390   2.372   3.827   6.541 -0.2891  0.2357  0.4535
 3643SOL    HW122391   2.363   3.774   6.462  0.5467  0.3488  0.2758
 3643SOL    HW222392   2.282   3.818   6.570 -1.1131  1.0290 -1.9141
 3644SOL     OW22393   3.953   1.705   3.540 -0.1227 -0.1018 -0.2721
 3644SOL    HW122394   3.926   1.644   3.471 -0.0491 -1.8112  1.2165
 3644SOL    HW222395   4.047   1.685   3.539  0.0369  0.7024 -2.4107
 3645SOL     OW22396   0.446   0.683   0.462  0.6424  0.0953 -0.2903
 3645SOL    HW122397   0.432   0.605   0.515 -1.2701  0.2431 -0.5782
 3645SOL    HW222398   0.538   0.658   0.448  1.1037  1.0520  0.9717
 3646SOL     OW22399   2.516   3.744   4.119  0.2641  0.1961  0.0067
 3646SOL    HW122400   2.493   3.705   4.034  1.6439 -0.0738 -0.2356
 3646SOL    HW222401   2.575   3.678   4.156 -0.1887 -1.1108 -1.5510
 3647SOL     OW22402   4.281   4.119   4.129  0.2558  0.0556  0.1893
 3647SOL    HW122403   4.341   4.049   4.102 -0.4465 -0.7253  0.6296
 3647SOL    HW222404   4.193   4.079   4.135 -0.4941  1.6544 -0.2605
 3648SOL     OW22405   4.612   2.687   8.029 -0.2104  0.1116 -0.0927
 3648SOL    HW122406   4.613   2.772   8.073  0.7967 -0.1989  0.4928
 3648SOL    HW222407   4.634   2.624   8.098  1.1541  1.7043  0.9427
 3649SOL     OW22408   0.832   0.071   3.653 -0.3595 -0.4503  0.0014
 3649SOL    HW122409   0.802   0.015   3.580 -0.1085  0.8582 -1.1034
 3649SOL    HW222410   0.921   0.042   3.672  0.0344  1.8977  1.5838
 3650SOL     OW22411   2.031   1.310   5.773 -0.3849 -0.2469 -0.0330
 3650SOL    HW122412   1.979   1.348   5.844 -1.1337 -1.0555 -0.1511
 3650SOL    HW222413   2.032   1.218   5.798  0.3068 -0.4939 -0.9774
 3651SOL     OW22414   3.585   1.909   4.002  0.3718  0.1135  0.3263
 3651SOL    HW122415   3.495   1.932   4.024  0.3504 -0.3117  0.6633
 3651SOL    HW222416   3.586   1.940   3.911  0.6544  0.6704  0.5161
 3652SOL     OW22417   1.863   0.289   4.794 -0.0450  0.0116  0.3801
 3652SOL    HW122418   1.941   0.253   4.835  0.7084 -0.3533 -1.3617
 3652SOL    HW222419   1.832   0.215   4.741  2.4341  0.7051 -2.0489
 3653SOL     OW22420   2.331   2.291  10.702  0.2776  0.4599 -0.2258
 3653SOL    HW122421   2.246   2.273  10.662  0.9119  0.6097 -1.6323
 3653SOL    HW222422   2.316   2.265  10.793  1.8708 -0.3129 -0.1781
 3654SOL     OW22423   4.024   1.650  14.705  0.0503 -0.4742  0.0256
 3654SOL    HW122424   4.095   1.619  14.650  0.3349  2.0985 -1.0595
 3654SOL    HW222425   3.974   1.701  14.641 -0.2412  1.9053  2.1176
 3655SOL     OW22426   2.857   0.232   1.054  0.0643 -0.1574 -0.2138
 3655SOL    HW122427   2.875   0.138   1.052 -0.9241 -0.3903  1.5950
 3655SOL    HW222428   2.852   0.246   1.149 -1.3704  2.6682 -0.7100
 3656SOL     OW22429   2.554   1.713   6.277 -0.2143  0.9815 -0.4977
 3656SOL    HW122430   2.513   1.689   6.360  3.6562  0.0671  1.1442
 3656SOL    HW222431   2.513   1.643   6.226 -0.5400  0.6993  0.1556
 3657SOL     OW22432   0.420   3.408   8.688 -0.4945 -0.1535 -0.0019
 3657SOL    HW122433   0.443   3.413   8.781 -0.2533  0.9699 -0.1153
 3657SOL    HW222434   0.411   3.316   8.663 -0.0631 -0.0080 -0.6923
 3658SOL     OW22435   0.691   2.762   6.177  0.3514  0.0340  0.1219
 3658SOL    HW122436   0.720   2.779   6.266 -0.9720  0.6951  0.4146
 3658SOL    HW222437   0.736   2.831   6.130  2.7143 -1.8742 -0.4328
 3659SOL     OW22438   3.012   2.388   3.878 -0.6031 -0.4208  0.4315
 3659SOL    HW122439   2.971   2.417   3.960 -0.3604 -0.5000  0.5807
 3659SOL    HW222440   2.943   2.397   3.813 -0.4497  3.5488  0.8341
 3660SOL     OW22441   3.663   2.927  16.957 -0.0123 -0.2683  0.6827
 3660SOL    HW122442   3.640   3.007  17.005 -1.1431  0.0751 -0.4346
 3660SOL    HW222443   3.585   2.873  16.969  0.2442 -1.2194 -2.0851
 3661SOL     OW22444   3.112   4.425   5.769  0.1136 -0.0417  0.8554
 3661SOL    HW122445   3.119   4.484   5.844  1.7577 -0.1602  0.7925
 3661SOL    HW222446   3.194   4.450   5.726 -0.9302 -0.0367 -1.1341
 3662SOL     OW22447   2.263   3.047   4.045  0.9005  0.5370  0.2748
 3662SOL    HW122448   2.341   3.096   4.073 -0.9482  3.1203  0.8536
 3662SOL    HW222449   2.292   2.965   4.085  0.8010  1.4518  2.2252
 3663SOL     OW22450   0.180   2.613   7.303  0.3246  0.3567 -0.3133
 3663SOL    HW122451   0.087   2.628   7.319  0.1386  2.5837 -3.5546
 3663SOL    HW222452   0.209   2.704   7.302 -0.7734  0.7167  0.9072
 3664SOL     OW22453   0.957   1.529   9.262 -0.1415 -0.3397 -0.3171
 3664SOL    HW122454   1.007   1.454   9.229 -1.3111 -0.8930 -0.8147
 3664SOL    HW222455   1.011   1.550   9.338  0.6622 -1.0844 -0.6880
 3665SOL     OW22456   2.232   4.522   1.581 -0.1929 -0.0767  0.0868
 3665SOL    HW122457   2.185   4.485   1.506 -1.4293 -0.8425  1.2516
 3665SOL    HW222458   2.263   4.607   1.549  2.1291 -1.0236 -0.1627
 3666SOL     OW22459   1.196   1.607   4.531  0.4427 -0.1269 -0.0632
 3666SOL    HW122460   1.176   1.543   4.463  1.3412 -1.2565  0.7278
 3666SOL    HW222461   1.127   1.589   4.594 -0.9270 -1.6627 -2.0193
 3667SOL     OW22462   0.082   3.924  14.600  0.0392 -0.2673 -0.3147
 3667SOL    HW122463   0.170   3.944  14.630  0.4398 -1.7556 -0.5208
 3667SOL    HW222464   0.044   3.936  14.687  0.0726 -0.5666 -0.2617
 3668SOL     OW22465   1.768   0.601   4.033 -0.0595 -0.3432  0.2980
 3668SOL    HW122466   1.681   0.597   4.073 -0.5971 -2.5648 -1.1141
 3668SOL    HW222467   1.779   0.520   3.984 -0.6460  0.4775 -1.1984
 3669SOL     OW22468   3.686   4.251   2.142 -0.4511  0.7462  0.6358
 3669SOL    HW122469   3.662   4.272   2.232 -3.6365 -0.7636  0.1371
 3669SOL    HW222470   3.780   4.235   2.155 -0.4376 -0.4905 -0.8947
 3670SOL     OW22471   1.371   0.252   3.601  0.4453 -0.1549 -0.1428
 3670SOL    HW122472   1.386   0.167   3.641 -1.6192 -0.9539 -1.1109
 3670SOL    HW222473   1.437   0.249   3.532 -1.0145  0.6225 -1.5656
 3671SOL     OW22474   0.360   4.521  17.500 -0.5529 -0.3952 -0.4763
 3671SOL    HW122475   0.452   4.538  17.484 -0.6097 -0.5825 -1.0014
 3671SOL    HW222476   0.359   4.448  17.562  0.8101  0.5096  0.5958
 3672SOL     OW22477   4.522   0.350   4.885 -0.2010  0.1005 -0.2299
 3672SOL    HW122478   4.430   0.327   4.876  0.2914 -2.0122  0.1939
 3672SOL    HW222479   4.535   0.359   4.980  1.9804 -1.5908 -0.3848
 3673SOL     OW22480   2.124   0.949  13.655 -0.5027 -0.0544 -0.1382
 3673SOL    HW122481   2.071   0.969  13.577  0.0701  1.9787 -0.0021
 3673SOL    HW222482   2.062   0.880  13.679 -2.3390  1.4667 -0.4304
 3674SOL     OW22483   4.470   3.879   6.523  0.0156  0.1526  0.5834
 3674SOL    HW122484   4.513   3.953   6.565  2.5918 -0.1275 -1.6285
 3674SOL    HW222485   4.467   3.809   6.589  1.2065  1.3558  1.9119
 3675SOL     OW22486   0.499   2.999   3.518  0.2469 -0.0120 -0.1940
 3675SOL    HW122487   0.482   2.909   3.545 -0.9490  0.6661  1.2912
 3675SOL    HW222488   0.576   2.992   3.461  0.8251 -1.6629  0.7733
 3676SOL     OW22489   0.062   3.912   4.797 -0.0889 -0.3010 -0.3584
 3676SOL    HW122490   0.143   3.903   4.748  0.1519  2.6259 -0.4806
 3676SOL    HW222491   0.045   4.005   4.781 -2.3424 -0.4225  1.2413
 3677SOL     OW22492   4.047   1.913   9.811  0.3253 -0.1087 -0.3147
 3677SOL    HW122493   4.100   1.989   9.833  3.1427 -1.7202 -1.5620
 3677SOL    HW222494   4.057   1.862   9.892  0.3663  0.3670 -0.0230
 3678SOL     OW22495   4.334   1.950   8.501 -0.0025  0.6528  0.7057
 3678SOL    HW122496   4.299   2.035   8.528  3.0052  1.4793  1.9115
 3678SOL    HW222497   4.427   1.974   8.499  0.8357 -2.7139  0.0217
 3679SOL     OW22498   1.910   1.598  10.559  0.4736  0.7421  0.7793
 3679SOL    HW122499   1.941   1.601  10.649 -1.6770 -1.1759  1.6022
 3679SOL    HW222500   1.819   1.628  10.562  0.7611  1.8940 -1.8867
 3680SOL     OW22501   0.866   0.320   9.079  0.3110  0.1363  0.6190
 3680SOL    HW122502   0.920   0.249   9.114 -0.6390 -2.0908 -2.5260
 3680SOL    HW222503   0.937   0.381   9.057  0.6373 -1.0391 -1.5575
 3681SOL     OW22504   2.757   1.014  10.168 -0.2261  0.3889  0.0587
 3681SOL    HW122505   2.734   1.070  10.242  2.1501  1.5715 -0.1198
 3681SOL    HW222506   2.782   0.931  10.206 -1.2435 -1.3976 -3.1535
 3682SOL     OW22507   0.431   4.216   8.609 -0.2554  0.7507 -0.0695
 3682SOL    HW122508   0.481   4.215   8.528  1.0217 -1.0012  0.7495
 3682SOL    HW222509   0.445   4.308   8.633 -0.3861  0.1626  2.3114
 3683SOL     OW22510   0.069   4.348   8.810  0.2397 -0.1297  0.3709
 3683SOL    HW122511   0.140   4.291   8.841 -0.1669 -0.8792 -0.0844
 3683SOL    HW222512   4.716   4.296   8.822  0.6284 -0.9278 -0.5202
 3684SOL     OW22513   2.166   0.753   9.804 -0.2857  0.4383  0.0090
 3684SOL    HW122514   2.251   0.766   9.846 -0.5617  0.5618  0.5279
 3684SOL    HW222515   2.175   0.666   9.765  0.4448 -0.1829  1.5377
 3685SOL     OW22516   2.703   3.787  10.396 -0.5258 -0.4759 -0.0647
 3685SOL    HW122517   2.758   3.716  10.429  1.6433  1.7602  1.1214
 3685SOL    HW222518   2.767   3.847  10.358 -2.8797  0.9710 -1.7085
 3686SOL     OW22519   2.902   0.141   5.353  0.3535  0.2726  0.1940
 3686SOL    HW122520   2.818   0.102   5.377 -0.2953  0.9023 -1.0271
 3686SOL    HW222521   2.938   0.140   5.442 -1.5124 -0.9257  0.9305
 3687SOL     OW22522   3.212   3.333   0.366  0.5626 -0.4569 -0.0641
 3687SOL    HW122523   3.184   3.269   0.300  0.8157  1.1221 -1.7025
 3687SOL    HW222524   3.129   3.369   0.399  0.9084 -1.1364  1.5507
 3688SOL     OW22525   0.708   4.499   5.347  0.1232  0.5908 -0.2811
 3688SOL    HW122526   0.614   4.482   5.349  0.2804 -0.3968 -1.1107
 3688SOL    HW222527   0.742   4.415   5.316 -0.5888  0.2248 -0.0563
 3689SOL     OW22528   3.912   4.307   2.794 -0.0081  0.4528 -0.5168
 3689SOL    HW122529   3.958   4.271   2.718 -3.1319 -3.0274 -0.7200
 3689SOL    HW222530   3.824   4.323   2.760 -0.3592  1.2024  0.7776
 3690SOL     OW22531   0.076   1.799  13.444  0.3145 -0.0542 -0.1187
 3690SOL    HW122532   0.046   1.879  13.402  0.8942  0.0879 -0.2514
 3690SOL    HW222533   0.130   1.760  13.376  1.5681 -0.2990  1.0156
 3691SOL     OW22534   1.358   2.735   1.290  0.2333  0.4568  0.3864
 3691SOL    HW122535   1.281   2.757   1.342  1.5112  0.0968  2.4269
 3691SOL    HW222536   1.399   2.686   1.361 -1.2837 -0.8545  0.3720
 3692SOL     OW22537   3.041   4.241   8.495 -0.1920  0.0453  0.1975
 3692SOL    HW122538   3.126   4.219   8.457 -0.3812 -1.2308  0.5009
 3692SOL    HW222539   3.030   4.336   8.497  0.9056  0.1883 -0.6727
 3693SOL     OW22540   0.921   3.455  10.665 -0.1798  0.5150 -0.3042
 3693SOL    HW122541   0.872   3.385  10.707  2.0843 -0.7569  0.2237
 3693SOL    HW222542   0.844   3.500  10.629 -0.3599 -0.2472 -0.8737
 3694SOL     OW22543   2.675   0.598   3.828  0.4453 -0.0349  0.6796
 3694SOL    HW122544   2.627   0.614   3.747  1.0843  0.5393  0.4152
 3694SOL    HW222545   2.743   0.541   3.793  1.0671  1.1023  0.0512
 3695SOL     OW22546   1.176   2.813  10.903 -0.4264 -0.6941 -0.3921
 3695SOL    HW122547   1.180   2.825  10.808 -2.0540 -0.6737 -0.4547
 3695SOL    HW222548   1.224   2.892  10.927 -0.3848 -0.7652 -0.2393
 3696SOL     OW22549   3.159   3.430  16.181 -0.4030  0.0217  1.0055
 3696SOL    HW122550   3.235   3.456  16.129  0.0835  1.0247  2.2366
 3696SOL    HW222551   3.134   3.512  16.224 -1.7506  1.0296 -1.6700
 3697SOL     OW22552   4.292   4.207   1.858 -0.1103  0.4381 -0.2480
 3697SOL    HW122553   4.385   4.191   1.838 -0.1802  0.2899 -0.4537
 3697SOL    HW222554   4.271   4.231   1.767 -0.4782  1.5888  0.1401
 3698SOL     OW22555   1.401   0.090   9.860  0.1439 -0.0584  0.5559
 3698SOL    HW122556   1.455   0.015   9.885 -0.9251 -0.7555  0.8108
 3698SOL    HW222557   1.312   0.057   9.875  0.1964 -1.0141 -1.1162
 3699SOL     OW22558   3.037   3.829   1.951  0.0924 -0.6602  0.3404
 3699SOL    HW122559   3.047   3.801   2.042 -2.3318  1.1854  1.1679
 3699SOL    HW222560   3.031   3.741   1.913  0.1387  0.2559 -1.8072
 3700SOL     OW22561   3.684   0.697  12.668 -0.0230 -0.0929 -0.0834
 3700SOL    HW122562   3.768   0.703  12.715 -0.0623 -1.3433  0.1598
 3700SOL    HW222563   3.692   0.761  12.597 -0.4661  0.8710  0.7348
 3701SOL     OW22564   2.987   0.685   5.682  0.0831 -0.3819 -0.6005
 3701SOL    HW122565   3.060   0.629   5.709 -0.8278 -0.5542  1.4924
 3701SOL    HW222566   2.946   0.628   5.617  1.1562 -1.0514 -0.6913
 3702SOL     OW22567   0.281   4.350   5.113  0.6280  0.6840 -0.2834
 3702SOL    HW122568   0.303   4.334   5.022 -1.0222 -0.0353 -0.5596
 3702SOL    HW222569   0.188   4.338   5.095  0.7097 -0.1474 -0.1339
 3703SOL     OW22570   1.419   3.953   2.002  0.2626 -0.4260  0.1379
 3703SOL    HW122571   1.333   3.925   1.970 -0.3240  2.1721 -0.5298
 3703SOL    HW222572   1.402   4.047   2.007  2.2285 -0.0749  0.0057
 3704SOL     OW22573   4.438   0.046  11.264 -0.2116 -0.0206 -0.3236
 3704SOL    HW122574   4.439   0.045  11.168 -1.1577  1.0855 -0.3492
 3704SOL    HW222575   4.412   4.682  11.279 -1.6367  0.3846 -0.4109
 3705SOL     OW22576   1.573   0.022   2.591 -0.8254  0.1152  0.0058
 3705SOL    HW122577   1.541   0.106   2.559 -1.8666 -0.5005 -0.5784
 3705SOL    HW222578   1.586   0.039   2.684  0.3232 -1.7198  0.1931
 3706SOL     OW22579   1.304   0.203   8.897 -0.2103 -0.5581 -0.0907
 3706SOL    HW122580   1.394   0.233   8.883 -1.2097  1.0741 -3.0164
 3706SOL    HW222581   1.293   0.214   8.992  0.2846 -0.9616  0.0131
 3707SOL     OW22582   4.433   3.696   7.522  0.2894  0.0451  0.1034
 3707SOL    HW122583   4.491   3.689   7.598 -0.0718  1.1159  0.4767
 3707SOL    HW222584   4.415   3.604   7.503  2.7325 -0.3688 -0.2299
 3708SOL     OW22585   0.793   2.103   3.464  0.5383 -0.2527  0.1273
 3708SOL    HW122586   0.811   2.161   3.390  2.1394  0.2205  0.8975
 3708SOL    HW222587   0.703   2.117   3.495  0.2808 -0.0671 -0.6900
 3709SOL     OW22588   4.336   3.268   8.086  0.2043 -0.3773  0.3223
 3709SOL    HW122589   4.328   3.360   8.060  1.5116  0.1588  1.8457
 3709SOL    HW222590   4.426   3.265   8.118  0.6768  3.8143 -0.6375
 3710SOL     OW22591   4.488   4.371   0.979 -0.2310  0.3165 -0.2003
 3710SOL    HW122592   4.419   4.350   1.043  1.2446 -1.1239  0.9196
 3710SOL    HW222593   4.474   4.293   0.924  1.3447  0.4363 -0.7535
 3711SOL     OW22594   2.743   3.937   2.053 -0.0563  0.1915  0.5861
 3711SOL    HW122595   2.673   3.928   1.989 -0.6824  2.3864  0.9858
 3711SOL    HW222596   2.755   3.846   2.083 -1.4130  0.5034  2.0350
 3712SOL     OW22597   4.497   2.753  11.111  0.2632  0.4884 -0.3373
 3712SOL    HW122598   4.545   2.758  11.194 -0.3535 -0.7099  0.0906
 3712SOL    HW222599   4.511   2.661  11.090 -0.2622  0.4504 -0.5345
 3713SOL     OW22600   1.757   3.762   3.249 -0.2538  0.0979 -0.2629
 3713SOL    HW122601   1.706   3.700   3.301 -0.1722 -0.5573 -0.9718
 3713SOL    HW222602   1.783   3.711   3.173 -0.7831 -1.0933  0.3538
 3714SOL     OW22603   3.542   2.203   8.753 -0.2000 -0.2583  0.6201
 3714SOL    HW122604   3.581   2.185   8.668 -1.1788  0.3899  0.0416
 3714SOL    HW222605   3.580   2.136   8.811  1.8569 -0.3743 -0.8520
 3715SOL     OW22606   4.139   3.560   0.172  0.5308 -0.4455  0.2433
 3715SOL    HW122607   4.130   3.655   0.162  0.0090 -0.5469 -0.2206
 3715SOL    HW222608   4.138   3.561   0.268  0.9582 -0.7299  0.2494
 3716SOL     OW22609   0.217   2.250   2.724 -0.1582  0.0174  0.4293
 3716SOL    HW122610   0.165   2.325   2.752 -0.8264 -0.0515 -0.6028
 3716SOL    HW222611   0.145   2.191   2.704 -1.3326  1.2925  0.9192
 3717SOL     OW22612   1.619   1.614   4.573 -0.1290 -0.0097  0.2345
 3717SOL    HW122613   1.564   1.642   4.500  0.0252 -3.6560 -1.2768
 3717SOL    HW222614   1.674   1.550   4.527  0.4358  1.9025 -1.7504
 3718SOL     OW22615   3.855   2.837   0.556  0.1692  0.1184 -0.5572
 3718SOL    HW122616   3.803   2.904   0.601  1.2371  0.6671 -0.1505
 3718SOL    HW222617   3.806   2.758   0.579 -1.5913  0.3493 -3.5056
 3719SOL     OW22618   1.944   2.815   5.278  0.2190  0.1048 -0.8563
 3719SOL    HW122619   1.875   2.854   5.224  1.2213  3.2058  0.1095
 3719SOL    HW222620   1.970   2.884   5.338  1.1803 -1.6592  0.7460
 3720SOL     OW22621   2.136   0.256  13.763 -0.0583 -0.2136  0.3259
 3720SOL    HW122622   2.100   0.345  13.760  1.7319  0.5862  1.9464
 3720SOL    HW222623   2.212   0.263  13.705 -1.3517 -1.0567 -1.4470
 3721SOL     OW22624   3.717   1.554   4.897 -0.4326  0.0661 -0.4521
 3721SOL    HW122625   3.724   1.459   4.906 -0.3674  0.2257  1.2245
 3721SOL    HW222626   3.811   1.567   4.896 -0.4746  0.2997 -1.2363
 3722SOL     OW22627   0.660   4.259   7.456 -0.5878  0.5462 -0.0606
 3722SOL    HW122628   0.577   4.296   7.485  0.5160  2.1297  1.0464
 3722SOL    HW222629   0.707   4.337   7.425  0.8617 -0.4593 -0.3941
 3723SOL     OW22630   2.534   2.794   3.223 -0.4836 -0.7072  0.1768
 3723SOL    HW122631   2.479   2.742   3.164 -1.4267 -1.6887  1.9108
 3723SOL    HW222632   2.565   2.731   3.287 -0.2411 -1.7157 -0.9295
 3724SOL     OW22633   1.272   1.395   9.341  0.5741 -0.9761  0.0370
 3724SOL    HW122634   1.270   1.490   9.344  2.2265 -1.0146  2.3143
 3724SOL    HW222635   1.253   1.369   9.431 -0.2130  1.0359  0.4557
 3725SOL     OW22636   3.178   1.362  13.361  0.1887  0.4225 -0.2875
 3725SOL    HW122637   3.111   1.430  13.358  1.1833  1.4735  0.9570
 3725SOL    HW222638   3.184   1.349  13.455  1.1272 -1.4671 -0.6247
 3726SOL     OW22639   1.976   2.204  16.838 -0.2142  0.3394 -0.0776
 3726SOL    HW122640   2.067   2.201  16.808 -0.0859 -2.1985  0.6090
 3726SOL    HW222641   1.940   2.219  16.750  0.2289  3.2672  0.2461
 3727SOL     OW22642   3.347   2.051   2.026 -0.2539  0.0212  0.4759
 3727SOL    HW122643   3.305   2.133   2.049  1.2652  0.1768  2.7397
 3727SOL    HW222644   3.287   1.991   2.071  1.4688 -0.8082  1.6902
 3728SOL     OW22645   1.021   3.624   4.183 -0.4978  0.2909  0.1467
 3728SOL    HW122646   0.962   3.620   4.108  1.8146 -1.1729 -1.6392
 3728SOL    HW222647   1.051   3.533   4.191 -1.3734  0.1424  1.6753
 3729SOL     OW22648   4.682   2.124   8.180 -0.2196 -0.1283  0.1953
 3729SOL    HW122649   4.698   2.031   8.165 -2.8647 -0.7599  1.2886
 3729SOL    HW222650   0.025   2.140   8.245 -0.1163  3.2059 -0.7691
 3730SOL     OW22651   1.835   4.717   1.140  0.4316  0.2417  0.0287
 3730SOL    HW122652   1.861   4.725   1.232  0.4759 -3.3192  0.3375
 3730SOL    HW222653   1.749   4.676   1.144  0.4356  0.0880 -1.5227
 3731SOL     OW22654   0.201   0.752   5.582  0.4286 -0.1880 -0.4299
 3731SOL    HW122655   0.139   0.693   5.624 -0.8662  0.8420 -0.9175
 3731SOL    HW222656   0.206   0.711   5.495 -0.4284  1.3359 -1.1930
 3732SOL     OW22657   4.684   3.672  13.884 -0.0648  0.2698  0.1588
 3732SOL    HW122658   4.710   3.762  13.905 -0.9727  1.2622 -2.9848
 3732SOL    HW222659   4.723   3.623  13.956 -1.2750 -1.7692 -0.5708
 3733SOL     OW22660   1.333   4.313  13.860 -0.2622 -0.1254  0.1631
 3733SOL    HW122661   1.404   4.325  13.923 -0.4139 -0.1946  0.3457
 3733SOL    HW222662   1.250   4.313  13.908 -0.8788 -1.6592 -0.9168
 3734SOL     OW22663   4.396   2.680  17.676 -0.2961  0.4391 -0.1490
 3734SOL    HW122664   4.397   2.771  17.645 -1.1352  0.2500 -0.7186
 3734SOL    HW222665   4.469   2.671   0.032 -3.4923 -0.8457  3.4125
 3735SOL     OW22666   1.429   4.144   7.881 -0.4904 -0.4653  0.7497
 3735SOL    HW122667   1.481   4.064   7.888 -0.3923 -0.5721 -1.4673
 3735SOL    HW222668   1.446   4.182   7.968 -3.3052 -0.4944  1.3224
 3736SOL     OW22669   2.724   4.136   4.756  0.0752 -0.0819 -0.1680
 3736SOL    HW122670   2.752   4.182   4.835 -1.0594 -0.5927  0.5278
 3736SOL    HW222671   2.788   4.066   4.761 -0.2893 -0.3354  1.0111
 3737SOL     OW22672   0.450   3.944  15.092 -0.4436  0.3545 -0.5288
 3737SOL    HW122673   0.466   4.036  15.071 -0.6322  0.5483  0.1792
 3737SOL    HW222674   0.383   3.954  15.159 -0.3499  0.1441 -0.4032
 3738SOL     OW22675   2.228   1.817  16.447 -0.6633  1.4682 -0.0702
 3738SOL    HW122676   2.178   1.868  16.512  2.1982  3.0794  0.8571
 3738SOL    HW222677   2.200   1.727  16.466  0.2170  1.7036  2.4752
 3739SOL     OW22678   1.323   3.814   1.083 -0.1173  0.5862  0.0567
 3739SOL    HW122679   1.313   3.902   1.119  1.0060  0.2711  1.1669
 3739SOL    HW222680   1.230   3.806   1.060  0.0113  3.1559 -1.3186
 3740SOL     OW22681   3.545   0.412   9.444 -0.5012 -0.0852 -0.3034
 3740SOL    HW122682   3.471   0.355   9.463 -0.3912 -0.3520 -0.6795
 3740SOL    HW222683   3.600   0.350   9.397 -1.0886 -0.2437 -0.7859
 3741SOL     OW22684   4.534   0.302  12.242 -0.1651 -0.5705  0.0830
 3741SOL    HW122685   4.618   0.305  12.289 -0.4926 -1.3285  0.7061
 3741SOL    HW222686   4.468   0.315  12.310 -1.2114  1.5967 -1.3225
 3742SOL     OW22687   1.445   2.782  12.037 -0.2841  0.3344 -0.3770
 3742SOL    HW122688   1.467   2.741  11.953  0.7397 -0.8395  0.4642
 3742SOL    HW222689   1.516   2.766  12.098 -0.5402 -1.7617 -0.6060
 3743SOL     OW22690   2.031   1.277  11.127 -0.1203 -0.4985  0.3850
 3743SOL    HW122691   1.986   1.360  11.108  1.3495  0.6333  1.9466
 3743SOL    HW222692   1.969   1.239  11.189  0.2100  0.1424  1.1003
 3744SOL     OW22693   3.027   2.488   3.297 -0.5863  0.0939  0.0930
 3744SOL    HW122694   3.024   2.520   3.387  2.5353 -1.0715  0.6159
 3744SOL    HW222695   3.118   2.508   3.273 -0.7815 -0.4483 -1.1000
 3745SOL     OW22696   3.724   0.065   3.014 -0.6002  0.0963  0.5121
 3745SOL    HW122697   3.709   0.159   3.004 -0.0561  0.1409  0.1103
 3745SOL    HW222698   3.731   0.051   3.109 -2.6543 -0.5446  0.5568
 3746SOL     OW22699   3.735   4.533   6.907  0.6117 -0.1458 -0.7149
 3746SOL    HW122700   3.694   4.619   6.907 -0.0443 -0.4584 -3.1194
 3746SOL    HW222701   3.737   4.516   7.001  0.2618 -1.9726 -1.0410
 3747SOL     OW22702   4.568   0.361   4.462 -0.1468  0.0342 -1.0066
 3747SOL    HW122703   4.479   0.389   4.443  0.2037  0.4977 -1.9605
 3747SOL    HW222704   4.562   0.268   4.483 -0.5839  0.0483 -1.0752
 3748SOL     OW22705   1.560   1.837   2.499 -0.3807 -0.3465 -1.0033
 3748SOL    HW122706   1.593   1.835   2.409  0.3502 -1.3451 -0.7165
 3748SOL    HW222707   1.562   1.742   2.515 -2.1489 -0.1980  0.1053
 3749SOL     OW22708   2.002   0.383   9.306 -0.1770 -0.2786 -0.0383
 3749SOL    HW122709   2.083   0.434   9.302  0.8506 -1.8619  0.4494
 3749SOL    HW222710   1.951   0.420   9.234  2.0867  2.3352 -0.2983
 3750SOL     OW22711   3.299   0.306   4.603 -0.2917 -0.4646  0.0106
 3750SOL    HW122712   3.218   0.261   4.624 -0.5575  0.4927  1.0121
 3750SOL    HW222713   3.351   0.227   4.587  0.8482  0.0197  1.3468
 3751SOL     OW22714   0.634   3.890  15.287  0.2446  0.1051  0.3965
 3751SOL    HW122715   0.564   3.870  15.225  0.3635 -0.3561  0.4081
 3751SOL    HW222716   0.675   3.966  15.247 -2.1241  0.4714 -1.3317
 3752SOL     OW22717   0.895   2.545  10.594 -0.2538  0.0064  0.0287
 3752SOL    HW122718   0.889   2.465  10.541 -0.6991 -0.5883  0.9688
 3752SOL    HW222719   0.946   2.605  10.541 -0.5764 -1.9119 -2.4703
 3753SOL     OW22720   3.112   3.112   0.212 -0.0577  0.3180  0.1827
 3753SOL    HW122721   3.029   3.115   0.163  0.3131 -0.0598 -0.4690
 3753SOL    HW222722   3.124   3.019   0.229 -0.1704  0.0519 -1.1714
 3754SOL     OW22723   0.234   0.462   1.827  0.4247  0.5117  0.1506
 3754SOL    HW122724   0.241   0.525   1.899 -1.9410  1.2697 -0.2757
 3754SOL    HW222725   0.155   0.413   1.850  1.4425 -0.2458  1.9596
 3755SOL     OW22726   3.830   0.563   5.425 -0.3357 -0.2757 -0.0725
 3755SOL    HW122727   3.863   0.585   5.512 -3.3346  1.1694  0.7095
 3755SOL    HW222728   3.754   0.513   5.454 -1.0113  1.8464  1.8030
 3756SOL     OW22729   1.942   1.434   8.347  0.0608 -0.3424  0.8478
 3756SOL    HW122730   1.853   1.438   8.312  1.0839  1.3837 -1.5351
 3756SOL    HW222731   1.995   1.482   8.283 -0.8335  0.5429  0.7575
 3757SOL     OW22732   0.309   2.388   6.893 -0.0557  0.0317  0.1601
 3757SOL    HW122733   0.252   2.386   6.816 -0.0647  1.7567  0.1162
 3757SOL    HW222734   0.313   2.297   6.922  0.4101  0.8036  2.4965
 3758SOL     OW22735   0.916   1.665  14.901  0.2261  0.0093  0.2273
 3758SOL    HW122736   0.959   1.681  14.985 -0.4987  1.8485  0.2447
 3758SOL    HW222737   0.869   1.584  14.922  0.8452 -0.4984 -0.3265
 3759SOL     OW22738   1.772   1.319   6.293  0.0612  0.0920 -0.3834
 3759SOL    HW122739   1.732   1.378   6.357 -1.2444 -0.8672 -0.3130
 3759SOL    HW222740   1.706   1.250   6.303  1.6055 -1.0837  1.6078
 3760SOL     OW22741   2.545   4.467   0.805  0.0073 -0.8044 -0.2514
 3760SOL    HW122742   2.469   4.521   0.784  0.0024 -0.3253  1.0315
 3760SOL    HW222743   2.594   4.489   0.726  1.9911  2.7138  1.9594
 3761SOL     OW22744   0.552   0.697   2.493 -0.1451  0.6010 -0.0353
 3761SOL    HW122745   0.530   0.684   2.585  0.3283 -0.7918 -0.1208
 3761SOL    HW222746   0.639   0.658   2.482  0.2024  1.3153  0.1979
 3762SOL     OW22747   0.254   0.642   2.995  0.0195  0.3686 -0.5757
 3762SOL    HW122748   0.265   0.726   2.951 -0.3455  1.1001  0.7474
 3762SOL    HW222749   0.199   0.670   3.069  2.3835  0.7011  1.0335
 3763SOL     OW22750   3.449   0.168   2.994  0.1497  0.0020  0.5807
 3763SOL    HW122751   3.417   0.193   3.081  0.3074  3.5553 -0.3565
 3763SOL    HW222752   3.526   0.224   2.990  0.5022 -0.5676 -0.5053
 3764SOL     OW22753   4.702   3.476   4.555  0.7309  0.1267  0.4556
 3764SOL    HW122754   4.635   3.452   4.619 -0.9106 -0.1818 -1.3904
 3764SOL    HW222755   4.669   3.553   4.510 -1.7608 -0.4661  1.2819
 3765SOL     OW22756   2.255   0.221   5.614  0.1172  0.3264  0.1940
 3765SOL    HW122757   2.167   0.192   5.589  0.1411  0.3494  0.0835
 3765SOL    HW222758   2.294   0.225   5.527 -1.0807  0.4349 -0.3400
 3766SOL     OW22759   0.455   1.566   5.935  0.1162 -0.0394 -0.1475
 3766SOL    HW122760   0.545   1.557   5.966 -0.1195 -2.0417 -0.0643
 3766SOL    HW222761   0.441   1.661   5.937 -1.1971 -0.2170 -0.8507
 3767SOL     OW22762   0.219   0.165   6.284  0.3853  0.4339 -0.5026
 3767SOL    HW122763   0.228   0.114   6.204 -1.8383  0.8796 -1.0316
 3767SOL    HW222764   0.173   0.243   6.253  2.4543  1.8695 -0.0328
 3768SOL     OW22765   1.128   3.300   3.847 -0.2940 -0.6449 -0.0549
 3768SOL    HW122766   1.195   3.232   3.838 -0.0465 -0.3708 -0.2898
 3768SOL    HW222767   1.169   3.367   3.902  0.2430  0.2788 -1.5779
 3769SOL     OW22768   1.998   4.687   8.726 -0.7842 -0.4812 -0.3612
 3769SOL    HW122769   1.919   0.008   8.700 -0.6531  0.1750  0.4480
 3769SOL    HW222770   2.037   0.025   8.786 -0.0585  0.8544 -2.2424
 3770SOL     OW22771   3.384   2.863   5.605 -0.3878 -0.2103  0.2084
 3770SOL    HW122772   3.326   2.834   5.676 -2.2985  1.1638 -0.8044
 3770SOL    HW222773   3.395   2.783   5.554  0.6631  0.8805 -1.2653
 3771SOL     OW22774   1.862   0.524  12.983 -0.1174  0.3306 -0.2376
 3771SOL    HW122775   1.790   0.581  12.954  0.5969  2.2352  1.7647
 3771SOL    HW222776   1.816   0.444  13.007  1.2611 -0.4092 -0.0751
 3772SOL     OW22777   4.532   2.775  10.792 -0.2865  0.0027  0.3652
 3772SOL    HW122778   4.511   2.733  10.875 -3.1896  1.4856  0.3882
 3772SOL    HW222779   4.450   2.820  10.769  0.3728  0.7501 -0.5176
 3773SOL     OW22780   0.601   3.568   8.578 -0.5474 -0.4173  0.0896
 3773SOL    HW122781   0.564   3.656   8.586  0.1709 -0.0802 -0.2793
 3773SOL    HW222782   0.531   3.523   8.624 -1.2088  0.5525  0.0241
 3774SOL     OW22783   0.641   1.105  13.442  0.0624  0.1035  0.3598
 3774SOL    HW122784   0.693   1.163  13.499  2.8604 -1.3814 -0.7228
 3774SOL    HW222785   0.663   1.158  13.365 -0.4106 -2.1998 -1.3481
 3775SOL     OW22786   3.717   1.601   9.675  0.0257  0.0114 -0.2429
 3775SOL    HW122787   3.773   1.550   9.616 -2.7207 -2.7597 -0.4338
 3775SOL    HW222788   3.754   1.689   9.667 -0.0323  0.2097  1.6961
 3776SOL     OW22789   2.738   2.448  17.626 -0.0583  0.5383 -0.3378
 3776SOL    HW122790   2.656   2.439  17.577 -1.0794  0.4410  1.4284
 3776SOL    HW222791   2.791   2.499  17.564  1.2382 -1.6082 -0.9816
 3777SOL     OW22792   0.272   3.020   5.976  0.1381 -0.0622  0.0048
 3777SOL    HW122793   0.247   3.071   6.053  2.4264  0.5499  0.3416
 3777SOL    HW222794   0.332   3.083   5.938 -1.9402  2.8760  1.6491
 3778SOL     OW22795   0.541   2.556   8.598  0.0650 -0.1732  0.4788
 3778SOL    HW122796   0.627   2.537   8.635  0.9907  0.3659 -1.3991
 3778SOL    HW222797   0.488   2.558   8.678 -0.0157  0.7886  0.4017
 3779SOL     OW22798   0.036   3.146   1.550 -0.2536  0.3574 -0.1873
 3779SOL    HW122799   0.062   3.080   1.486 -0.0120  0.8071 -0.5559
 3779SOL    HW222800   0.120   3.189   1.567  0.4770 -0.7190 -1.0930
 3780SOL     OW22801   1.189   0.447  12.832  0.3908  0.1501 -0.3915
 3780SOL    HW122802   1.211   0.436  12.925 -1.6227  0.7587  0.1614
 3780SOL    HW222803   1.188   0.542  12.827 -0.6107  0.1151 -0.8641
 3781SOL     OW22804   1.111   2.053   4.867 -0.2190  0.1790  0.4019
 3781SOL    HW122805   1.128   2.126   4.927  1.7310  0.1070 -0.0681
 3781SOL    HW222806   1.045   2.009   4.921 -0.2274 -0.0968  0.1676
 3782SOL     OW22807   2.178   0.937   3.361 -0.2062  0.5447 -0.0772
 3782SOL    HW122808   2.110   0.880   3.326  0.3661 -1.7877  2.5730
 3782SOL    HW222809   2.187   0.916   3.454  4.7501 -0.4057 -0.8076
 3783SOL     OW22810   1.754   4.378  14.101 -0.3358  0.1755  0.6132
 3783SOL    HW122811   1.805   4.309  14.145 -1.0731 -0.5339  0.3538
 3783SOL    HW222812   1.694   4.397  14.173 -1.3645  0.9797 -0.4536
 3784SOL     OW22813   3.018   2.826   2.192 -0.1574  0.2145  0.3691
 3784SOL    HW122814   2.999   2.790   2.278  1.2024  2.8815  1.7716
 3784SOL    HW222815   3.041   2.918   2.206  2.6073 -0.0734 -2.3015
 3785SOL     OW22816   0.669   0.547   1.843  0.0658 -0.2659 -0.4916
 3785SOL    HW122817   0.760   0.547   1.812 -0.2417 -0.1394 -1.3989
 3785SOL    HW222818   0.643   0.632   1.808  3.8452  0.5033 -1.4572
 3786SOL     OW22819   1.187   3.365   5.619 -0.3749 -0.4821 -0.6911
 3786SOL    HW122820   1.172   3.356   5.525 -0.3190  0.1245 -0.7585
 3786SOL    HW222821   1.149   3.452   5.635  0.3741 -0.3826  0.5613
 3787SOL     OW22822   1.001   3.463  15.528  0.0746 -0.2239  0.0100
 3787SOL    HW122823   1.011   3.540  15.584 -0.4808 -0.0737 -0.0955
 3787SOL    HW222824   0.923   3.482  15.476 -0.7348  1.2769  1.8038
 3788SOL     OW22825   2.790   0.279   3.371  0.1011  0.0338 -0.0839
 3788SOL    HW122826   2.859   0.271   3.436 -2.0194 -1.2014  2.0337
 3788SOL    HW222827   2.802   0.204   3.312  0.3902  1.2663 -1.5864
 3789SOL     OW22828   0.937   4.189   2.345  0.0448  0.3672 -0.2589
 3789SOL    HW122829   1.010   4.128   2.340  0.5669  0.8410  1.5266
 3789SOL    HW222830   0.968   4.273   2.311  1.0789  0.7385  1.6006
 3790SOL     OW22831   2.407   4.640  12.725  0.3767 -0.3442 -0.5601
 3790SOL    HW122832   2.312   4.640  12.712  0.1651  2.4121  0.8898
 3790SOL    HW222833   2.408   4.606  12.815  0.6026 -3.6788 -1.8421
 3791SOL     OW22834   0.771   1.287   6.978 -0.7742 -0.1018  0.2389
 3791SOL    HW122835   0.866   1.291   6.986 -0.6783 -0.8202 -0.5304
 3791SOL    HW222836   0.766   1.231   6.901 -1.2045 -0.3988  0.4805
 3792SOL     OW22837   3.855   4.133   4.230 -0.0994  0.4814  0.1160
 3792SOL    HW122838   3.851   4.062   4.167  0.9091  0.0512  0.5434
 3792SOL    HW222839   3.877   4.086   4.310  0.4118 -2.7924 -1.9780
 3793SOL     OW22840   3.342   3.969   4.164  0.0216 -0.7798 -0.2617
 3793SOL    HW122841   3.382   3.946   4.080 -2.6201  1.0394 -2.0265
 3793SOL    HW222842   3.422   3.989   4.213  0.4464 -1.4588 -0.6749
 3794SOL     OW22843   0.763   2.875   3.127 -0.6722 -0.0165 -0.5498
 3794SOL    HW122844   0.713   2.924   3.061  0.0899 -0.2378 -1.2820
 3794SOL    HW222845   0.709   2.796   3.128  0.4383 -0.7661 -0.0982
 3795SOL     OW22846   0.688   1.081   7.644  0.1774 -0.5180 -0.2698
 3795SOL    HW122847   0.606   1.038   7.668  0.0858 -0.8993 -1.2341
 3795SOL    HW222848   0.755   1.014   7.628 -1.3362 -2.3761  1.0823
 3796SOL     OW22849   4.223   4.280   1.614 -0.1644 -0.5812  0.4894
 3796SOL    HW122850   4.268   4.250   1.535 -2.0458  0.4732 -0.9974
 3796SOL    HW222851   4.202   4.370   1.588  0.1451 -0.5221  0.4539
 3797SOL     OW22852   0.169   3.881   2.443 -0.3465 -0.2032  0.0764
 3797SOL    HW122853   0.140   3.941   2.512  0.9643 -1.1904  1.5097
 3797SOL    HW222854   0.116   3.806   2.472  0.6476 -1.2047 -0.6805
 3798SOL     OW22855   3.907   1.399   6.349 -0.6225  0.0779 -0.3335
 3798SOL    HW122856   3.949   1.446   6.278 -0.5148 -2.2077 -1.7926
 3798SOL    HW222857   3.937   1.446   6.427 -0.0891  3.4069 -2.5820
 3799SOL     OW22858   4.420   2.591   5.211 -0.3712 -0.4145  0.1038
 3799SOL    HW122859   4.359   2.557   5.276  0.2889 -1.0934  0.3695
 3799SOL    HW222860   4.484   2.520   5.211  0.4888  0.3517  0.7884
 3800SOL     OW22861   4.404   0.510   3.716 -0.0400 -0.0772 -0.5689
 3800SOL    HW122862   4.457   0.433   3.737  1.0887  1.1786  1.1985
 3800SOL    HW222863   4.461   0.565   3.663  1.1195 -1.4730 -0.7804
 3801SOL     OW22864   4.602   2.919   8.679 -0.1928 -0.2164 -0.2653
 3801SOL    HW122865   4.557   2.883   8.602  0.6766  0.8613 -1.2710
 3801SOL    HW222866   4.559   2.875   8.752 -0.5018 -0.1932 -0.4301
 3802SOL     OW22867   2.764   1.672   2.922  0.0688 -0.7634 -0.3971
 3802SOL    HW122868   2.680   1.698   2.960 -0.1165 -1.3996 -0.3728
 3802SOL    HW222869   2.717   1.611   2.866 -2.2597  1.9675 -1.4432
 3803SOL     OW22870   0.865   0.919   6.960 -0.4063 -0.0801 -0.8054
 3803SOL    HW122871   0.911   0.837   6.977 -1.2719 -0.8343 -2.1263
 3803SOL    HW222872   0.861   0.963   7.045  1.8503 -1.6817  0.1284
 3804SOL     OW22873   0.469   0.700  15.566 -0.1819  0.1048 -0.1442
 3804SOL    HW122874   0.536   0.753  15.609 -0.5784  0.6056 -0.1586
 3804SOL    HW222875   0.401   0.698  15.633 -0.8740  0.0585 -0.8488
 3805SOL     OW22876   1.902   4.498   8.194 -0.6839 -0.0025  0.7617
 3805SOL    HW122877   1.967   4.566   8.181  0.1540 -0.5771  1.8888
 3805SOL    HW222878   1.883   4.522   8.284  1.3299  0.1578  1.1384
 3806SOL     OW22879   2.660   0.891  13.182  0.0306 -0.8431  0.7940
 3806SOL    HW122880   2.615   0.918  13.102  3.0126  2.9032  0.4290
 3806SOL    HW222881   2.614   0.936  13.253 -0.0576 -1.1280  0.9220
 3807SOL     OW22882   4.600   0.828   6.158 -0.1119  0.3078  0.3364
 3807SOL    HW122883   4.669   0.768   6.186  0.0278  0.5026  0.4066
 3807SOL    HW222884   4.526   0.781   6.195  0.5623  0.2699  1.6338
 3808SOL     OW22885   3.612   3.363   2.406  0.0576 -0.1126 -0.4142
 3808SOL    HW122886   3.539   3.302   2.412  0.4514 -0.5367  0.1999
 3808SOL    HW222887   3.593   3.426   2.476  2.4698  1.3646 -1.0814
 3809SOL     OW22888   2.651   3.494   6.953 -0.4681  0.0318  0.3289
 3809SOL    HW122889   2.638   3.528   6.864 -3.0421 -2.8734 -0.4156
 3809SOL    HW222890   2.744   3.502   6.971 -0.5549  1.8905 -0.0150
 3810SOL     OW22891   0.915   4.174  11.000  0.0269 -0.2498  0.0231
 3810SOL    HW122892   0.887   4.086  10.974  4.2297 -0.9994 -1.8560
 3810SOL    HW222893   0.973   4.157  11.074 -0.4790 -2.7974 -0.1512
 3811SOL     OW22894   1.823   1.393   7.286  0.0055 -0.4225  0.2830
 3811SOL    HW122895   1.903   1.445   7.277  0.4709 -1.5329 -1.9540
 3811SOL    HW222896   1.764   1.439   7.347  0.2347 -1.4120  1.2635
 3812SOL     OW22897   4.499   2.822   8.438  0.0146  0.3962  0.5091
 3812SOL    HW122898   4.412   2.799   8.403  0.3555  0.5745 -0.4710
 3812SOL    HW222899   4.549   2.743   8.417 -0.1064  0.7414 -1.0852
 3813SOL     OW22900   2.812   0.406  13.478  0.3519 -0.3738 -0.2554
 3813SOL    HW122901   2.807   0.473  13.410 -2.4607  0.1902  0.4934
 3813SOL    HW222902   2.877   0.345  13.443  1.9047  1.0145  0.1580
 3814SOL     OW22903   4.359   3.577   3.482  0.0875  0.3215 -0.0364
 3814SOL    HW122904   4.373   3.483   3.493  1.8096  0.6830  0.9433
 3814SOL    HW222905   4.285   3.600   3.538  0.0794 -0.8932  0.4652
 3815SOL     OW22906   2.716   2.055  17.556  0.6074 -0.6928  0.1997
 3815SOL    HW122907   2.752   1.999  17.487 -1.4625 -1.1430 -0.5205
 3815SOL    HW222908   2.782   2.054  17.624 -0.1351  3.6134  0.9593
 3816SOL     OW22909   0.319   1.776   8.290 -0.1893 -0.1053 -0.2495
 3816SOL    HW122910   0.325   1.697   8.345  2.7854 -0.9326 -1.7812
 3816SOL    HW222911   0.407   1.769   8.254  0.4330 -2.2712  1.6827
 3817SOL     OW22912   4.233   2.171   3.290 -0.2934  0.3072 -0.0886
 3817SOL    HW122913   4.158   2.183   3.231 -0.3587  0.7585  0.0816
 3817SOL    HW222914   4.218   2.078   3.307 -2.4965  1.0105  1.9032
 3818SOL     OW22915   2.884   0.517   5.479  0.5077 -0.9935  0.1180
 3818SOL    HW122916   2.825   0.448   5.447 -0.4618  0.5088 -1.3433
 3818SOL    HW222917   2.923   0.544   5.396 -2.6309  1.1691 -0.6673
 3819SOL     OW22918   0.380   3.185   5.723 -0.3876 -0.3327  0.4366
 3819SOL    HW122919   0.444   3.244   5.682 -1.0074  0.0687  0.0546
 3819SOL    HW222920   0.422   3.107   5.687 -0.7491  0.1041 -0.9633
 3820SOL     OW22921   0.533   2.661  10.917 -0.3102 -0.1292 -0.6560
 3820SOL    HW122922   0.552   2.629  10.829  0.6608  0.2894 -0.6023
 3820SOL    HW222923   0.440   2.636  10.920 -0.4120  0.0523 -2.7013
 3821SOL     OW22924   0.382   0.459   5.767 -0.2836 -0.5502  0.2913
 3821SOL    HW122925   0.294   0.465   5.804 -0.3130  2.7398 -0.3150
 3821SOL    HW222926   0.416   0.395   5.830  1.2805  1.7863  1.8140
 3822SOL     OW22927   4.491   0.239   2.198 -0.6974  0.7630  0.1531
 3822SOL    HW122928   4.499   0.218   2.291  0.6517 -0.2630 -0.1899
 3822SOL    HW222929   4.403   0.203   2.185 -0.7098  1.2362 -1.0798
 3823SOL     OW22930   3.166   0.867   3.832  0.2113  0.2443  0.7503
 3823SOL    HW122931   3.115   0.947   3.822  0.2563  0.0755 -0.9374
 3823SOL    HW222932   3.205   0.878   3.919  2.5808 -1.3783 -0.0810
 3824SOL     OW22933   0.019   1.947   7.435 -0.1756  0.2063  0.1063
 3824SOL    HW122934   4.717   1.857   7.419 -0.1481  0.1642  0.2978
 3824SOL    HW222935   0.114   1.937   7.427 -0.3344 -2.4690  1.2955
 3825SOL     OW22936   4.211   0.136   4.604  0.1842  0.1937  0.1730
 3825SOL    HW122937   4.182   0.046   4.613  0.6392  0.1145  0.8413
 3825SOL    HW222938   4.134   0.169   4.557 -1.0087 -1.6424  0.8445
 3826SOL     OW22939   3.014   0.879   6.558 -0.1755  0.2491 -0.4157
 3826SOL    HW122940   3.088   0.818   6.558  0.3024  0.8438  2.0309
 3826SOL    HW222941   2.942   0.825   6.526 -1.3628  1.8454 -0.4194
 3827SOL     OW22942   0.129   0.224   8.768 -0.2429 -0.7805  0.2123
 3827SOL    HW122943   0.168   0.306   8.797  0.6004 -0.7455 -1.0086
 3827SOL    HW222944   0.139   0.180   8.852  2.4276  0.7739  0.7008
 3828SOL     OW22945   4.442   1.611   9.411  0.3108  0.5148  0.0164
 3828SOL    HW122946   4.498   1.544   9.448 -1.8175 -0.8337  0.7892
 3828SOL    HW222947   4.403   1.555   9.344  3.1298 -0.8291 -0.4750
 3829SOL     OW22948   1.001   4.212   3.926  0.5316 -0.2457 -0.3948
 3829SOL    HW122949   0.955   4.277   3.979 -1.4718 -0.1801 -2.1917
 3829SOL    HW222950   1.044   4.158   3.992  0.2447  1.6495  1.3469
 3830SOL     OW22951   3.969   2.322   3.943  0.2045 -0.7917 -0.2087
 3830SOL    HW122952   3.879   2.337   3.972  0.1014 -1.0930 -0.3730
 3830SOL    HW222953   3.974   2.227   3.949  0.3714 -0.7432  0.4793
 3831SOL     OW22954   4.529   3.419   0.902  0.5091  0.3215 -0.3043
 3831SOL    HW122955   4.571   3.481   0.963 -0.0141 -0.4927  0.8697
 3831SOL    HW222956   4.440   3.447   0.922  0.6814  1.3987 -1.0318
 3832SOL     OW22957   0.574   0.355   9.286 -0.0429  0.1091 -0.5224
 3832SOL    HW122958   0.554   0.378   9.377 -1.6735  1.5497 -1.2621
 3832SOL    HW222959   0.660   0.396   9.273  1.3542 -3.0259 -1.3637
 3833SOL     OW22960   0.728   3.470   5.949  0.1626 -0.3266  1.0103
 3833SOL    HW122961   0.777   3.502   5.873  0.0848  2.2504  2.0339
 3833SOL    HW222962   0.718   3.555   5.992  0.5189 -0.7639  1.9511
 3834SOL     OW22963   2.315   1.209   7.489 -0.2648 -0.3782  0.4750
 3834SOL    HW122964   2.376   1.159   7.436 -0.1311 -0.2224  0.4828
 3834SOL    HW222965   2.358   1.230   7.572 -0.2383  0.5260  0.2378
 3835SOL     OW22966   2.579   1.037   8.454  0.2009 -0.4862 -0.7412
 3835SOL    HW122967   2.549   1.046   8.545 -1.0794 -1.9087 -1.0211
 3835SOL    HW222968   2.641   0.964   8.455  2.5075  1.5674  2.2531
 3836SOL     OW22969   1.803   3.730   2.665 -0.0204  0.9936  0.1143
 3836SOL    HW122970   1.882   3.753   2.615 -0.3300  2.0202  0.0970
 3836SOL    HW222971   1.736   3.707   2.601  0.2723 -0.4321  0.3230
 3837SOL     OW22972   2.800   4.265   8.014 -0.8724  0.3907 -0.0740
 3837SOL    HW122973   2.736   4.333   7.994 -0.6840  0.1585 -1.4986
 3837SOL    HW222974   2.753   4.198   8.063 -0.4889  0.0139 -0.2195
 3838SOL     OW22975   4.248   3.366  13.670 -0.5957  0.2502 -0.3879
 3838SOL    HW122976   4.272   3.290  13.722  1.3342  0.4427 -0.9997
 3838SOL    HW222977   4.153   3.373  13.678 -0.7110 -1.2935 -0.3322
 3839SOL     OW22978   2.640   1.438   4.039  0.5136  0.0902 -0.0980
 3839SOL    HW122979   2.584   1.494   4.092 -0.5482  2.0710 -3.2907
 3839SOL    HW222980   2.721   1.488   4.050 -1.2250  3.2118 -1.4557
 3840SOL     OW22981   2.292   0.035   4.244 -0.1239 -0.6202  0.2122
 3840SOL    HW122982   2.205   0.062   4.215 -1.0753  0.7110  4.2794
 3840SOL    HW222983   2.338   0.119   4.248  1.6270 -1.6159  0.8735
 3841SOL     OW22984   0.973   3.648  16.834 -0.7525  0.1598  0.3548
 3841SOL    HW122985   1.046   3.647  16.772 -0.3387  1.5504  0.8156
 3841SOL    HW222986   1.023   3.658  16.915  0.2075  2.3230 -0.5006
 3842SOL     OW22987   4.194   2.494   0.548  0.7129  0.1638  0.7995
 3842SOL    HW122988   4.147   2.472   0.467  1.3725  0.0880  0.4407
 3842SOL    HW222989   4.277   2.450   0.530 -0.3330 -0.4274 -2.6380
 3843SOL     OW22990   4.088   2.379   6.631  0.1781  0.3017 -0.2926
 3843SOL    HW122991   4.063   2.398   6.541 -1.5858 -1.5375 -0.1910
 3843SOL    HW222992   4.004   2.352   6.670  0.7692  0.9411  1.4464
 3844SOL     OW22993   1.962   2.079   4.856  0.5365 -0.3562  0.4388
 3844SOL    HW122994   1.876   2.037   4.862 -0.2967  1.1032 -1.3701
 3844SOL    HW222995   1.999   2.021   4.790  1.2056  1.0540 -0.4133
 3845SOL     OW22996   1.203   4.206  11.469  0.7063 -0.2421  0.3361
 3845SOL    HW122997   1.209   4.301  11.477  1.2817  0.0130 -3.2495
 3845SOL    HW222998   1.119   4.192  11.513  1.0351 -1.9166  0.4321
 3846SOL     OW22999   3.372   3.358   5.519 -0.2107 -0.0490  0.0277
 3846SOL    HW123000   3.279   3.372   5.502 -0.1257 -0.3980 -0.7234
 3846SOL    HW223001   3.372   3.319   5.607  2.7315  1.7615  0.8360
 3847SOL     OW23002   1.898   2.231   2.512  0.8503 -0.3157  0.2184
 3847SOL    HW123003   1.932   2.319   2.526 -0.9578  0.2059  1.2093
 3847SOL    HW223004   1.816   2.249   2.557 -0.2359 -0.7814 -1.5642
 3848SOL     OW23005   2.937   2.469   5.995 -0.9520  0.1162  0.1900
 3848SOL    HW123006   2.854   2.442   5.957 -1.2517  0.9925  0.2355
 3848SOL    HW223007   2.917   2.445   6.086  1.4427 -3.1680 -0.1628
 3849SOL     OW23008   1.480   3.666  17.012 -0.2246  0.1093 -0.9106
 3849SOL    HW123009   1.501   3.578  16.981  0.7280  0.3056 -0.8131
 3849SOL    HW223010   1.567   3.705  17.010  0.6092 -1.5869  1.6791
 3850SOL     OW23011   2.684   1.559   7.451 -0.5395  0.1713  0.1200
 3850SOL    HW123012   2.751   1.507   7.407 -0.9327  0.3971 -0.7396
 3850SOL    HW223013   2.707   1.642   7.409  1.2578  0.0286  0.8214
 3851SOL     OW23014   3.772   0.812   0.047  0.0601  0.1040 -0.0638
 3851SOL    HW123015   3.694   0.829  17.700  0.5040  0.6950 -0.5298
 3851SOL    HW223016   3.824   0.771  17.684 -0.2516  0.9960 -0.8375
 3852SOL     OW23017   3.438   1.875   2.576 -0.0039  0.1385  0.3672
 3852SOL    HW123018   3.498   1.820   2.526  0.9818  0.3652  1.3046
 3852SOL    HW223019   3.494   1.932   2.628  1.3984  1.2267 -2.3726
 3853SOL     OW23020   1.687   3.311   6.966 -0.3308 -0.0445 -0.1544
 3853SOL    HW123021   1.630   3.385   6.986 -0.8392 -0.2853 -0.7051
 3853SOL    HW223022   1.675   3.252   7.041  2.2446 -1.7464 -1.1023
 3854SOL     OW23023   0.872   1.058   8.935 -0.0531 -0.1108  0.1828
 3854SOL    HW123024   0.817   1.095   9.004 -0.1672  0.2543 -0.1053
 3854SOL    HW223025   0.918   1.141   8.922  0.5654 -0.6332 -1.0433
 3855SOL     OW23026   3.250   3.525   2.506  0.9696  0.0689 -0.5819
 3855SOL    HW123027   3.247   3.561   2.595 -1.7807  0.9453 -1.0194
 3855SOL    HW223028   3.308   3.587   2.463  1.3217  0.9258  1.1183
 3856SOL     OW23029   1.675   0.626   7.239 -0.6745  0.8330 -0.2469
 3856SOL    HW123030   1.754   0.644   7.188 -0.3684  0.5310  0.1212
 3856SOL    HW223031   1.636   0.552   7.193  2.3551 -0.8451 -0.1072
 3857SOL     OW23032   4.651   2.084   7.176 -0.4649  0.8621  0.2152
 3857SOL    HW123033   4.649   2.144   7.251 -2.0730  1.8817 -0.6216
 3857SOL    HW223034   4.577   2.026   7.195 -1.5147  2.4069  0.8702
 3858SOL     OW23035   0.843   3.254   7.832  0.3385 -0.0138  0.3814
 3858SOL    HW123036   0.749   3.259   7.845  0.4704 -0.6328  1.5139
 3858SOL    HW223037   0.871   3.270   7.922  0.0927  0.6107  0.3461
 3859SOL     OW23038   4.140   3.972   7.405  0.1689  0.5523 -0.0231
 3859SOL    HW123039   4.176   3.920   7.477 -0.9088 -0.3324 -0.1319
 3859SOL    HW223040   4.209   3.986   7.340  1.4877  1.2228  1.5163
 3860SOL     OW23041   0.582   4.491  14.982  0.0238 -0.5908 -0.0765
 3860SOL    HW123042   0.657   4.527  14.935 -1.8946  0.5911 -2.2411
 3860SOL    HW223043   0.594   4.516  15.074 -0.2728 -0.4830 -0.0679
 3861SOL     OW23044   4.468   0.875   2.179 -0.1855 -0.4426 -0.4239
 3861SOL    HW123045   4.532   0.873   2.108 -1.2150 -1.3832 -1.3346
 3861SOL    HW223046   4.438   0.784   2.186  2.8268 -1.3127  1.0857
 3862SOL     OW23047   0.950   4.187   6.074 -0.1905  0.5558  0.4765
 3862SOL    HW123048   0.926   4.270   6.033 -0.0141  0.3807  0.0237
 3862SOL    HW223049   0.884   4.129   6.036  0.3412  0.2570  0.0068
 3863SOL     OW23050   1.014   0.177   9.749  0.1670  0.7245  0.3242
 3863SOL    HW123051   0.968   0.205   9.828  1.6756  1.5201  0.9213
 3863SOL    HW223052   1.061   0.102   9.785 -1.1017 -1.0057 -1.6201
 3864SOL     OW23053   4.553   2.130  11.775  0.3479 -0.0325  0.0343
 3864SOL    HW123054   4.598   2.047  11.792  1.2142  0.6500  1.1193
 3864SOL    HW223055   4.628   2.190  11.776  0.1900  0.1919 -1.6110
 3865SOL     OW23056   1.629   2.790  11.185 -0.2433  0.7921  0.0996
 3865SOL    HW123057   1.701   2.755  11.133  1.9824  2.9657  1.7225
 3865SOL    HW223058   1.571   2.824  11.117  0.2937 -1.8416 -1.6857
 3866SOL     OW23059   2.174   2.937   5.679 -0.1989  0.1342  0.0736
 3866SOL    HW123060   2.084   2.910   5.697 -0.3301  1.1014  0.8691
 3866SOL    HW223061   2.207   2.973   5.761  0.2827  1.7083 -0.7899
 3867SOL     OW23062   4.258   2.138   8.728 -0.2699 -0.0342  0.0159
 3867SOL    HW123063   4.266   2.199   8.655  1.1672  0.8321  0.9018
 3867SOL    HW223064   4.335   2.160   8.779 -0.5158  1.2533 -0.1743
 3868SOL     OW23065   3.414   2.868  11.529 -0.1781  0.0551 -0.4272
 3868SOL    HW123066   3.336   2.841  11.481 -0.6937  0.1701  0.3521
 3868SOL    HW223067   3.432   2.785  11.573  0.1987 -0.5032 -1.6281
 3869SOL     OW23068   0.597   1.262   5.930 -0.0590  0.1818  0.4609
 3869SOL    HW123069   0.659   1.329   5.902 -1.5056  1.3100 -0.0263
 3869SOL    HW223070   0.600   1.210   5.849 -0.1183  1.8576 -0.6109
 3870SOL     OW23071   4.145   2.344   5.651 -0.0621  0.0667  0.1993
 3870SOL    HW123072   4.238   2.326   5.662 -0.0072 -0.5155 -1.1406
 3870SOL    HW223073   4.161   2.395   5.571 -0.1222 -1.8276 -1.0105
 3871SOL     OW23074   1.243   2.803   8.981  0.0948  0.3585 -0.0981
 3871SOL    HW123075   1.161   2.851   8.993 -1.2067 -0.8909 -3.8674
 3871SOL    HW223076   1.245   2.730   9.043 -0.7491 -0.5782 -1.1498
 3872SOL     OW23077   0.797   4.633   2.170  0.3460 -0.1460 -0.3249
 3872SOL    HW123078   0.888   4.641   2.142 -0.6957 -0.4414 -3.7952
 3872SOL    HW223079   0.762   4.720   2.153 -2.1953 -1.1821 -0.2871
 3873SOL     OW23080   1.962   1.057   5.854 -0.3978 -0.1556 -0.1717
 3873SOL    HW123081   2.006   0.991   5.906 -0.9843 -1.6062 -1.5271
 3873SOL    HW223082   1.920   1.015   5.780 -1.8598 -0.8756  1.0687
 3874SOL     OW23083   1.563   4.604   6.605  0.3987 -0.0139 -0.4595
 3874SOL    HW123084   1.575   4.648   6.521  1.5926 -2.1664 -1.4299
 3874SOL    HW223085   1.658   4.592   6.613  0.2399 -0.1627  1.1216
 3875SOL     OW23086   1.774   2.571   5.665  0.8120 -0.1310  0.0362
 3875SOL    HW123087   1.766   2.481   5.632  2.1425 -0.2682  0.1023
 3875SOL    HW223088   1.755   2.621   5.585 -1.9345 -1.4959 -0.1543
 3876SOL     OW23089   0.208   2.566   7.814  0.7128 -0.4381 -0.1078
 3876SOL    HW123090   0.122   2.604   7.829  0.5226 -1.2212  0.7960
 3876SOL    HW223091   0.244   2.575   7.903  2.9390 -0.2280 -1.0222
 3877SOL     OW23092   3.360   3.006  13.562  0.1659 -0.0040  0.1197
 3877SOL    HW123093   3.268   3.030  13.548  0.1532 -0.0148  0.1854
 3877SOL    HW223094   3.412   3.060  13.503  1.6783 -1.2413  0.3540
 3878SOL     OW23095   1.407   1.511   7.901  0.0234  0.3725 -0.4721
 3878SOL    HW123096   1.484   1.568   7.905  0.8809 -0.9815  2.3251
 3878SOL    HW223097   1.430   1.434   7.952 -1.6767 -0.5054 -1.0091
 3879SOL     OW23098   4.720   3.477   2.617 -0.7725  0.5017 -0.7610
 3879SOL    HW123099   0.033   3.514   2.538 -2.6635 -2.7103 -3.2264
 3879SOL    HW223100   0.016   3.385   2.600  0.2344  0.8233 -1.1655
 3880SOL     OW23101   2.380   0.325  14.620  0.3973 -0.4258 -0.6378
 3880SOL    HW123102   2.307   0.300  14.563  0.1324  1.1080 -0.9679
 3880SOL    HW223103   2.342   0.400  14.665  1.1658 -0.1944 -0.3772
 3881SOL     OW23104   4.270   2.902  11.050  0.4633  0.7123 -0.2640
 3881SOL    HW123105   4.355   2.860  11.041  0.6195  1.1097 -0.6254
 3881SOL    HW223106   4.241   2.936  10.965 -0.6104  0.9586  0.2058
 3882SOL     OW23107   1.395   2.352  12.194  0.1761 -0.0589  0.1443
 3882SOL    HW123108   1.483   2.356  12.232 -0.2752  0.4716  1.1131
 3882SOL    HW223109   1.364   2.275  12.241  0.8523 -0.9090 -0.8040
 3883SOL     OW23110   4.417   3.436  12.846 -0.2145  0.3345 -0.2392
 3883SOL    HW123111   4.512   3.447  12.842 -0.4294  1.5011 -1.7912
 3883SOL    HW223112   4.384   3.453  12.758  0.5142 -2.2595 -1.0314
 3884SOL     OW23113   2.693   2.425  11.722 -0.1672  0.1908 -0.1846
 3884SOL    HW123114   2.605   2.393  11.743 -1.3132  2.8385 -0.9227
 3884SOL    HW223115   2.683   2.513  11.759  0.9566  0.7058 -1.1256
 3885SOL     OW23116   2.250   3.045   8.261  0.2204 -0.6562  0.0941
 3885SOL    HW123117   2.225   3.038   8.353  0.8279  0.4114  0.3416
 3885SOL    HW223118   2.167   3.086   8.237 -1.6028 -3.6380  1.3514
 3886SOL     OW23119   0.434   2.191   7.456  0.5561 -0.0245 -0.2610
 3886SOL    HW123120   0.485   2.163   7.379 -2.0639 -0.6967 -1.7601
 3886SOL    HW223121   0.382   2.266   7.425  2.1473  0.2807 -2.2107
 3887SOL     OW23122   0.246   2.755   5.951 -0.5135  0.3536  0.2920
 3887SOL    HW123123   0.313   2.735   6.016  0.4712  0.6485 -0.6314
 3887SOL    HW223124   0.259   2.849   5.962  0.7208  0.0927  1.0763
 3888SOL     OW23125   2.673   0.948   5.589  0.7442 -0.3316 -0.2433
 3888SOL    HW123126   2.626   1.031   5.599  1.0855 -0.2301  0.4894
 3888SOL    HW223127   2.601   0.898   5.552  2.2274 -1.3611 -1.7058
 3889SOL     OW23128   0.762   1.627   1.427  0.1789 -0.0980 -0.4159
 3889SOL    HW123129   0.697   1.566   1.463  0.4700  1.3128  2.4357
 3889SOL    HW223130   0.738   1.697   1.488 -0.5825 -1.4436  0.8269
 3890SOL     OW23131   2.981   4.421  12.233  0.0483  0.2957 -0.3749
 3890SOL    HW123132   2.986   4.512  12.261 -2.0840 -0.2264  1.7035
 3890SOL    HW223133   3.010   4.381  12.315  0.3738 -0.1536 -0.7090
 3891SOL     OW23134   3.432   3.151  13.346  0.9456  0.1437  0.3489
 3891SOL    HW123135   3.364   3.101  13.302 -0.4344  0.5527  2.0185
 3891SOL    HW223136   3.415   3.229  13.294  1.0578 -0.7076 -0.9580
 3892SOL     OW23137   4.175   3.025   3.826  0.2942  0.8146  0.5338
 3892SOL    HW123138   4.208   3.000   3.912 -0.1865  1.2869  0.8556
 3892SOL    HW223139   4.249   3.078   3.794  0.9526  0.3167  1.2230
 3893SOL     OW23140   0.235   3.470  16.869  0.2543  0.0937 -0.2677
 3893SOL    HW123141   0.264   3.477  16.779  0.0783  0.0184 -0.3298
 3893SOL    HW223142   0.221   3.376  16.873 -4.4324  0.7300 -1.4437
 3894SOL     OW23143   2.728   0.512   3.155 -0.5245 -0.2603 -0.0428
 3894SOL    HW123144   2.782   0.586   3.183 -1.8869 -0.3056  2.7709
 3894SOL    HW223145   2.741   0.448   3.225 -1.9693  0.3194  0.7723
 3895SOL     OW23146   2.802   2.873   3.456 -0.0655  0.2263  0.1571
 3895SOL    HW123147   2.741   2.922   3.403 -0.4869 -2.6105 -1.9928
 3895SOL    HW223148   2.833   2.940   3.517 -2.2553 -0.6477  2.2437
 3896SOL     OW23149   3.274   2.762   5.320 -0.7917 -0.0438  0.1894
 3896SOL    HW123150   3.317   2.727   5.398  0.3763 -0.5396 -0.6796
 3896SOL    HW223151   3.347   2.769   5.259 -0.3279 -0.1140  0.7438
 3897SOL     OW23152   2.461   1.675   2.120 -0.1768 -0.2990  0.3761
 3897SOL    HW123153   2.442   1.716   2.204 -0.9702  0.7952 -0.3380
 3897SOL    HW223154   2.551   1.708   2.113 -0.1217 -0.4160  0.5506
 3898SOL     OW23155   3.901   4.613   5.728  0.1539  0.2646 -0.0476
 3898SOL    HW123156   3.954   4.574   5.658  0.5289  1.2019 -0.2904
 3898SOL    HW223157   3.841   4.541   5.748 -1.0674  0.8566 -1.5595
 3899SOL     OW23158   2.599   4.079   1.685  0.5950 -0.5034  0.6741
 3899SOL    HW123159   2.665   4.131   1.638 -0.9952 -0.1766 -1.1799
 3899SOL    HW223160   2.522   4.114   1.641  0.5828  0.7777  1.7051
 3900SOL     OW23161   4.002   2.042   4.064  0.5758  0.2847 -0.5091
 3900SOL    HW123162   4.040   1.971   4.013  1.4057  0.0355  0.4385
 3900SOL    HW223163   3.912   2.028   4.034  0.7640 -0.2644 -0.7997
 3901SOL     OW23164   1.113   2.002  17.623 -0.2254  0.0328  0.0524
 3901SOL    HW123165   1.085   2.057  17.550 -0.7613  2.4724  2.0929
 3901SOL    HW223166   1.048   2.012  17.692  2.6085 -1.5565  2.9626
 3902SOL     OW23167   0.262   1.253   3.208 -0.4971 -0.7107 -0.6280
 3902SOL    HW123168   0.183   1.300   3.182 -0.7481 -1.9012 -2.0060
 3902SOL    HW223169   0.310   1.328   3.242 -0.7342 -1.9575  2.5146
 3903SOL     OW23170   3.412   0.497   3.276  0.0425 -0.2043  0.3469
 3903SOL    HW123171   3.422   0.403   3.269  1.0997 -0.0481 -0.2418
 3903SOL    HW223172   3.323   0.510   3.244  0.1265 -0.9816 -0.1767
 3904SOL     OW23173   3.087   1.862  13.396  0.0400 -0.2090 -0.0792
 3904SOL    HW123174   3.012   1.919  13.385 -1.0787 -1.8703 -1.1201
 3904SOL    HW223175   3.155   1.927  13.416  0.6820 -0.7651 -0.4326
 3905SOL     OW23176   2.549   1.813   8.063 -0.1017 -0.6655 -0.2888
 3905SOL    HW123177   2.556   1.908   8.076 -0.8234 -0.9316  2.0315
 3905SOL    HW223178   2.614   1.787   8.128  0.5259  1.8384  0.0976
 3906SOL     OW23179   1.301   1.547  13.186  0.2839  0.6688  0.1687
 3906SOL    HW123180   1.367   1.603  13.145  1.2879 -1.0560 -0.5257
 3906SOL    HW223181   1.229   1.555  13.124 -1.5878 -0.6056  2.1360
 3907SOL     OW23182   4.555   0.949  16.732  0.1349 -0.7328  0.1325
 3907SOL    HW123183   4.494   0.885  16.696 -0.0460 -1.1603  1.1912
 3907SOL    HW223184   4.528   1.029  16.688  1.3011 -0.9913 -1.0741
 3908SOL     OW23185   3.111   3.389   6.002 -0.0064  0.2772  0.0455
 3908SOL    HW123186   3.077   3.390   6.092 -0.8703  0.2252 -0.2759
 3908SOL    HW223187   3.119   3.482   5.980 -0.3633  0.5992  1.2433
 3909SOL     OW23188   3.855   3.922  11.099 -0.0760  0.2844 -0.0011
 3909SOL    HW123189   3.811   3.887  11.022 -1.6025  1.7550  0.2054
 3909SOL    HW223190   3.872   3.839  11.143 -0.2262  0.2800  0.0473
 3910SOL     OW23191   3.783   0.649   7.555  0.0092 -0.5543 -0.4761
 3910SOL    HW123192   3.750   0.593   7.625  2.7007  0.7970  1.8636
 3910SOL    HW223193   3.849   0.700   7.603 -1.2460 -0.1714  0.8318
 3911SOL     OW23194   4.261   0.208   4.887 -0.0850  0.2596 -0.1137
 3911SOL    HW123195   4.208   0.235   4.962 -1.1148  1.5990 -1.3248
 3911SOL    HW223196   4.232   0.283   4.835 -0.1861  1.8290  2.1867
 3912SOL     OW23197   3.333   1.141   6.454  0.6351  0.0592  0.4978
 3912SOL    HW123198   3.238   1.134   6.449  0.6903  1.8077 -3.0275
 3912SOL    HW223199   3.358   1.200   6.383  1.8229 -0.9609  0.0712
 3913SOL     OW23200   4.401   2.928   0.369  0.3360  0.0144  0.0061
 3913SOL    HW123201   4.404   2.994   0.438 -2.0606 -1.3962  1.4725
 3913SOL    HW223202   4.378   2.971   0.286  0.1423 -1.4451 -0.6890
 3914SOL     OW23203   2.895   1.428   6.199 -0.3388  0.0196 -0.0205
 3914SOL    HW123204   2.846   1.361   6.151  1.8755  0.4890 -2.9533
 3914SOL    HW223205   2.826   1.458   6.257  1.6114  3.0969  0.7097
 3915SOL     OW23206   1.260   3.798   8.321  0.1479  0.7257 -0.0587
 3915SOL    HW123207   1.230   3.822   8.234 -0.2235  1.8463  0.3811
 3915SOL    HW223208   1.348   3.835   8.316  0.4892 -0.4076 -2.3036
 3916SOL     OW23209   1.178   1.581  13.603 -0.6405 -0.1964 -0.3680
 3916SOL    HW123210   1.248   1.556  13.544 -0.8209 -1.6538  0.0321
 3916SOL    HW223211   1.112   1.638  13.563  1.9559  1.9225 -1.5838
 3917SOL     OW23212   1.412   2.028   0.508  0.4503  0.3011  0.4728
 3917SOL    HW123213   1.384   2.084   0.581  1.1055  1.0863  0.1111
 3917SOL    HW223214   1.381   2.078   0.433  0.0193  1.6231  1.5498
 3918SOL     OW23215   0.707   4.601   6.904  0.5322 -0.2906 -0.0306
 3918SOL    HW123216   0.781   4.661   6.895  1.3631 -1.3807 -0.3790
 3918SOL    HW223217   0.722   4.563   6.991 -1.4614  2.4070  1.4979
 3919SOL     OW23218   4.268   3.955   4.698  0.4804  0.1144 -0.9546
 3919SOL    HW123219   4.276   3.907   4.615 -2.5274  0.4087 -1.4359
 3919SOL    HW223220   4.346   3.932   4.748  0.6695  1.6494 -0.5571
 3920SOL     OW23221   4.331   4.015  15.332 -0.4933 -0.6412 -0.5397
 3920SOL    HW123222   4.282   4.097  15.339 -3.5359 -2.4780 -0.3593
 3920SOL    HW223223   4.402   4.025  15.396 -2.2686 -0.2893  1.3924
 3921SOL     OW23224   0.792   0.576  16.688 -0.8747  0.4712 -0.0946
 3921SOL    HW123225   0.822   0.535  16.607 -3.0181  2.5085 -1.9524
 3921SOL    HW223226   0.730   0.646  16.665 -2.3659 -1.7223 -2.6976
 3922SOL     OW23227   4.624   4.709   8.090  0.3380  0.3912  0.1118
 3922SOL    HW123228   4.662   4.632   8.132 -2.3651 -1.9185 -1.7210
 3922SOL    HW223229   4.700   0.042   8.098 -1.5290  2.8084 -0.0389
 3923SOL     OW23230   1.001   4.405   1.173  0.1177  0.1142 -0.0951
 3923SOL    HW123231   1.002   4.329   1.232  1.3680 -0.0617 -0.3450
 3923SOL    HW223232   1.093   4.426   1.184  0.1074  0.0756  0.0651
 3924SOL     OW23233   3.694   1.146   8.066  0.7935  0.1585  0.6413
 3924SOL    HW123234   3.777   1.129   8.110  0.7192  2.5673  1.7156
 3924SOL    HW223235   3.648   1.063   8.070 -0.8133  0.9732 -1.0374
 3925SOL     OW23236   2.759   2.164   3.089 -0.3917  0.1093 -0.4114
 3925SOL    HW123237   2.704   2.235   3.056  0.2315  1.3204  1.1546
 3925SOL    HW223238   2.706   2.097   3.048  0.4495  0.1234 -1.5342
 3926SOL     OW23239   3.636   3.939   7.732 -0.2189 -0.3261  0.2316
 3926SOL    HW123240   3.592   4.009   7.682  0.0298 -0.8484 -0.7196
 3926SOL    HW223241   3.568   3.923   7.797  0.5624 -3.8585  0.1840
 3927SOL     OW23242   3.803   3.138   4.713  0.2516 -0.4938  0.4600
 3927SOL    HW123243   3.730   3.183   4.671  0.1529 -1.9845 -1.0232
 3927SOL    HW223244   3.820   3.198   4.785 -2.1345  1.1224 -0.3313
 3928SOL     OW23245   1.070   3.519   6.050  0.6522 -0.0509  0.4624
 3928SOL    HW123246   1.133   3.491   5.984  1.3510  1.4606  0.4850
 3928SOL    HW223247   0.984   3.542   6.015  0.8229  0.7016  0.5314
 3929SOL     OW23248   0.178   3.528   5.899 -0.5792 -0.4815  0.7009
 3929SOL    HW123249   0.160   3.522   5.993 -2.9743 -0.5968  0.2408
 3929SOL    HW223250   0.089   3.544   5.867 -1.0003 -0.2381  1.9797
 3930SOL     OW23251   0.997   0.170   9.310 -0.1873 -0.1865  0.5018
 3930SOL    HW123252   1.017   0.112   9.237  1.1081 -0.3846  1.0150
 3930SOL    HW223253   1.063   0.139   9.373  0.1665  0.6748  0.5529
 3931SOL     OW23254   3.245   0.453   3.610  0.6055 -0.4671  0.0767
 3931SOL    HW123255   3.323   0.462   3.665 -0.8095  3.7410  1.3769
 3931SOL    HW223256   3.208   0.541   3.610 -0.6306 -0.9908  1.1704
 3932SOL     OW23257   0.030   2.329   7.338  0.2603 -0.1231 -0.1304
 3932SOL    HW123258   0.044   2.375   7.421  2.6838 -1.0112 -0.0542
 3932SOL    HW223259   0.077   2.384   7.275  1.8858 -1.3588 -0.0139
 3933SOL     OW23260   0.976   4.191   0.333 -0.1244  0.4759 -0.1186
 3933SOL    HW123261   0.930   4.267   0.370  1.5423  1.5552 -0.2784
 3933SOL    HW223262   1.037   4.170   0.404  0.8006 -3.6169 -2.1338
 3934SOL     OW23263   2.757   2.824   7.292 -0.0354 -0.1744 -0.2167
 3934SOL    HW123264   2.821   2.767   7.249  0.5431  0.7567 -0.5646
 3934SOL    HW223265   2.676   2.773   7.286  0.0425 -0.4058  0.5816
 3935SOL     OW23266   0.925   0.412  11.561  0.6844  0.3699 -0.2724
 3935SOL    HW123267   0.977   0.491  11.574  0.3997  0.5325 -0.1181
 3935SOL    HW223268   0.887   0.426  11.473 -2.4377  0.6623  1.1043
 3936SOL     OW23269   2.287   3.233  12.225 -0.3114  0.6181 -0.6856
 3936SOL    HW123270   2.211   3.276  12.264 -2.3599 -1.9199 -1.8198
 3936SOL    HW223271   2.356   3.272  12.277 -1.0203 -1.7636  2.0594
 3937SOL     OW23272   3.809   0.641   4.792  0.1382 -0.3165  0.0434
 3937SOL    HW123273   3.886   0.669   4.743 -0.9405  2.2262 -0.2096
 3937SOL    HW223274   3.743   0.614   4.729 -0.6627 -0.3906  0.9074
 3938SOL     OW23275   1.068   0.190   2.328 -0.3746 -0.4739 -0.4560
 3938SOL    HW123276   1.081   0.157   2.239 -1.0892 -0.1607 -0.6731
 3938SOL    HW223277   0.978   0.167   2.348 -0.0166 -2.6000 -1.2789
 3939SOL     OW23278   4.199   2.232   4.198 -0.1658 -0.5396  0.0255
 3939SOL    HW123279   4.251   2.168   4.150  1.4011  0.0360  0.9639
 3939SOL    HW223280   4.113   2.196   4.176  0.2778 -0.1783 -2.2394
 3940SOL     OW23281   0.032   3.233   1.175 -0.5845 -0.0216  0.0857
 3940SOL    HW123282   4.689   3.227   1.242  1.0763 -1.5728  1.6555
 3940SOL    HW223283   0.072   3.146   1.175  3.6193  1.9375  0.4200
 3941SOL     OW23284   1.132   0.821   3.622  0.2228  0.3749  0.2618
 3941SOL    HW123285   1.166   0.807   3.533 -1.9224  0.8483 -0.6272
 3941SOL    HW223286   1.084   0.739   3.633  0.9633  0.0537  1.1406
 3942SOL     OW23287   1.759   2.534   4.259  0.0568  0.1354  0.7562
 3942SOL    HW123288   1.755   2.469   4.329  1.0291 -0.0133  0.6714
 3942SOL    HW223289   1.780   2.487   4.179  0.0436 -2.0175  2.0341
 3943SOL     OW23290   3.621   2.431   4.238 -0.4957 -0.2597 -0.4688
 3943SOL    HW123291   3.710   2.455   4.212 -0.7157  1.8320  0.7428
 3943SOL    HW223292   3.572   2.494   4.185 -0.5810  2.1749  2.5085
 3944SOL     OW23293   1.455   1.815   9.316 -0.0011  0.1724 -0.0111
 3944SOL    HW123294   1.470   1.872   9.392  2.1898 -0.6895  0.2097
 3944SOL    HW223295   1.515   1.846   9.249 -0.3993 -1.5849 -1.1961
 3945SOL     OW23296   3.874   3.168   8.642  0.4515 -0.4168 -0.2895
 3945SOL    HW123297   3.818   3.091   8.642  0.6404 -0.5516 -1.1168
 3945SOL    HW223298   3.958   3.123   8.653  0.0724 -0.6567  1.6135
 3946SOL     OW23299   0.696   4.317   2.141 -0.1324  0.3945 -0.1250
 3946SOL    HW123300   0.733   4.343   2.226 -0.8742  1.2629 -0.0640
 3946SOL    HW223301   0.665   4.397   2.099 -0.3110 -0.3853 -1.4645
 3947SOL     OW23302   2.315   0.514  14.886  0.3782 -0.0231  0.5494
 3947SOL    HW123303   2.255   0.536  14.815 -0.6875 -0.8543  1.1923
 3947SOL    HW223304   2.395   0.546  14.844  0.5577 -0.5117  0.5168
 3948SOL     OW23305   0.707   2.722   2.320 -0.6385 -0.2319  0.1729
 3948SOL    HW123306   0.767   2.675   2.379 -1.6545 -1.6346  0.0930
 3948SOL    HW223307   0.646   2.651   2.298 -0.2977 -0.8730  1.2378
 3949SOL     OW23308   2.450   4.433  17.126 -0.6247  0.2662  0.9408
 3949SOL    HW123309   2.462   4.377  17.049  0.3875  3.8748 -1.5818
 3949SOL    HW223310   2.430   4.516  17.083  0.3832  0.6435  1.1981
 3950SOL     OW23311   2.946   1.009  13.916 -0.5099 -0.1083  0.0002
 3950SOL    HW123312   2.904   0.926  13.894  1.1072 -1.3698  1.5940
 3950SOL    HW223313   2.882   1.053  13.972  2.2000  1.1520  2.1280
 3951SOL     OW23314   0.000   4.171   7.282 -0.0426  0.1294  0.0015
 3951SOL    HW123315   4.708   4.253   7.237  2.2068  1.0158  0.6755
 3951SOL    HW223316   0.056   4.198   7.355  0.3085  3.2552 -1.4184
 3952SOL     OW23317   0.867   2.736   1.431 -0.1021 -0.0746 -0.0732
 3952SOL    HW123318   0.833   2.669   1.490  0.3090  0.3390  0.6469
 3952SOL    HW223319   0.790   2.775   1.389 -1.5818 -4.8705 -1.7399
 3953SOL     OW23320   3.909   3.747  14.564  0.3569 -0.7415  0.0451
 3953SOL    HW123321   3.903   3.779  14.474 -0.3919  1.4661  0.8842
 3953SOL    HW223322   3.824   3.767  14.603  1.0651 -1.6467  2.0104
 3954SOL     OW23323   4.560   0.098   7.100 -0.1343 -0.4349  0.3334
 3954SOL    HW123324   4.538   0.079   7.191 -0.7556  1.0755  0.4888
 3954SOL    HW223325   4.654   0.114   7.111 -0.4750  0.5947  1.6360
 3955SOL     OW23326   2.587   2.585   3.839  0.2487 -0.0492  0.3773
 3955SOL    HW123327   2.676   2.569   3.869  0.0568 -0.7778  0.5565
 3955SOL    HW223328   2.603   2.638   3.761  0.0888 -2.3231 -1.1802
 3956SOL     OW23329   3.901   3.833  13.858  0.0907  0.0891 -0.8984
 3956SOL    HW123330   3.874   3.877  13.777 -1.1496  2.0386  0.5668
 3956SOL    HW223331   3.992   3.808  13.842 -0.0641 -2.0984  1.6108
 3957SOL     OW23332   1.588   1.009  15.037 -0.3890  0.0966  0.2355
 3957SOL    HW123333   1.513   1.059  15.007 -0.9012  0.2836  1.7917
 3957SOL    HW223334   1.660   1.072  15.028  1.8801 -2.2017  2.0658
 3958SOL     OW23335   0.888   0.058  15.828  0.2845  0.3147  0.8418
 3958SOL    HW123336   0.831   4.711  15.801 -1.7505  2.5033 -0.7560
 3958SOL    HW223337   0.882   0.126  15.761  1.0344  1.4839  1.9576
 3959SOL     OW23338   0.939   0.800   8.130  0.3015  0.6533  0.1720
 3959SOL    HW123339   0.895   0.725   8.090 -0.3790  1.6957 -1.0323
 3959SOL    HW223340   0.956   0.856   8.054 -0.0750  0.8078  0.2009
 3960SOL     OW23341   3.989   0.864  10.906 -0.2289 -0.0245 -0.1747
 3960SOL    HW123342   3.960   0.889  10.993 -0.1162 -0.1195 -0.1091
 3960SOL    HW223343   4.035   0.945  10.883 -1.3437  1.1736  1.9358
 3961SOL     OW23344   2.754   1.696   5.716  0.5211  0.2852 -0.2114
 3961SOL    HW123345   2.778   1.636   5.786  0.4312 -2.4405 -2.4653
 3961SOL    HW223346   2.837   1.716   5.672  1.9063 -2.4926  1.1529
 3962SOL     OW23347   0.629   3.170   7.136 -0.2624 -0.2821 -0.1853
 3962SOL    HW123348   0.595   3.224   7.065 -0.9873  0.1916  0.5292
 3962SOL    HW223349   0.574   3.201   7.208  1.5596  0.2478  0.9975
 3963SOL     OW23350   3.639   3.300   3.748 -0.2267 -0.0218  0.1405
 3963SOL    HW123351   3.662   3.229   3.689 -2.4478 -0.5130 -0.1288
 3963SOL    HW223352   3.720   3.344   3.774 -0.7480  1.6993 -1.1449
 3964SOL     OW23353   1.246   1.050   2.184 -0.1921  0.7459  0.0636
 3964SOL    HW123354   1.162   1.019   2.151  0.4004 -0.1471 -0.6105
 3964SOL    HW223355   1.300   1.045   2.105 -1.3662 -2.1058 -0.5657
 3965SOL     OW23356   0.544   3.463   8.927  0.3853 -0.5266 -0.1568
 3965SOL    HW123357   0.465   3.502   8.965  0.8600 -0.6178  0.9059
 3965SOL    HW223358   0.596   3.536   8.960  0.9669 -1.2751  0.5746
 3966SOL     OW23359   0.245   0.564  15.454  0.4880 -0.5718  0.6076
 3966SOL    HW123360   0.212   0.569  15.543 -1.6268  0.2764 -0.2262
 3966SOL    HW223361   0.337   0.582  15.472 -0.3831  5.0224 -0.4096
 3967SOL     OW23362   4.704   0.361   1.396  0.2646  0.2274 -0.0355
 3967SOL    HW123363   4.653   0.285   1.422 -0.2990  0.5452 -0.2241
 3967SOL    HW223364   0.065   0.326   1.375  0.1268 -0.4864  0.5945
 3968SOL     OW23365   3.922   3.677   6.411  0.1569 -0.0702  0.0233
 3968SOL    HW123366   3.950   3.619   6.340  1.0239 -0.1051  0.3870
 3968SOL    HW223367   3.998   3.683   6.469 -0.8358 -0.3686  1.3446
 3969SOL     OW23368   4.155   1.556   8.812 -0.3889 -0.3159 -0.7466
 3969SOL    HW123369   4.149   1.632   8.754  0.2014 -0.3793 -0.8869
 3969SOL    HW223370   4.129   1.483   8.756 -0.5301  0.6174 -1.9011
 3970SOL     OW23371   2.019   1.624   3.197 -0.5324 -0.3158 -0.3941
 3970SOL    HW123372   1.928   1.601   3.214 -0.0667 -0.0121  2.5651
 3970SOL    HW223373   1.997   1.648   3.108  0.7551  1.7645 -0.1383
 3971SOL     OW23374   2.899   3.736   0.994  0.1270  0.4535 -0.4861
 3971SOL    HW123375   2.804   3.736   1.005  0.2051 -1.0559  0.1743
 3971SOL    HW223376   2.926   3.726   1.085 -1.4984 -0.4002 -0.1073
 3972SOL     OW23377   0.042   1.580   2.773  0.3049  0.4702  0.2732
 3972SOL    HW123378   0.098   1.651   2.740 -0.6792  0.0705 -2.2334
 3972SOL    HW223379   4.687   1.628   2.752 -0.6462 -1.1402  0.3191
 3973SOL     OW23380   4.657   1.418  15.107 -0.0072 -0.3773 -0.6643
 3973SOL    HW123381   4.684   1.368  15.184  0.6588 -1.3504 -1.5328
 3973SOL    HW223382   4.697   1.503  15.127 -0.0677  0.1850 -3.0006
 3974SOL     OW23383   2.727   0.564   7.811  0.0943  0.3642 -0.1241
 3974SOL    HW123384   2.816   0.569   7.778  0.0033 -1.0319 -0.5556
 3974SOL    HW223385   2.720   0.469   7.821 -0.8994  0.4400 -0.0584
 3975SOL     OW23386   1.754   3.513   6.634  0.2289 -0.2118  0.2553
 3975SOL    HW123387   1.688   3.577   6.662 -0.9648 -1.5820  0.5857
 3975SOL    HW223388   1.702   3.434   6.618 -0.8665  0.5407  0.1409
 3976SOL     OW23389   0.518   2.393  10.306 -0.7316  0.0215 -0.0526
 3976SOL    HW123390   0.441   2.337  10.289 -0.6693 -0.2867  0.6809
 3976SOL    HW223391   0.473   2.464  10.351  1.4427 -0.0026  2.1210
 3977SOL     OW23392   0.587   2.675   3.043  0.1756  0.1805 -0.1119
 3977SOL    HW123393   0.622   2.607   3.101  1.5273  0.1746 -0.9167
 3977SOL    HW223394   0.610   2.643   2.955  0.2431  0.5973 -0.2446
 3978SOL     OW23395   4.637   3.190  12.947 -0.2874 -0.5330 -0.4275
 3978SOL    HW123396   4.633   3.238  13.030  1.7940 -1.7703  0.3858
 3978SOL    HW223397   0.006   3.179  12.951 -0.2925  0.2494  1.8576
 3979SOL     OW23398   0.176   0.871   2.138  0.2915 -0.1143  0.4630
 3979SOL    HW123399   0.235   0.944   2.122  1.5283 -0.9129  1.3132
 3979SOL    HW223400   0.226   0.797   2.174 -1.7640 -1.1224  1.2384
 3980SOL     OW23401   0.774   1.283   1.620  0.1648 -0.0950 -0.1591
 3980SOL    HW123402   0.769   1.333   1.538  1.9373  2.6173  1.3754
 3980SOL    HW223403   0.726   1.346   1.674  1.9531 -0.3978  1.7474
 3981SOL     OW23404   4.211   2.651  17.156  0.7098 -0.5844  0.3139
 3981SOL    HW123405   4.189   2.568  17.198 -1.3021  0.4355  1.2761
 3981SOL    HW223406   4.166   2.708  17.218  0.3501 -1.3599  0.7713
 3982SOL     OW23407   4.163   4.224  15.126 -0.2689  0.0792 -0.4548
 3982SOL    HW123408   4.074   4.190  15.130 -0.3583  0.3380 -0.2532
 3982SOL    HW223409   4.168   4.273  15.044  0.6710  3.6787  1.7542
 3983SOL     OW23410   0.955   0.314  10.690  0.2009 -0.2212  0.0957
 3983SOL    HW123411   0.986   0.235  10.644  0.0332  1.1719 -2.4296
 3983SOL    HW223412   0.899   0.338  10.616  1.7792  0.3849 -0.9105
 3984SOL     OW23413   2.683   2.410   4.271 -0.2986 -0.5276  0.1303
 3984SOL    HW123414   2.617   2.376   4.210 -0.1018 -1.1544  0.2609
 3984SOL    HW223415   2.738   2.459   4.210  0.3540 -0.4431  0.7800
 3985SOL     OW23416   2.906   4.115  17.459  0.2150 -0.0777  0.2955
 3985SOL    HW123417   2.892   4.028  17.498  1.7187 -0.5189 -0.1619
 3985SOL    HW223418   2.817   4.150  17.455 -0.6562 -2.4799 -1.6331
 3986SOL     OW23419   3.612   4.337  15.198  0.6699 -0.9430  0.0084
 3986SOL    HW123420   3.523   4.368  15.215  1.4464  0.8990  0.6976
 3986SOL    HW223421   3.592   4.258  15.149 -0.7751  0.8376 -2.2928
 3987SOL     OW23422   3.419   1.277   2.319  0.1811  0.4266  0.2010
 3987SOL    HW123423   3.393   1.296   2.229  4.2042  0.6979 -0.9105
 3987SOL    HW223424   3.394   1.185   2.314 -0.2026  0.4610  1.6511
 3988SOL     OW23425   2.383   2.974   3.644  0.8837  0.1846  0.0653
 3988SOL    HW123426   2.305   2.994   3.697  1.2212 -2.7555  1.6987
 3988SOL    HW223427   2.445   3.042   3.668 -0.2114  0.3690  2.4188
 3989SOL     OW23428   3.995   4.200  16.456  0.9743  0.6004  0.4254
 3989SOL    HW123429   4.020   4.126  16.401 -1.9351  0.1282 -0.2440
 3989SOL    HW223430   3.985   4.277  16.401 -0.7899  1.0279  1.3245
 3990SOL     OW23431   2.917   4.489  13.004  0.2741 -0.3209 -0.5847
 3990SOL    HW123432   2.826   4.465  13.018 -0.2080  2.7437  1.6782
 3990SOL    HW223433   2.907   4.560  12.941 -1.7702  0.0985  0.2253
 3991SOL     OW23434   2.003   3.170   8.473  0.0169 -0.5134 -0.4497
 3991SOL    HW123435   2.045   3.248   8.510 -0.7047 -1.5593  2.4765
 3991SOL    HW223436   2.062   3.099   8.497  1.3455  0.2046 -1.5093
 3992SOL     OW23437   4.605   2.583  15.829  0.2672  0.7180  0.4640
 3992SOL    HW123438   4.684   2.575  15.776  0.5035  2.1964  0.6113
 3992SOL    HW223439   4.615   2.544  15.916 -1.2127  0.0661  0.3509
 3993SOL     OW23440   0.905   0.296   4.580  0.2257  0.1333  0.2158
 3993SOL    HW123441   0.923   0.211   4.619 -0.6686  0.1648  0.6868
 3993SOL    HW223442   0.879   0.259   4.495  0.3167 -1.4298  0.8807
 3994SOL     OW23443   4.110   3.992   3.417  0.1942  0.1858 -0.5507
 3994SOL    HW123444   4.028   4.042   3.422 -0.2114 -0.2811 -2.3907
 3994SOL    HW223445   4.178   4.056   3.439 -0.1799  0.1086  0.8107
 3995SOL     OW23446   3.285   0.766   8.179 -0.4612  0.2773 -0.4560
 3995SOL    HW123447   3.259   0.684   8.219 -0.4551  0.3273 -0.3496
 3995SOL    HW223448   3.203   0.796   8.140 -0.8553  0.6204  0.6389
 3996SOL     OW23449   3.502   2.539   1.149 -0.0092 -0.5380 -0.5159
 3996SOL    HW123450   3.459   2.510   1.068  0.5910 -1.8908 -0.3525
 3996SOL    HW223451   3.479   2.471   1.211 -1.0477 -0.0812 -0.4011
 3997SOL     OW23452   3.968   1.368  10.994  0.1279  0.0972  0.1543
 3997SOL    HW123453   3.894   1.311  11.013 -1.2480  0.9127 -2.6421
 3997SOL    HW223454   3.946   1.453  11.034  1.0219 -0.9998  2.9486
 3998SOL     OW23455   3.949   4.047   3.823 -0.1399 -0.4344 -0.2260
 3998SOL    HW123456   4.044   4.048   3.807 -0.2587  0.8186 -0.8881
 3998SOL    HW223457   3.938   3.999   3.741 -0.9024 -1.6296  0.5870
 3999SOL     OW23458   2.877   1.387   2.694 -0.3068  0.2733 -0.1607
 3999SOL    HW123459   2.887   1.474   2.656  1.4048  0.2007  0.1448
 3999SOL    HW223460   2.931   1.336   2.634 -0.2811  2.3456 -1.8583
 4000SOL     OW23461   3.126   4.054   3.542  0.0886  0.2916 -0.2251
 4000SOL    HW123462   3.087   4.130   3.500  0.5403  1.0673  0.7545
 4000SOL    HW223463   3.197   4.022   3.485  0.6054  1.3697 -0.1803
 4001SOL     OW23464   0.202   1.452  13.740  0.5878 -0.3270 -0.1931
 4001SOL    HW123465   0.190   1.393  13.814 -2.0631  1.2858  0.6460
 4001SOL    HW223466   0.297   1.468  13.745 -0.0005  3.1946 -0.2422
 4002SOL     OW23467   2.304   3.444   2.810 -0.1614  0.1846  0.6573
 4002SOL    HW123468   2.234   3.478   2.755  1.1133  0.4249 -0.8306
 4002SOL    HW223469   2.275   3.356   2.837  0.8908 -0.3758 -0.0191
 4003SOL     OW23470   4.127   2.651   3.953 -0.3944  0.5758  0.0308
 4003SOL    HW123471   4.047   2.662   3.901 -0.2486  0.9666 -0.1091
 4003SOL    HW223472   4.139   2.737   3.994  0.4367  0.1185  0.7410
 4004SOL     OW23473   1.151   3.000   6.575  0.5550 -0.3403 -0.0463
 4004SOL    HW123474   1.156   2.968   6.485  3.2802 -2.7286  0.9831
 4004SOL    HW223475   1.176   3.091   6.558  2.2791 -1.1301 -1.6661
 4005SOL     OW23476   3.950   1.610   0.078  0.9007 -0.1950  0.2106
 4005SOL    HW123477   3.886   1.538   0.080 -1.2456  1.6431 -1.9658
 4005SOL    HW223478   3.898   1.681   0.116  0.3204 -0.1873 -0.5748
 4006SOL     OW23479   2.235   0.006   2.696 -0.1409  0.6491  0.1052
 4006SOL    HW123480   2.152   0.036   2.660 -0.5572 -0.3336  0.2489
 4006SOL    HW223481   2.228   0.058   2.777  0.0542  3.1394 -1.4848
 4007SOL     OW23482   3.387   3.138  12.782 -0.9031 -0.3271 -0.3291
 4007SOL    HW123483   3.358   3.193  12.709  1.3179  0.4265 -0.6486
 4007SOL    HW223484   3.412   3.202  12.849  0.7868 -0.5727 -0.7457
 4008SOL     OW23485   3.270   1.635   7.166  0.6446 -0.0889  0.1494
 4008SOL    HW123486   3.239   1.688   7.240  1.4335 -0.0656  0.4554
 4008SOL    HW223487   3.275   1.697   7.093 -0.8811  0.2237  0.2913
 4009SOL     OW23488   4.344   0.058   6.288  0.5047 -0.2088 -0.4074
 4009SOL    HW123489   4.345   0.152   6.309 -1.6388 -0.5584  1.3055
 4009SOL    HW223490   4.252   0.040   6.308 -0.3228  2.2112 -1.9923
 4010SOL     OW23491   0.124   3.595   2.416  0.0610 -0.7327  0.1478
 4010SOL    HW123492   0.081   3.613   2.332  0.7946  0.0476 -0.0636
 4010SOL    HW223493   0.148   3.505   2.392  1.3946 -0.1883 -0.5546
 4011SOL     OW23494   0.956   3.630   0.234  0.2197  0.2204 -0.1545
 4011SOL    HW123495   1.001   3.546   0.237 -0.4472 -0.1125  0.4563
 4011SOL    HW223496   0.990   3.681   0.308  1.1855  0.3734 -0.7151
 4012SOL     OW23497   1.662   1.375   9.020  0.6798  0.0056  0.2283
 4012SOL    HW123498   1.629   1.352   8.933  2.2169 -1.8814  0.1721
 4012SOL    HW223499   1.613   1.457   9.029  0.3831  0.0401 -1.5791
 4013SOL     OW23500   0.918   1.255   2.206  0.1410 -0.0113  0.3212
 4013SOL    HW123501   0.997   1.235   2.255 -0.9011 -0.0824  1.9775
 4013SOL    HW223502   0.918   1.173   2.156 -0.0167 -0.0803  0.4332
 4014SOL     OW23503   2.296   3.408   4.933 -0.2605  0.0518 -0.5241
 4014SOL    HW123504   2.369   3.350   4.913 -2.0330 -1.0651 -3.7748
 4014SOL    HW223505   2.327   3.450   5.014  0.8486 -1.7552 -0.0198
 4015SOL     OW23506   1.151   3.824   3.943 -0.1652  0.0541  0.6001
 4015SOL    HW123507   1.136   3.730   3.951  0.0557 -0.2048 -2.2116
 4015SOL    HW223508   1.138   3.841   3.850 -3.1016  2.9930  1.5326
 4016SOL     OW23509   4.337   0.191   2.762 -0.2007 -0.0693 -0.2033
 4016SOL    HW123510   4.398   0.263   2.771 -1.5071  0.8880  1.0751
 4016SOL    HW223511   4.377   0.132   2.825 -0.9375  0.8755  1.1387
 4017SOL     OW23512   0.028   0.588  16.679 -0.1648  0.9683 -0.3181
 4017SOL    HW123513   0.100   0.525  16.679  0.2659  1.4474  0.3397
 4017SOL    HW223514   0.009   0.615  16.589 -1.5466  2.3783  0.3914
 4018SOL     OW23515   2.749   4.507   9.191  0.3223  0.2138  0.0589
 4018SOL    HW123516   2.819   4.442   9.201  1.0172  0.7747 -1.1501
 4018SOL    HW223517   2.802   4.586   9.180 -1.3163  1.5595  1.7148
 4019SOL     OW23518   2.292   3.391   3.716 -0.0162  0.2346 -0.1690
 4019SOL    HW123519   2.369   3.380   3.660  0.6767 -0.6627  0.9538
 4019SOL    HW223520   2.235   3.419   3.646 -2.3843 -1.4069  1.0913
 4020SOL     OW23521   2.807   0.981  15.873 -0.3604  0.7255  0.2788
 4020SOL    HW123522   2.737   0.982  15.808  1.3796 -0.6435 -1.6311
 4020SOL    HW223523   2.769   0.939  15.951 -0.0763 -0.6174 -0.2936
 4021SOL     OW23524   4.167   4.335   2.930  0.1594  0.1735  0.3481
 4021SOL    HW123525   4.235   4.375   2.876 -0.0652  1.6806  1.1958
 4021SOL    HW223526   4.086   4.357   2.883 -0.0827 -2.2227 -0.3891
 4022SOL     OW23527   1.511   2.144   6.957 -0.3640 -0.5260 -0.2497
 4022SOL    HW123528   1.463   2.214   6.913 -0.0886 -1.0324 -1.3486
 4022SOL    HW223529   1.594   2.154   6.911  0.2896 -1.6890  0.6825
 4023SOL     OW23530   3.876   2.788   6.210  0.1089  0.4546 -0.2319
 4023SOL    HW123531   3.886   2.782   6.115 -0.0506 -2.0818 -0.0947
 4023SOL    HW223532   3.782   2.777   6.222  0.4090  0.1730  1.8639
 4024SOL     OW23533   0.259   2.697   4.414 -0.2941  0.0194  0.2454
 4024SOL    HW123534   0.185   2.726   4.360 -0.9004  2.1075  2.2255
 4024SOL    HW223535   0.222   2.613   4.440  0.6729 -0.5347 -0.1804
 4025SOL     OW23536   2.154   3.475   3.506  0.3514 -0.3757 -0.4906
 4025SOL    HW123537   2.143   3.440   3.418 -1.1457 -1.8750  0.2971
 4025SOL    HW223538   2.149   3.569   3.486 -1.2756 -0.2025  0.6579
 4026SOL     OW23539   2.560   2.128   4.740 -0.2267  0.3456 -0.5264
 4026SOL    HW123540   2.549   2.142   4.646 -1.5512 -0.4900 -0.4883
 4026SOL    HW223541   2.525   2.213   4.767  0.3208  0.4282 -0.0711
 4027SOL     OW23542   2.748   1.886   6.861  0.1293 -0.4024 -0.0550
 4027SOL    HW123543   2.818   1.866   6.923  0.7140 -0.9306 -0.8968
 4027SOL    HW223544   2.776   1.836   6.785 -0.5160  0.3699 -0.7999
 4028SOL     OW23545   1.528   2.488   2.977 -0.2386 -0.0344 -0.3397
 4028SOL    HW123546   1.577   2.512   2.898  2.3911 -1.1787  0.9629
 4028SOL    HW223547   1.601   2.444   3.020 -1.2274 -0.3811  0.9892
 4029SOL     OW23548   1.791   0.281   9.155 -0.0461  0.0498 -0.1895
 4029SOL    HW123549   1.873   0.261   9.201 -0.7898  0.1294  1.1677
 4029SOL    HW223550   1.744   0.314   9.232 -0.5118  1.7452 -1.1807
 4030SOL     OW23551   4.667   0.206  16.103  0.1583 -0.1557  0.2874
 4030SOL    HW123552   4.581   0.191  16.142 -0.9160 -0.3049 -2.1368
 4030SOL    HW223553   4.660   0.245  16.015  1.3237 -0.4428  0.0750
 4031SOL     OW23554   2.510   3.433   0.822 -0.0080  0.5105  0.0947
 4031SOL    HW123555   2.461   3.496   0.873  1.3019  1.3683  0.3023
 4031SOL    HW223556   2.464   3.351   0.837 -0.9670  1.3862  1.8002
 4032SOL     OW23557   3.755   1.312   7.875  0.2331 -0.5942 -0.2015
 4032SOL    HW123558   3.732   1.260   7.953 -0.3586  0.8617  0.5981
 4032SOL    HW223559   3.669   1.352   7.870  0.2717 -0.4188  0.4271
 4033SOL     OW23560   4.395   4.171   5.561 -0.4282 -0.2815 -0.1655
 4033SOL    HW123561   4.457   4.112   5.604  0.1118 -1.0696 -2.0230
 4033SOL    HW223562   4.456   4.237   5.530  0.0963  0.7231  2.9386
 4034SOL     OW23563   0.124   2.957  14.827 -0.5338  0.3887  0.2067
 4034SOL    HW123564   0.080   2.880  14.791 -1.4662  0.1525  1.9015
 4034SOL    HW223565   0.073   2.987  14.902  0.0982 -1.2118  1.2764
 4035SOL     OW23566   0.164   0.817   5.068 -0.4971 -0.0063 -0.5049
 4035SOL    HW123567   0.071   0.834   5.051 -0.4738  0.5042 -0.1286
 4035SOL    HW223568   0.176   0.724   5.047 -0.4121 -0.1149  0.0248
 4036SOL     OW23569   3.951   2.917  10.333  0.5245 -0.4118 -0.2460
 4036SOL    HW123570   3.914   2.900  10.247  0.2980 -0.2631 -0.1787
 4036SOL    HW223571   3.987   2.829  10.344  3.2901  0.6456 -0.9070
 4037SOL     OW23572   4.360   4.006   8.591 -0.1240  0.2062 -0.4106
 4037SOL    HW123573   4.317   3.952   8.525  0.3898 -0.8734  0.1256
 4037SOL    HW223574   4.358   4.095   8.559 -1.9570  0.0298 -0.7810
 4038SOL     OW23575   3.520   3.964  13.140  0.3353 -0.4200  1.1970
 4038SOL    HW123576   3.524   3.967  13.044 -1.1755 -0.1480  1.1451
 4038SOL    HW223577   3.511   4.058  13.156 -2.2390 -0.3928 -0.3184
 4039SOL     OW23578   3.322   1.275  10.968  0.4611 -0.0063  0.0550
 4039SOL    HW123579   3.321   1.180  10.984  0.7042 -0.1974 -1.0000
 4039SOL    HW223580   3.238   1.298  11.008  0.2064  0.9841 -1.0636
 4040SOL     OW23581   4.695   1.327  13.561  0.1373  1.0893 -0.0365
 4040SOL    HW123582   0.016   1.377  13.495 -0.9799  0.4826 -1.2801
 4040SOL    HW223583   0.006   1.353  13.645 -0.5615  0.7256  0.3834
 4041SOL     OW23584   4.628   1.705  17.182 -0.1240 -0.5115 -0.0530
 4041SOL    HW123585   4.699   1.756  17.144 -2.2330  1.8345 -0.7969
 4041SOL    HW223586   4.587   1.652  17.113  0.9152  0.1370 -1.1753
 4042SOL     OW23587   2.474   0.155   9.675 -0.0754 -0.0780  0.0724
 4042SOL    HW123588   2.563   0.186   9.657 -0.4255  0.7608 -0.2336
 4042SOL    HW223589   2.504   0.074   9.716 -1.3359 -0.7718 -0.3962
 4043SOL     OW23590   0.272   0.997  12.110 -0.1439  0.2830  0.5524
 4043SOL    HW123591   0.331   1.007  12.185  2.0144 -1.1511 -0.9348
 4043SOL    HW223592   0.331   0.951  12.050  0.7935  2.6431 -0.3208
 4044SOL     OW23593   1.017   2.589   1.221  0.1987 -0.8349  0.5040
 4044SOL    HW123594   0.957   2.599   1.296 -0.5850 -0.2283 -0.2106
 4044SOL    HW223595   1.073   2.515   1.246  0.2994 -1.2082 -0.8562
 4045SOL     OW23596   0.522   4.705   8.403  0.3569  0.3851 -0.0924
 4045SOL    HW123597   0.451   0.010   8.458  0.7917  1.9500 -0.4190
 4045SOL    HW223598   0.474   4.634   8.358 -3.1556  3.2593 -0.8600
 4046SOL     OW23599   4.096   3.052  10.816  0.1174  0.3021 -0.1300
 4046SOL    HW123600   4.016   3.002  10.832 -1.3506  2.5517 -0.3842
 4046SOL    HW223601   4.079   3.122  10.880  0.3149 -0.9797  1.3149
 4047SOL     OW23602   3.529   1.412   6.021  0.4860 -0.0167 -0.0066
 4047SOL    HW123603   3.441   1.438   5.994 -0.2817  0.0251  2.5105
 4047SOL    HW223604   3.569   1.362   5.950  1.2703  1.2014 -0.4110
 4048SOL     OW23605   1.803   2.969   2.295 -0.5431  1.0672  0.2925
 4048SOL    HW123606   1.884   2.945   2.340 -0.4461  2.0322  0.6370
 4048SOL    HW223607   1.833   3.030   2.228  1.9554 -1.0164 -0.4727
 4049SOL     OW23608   1.872   1.059   2.900  0.1886  0.4618  0.3299
 4049SOL    HW123609   1.871   0.988   2.965  0.5225 -0.2662 -0.4573
 4049SOL    HW223610   1.950   1.029   2.854  0.5056  1.0060  0.5138
 4050SOL     OW23611   2.015   4.023  16.776  0.2088 -0.5810 -0.5189
 4050SOL    HW123612   1.936   4.070  16.751  2.2398  1.0568 -3.8384
 4050SOL    HW223613   1.972   3.940  16.798 -2.7768  0.7570 -1.3150
 4051SOL     OW23614   0.215   3.752  16.946  0.5345  0.2923  0.0763
 4051SOL    HW123615   0.237   3.661  16.926 -0.6804  0.7721 -3.3406
 4051SOL    HW223616   0.125   3.736  16.974  0.1644  1.5737 -0.3951
 4052SOL     OW23617   3.771   0.737   2.658  0.1931 -0.6947 -0.6264
 4052SOL    HW123618   3.822   0.799   2.710  1.1461 -1.7516 -0.3112
 4052SOL    HW223619   3.826   0.661   2.676 -0.4540 -0.7349  1.2068
 4053SOL     OW23620   2.533   1.640   4.201 -0.0207  0.3499  0.6019
 4053SOL    HW123621   2.569   1.708   4.144 -0.6302  0.5018  0.3915
 4053SOL    HW223622   2.603   1.644   4.265 -0.2888  0.0082  0.9112
 4054SOL     OW23623   0.072   3.752   0.110 -0.0857 -0.1270 -0.0549
 4054SOL    HW123624   0.158   3.785   0.136 -1.2693  0.5878  2.8964
 4054SOL    HW223625   0.080   3.743   0.015 -1.4417 -2.1091  0.0062
 4055SOL     OW23626   2.577   2.399  17.399 -0.2603  0.1806  0.0781
 4055SOL    HW123627   2.529   2.482  17.399 -0.3422  0.1356 -0.4963
 4055SOL    HW223628   2.522   2.339  17.448 -2.2464  0.8852 -1.2785
 4056SOL     OW23629   0.632   3.144   4.440 -0.2691  0.1256 -0.6363
 4056SOL    HW123630   0.630   3.175   4.531 -0.7581 -1.0988 -0.2296
 4056SOL    HW223631   0.540   3.131   4.419 -0.4505 -1.2031  0.9906
 4057SOL     OW23632   0.003   2.036  13.297 -0.5207  0.4375  0.1622
 4057SOL    HW123633   4.639   2.040  13.264 -0.5275 -0.1109  0.1102
 4057SOL    HW223634   0.026   2.128  13.287 -2.6076  0.8695 -0.6498
 4058SOL     OW23635   1.192   0.238  17.245 -0.4380 -0.4165 -0.0354
 4058SOL    HW123636   1.153   0.169  17.191 -2.1718  0.3816  0.2267
 4058SOL    HW223637   1.114   0.285  17.274 -0.0847  1.3926 -2.0403
 4059SOL     OW23638   3.382   0.650   2.946  0.0128  0.2662 -0.7956
 4059SOL    HW123639   3.386   0.586   3.017  0.4657  0.1218 -0.9493
 4059SOL    HW223640   3.455   0.617   2.893  0.2986 -0.8471  0.2987
 4060SOL     OW23641   0.485   2.068   4.309 -0.3990  0.3185 -0.1110
 4060SOL    HW123642   0.411   2.093   4.253 -0.7530  0.4453  0.4129
 4060SOL    HW223643   0.465   2.113   4.391 -3.3727  0.8110 -1.0735
 4061SOL     OW23644   2.234   2.476  13.163 -0.2449 -0.2986 -0.1107
 4061SOL    HW123645   2.314   2.500  13.210  0.7127 -0.7131 -1.5029
 4061SOL    HW223646   2.271   2.432  13.086 -1.0174 -0.4628 -0.3858
 4062SOL     OW23647   2.323   0.224  13.309  0.0624 -0.1736  0.2685
 4062SOL    HW123648   2.400   0.168  13.304  1.2466  1.5123 -0.2597
 4062SOL    HW223649   2.339   0.299  13.252  0.8031 -0.7307 -0.2528
 4063SOL     OW23650   2.533   1.088   8.754 -0.1449 -0.0336  0.3186
 4063SOL    HW123651   2.553   1.164   8.807 -0.2625  0.6000 -0.5403
 4063SOL    HW223652   2.580   1.016   8.795  0.9591 -0.3984 -1.5794
 4064SOL     OW23653   3.673   4.156   5.506 -0.2020 -0.6975 -0.0273
 4064SOL    HW123654   3.739   4.225   5.500 -1.3389  0.4985  1.2798
 4064SOL    HW223655   3.675   4.126   5.597  1.2683  0.2464  0.2465
 4065SOL     OW23656   3.035   1.025  11.099 -0.2900 -0.0016  0.4337
 4065SOL    HW123657   3.059   1.109  11.139  1.0515  0.5751 -1.6033
 4065SOL    HW223658   2.945   1.013  11.132  0.3279 -1.1223  1.7467
 4066SOL     OW23659   0.149   2.972   9.448 -0.3786 -0.4485  0.2996
 4066SOL    HW123660   0.057   2.948   9.454 -0.6175  0.6519  0.9074
 4066SOL    HW223661   0.152   3.039   9.380  0.3854 -2.4765 -1.6516
 4067SOL     OW23662   1.834   1.424   2.392  0.4421 -0.1115 -0.0393
 4067SOL    HW123663   1.884   1.497   2.428  0.3355 -0.5564  0.9806
 4067SOL    HW223664   1.747   1.466   2.392  1.1479  1.3680 -1.2404
 4068SOL     OW23665   0.744   0.925  14.198 -0.2157  0.5566 -0.5446
 4068SOL    HW123666   0.699   0.963  14.123  0.7240 -1.8778 -2.3544
 4068SOL    HW223667   0.710   0.976  14.272 -0.6482 -1.8017  0.8858
 4069SOL     OW23668   2.385   4.464   7.589 -0.0276  0.3595  0.2676
 4069SOL    HW123669   2.405   4.416   7.669 -1.8838 -1.8926 -0.6037
 4069SOL    HW223670   2.334   4.399   7.540  0.3227 -0.4111  0.9192
 4070SOL     OW23671   0.061   4.187   8.432  0.1914 -0.1649 -0.1176
 4070SOL    HW123672   0.110   4.162   8.510  0.7136 -1.6169 -0.9001
 4070SOL    HW223673   0.074   4.281   8.444  0.2852 -0.3454  1.1434
 4071SOL     OW23674   0.609   0.855  13.554  0.1574  0.4625  0.8163
 4071SOL    HW123675   0.618   0.943  13.517 -0.8159  0.5526  0.7999
 4071SOL    HW223676   0.631   0.889  13.641  0.9700  3.8802 -0.6953
 4072SOL     OW23677   0.434   4.416   3.627 -0.0607 -0.0413 -0.0036
 4072SOL    HW123678   0.425   4.457   3.713 -2.5568  0.4207 -0.4888
 4072SOL    HW223679   0.379   4.473   3.573  3.1685  1.0758 -2.0725
 4073SOL     OW23680   3.152   0.969   7.491  0.9702  0.3654  0.0186
 4073SOL    HW123681   3.203   0.894   7.463  0.4550 -0.1433  0.4436
 4073SOL    HW223682   3.134   1.017   7.410 -1.5117  0.3897  0.5764
 4074SOL     OW23683   3.992   1.374  10.700  0.5320 -0.1251 -0.7612
 4074SOL    HW123684   4.000   1.461  10.662  0.7424 -0.7025 -2.0372
 4074SOL    HW223685   3.969   1.383  10.792  0.3037  0.1232 -0.8447
 4075SOL     OW23686   2.799   1.022   2.603 -0.5528  0.7102 -0.1811
 4075SOL    HW123687   2.764   1.107   2.631 -1.7365  0.2913 -0.4187
 4075SOL    HW223688   2.850   0.997   2.681 -1.4900  1.8520  0.7971
 4076SOL     OW23689   0.084   1.911   8.698  0.4946  0.4614 -0.1176
 4076SOL    HW123690   0.053   2.001   8.707  0.9813  0.4106  2.0876
 4076SOL    HW223691   0.043   1.893   8.614  0.7565 -0.7333  0.0111
 4077SOL     OW23692   2.461   0.450   7.312  0.2065 -0.0845 -0.4488
 4077SOL    HW123693   2.470   0.508   7.388 -0.7063 -1.2964  0.5848
 4077SOL    HW223694   2.369   0.423   7.318 -0.3112  1.7968  0.0854
 4078SOL     OW23695   0.005   4.153   9.289  0.0530  0.5724  0.1516
 4078SOL    HW123696   0.054   4.072   9.299  2.1541  1.9544  1.0824
 4078SOL    HW223697   0.051   4.206   9.225  1.1966 -0.5588  0.0408
 4079SOL     OW23698   3.255   3.533   3.219  0.1822 -0.1784 -0.3617
 4079SOL    HW123699   3.308   3.612   3.226  0.7514 -0.7010  1.2083
 4079SOL    HW223700   3.187   3.548   3.285  0.0350 -0.2954 -0.4836
 4080SOL     OW23701   3.639   0.325   5.040 -0.3128 -0.0644 -0.8379
 4080SOL    HW123702   3.721   0.331   4.991  1.2086  0.3142  1.7355
 4080SOL    HW223703   3.569   0.343   4.977 -0.5732 -1.5273 -0.9751
 4081SOL     OW23704   3.158   3.086  11.970  0.8088 -0.7121 -0.0551
 4081SOL    HW123705   3.110   3.141  11.908  1.3994 -0.4004 -0.2338
 4081SOL    HW223706   3.110   3.068  12.051  1.1657 -0.0564  0.2963
 4082SOL     OW23707   3.463   3.548   3.413  0.0100 -0.6359 -0.5963
 4082SOL    HW123708   3.533   3.538   3.349 -1.0198 -1.3428 -1.6171
 4082SOL    HW223709   3.422   3.619   3.364  2.0396  0.3231 -0.8954
 4083SOL     OW23710   4.281   1.384   3.881 -0.1836 -0.6730 -0.0243
 4083SOL    HW123711   4.365   1.348   3.853 -0.0207 -0.7232  0.5288
 4083SOL    HW223712   4.280   1.372   3.976 -2.0127  1.3215  0.2198
 4084SOL     OW23713   4.612   3.940   5.576 -0.4828 -0.4095 -0.3398
 4084SOL    HW123714   4.696   3.897   5.591 -1.3318 -0.8724  2.9897
 4084SOL    HW223715   4.623   3.997   5.651 -2.2591 -0.8637  0.2836
 4085SOL     OW23716   1.430   2.420   8.521 -0.4069 -0.1864 -0.3646
 4085SOL    HW123717   1.356   2.463   8.563  1.2890  0.4657  1.9964
 4085SOL    HW223718   1.393   2.400   8.436  0.5584 -0.3863 -0.7375
 4086SOL     OW23719   4.085   3.449   4.816 -0.2865 -0.2111 -0.3059
 4086SOL    HW123720   4.041   3.462   4.732  2.0452  0.5037 -1.4148
 4086SOL    HW223721   4.180   3.457   4.808 -0.0867 -2.0981  0.1992
 4087SOL     OW23722   0.324   3.892  14.747 -0.0288  0.3218 -0.3306
 4087SOL    HW123723   0.419   3.894  14.763  0.1466  1.2771 -1.5317
 4087SOL    HW223724   0.293   3.860  14.832 -1.3129  0.2216 -0.8419
 4088SOL     OW23725   3.218   1.800   6.942  0.2142 -0.2200  0.1860
 4088SOL    HW123726   3.253   1.752   6.867 -2.6348 -1.6703 -0.2578
 4088SOL    HW223727   3.207   1.887   6.903 -0.8877 -0.2282  0.4789
 4089SOL     OW23728   1.175   2.951  10.052 -0.1507  0.2958 -0.0764
 4089SOL    HW123729   1.163   3.030  10.104  2.7604  0.9891 -0.4704
 4089SOL    HW223730   1.265   2.954  10.020 -0.0904 -1.5092 -0.1177
 4090SOL     OW23731   0.309   3.783   6.316  0.0856  0.6434 -0.0472
 4090SOL    HW123732   0.260   3.724   6.374 -1.0507  1.7387  0.1041
 4090SOL    HW223733   0.391   3.799   6.361 -0.0575 -2.1300  1.1927
 4091SOL     OW23734   2.480   0.155  15.310  0.4841 -0.3501 -0.0347
 4091SOL    HW123735   2.438   0.191  15.388 -1.6992 -0.3579 -1.2118
 4091SOL    HW223736   2.469   0.235  15.258  0.6430  0.5870  1.3734
 4092SOL     OW23737   0.524   3.867   6.480  0.4511  0.3556 -0.3132
 4092SOL    HW123738   0.573   3.890   6.559  1.6901 -0.3510 -0.8774
 4092SOL    HW223739   0.452   3.931   6.480 -0.4602 -0.6626 -0.1346
 4093SOL     OW23740   2.687   4.306   7.273 -0.1152 -0.1690  0.6176
 4093SOL    HW123741   2.662   4.335   7.185  2.4058  0.0481 -0.0259
 4093SOL    HW223742   2.684   4.390   7.318 -0.0717  0.5981 -0.7991
 4094SOL     OW23743   1.453   3.790   2.622  0.0070 -0.2078  0.2045
 4094SOL    HW123744   1.409   3.814   2.703  0.5837  0.2306  0.3931
 4094SOL    HW223745   1.388   3.836   2.568 -0.7644 -2.4404 -0.7649
 4095SOL     OW23746   2.007   2.507   1.342  0.4752  0.4937  0.2945
 4095SOL    HW123747   2.013   2.472   1.254  1.3616 -3.6759  2.0377
 4095SOL    HW223748   1.945   2.448   1.384  0.2109  1.1016  0.7692
 4096SOL     OW23749   2.700   1.779   5.208  0.4296 -0.2025 -0.1187
 4096SOL    HW123750   2.638   1.707   5.214 -1.3733  1.1063 -2.9501
 4096SOL    HW223751   2.644   1.855   5.223  0.0940 -0.6450  0.8159
 4097SOL     OW23752   3.146   3.079   0.997  0.4393 -0.0250 -0.6907
 4097SOL    HW123753   3.114   2.999   1.039 -1.5578 -1.0494 -4.1730
 4097SOL    HW223754   3.084   3.147   1.023  0.0566 -0.3345 -0.7857
 4098SOL     OW23755   3.394   0.871   4.915  0.2074 -0.0582 -0.1290
 4098SOL    HW123756   3.399   0.780   4.888 -1.0344 -0.4170  0.8799
 4098SOL    HW223757   3.311   0.897   4.876  0.1360  0.6176  0.4560
 4099SOL     OW23758   0.368   1.028   5.576 -0.1638  0.1247  0.1570
 4099SOL    HW123759   0.414   0.955   5.618  1.1431 -0.7013 -2.6804
 4099SOL    HW223760   0.287   1.033   5.627 -0.5978  0.6847 -0.5913
 4100SOL     OW23761   0.271   0.740   0.860  0.0775  0.4297 -0.0547
 4100SOL    HW123762   0.188   0.699   0.836 -0.1698  1.2519 -0.6498
 4100SOL    HW223763   0.264   0.824   0.814  0.9003  0.8875  0.6654
 4101SOL     OW23764   2.282   0.892   7.812 -0.5906 -0.5368 -0.9541
 4101SOL    HW123765   2.365   0.845   7.809  0.9682  2.1201  0.6219
 4101SOL    HW223766   2.225   0.816   7.799 -0.1997 -1.0457  0.3468
 4102SOL     OW23767   1.065   4.707  15.520 -0.7385  0.1103  0.4001
 4102SOL    HW123768   1.004   0.041  15.563  0.0928  0.6593  0.8301
 4102SOL    HW223769   1.085   4.640  15.586  0.2101  0.6142  0.6343
 4103SOL     OW23770   4.397   2.279   3.736 -0.4496 -0.5610 -0.5887
 4103SOL    HW123771   4.411   2.240   3.650 -1.4678 -1.5421 -0.3066
 4103SOL    HW223772   4.310   2.318   3.729  0.3367  0.7570 -3.0022
 4104SOL     OW23773   2.217   1.566  13.750 -0.5708 -0.1917 -0.0499
 4104SOL    HW123774   2.220   1.655  13.717  0.1135  0.1210  0.8637
 4104SOL    HW223775   2.308   1.537  13.751 -1.3537 -2.6072  1.8247
 4105SOL     OW23776   3.196   4.391   8.712  0.1237 -0.1400 -0.6840
 4105SOL    HW123777   3.117   4.342   8.737  1.4071 -1.7944  0.0949
 4105SOL    HW223778   3.243   4.312   8.685  0.2133 -0.7204  1.2190
 4106SOL     OW23779   2.887   1.566   4.110 -0.0371  0.3456 -0.0886
 4106SOL    HW123780   2.883   1.659   4.132 -1.4090  0.2010  0.2651
 4106SOL    HW223781   2.958   1.534   4.166 -0.4923  1.1877  0.9628
 4107SOL     OW23782   0.322   1.288   8.341  0.2879  0.1588 -0.2744
 4107SOL    HW123783   0.396   1.336   8.304  0.2864 -1.0481 -1.8641
 4107SOL    HW223784   0.260   1.310   8.272 -1.1109 -0.8328  0.6844
 4108SOL     OW23785   4.218   0.197   7.073 -0.2877 -0.4874  0.0187
 4108SOL    HW123786   4.294   0.188   7.015  0.3956  0.5435  0.7509
 4108SOL    HW223787   4.193   0.286   7.048 -0.7736 -0.5282  0.3788
 4109SOL     OW23788   3.243   1.761   8.151  0.3543  0.3979  0.0730
 4109SOL    HW123789   3.275   1.679   8.189 -0.8793  0.7390  1.8204
 4109SOL    HW223790   3.167   1.737   8.098  0.1851 -1.2526  1.0689
 4110SOL     OW23791   4.583   1.378   4.683 -0.0683 -0.2292 -0.6956
 4110SOL    HW123792   4.534   1.453   4.648  0.8382  0.2819 -0.8652
 4110SOL    HW223793   4.666   1.400   4.640  0.2619  1.9542  1.0024
 4111SOL     OW23794   0.333   0.911   3.949 -0.0368 -0.5657  0.0040
 4111SOL    HW123795   0.395   0.945   4.014  2.4552 -2.9872 -1.0866
 4111SOL    HW223796   0.251   0.916   3.998  0.8743 -1.8501  1.6717
 4112SOL     OW23797   3.803   2.746   5.938  0.2952  0.1171 -0.5141
 4112SOL    HW123798   3.743   2.726   5.867  0.8808 -0.3310 -0.8921
 4112SOL    HW223799   3.848   2.661   5.942  3.5516  1.7971 -1.1253
 4113SOL     OW23800   4.571   3.331   1.379  0.0563 -0.0078 -0.4626
 4113SOL    HW123801   4.498   3.355   1.322  0.7440 -0.2154 -1.4321
 4113SOL    HW223802   4.522   3.301   1.456  1.9729 -0.3483  0.6114
 4114SOL     OW23803   3.573   1.857   6.681 -0.4762 -0.6738  0.4339
 4114SOL    HW123804   3.569   1.762   6.685  0.5662 -0.7542 -0.3284
 4114SOL    HW223805   3.629   1.869   6.758 -1.3839 -0.9801  1.1462
 4115SOL     OW23806   2.109   2.845   4.281 -0.3193 -0.5541  0.3073
 4115SOL    HW123807   2.152   2.897   4.348  0.8593 -1.6098  0.3702
 4115SOL    HW223808   2.016   2.856   4.300  0.0179  0.9581  1.0730
 4116SOL     OW23809   2.491   4.449   6.550 -0.2962  0.0509 -0.3248
 4116SOL    HW123810   2.411   4.471   6.596 -0.3632 -1.4837  0.2887
 4116SOL    HW223811   2.488   4.510   6.476 -1.8962 -1.0205 -1.1360
 4117SOL     OW23812   2.640   0.755   4.886 -0.3640  0.5660  0.0227
 4117SOL    HW123813   2.693   0.835   4.883  1.1358 -0.3603  1.2726
 4117SOL    HW223814   2.562   0.775   4.835 -0.4146  0.9864  0.2671
 4118SOL     OW23815   4.555   1.822   0.315  0.1185  0.3255  0.6408
 4118SOL    HW123816   4.567   1.860   0.228  1.4185 -1.6434 -0.0348
 4118SOL    HW223817   4.463   1.832   0.339 -0.2336 -0.7380 -0.2405
 4119SOL     OW23818   2.445   2.211   6.865  0.1568 -0.6015 -0.0317
 4119SOL    HW123819   2.394   2.175   6.793  2.5037 -0.7268 -1.6090
 4119SOL    HW223820   2.477   2.128   6.899 -1.1671 -0.3538  1.8537
 4120SOL     OW23821   2.868   1.942   5.124 -0.0036  0.9988  0.2383
 4120SOL    HW123822   2.839   1.970   5.037  3.4806  2.7272 -0.3563
 4120SOL    HW223823   2.809   1.867   5.132  1.6327 -0.1990  0.9892
 4121SOL     OW23824   2.207   2.570  14.114 -0.0969  0.3027 -0.5054
 4121SOL    HW123825   2.270   2.510  14.075  1.3578  0.8196  1.0592
 4121SOL    HW223826   2.267   2.634  14.153  0.6682 -1.3035  0.9282
 4122SOL     OW23827   4.421   1.767   8.782 -0.3593 -0.2003  0.4714
 4122SOL    HW123828   4.367   1.780   8.860  0.9770 -0.2488  1.4197
 4122SOL    HW223829   4.386   1.835   8.724 -1.6437 -0.1141  1.3449
 4123SOL     OW23830   1.421   4.237   2.048  0.1019 -0.3661 -0.0252
 4123SOL    HW123831   1.488   4.269   2.108 -0.8817  1.6289  0.0141
 4123SOL    HW223832   1.447   4.275   1.965  0.4371  3.6130  1.9063
 4124SOL     OW23833   3.267   4.240   2.639  0.7335  0.5280  0.4604
 4124SOL    HW123834   3.303   4.307   2.697 -0.2168  0.0065  1.6455
 4124SOL    HW223835   3.315   4.272   2.563 -0.8979  0.2239 -0.7042
 4125SOL     OW23836   0.645   1.277   3.726 -0.5290  0.2463  0.0525
 4125SOL    HW123837   0.706   1.248   3.659 -0.3628 -1.0820  0.7933
 4125SOL    HW223838   0.580   1.206   3.725 -0.8058  0.4602  2.9577
 4126SOL     OW23839   1.962   2.003   3.760  1.0374  0.2445 -0.1074
 4126SOL    HW123840   1.915   1.942   3.817  1.4007 -2.7513 -3.0425
 4126SOL    HW223841   2.030   1.952   3.716  0.9299  0.6881 -0.7884
 4127SOL     OW23842   0.383   4.321  10.205 -0.2414  0.1745 -0.3912
 4127SOL    HW123843   0.434   4.397  10.178 -0.0072 -0.0188 -0.4940
 4127SOL    HW223844   0.452   4.284  10.259 -0.7504  3.3133  2.3801
 4128SOL     OW23845   2.104   3.419   3.189  0.1662 -0.0533 -1.2121
 4128SOL    HW123846   2.014   3.390   3.203  0.2366  0.1151 -0.4196
 4128SOL    HW223847   2.158   3.341   3.181  2.4713  1.3676  0.5660
 4129SOL     OW23848   1.552   1.601   4.855 -0.0246 -0.0832 -0.2842
 4129SOL    HW123849   1.583   1.606   4.764  0.9699  1.2452  0.1196
 4129SOL    HW223850   1.469   1.647   4.839  0.2237  0.1660 -0.8760
 4130SOL     OW23851   2.597   4.644   1.006 -0.3403 -0.3324 -0.5876
 4130SOL    HW123852   2.578   4.564   0.957  1.5945 -1.1055 -0.0494
 4130SOL    HW223853   2.690   4.655   0.985 -0.4141  1.9746  0.3082
 4131SOL     OW23854   4.173   2.951   7.279  0.1719 -0.4251  0.0102
 4131SOL    HW123855   4.119   2.934   7.203  0.8062  1.4123 -0.8552
 4131SOL    HW223856   4.244   3.001   7.238  0.1649 -0.9145 -0.5842
 4132SOL     OW23857   1.143   3.519   8.420  0.0236  0.7596  0.0824
 4132SOL    HW123858   1.080   3.534   8.350  0.6368 -1.5226 -0.9481
 4132SOL    HW223859   1.186   3.604   8.424 -0.7725  1.2104 -1.0034
 4133SOL     OW23860   2.156   1.901  17.684  0.1504 -0.0509 -0.0613
 4133SOL    HW123861   2.094   1.953  17.633 -0.5679 -1.3453 -0.4990
 4133SOL    HW223862   2.179   1.830  17.624  0.6945  1.3476 -1.5277
 4134SOL     OW23863   1.788   3.210  15.395  0.0922 -0.2637  0.7021
 4134SOL    HW123864   1.699   3.210  15.358  1.3935 -0.6831 -2.4119
 4134SOL    HW223865   1.820   3.294  15.361 -0.0048 -0.8050 -0.7579
 4135SOL     OW23866   1.418   3.215   7.306  0.4244 -0.3986  0.0571
 4135SOL    HW123867   1.370   3.142   7.268 -0.7866  1.2986 -1.6574
 4135SOL    HW223868   1.345   3.275   7.294 -1.0161 -1.7158  2.2316
 4136SOL     OW23869   1.445   3.645   3.141 -0.2402 -0.3753  0.2290
 4136SOL    HW123870   1.453   3.560   3.186 -2.1250 -1.1107 -0.7953
 4136SOL    HW223871   1.520   3.647   3.082  0.8156  0.1576  1.6014
 4137SOL     OW23872   4.577   1.961   4.248 -0.4614  0.0476 -0.7919
 4137SOL    HW123873   4.548   2.041   4.204  2.7122  0.0909 -2.7755
 4137SOL    HW223874   4.507   1.904   4.217  1.8385 -3.1764 -0.0247
 4138SOL     OW23875   1.401   2.377   3.876 -0.2424 -0.0258 -0.1540
 4138SOL    HW123876   1.312   2.379   3.912 -0.3720  1.6329 -0.5802
 4138SOL    HW223877   1.383   2.303   3.818  0.1017 -0.6375  0.5267
 4139SOL     OW23878   1.444   0.303   7.751  0.1243 -0.2566 -0.0271
 4139SOL    HW123879   1.405   0.359   7.818 -0.4518  0.1531 -0.7045
 4139SOL    HW223880   1.496   0.248   7.810 -0.7424 -0.8304  0.1900
 4140SOL     OW23881   0.979   2.646   6.598 -0.3087 -0.5659 -0.0379
 4140SOL    HW123882   1.050   2.627   6.537 -0.2238  1.0359 -0.4599
 4140SOL    HW223883   0.930   2.719   6.560 -0.3879  1.0177  3.1223
 4141SOL     OW23884   4.525   2.504  16.749 -0.0714  0.4063  0.4152
 4141SOL    HW123885   4.440   2.474  16.717  0.1007  0.1157  0.2280
 4141SOL    HW223886   4.495   2.583  16.793  2.2383  0.4976  1.8360
 4142SOL     OW23887   2.588   2.573   7.189 -0.2840 -0.4901 -0.0630
 4142SOL    HW123888   2.562   2.549   7.100 -0.5054  0.6001 -0.2856
 4142SOL    HW223889   2.526   2.643   7.210  0.3965  0.8591 -2.5185
 4143SOL     OW23890   4.008   2.454   1.625  0.2004 -0.5785  0.0445
 4143SOL    HW123891   4.068   2.385   1.598 -1.5401 -1.5424 -1.3709
 4143SOL    HW223892   3.938   2.465   1.560  0.1522 -0.6772  0.0800
 4144SOL     OW23893   1.548   0.966  10.036  0.2408  0.0825 -0.0641
 4144SOL    HW123894   1.497   0.897   9.993  0.9146  0.7887 -1.9873
 4144SOL    HW223895   1.580   1.000   9.952 -1.3246 -0.4164 -0.8634
 4145SOL     OW23896   1.566   0.768   6.043 -0.3797  0.1385 -0.2117
 4145SOL    HW123897   1.623   0.808   6.108 -2.4576  0.6476  1.3237
 4145SOL    HW223898   1.480   0.804   6.064  0.0501  0.1315  1.5588
 4146SOL     OW23899   0.448   3.545   5.996  0.0812 -0.1958  0.4152
 4146SOL    HW123900   0.508   3.473   5.980  0.4308  0.1108  0.3498
 4146SOL    HW223901   0.366   3.520   5.954  0.1739  0.1715  0.0232
 4147SOL     OW23902   1.534   2.947   3.783 -0.2103  0.0231 -0.3708
 4147SOL    HW123903   1.606   3.005   3.808  0.1652  0.4726 -2.4800
 4147SOL    HW223904   1.519   2.901   3.865 -1.8260  1.4033  0.0987
 4148SOL     OW23905   2.266   1.169  11.364 -0.2454 -0.6113 -0.2352
 4148SOL    HW123906   2.180   1.152  11.325  0.3731  2.3813 -2.9651
 4148SOL    HW223907   2.303   1.208  11.285 -0.5702  1.0057  0.4171
 4149SOL     OW23908   1.588   2.642   8.386  0.4137 -0.0916 -0.2984
 4149SOL    HW123909   1.561   2.551   8.402 -1.1088  0.6103  1.1761
 4149SOL    HW223910   1.548   2.682   8.463 -1.1822 -2.4515  0.1175
 4150SOL     OW23911   2.842   2.017  10.852  0.9286 -0.0769 -0.2138
 4150SOL    HW123912   2.901   1.978  10.916  0.4429 -1.8393 -0.8627
 4150SOL    HW223913   2.894   2.090  10.816  0.0938  1.3407  1.4501
 4151SOL     OW23914   1.719   2.333   3.031  0.2926 -0.4162  0.5759
 4151SOL    HW123915   1.683   2.245   3.022 -2.9080  0.4682  4.7262
 4151SOL    HW223916   1.784   2.323   2.961 -1.8130 -3.4558 -0.8898
 4152SOL     OW23917   1.839   0.173   6.730  0.4155  0.4291 -0.2008
 4152SOL    HW123918   1.766   0.148   6.786  1.8662 -1.8240  0.6640
 4152SOL    HW223919   1.866   0.089   6.693  2.3124  0.7835  0.3898
 4153SOL     OW23920   1.844   0.241   5.174 -0.0503  0.4894 -0.2208
 4153SOL    HW123921   1.883   0.324   5.147  1.5980  0.4973  2.1922
 4153SOL    HW223922   1.752   0.266   5.183 -0.7865 -1.8827 -1.2275
 4154SOL     OW23923   2.201   3.369   1.120 -0.5935 -0.1045 -0.0235
 4154SOL    HW123924   2.184   3.317   1.198  1.8560 -1.4177 -0.3582
 4154SOL    HW223925   2.128   3.430   1.124 -0.1843  0.4128 -0.3816
 4155SOL     OW23926   4.433   1.503  13.482  0.5168 -0.0327 -0.4321
 4155SOL    HW123927   4.351   1.550  13.470  0.7179  0.6711  0.9141
 4155SOL    HW223928   4.484   1.521  13.403  2.0552  1.6269  0.9394
 4156SOL     OW23929   3.353   1.302   2.029 -0.1946 -0.1476  0.1962
 4156SOL    HW123930   3.334   1.209   2.040 -1.4662  0.1243  0.2812
 4156SOL    HW223931   3.434   1.306   1.979  1.1366 -0.9012  2.3282
 4157SOL     OW23932   0.085   3.574   6.798 -0.6776  0.3751 -0.0844
 4157SOL    HW123933   0.020   3.640   6.822 -1.0450  0.4915 -1.3624
 4157SOL    HW223934   0.037   3.519   6.736 -2.0132 -0.6233  1.8659
 4158SOL     OW23935   2.953   2.404   4.950 -0.4235  0.2073  0.2058
 4158SOL    HW123936   2.936   2.325   5.002  0.6391 -0.5484 -0.5912
 4158SOL    HW223937   2.995   2.458   5.017 -0.4799 -0.4415  0.7669
 4159SOL     OW23938   2.360   2.028  14.843 -0.1023  0.2691  0.5804
 4159SOL    HW123939   2.339   2.106  14.895  2.3607  0.8303  0.7222
 4159SOL    HW223940   2.430   2.059  14.786 -1.2091 -1.1116 -1.5145
 4160SOL     OW23941   1.695   0.447   3.489  0.1716  0.2493  0.0414
 4160SOL    HW123942   1.766   0.384   3.477  0.1904  0.3632 -0.4707
 4160SOL    HW223943   1.697   0.476   3.397 -1.6291 -0.5500 -0.2522
 4161SOL     OW23944   2.642   3.024   7.878  0.6217  0.1432  0.3751
 4161SOL    HW123945   2.661   3.107   7.836 -0.8622  0.3895  0.2049
 4161SOL    HW223946   2.598   3.061   7.955  2.5926  0.2078  1.4795
 4162SOL     OW23947   4.169   4.227   5.346  0.9067 -0.1072  0.2222
 4162SOL    HW123948   4.173   4.273   5.429  2.5173 -0.5172  0.3591
 4162SOL    HW223949   4.225   4.278   5.288 -1.4659  1.7668 -0.4295
 4163SOL     OW23950   0.572   1.194   5.655  0.3108  0.0405  0.0826
 4163SOL    HW123951   0.493   1.145   5.630  0.7021 -0.1649 -0.7613
 4163SOL    HW223952   0.556   1.276   5.610  0.9978 -0.3436 -0.8479
 4164SOL     OW23953   1.840   4.227  11.950 -0.4539 -0.4126  0.6467
 4164SOL    HW123954   1.931   4.250  11.933 -0.9472  1.3436  0.3581
 4164SOL    HW223955   1.841   4.205  12.043  1.0642 -0.0716  0.6995
 4165SOL     OW23956   0.651   3.855  12.058 -0.0819  0.2760  0.1358
 4165SOL    HW123957   0.743   3.839  12.039 -0.4187 -0.5066 -0.8387
 4165SOL    HW223958   0.635   3.802  12.136 -1.7989  2.2066  1.1012
 4166SOL     OW23959   2.872   1.297   3.831  0.2365 -0.0970 -0.1862
 4166SOL    HW123960   2.825   1.322   3.751  0.6233  0.8130 -0.1287
 4166SOL    HW223961   2.886   1.384   3.870 -0.4223 -0.4766  0.8961
 4167SOL     OW23962   2.451   4.644   2.977 -0.4519 -0.0266  0.5523
 4167SOL    HW123963   2.360   4.619   2.962  0.0501 -1.3217 -0.3110
 4167SOL    HW223964   2.502   4.577   2.932  0.3186  0.7497  0.2706
 4168SOL     OW23965   1.366   4.710   8.537 -0.1481 -0.4247  0.0630
 4168SOL    HW123966   1.454   4.679   8.555  0.1853 -0.7206 -2.0308
 4168SOL    HW223967   1.332   4.629   8.499 -1.1794  0.1757 -0.3162
 4169SOL     OW23968   0.564   1.265   3.140 -0.4936 -0.0799 -0.2007
 4169SOL    HW123969   0.530   1.230   3.057 -1.1437 -2.4701  1.0846
 4169SOL    HW223970   0.484   1.310   3.167 -0.1089  0.3858  0.1675
 4170SOL     OW23971   4.536   4.120   1.222 -0.8971 -0.0389 -0.0092
 4170SOL    HW123972   4.585   4.193   1.258 -0.3110 -0.9280  0.9963
 4170SOL    HW223973   4.567   4.125   1.132 -1.6868 -1.8692 -0.3912
 4171SOL     OW23974   1.666   1.449   5.920 -0.2649  0.0841  0.3142
 4171SOL    HW123975   1.696   1.466   5.831 -1.6432  1.9477  0.2015
 4171SOL    HW223976   1.695   1.358   5.927  2.0560  0.7969 -0.0059
 4172SOL     OW23977   0.823   1.029   4.464 -0.1244  0.4644  0.4959
 4172SOL    HW123978   0.823   0.957   4.401  1.7795 -0.1238  1.1966
 4172SOL    HW223979   0.853   0.988   4.545  1.5580 -0.3445 -0.5494
 4173SOL     OW23980   0.361   1.735   4.726  0.6325 -0.3354  0.2349
 4173SOL    HW123981   0.392   1.649   4.754  2.2299  1.0869  2.8507
 4173SOL    HW223982   0.276   1.729   4.770 -0.2519 -1.1670 -1.6209
 4174SOL     OW23983   4.527   3.873   6.224  0.5976  0.2108  0.2518
 4174SOL    HW123984   4.459   3.828   6.274  0.8082  0.0858  0.4259
 4174SOL    HW223985   4.591   3.885   6.294 -0.0522  0.5139  0.7982
 4175SOL     OW23986   2.396   1.500   0.241 -0.6026 -0.9318  0.0698
 4175SOL    HW123987   2.415   1.523   0.332  0.8999 -1.4194 -0.1335
 4175SOL    HW223988   2.452   1.426   0.219 -2.5649 -2.1354 -0.9712
 4176SOL     OW23989   3.599   2.670   5.780 -0.0192  0.3002 -0.1564
 4176SOL    HW123990   3.657   2.687   5.707 -0.8125  1.0508 -0.6028
 4176SOL    HW223991   3.516   2.630   5.754 -0.0952  0.1901  0.2456
 4177SOL     OW23992   2.827   3.012   5.340 -0.1352 -0.4343  0.0842
 4177SOL    HW123993   2.922   3.002   5.352 -0.1095 -0.0093  0.2500
 4177SOL    HW223994   2.795   2.967   5.418 -0.7455 -0.4959 -0.2050
 4178SOL     OW23995   3.024   3.440   6.256 -0.1730 -0.1814 -0.4452
 4178SOL    HW123996   3.077   3.516   6.282  1.6678 -0.9932 -1.8126
 4178SOL    HW223997   2.936   3.475   6.272  0.4212  0.4949  1.4197
 4179SOL     OW23998   2.663   4.606   8.754  1.0932 -0.4717  0.3882
 4179SOL    HW123999   2.752   4.620   8.787  0.5521 -0.1487  1.7091
 4179SOL    HW224000   2.617   4.588   8.836 -1.5923 -0.3904 -1.1072
 4180SOL     OW24001   3.939   0.053   4.290  0.8697  0.2903 -0.6839
 4180SOL    HW124002   3.968   4.700   4.335  0.3951 -0.6200 -1.9752
 4180SOL    HW224003   3.919   0.026   4.200  2.4670  1.2395 -1.3172
 4181SOL     OW24004   2.523   3.549   2.561  0.0858  0.3069  1.0892
 4181SOL    HW124005   2.478   3.467   2.539 -0.1765  1.4739 -2.8809
 4181SOL    HW224006   2.616   3.537   2.542 -0.1632 -1.6096  1.0623
 4182SOL     OW24007   4.170   3.306   6.391 -0.4483  0.2110  0.3342
 4182SOL    HW124008   4.077   3.286   6.377  1.1348 -3.7191 -4.3723
 4182SOL    HW224009   4.190   3.342   6.305 -2.9957  1.3470  0.2066
 4183SOL     OW24010   3.549   2.339   4.966  0.3346 -0.8780 -0.3591
 4183SOL    HW124011   3.513   2.394   4.896 -0.5566 -2.2633 -1.0081
 4183SOL    HW224012   3.559   2.396   5.041 -0.5070  1.1273 -1.7563
 4184SOL     OW24013   3.035   2.030   0.277 -0.3648  0.3748 -0.1360
 4184SOL    HW124014   3.045   2.125   0.286 -0.1934  0.1605  1.8358
 4184SOL    HW224015   2.999   2.004   0.361 -2.5921  1.2451 -0.8278
 4185SOL     OW24016   3.819   3.823  12.958  0.7272  0.1805 -0.5051
 4185SOL    HW124017   3.908   3.793  12.977  0.4343  0.2949  1.0280
 4185SOL    HW224018   3.824   3.905  13.007 -0.7408  0.4566 -0.8252
 4186SOL     OW24019   1.290   0.149   2.710 -0.2961 -0.1758  0.8354
 4186SOL    HW124020   1.334   0.142   2.625  0.8147  1.5448  1.2683
 4186SOL    HW224021   1.305   0.064   2.751  2.4192  0.1323  0.4701
 4187SOL     OW24022   0.129   1.890  13.084 -0.3599  0.1971  0.1682
 4187SOL    HW124023   0.072   1.924  13.016  0.4398  0.0358 -0.5746
 4187SOL    HW224024   0.092   1.922  13.167 -0.0576 -0.8949  0.7261
 4188SOL     OW24025   0.371   4.111  12.014 -0.0800  0.0321  0.3198
 4188SOL    HW124026   0.390   4.041  12.076  0.2626 -1.1755 -1.1579
 4188SOL    HW224027   0.454   4.157  12.029 -0.3653  1.0338 -1.1633
 4189SOL     OW24028   2.403   1.371   7.030 -0.3094  0.0044  0.0826
 4189SOL    HW124029   2.349   1.295   7.050 -1.0110  0.3705 -0.4215
 4189SOL    HW224030   2.450   1.340   6.952  1.4814  2.1092  0.3271
 4190SOL     OW24031   3.535   0.723   4.389 -0.1813 -0.0919  0.0935
 4190SOL    HW124032   3.492   0.759   4.467  2.5695 -1.4212  2.2342
 4190SOL    HW224033   3.471   0.732   4.319 -0.0731  0.5075  0.0755
 4191SOL     OW24034   3.172   2.271  15.410 -0.4174  0.2399 -0.2196
 4191SOL    HW124035   3.265   2.286  15.395  0.1707 -0.4709  2.8582
 4191SOL    HW224036   3.153   2.352  15.458 -0.0187  0.1954  0.0083
 4192SOL     OW24037   2.418   1.458  12.901  0.0832 -0.2869  0.0242
 4192SOL    HW124038   2.494   1.430  12.952  0.0565 -0.0930  0.1711
 4192SOL    HW224039   2.357   1.390  12.931  0.9413 -1.8213 -1.6949
 4193SOL     OW24040   0.987   0.213   5.179 -0.0376 -0.1372 -0.2685
 4193SOL    HW124041   0.960   0.148   5.114  1.3717 -0.8020 -0.1921
 4193SOL    HW224042   1.042   0.270   5.126 -0.6302  0.3082 -0.4024
 4194SOL     OW24043   3.954   1.076   8.650 -0.3253 -0.1467 -0.0976
 4194SOL    HW124044   3.879   1.054   8.706 -0.1701  0.8743  0.5093
 4194SOL    HW224045   4.025   1.088   8.714  0.2708 -0.8811 -0.6220
 4195SOL     OW24046   3.233   3.984   4.609 -0.8463 -0.0947 -0.1134
 4195SOL    HW124047   3.276   4.049   4.553 -1.5841 -0.2859 -0.8896
 4195SOL    HW224048   3.142   3.981   4.580 -1.1220  1.0906  0.5901
 4196SOL     OW24049   0.317   3.206   3.946 -0.3219  0.5900  0.2079
 4196SOL    HW124050   0.373   3.262   3.891 -0.3002 -0.4805 -0.8554
 4196SOL    HW224051   0.365   3.205   4.029 -0.4780  0.0527  0.2886
 4197SOL     OW24052   0.023   1.752   3.404  0.2269  0.1103  0.0452
 4197SOL    HW124053   4.693   1.767   3.328 -0.3857 -1.4072  0.1854
 4197SOL    HW224054   0.029   1.657   3.416  1.4231  0.4306  1.9050
 4198SOL     OW24055   3.126   3.742   0.561  0.1518  0.2476 -0.8992
 4198SOL    HW124056   3.098   3.832   0.548 -0.5457  0.0685 -0.6016
 4198SOL    HW224057   3.047   3.702   0.596 -1.3954  3.5589 -0.6410
 4199SOL     OW24058   3.610   4.206   4.003  0.3621  0.2761 -0.0040
 4199SOL    HW124059   3.515   4.209   3.994  0.4810  0.2784 -1.2006
 4199SOL    HW224060   3.627   4.112   3.998  0.7795  0.3600 -0.1410
 4200SOL     OW24061   0.244   3.448   4.479  0.0770 -0.2166  0.0684
 4200SOL    HW124062   0.258   3.464   4.385  0.1656 -0.3350  0.0625
 4200SOL    HW224063   0.149   3.451   4.493 -0.3011 -0.2732 -2.4522
 4201SOL     OW24064   3.852   2.591   3.047 -0.2769  0.1903  0.4838
 4201SOL    HW124065   3.858   2.567   2.955 -0.3042  1.1469  0.2277
 4201SOL    HW224066   3.898   2.517   3.087 -1.7490 -1.3318 -0.6783
 4202SOL     OW24067   1.790   0.108   8.594 -0.1710 -0.2546  0.4164
 4202SOL    HW124068   1.762   0.191   8.635 -0.0405 -0.3683  0.7404
 4202SOL    HW224069   1.833   0.137   8.514  0.5339 -1.5701  0.3182
 4203SOL     OW24070   3.361   3.604   9.072 -0.2932 -0.2816 -1.2041
 4203SOL    HW124071   3.279   3.573   9.109  0.0554 -0.0912 -0.2767
 4203SOL    HW224072   3.414   3.618   9.150 -1.4973  0.8750 -0.5899
 4204SOL     OW24073   3.585   4.363   1.917 -0.3555 -0.6415  0.0760
 4204SOL    HW124074   3.627   4.323   1.994  1.2088  1.1493  0.1467
 4204SOL    HW224075   3.585   4.287   1.859  0.5980  0.9261 -1.9851
 4205SOL     OW24076   3.251   3.331   0.003  0.4634 -0.0543 -0.2863
 4205SOL    HW124077   3.292   3.407  17.667 -0.0603 -0.3096 -1.2822
 4205SOL    HW224078   3.193   3.378   0.062 -0.4646 -1.0455 -0.4130
 4206SOL     OW24079   3.640   2.639   0.554 -0.2157 -0.0155  0.0589
 4206SOL    HW124080   3.629   2.581   0.478 -2.7091  1.1286 -0.4600
 4206SOL    HW224081   3.604   2.716   0.509 -0.3053  0.3277  0.7190
 4207SOL     OW24082   1.828   4.684  14.995  0.1758 -0.4446 -0.3652
 4207SOL    HW124083   1.740   4.693  15.030  0.5916 -1.0297  0.8335
 4207SOL    HW224084   1.827   4.590  14.977 -3.6229 -0.5502  0.4819
 4208SOL     OW24085   4.040   2.583   3.516 -0.5226 -0.0223 -0.0642
 4208SOL    HW124086   4.080   2.554   3.598 -0.9288  0.4337  0.2950
 4208SOL    HW224087   4.076   2.515   3.459  1.4121 -0.4383  1.6453
 4209SOL     OW24088   0.447   1.927  13.792  0.2518  0.0076 -0.7789
 4209SOL    HW124089   0.531   1.967  13.766  0.1464 -0.8729 -2.4733
 4209SOL    HW224090   0.386   1.995  13.764  1.4880  1.8880  1.0611
 4210SOL     OW24091   1.665   4.103   7.396  0.2133 -0.3833  0.0360
 4210SOL    HW124092   1.703   4.114   7.308  0.8114  0.2971  0.3842
 4210SOL    HW224093   1.635   4.012   7.386 -0.9951 -0.2558  2.5232
 4211SOL     OW24094   2.506   3.620   2.851 -0.0598 -0.2164 -0.4881
 4211SOL    HW124095   2.515   3.659   2.764 -1.5584  1.9553  0.3317
 4211SOL    HW224096   2.432   3.564   2.828 -0.6581  0.2571  0.3026
 4212SOL     OW24097   1.044   2.783  11.659 -1.0417 -0.4529  0.2790
 4212SOL    HW124098   1.051   2.769  11.753  1.7175 -0.0917  0.1304
 4212SOL    HW224099   1.136   2.801  11.638 -1.0792 -1.0890 -0.4479
 4213SOL     OW24100   4.360   3.384   4.564  0.6027 -0.0875 -0.1950
 4213SOL    HW124101   4.360   3.292   4.592 -0.3375 -0.1205 -0.2949
 4213SOL    HW224102   4.399   3.380   4.477 -0.6881  0.8844 -0.8174
 4214SOL     OW24103   2.499   0.677   4.300 -0.4289  0.3138  0.2336
 4214SOL    HW124104   2.592   0.659   4.286 -0.2909  1.2452 -0.0108
 4214SOL    HW224105   2.463   0.645   4.217 -0.0612 -0.5897  0.4196
 4215SOL     OW24106   3.505   2.924  10.170 -0.0523 -0.1924  1.2376
 4215SOL    HW124107   3.561   2.961  10.102 -1.3646 -0.4822  0.0074
 4215SOL    HW224108   3.515   2.993  10.236 -1.5973  2.0732 -0.9285
 4216SOL     OW24109   2.006   4.329   9.493 -0.0939  0.1775 -0.6603
 4216SOL    HW124110   2.021   4.404   9.550 -0.4853 -0.6708  0.5442
 4216SOL    HW224111   2.096   4.305   9.469 -0.4522 -0.9201 -0.9104
 4217SOL     OW24112   0.071   0.678   6.318  0.2339  0.4155  0.1659
 4217SOL    HW124113   0.103   0.717   6.400 -0.6492 -1.7573  1.5382
 4217SOL    HW224114   0.136   0.608   6.307  0.2838  0.5158 -0.1953
 4218SOL     OW24115   0.118   2.862   3.802  0.2814  0.4448  0.6764
 4218SOL    HW124116   0.171   2.786   3.778 -0.1223  0.3498  0.0886
 4218SOL    HW224117   0.149   2.878   3.891  0.4815  5.5924 -0.2701
 4219SOL     OW24118   2.300   0.613   9.000  0.4052  0.4475 -0.0656
 4219SOL    HW124119   2.234   0.620   8.931  1.1330  2.5130 -0.5565
 4219SOL    HW224120   2.366   0.570   8.947 -0.0387 -1.8882  1.2759
 4220SOL     OW24121   2.178   0.702   2.077 -0.2846  0.3980 -0.1361
 4220SOL    HW124122   2.179   0.691   1.982 -1.7846 -1.9086  0.1372
 4220SOL    HW224123   2.126   0.627   2.104  1.4193 -1.1004 -1.0200
 4221SOL     OW24124   2.576   3.258   5.724  0.1230 -0.5047 -0.1192
 4221SOL    HW124125   2.647   3.194   5.728  0.0703 -0.5713 -0.2432
 4221SOL    HW224126   2.532   3.245   5.640  1.3001  0.9428 -0.9601
 4222SOL     OW24127   1.378   4.101  13.686 -0.5820 -0.1727 -0.1162
 4222SOL    HW124128   1.353   4.103  13.778 -0.7607 -0.1528 -0.1652
 4222SOL    HW224129   1.388   4.195  13.669  3.0778 -0.7189 -0.9600
 4223SOL     OW24130   2.047   4.241  12.480  0.2968  0.2164 -0.1776
 4223SOL    HW124131   2.138   4.262  12.502 -0.2019  0.2154  1.8367
 4223SOL    HW224132   2.035   4.154  12.518  0.3187  0.7530  1.0513
 4224SOL     OW24133   2.386   0.840   3.557  0.0090  0.3229 -0.1139
 4224SOL    HW124134   2.481   0.847   3.559  0.0101  0.1321  0.5574
 4224SOL    HW224135   2.363   0.747   3.555 -0.7402  0.4863  0.4977
 4225SOL     OW24136   0.812   0.850   0.899 -0.1185 -0.2755 -0.8082
 4225SOL    HW124137   0.766   0.929   0.870 -0.2598 -0.4350 -1.0187
 4225SOL    HW224138   0.899   0.889   0.909 -0.3610  0.6445 -2.3646
 4226SOL     OW24139   0.394   0.787   7.466  0.3053 -0.1374 -0.0085
 4226SOL    HW124140   0.449   0.733   7.410  0.7095  0.4348 -0.1601
 4226SOL    HW224141   0.390   0.734   7.546  0.0751 -0.1639 -0.0390
 4227SOL     OW24142   3.944   3.935   6.910  0.4725 -0.5122  0.1741
 4227SOL    HW124143   3.854   3.939   6.878  0.6162 -1.2536 -0.3267
 4227SOL    HW224144   3.927   3.922   7.003  1.7298  1.9272  0.7485
 4228SOL     OW24145   4.015   3.873   2.281  0.6942  0.1183 -0.1796
 4228SOL    HW124146   3.979   3.949   2.235  1.4558 -0.7809 -2.2950
 4228SOL    HW224147   3.959   3.798   2.259 -0.1457  0.4332  0.8690
 4229SOL     OW24148   4.601   1.031   5.731 -0.0271  0.1983 -0.0257
 4229SOL    HW124149   4.670   1.085   5.770 -0.1385 -0.9543  1.7354
 4229SOL    HW224150   4.570   0.985   5.808 -2.8292  1.6383 -0.2885
 4230SOL     OW24151   4.353   4.030  15.075  0.1090 -0.5781 -0.5740
 4230SOL    HW124152   4.359   3.997  15.164 -1.7433 -1.3273 -0.7233
 4230SOL    HW224153   4.283   4.093  15.091  0.3763 -0.1076 -1.2469
 4231SOL     OW24154   4.154   3.172  11.154  0.5843 -0.1199 -0.3094
 4231SOL    HW124155   4.223   3.113  11.123  0.5117  0.5182 -1.6777
 4231SOL    HW224156   4.085   3.143  11.094 -0.4007  0.8929  0.3300
 4232SOL     OW24157   3.362   3.746   1.921 -0.4282  0.3734  0.1334
 4232SOL    HW124158   3.351   3.652   1.906 -0.2132  0.2629  0.6790
 4232SOL    HW224159   3.334   3.758   2.012 -0.5912 -0.8985  0.2479
 4233SOL     OW24160   4.450   1.206   1.467 -0.6794 -0.1838 -0.3213
 4233SOL    HW124161   4.424   1.251   1.387 -1.3734  0.8194  0.4572
 4233SOL    HW224162   4.387   1.134   1.462 -0.4954 -0.3649 -0.0351
 4234SOL     OW24163   1.166   3.562  11.507  0.1603  0.1874  0.1860
 4234SOL    HW124164   1.259   3.582  11.497 -0.0548  0.6062 -0.9561
 4234SOL    HW224165   1.129   3.650  11.509  0.4942  0.3577 -1.2217
 4235SOL     OW24166   2.376   4.537   8.207 -1.0227  0.0473 -0.4247
 4235SOL    HW124167   2.361   4.507   8.296 -1.0176  0.0441 -0.4250
 4235SOL    HW224168   2.410   4.625   8.224 -1.2814  0.1478 -0.4231
 4236SOL     OW24169   4.381   3.368   2.834 -0.0263 -0.9016 -0.6539
 4236SOL    HW124170   4.436   3.443   2.812  0.4697 -1.3149 -0.8410
 4236SOL    HW224171   4.299   3.411   2.810 -0.0549 -0.7642 -0.3190
 4237SOL     OW24172   3.289   2.501  16.791 -0.6494  0.3194  0.2176
 4237SOL    HW124173   3.230   2.501  16.866  0.0353 -0.2269  0.7531
 4237SOL    HW224174   3.332   2.585  16.806 -1.3689  0.4513  1.5986
 4238SOL     OW24175   3.154   1.107   0.147 -0.6545 -0.4003  0.4701
 4238SOL    HW124176   3.193   1.037   0.096  0.7431 -0.0000  0.9863
 4238SOL    HW224177   3.072   1.065   0.171 -0.6160 -0.5844  0.2694
 4239SOL     OW24178   4.389   2.615   2.469 -0.3842  0.5273 -0.2273
 4239SOL    HW124179   4.457   2.647   2.408  0.9942 -1.9781  0.0096
 4239SOL    HW224180   4.435   2.535   2.493 -1.0007  0.0694 -0.5906
 4240SOL     OW24181   1.861   2.736   6.826 -0.5762 -0.2138 -0.2441
 4240SOL    HW124182   1.895   2.823   6.805 -2.2926  0.5647  0.2195
 4240SOL    HW224183   1.879   2.697   6.740 -0.6757  0.3370 -0.5148
 4241SOL     OW24184   3.920   1.781   9.597 -0.0458  0.3770  0.0704
 4241SOL    HW124185   3.960   1.809   9.679 -1.4609 -0.1784  0.9540
 4241SOL    HW224186   3.909   1.864   9.550 -0.4259  0.1964 -0.1606
 4242SOL     OW24187   2.486   4.279  17.543 -0.0593 -0.6607 -0.0040
 4242SOL    HW124188   2.563   4.298  17.597  0.5116 -3.0451  0.0283
 4242SOL    HW224189   2.515   4.312  17.458 -2.3445  0.4600 -0.3468
 4243SOL     OW24190   2.467   3.671  10.368  0.1610 -0.6078  0.1375
 4243SOL    HW124191   2.555   3.707  10.374 -0.0231 -0.1962  0.3618
 4243SOL    HW224192   2.471   3.604  10.436 -0.5539 -0.1650  0.6175
 4244SOL     OW24193   3.280   3.711   8.854 -0.7402 -0.1736  0.3400
 4244SOL    HW124194   3.298   3.635   8.799  1.5377 -0.1423  1.0605
 4244SOL    HW224195   3.323   3.665   8.926 -2.6510  0.8623  2.1622
 4245SOL     OW24196   3.975   0.439   0.546 -0.3203 -0.4698  0.0569
 4245SOL    HW124197   3.975   0.349   0.581 -0.2261 -0.5814 -0.2323
 4245SOL    HW224198   3.896   0.478   0.582  0.9391 -0.2513  2.5645
 4246SOL     OW24199   2.463   3.312   7.019 -0.1192  0.3790 -0.3706
 4246SOL    HW124200   2.544   3.356   6.991  0.7817 -0.8883  0.2837
 4246SOL    HW224201   2.419   3.385   7.062 -1.2346  0.4744 -1.6784
 4247SOL     OW24202   1.044   3.372   5.082  0.0854  0.1613 -0.3513
 4247SOL    HW124203   1.022   3.461   5.055 -1.3159 -0.4853 -1.3227
 4247SOL    HW224204   1.098   3.336   5.012  0.0288 -1.4857  0.4632
 4248SOL     OW24205   4.517   0.485   7.446  0.2689 -0.5139  0.0273
 4248SOL    HW124206   4.442   0.427   7.457 -1.2870  1.1511 -1.7066
 4248SOL    HW224207   4.481   0.543   7.379  1.1829  0.7892  0.6605
 4249SOL     OW24208   0.341   0.609  14.555  0.1932  0.5969  0.6750
 4249SOL    HW124209   0.338   0.532  14.500  2.1335  1.1282 -0.1616
 4249SOL    HW224210   0.279   0.661  14.504  0.0041 -0.5713 -0.2814
 4250SOL     OW24211   1.481   2.323   8.029 -0.4262 -0.6609 -0.0848
 4250SOL    HW124212   1.429   2.285   7.958  0.5830  1.5185 -2.0081
 4250SOL    HW224213   1.475   2.417   8.014  0.5629 -0.2454  2.0337
 4251SOL     OW24214   1.179   3.543   1.915  0.0992 -0.1058 -0.4331
 4251SOL    HW124215   1.191   3.453   1.945 -2.6831 -0.6117 -0.8503
 4251SOL    HW224216   1.202   3.546   1.822  1.0541 -2.4027 -0.2843
 4252SOL     OW24217   4.615   2.396   5.592 -0.0392  0.0983 -0.0119
 4252SOL    HW124218   4.649   2.329   5.533 -3.6270 -0.8713 -1.0025
 4252SOL    HW224219   4.655   2.472   5.551  1.7917 -0.8759 -0.0323
 4253SOL     OW24220   1.671   2.142   1.860  0.2242  0.2768  0.5390
 4253SOL    HW124221   1.649   2.064   1.911  1.5446  0.8849  2.0297
 4253SOL    HW224222   1.592   2.165   1.810  0.3747 -1.7723 -0.6426
 4254SOL     OW24223   4.096   0.107   9.282  0.4683 -0.0823  0.1137
 4254SOL    HW124224   4.077   0.027   9.331  2.8219 -1.5899 -1.4579
 4254SOL    HW224225   4.037   0.097   9.207  1.9053  3.9080 -1.5407
 4255SOL     OW24226   2.207   0.050   5.008 -0.0928  0.5625  0.0653
 4255SOL    HW124227   2.157   0.130   4.994 -0.7381  0.0417 -0.6504
 4255SOL    HW224228   2.141   4.724   5.054  2.0419 -2.9392 -0.7492
 4256SOL     OW24229   0.760   1.023  11.907  0.3682 -0.4434 -0.2264
 4256SOL    HW124230   0.773   0.942  11.859  1.1846 -1.0002  0.9366
 4256SOL    HW224231   0.731   1.087  11.841  0.0676  1.0758  1.3781
 4257SOL     OW24232   2.467   4.310   9.683 -0.4919 -0.0617  0.1788
 4257SOL    HW124233   2.422   4.231   9.713 -1.6698  0.6663  0.2913
 4257SOL    HW224234   2.393   4.367   9.666  0.0536  0.0666 -1.7874
 4258SOL     OW24235   4.347   3.370  12.577  0.0919  0.0898 -0.1526
 4258SOL    HW124236   4.397   3.290  12.590  2.4223  1.3963 -1.1173
 4258SOL    HW224237   4.258   3.347  12.550 -0.9199  1.4253  2.0389
 4259SOL     OW24238   1.137   3.224   7.106  0.1687  0.6547  0.0308
 4259SOL    HW124239   1.078   3.150   7.119  0.3343  0.2337 -1.6296
 4259SOL    HW224240   1.146   3.234   7.011  0.1211 -0.0213 -0.0394
 4260SOL     OW24241   4.229   1.382   4.962  0.8315 -0.4198 -0.3111
 4260SOL    HW124242   4.240   1.297   4.919 -1.0964 -1.8757  2.0477
 4260SOL    HW224243   4.313   1.393   5.006  0.3372  1.3874  0.1646
 4261SOL     OW24244   4.000   0.747   4.576  0.4941  0.0880  0.0044
 4261SOL    HW124245   4.001   0.652   4.564 -0.3765 -0.0958  1.4691
 4261SOL    HW224246   4.018   0.771   4.485  0.9633 -1.2703 -0.2682
 4262SOL     OW24247   1.172   2.212   6.633 -0.1926  0.5382  0.0481
 4262SOL    HW124248   1.229   2.137   6.650 -2.0043 -0.3812  2.1190
 4262SOL    HW224249   1.238   2.281   6.625  0.2241  0.2032  0.6385
 4263SOL     OW24250   4.709   1.423   9.693  0.1123  0.3636 -0.4473
 4263SOL    HW124251   0.002   1.513   9.718 -0.1924 -0.0110  1.0839
 4263SOL    HW224252   0.023   1.417   9.606 -0.1212  1.1549 -0.6042
 4264SOL     OW24253   1.241   2.718   5.154 -0.4296 -0.0564 -0.4246
 4264SOL    HW124254   1.243   2.649   5.221 -0.2844  0.1159 -0.2533
 4264SOL    HW224255   1.291   2.669   5.089  0.9145 -0.0929  0.6372
 4265SOL     OW24256   2.447   0.103   3.594 -0.9747 -0.2196 -0.0138
 4265SOL    HW124257   2.381   0.070   3.534 -0.5820  0.7248 -0.9606
 4265SOL    HW224258   2.418   0.056   3.673 -0.4169  1.3616  1.1358
 4266SOL     OW24259   0.464   2.491   3.682  0.1349 -0.1014 -0.1459
 4266SOL    HW124260   0.521   2.566   3.699 -1.8988  1.3344  0.3890
 4266SOL    HW224261   0.485   2.449   3.766  0.4669  0.8371  0.2395
 4267SOL     OW24262   4.474   3.369  13.507 -0.3017 -0.1002 -0.1017
 4267SOL    HW124263   4.394   3.360  13.559 -0.9170  2.0201 -0.6879
 4267SOL    HW224264   4.531   3.416  13.569  0.4364  0.9245 -1.5556
 4268SOL     OW24265   2.220   0.011   5.875  0.1971  0.6959 -0.4712
 4268SOL    HW124266   2.292   4.675   5.874  1.8644  2.6249  0.2767
 4268SOL    HW224267   2.215   0.014   5.779 -0.3424 -3.4828 -0.5716
 4269SOL     OW24268   4.514   4.054   3.546 -0.5096 -0.1401  0.2110
 4269SOL    HW124269   4.459   3.979   3.523  0.5559 -0.1856 -2.2243
 4269SOL    HW224270   4.598   4.021   3.512 -0.7874 -1.2742  0.6256
 4270SOL     OW24271   4.397   3.098   7.150  0.2129  0.2599 -0.2895
 4270SOL    HW124272   4.375   3.173   7.096 -0.0643  2.9924  3.6342
 4270SOL    HW224273   4.431   3.133   7.232 -2.3988  1.0193  0.4475
 4271SOL     OW24274   0.685   1.200   2.760 -0.2797  0.1102  0.4649
 4271SOL    HW124275   0.633   1.279   2.752  0.2808  0.3797 -0.4838
 4271SOL    HW224276   0.760   1.235   2.809 -1.8508  1.7225  1.7125
 4272SOL     OW24277   1.923   0.635   7.096  0.5936  0.1330 -0.3963
 4272SOL    HW124278   1.949   0.546   7.073  1.6252  0.9556 -2.4694
 4272SOL    HW224279   1.881   0.661   7.014 -0.0947 -0.5073 -0.2435
 4273SOL     OW24280   4.366   3.400  14.542 -0.5723 -0.2229 -0.4869
 4273SOL    HW124281   4.452   3.364  14.566  0.2646  1.7233 -0.5678
 4273SOL    HW224282   4.326   3.414  14.628 -0.0578 -1.4478 -0.0445
 4274SOL     OW24283   2.773   0.958  16.611  0.3860  0.6615 -1.2471
 4274SOL    HW124284   2.700   1.019  16.625 -2.1735 -3.1308  1.7265
 4274SOL    HW224285   2.751   0.927  16.523 -0.9247 -0.6219 -0.4666
 4275SOL     OW24286   1.795   3.217   3.956  0.4577 -0.3188 -0.5978
 4275SOL    HW124287   1.823   3.307   3.973  2.3716 -1.2025  0.9209
 4275SOL    HW224288   1.863   3.156   3.983 -0.3775 -0.0279  2.1964
 4276SOL     OW24289   3.099   0.615   2.879  0.0907 -0.0624 -0.5371
 4276SOL    HW124290   3.095   0.539   2.821 -1.8863  1.1650 -2.0144
 4276SOL    HW224291   3.195   0.615   2.878  0.0969  0.4605  0.0945
 4277SOL     OW24292   4.060   2.241  15.000 -0.4606  0.3161 -0.0107
 4277SOL    HW124293   4.143   2.271  14.962 -1.0683  0.9582 -0.8548
 4277SOL    HW224294   4.011   2.323  14.988  0.5180  1.0001  0.6564
 4278SOL     OW24295   2.344   3.540  15.252 -0.1375 -0.5268 -0.4203
 4278SOL    HW124296   2.419   3.481  15.241  0.3899  0.0948 -0.1386
 4278SOL    HW224297   2.369   3.590  15.330  0.9940  0.3012 -1.3142
 4279SOL     OW24298   0.790   3.737   6.045  0.3500 -0.2097  0.6004
 4279SOL    HW124299   0.733   3.769   6.115 -0.1032 -0.3617  0.3019
 4279SOL    HW224300   0.851   3.811   6.046  0.0874 -0.0158  1.6579
 4280SOL     OW24301   2.575   3.196   6.693 -0.2958  0.1470 -0.7309
 4280SOL    HW124302   2.641   3.128   6.698  0.5203  1.0535  0.9545
 4280SOL    HW224303   2.626   3.274   6.671 -1.2862  0.7880 -0.7807
 4281SOL     OW24304   4.447   2.941   3.957 -0.2925 -0.6386 -0.3621
 4281SOL    HW124305   4.501   2.997   3.900  0.6640  0.5751  1.7405
 4281SOL    HW224306   4.517   2.886   3.992 -1.1953 -4.2483 -4.2984
 4282SOL     OW24307   1.846   3.640   5.672 -0.6564  0.4317  0.1920
 4282SOL    HW124308   1.832   3.698   5.597 -2.1919 -0.7305 -0.4243
 4282SOL    HW224309   1.872   3.698   5.744 -0.1930 -1.2214  1.3427
 4283SOL     OW24310   3.112   3.085  13.176 -0.3055  0.0081 -0.1225
 4283SOL    HW124311   3.031   3.057  13.220  1.3234 -0.0877  2.7934
 4283SOL    HW224312   3.178   3.017  13.189  0.7119  1.1680  0.7187
 4284SOL     OW24313   2.156   0.719   0.934 -0.3974  0.3790  0.3220
 4284SOL    HW124314   2.089   0.775   0.973  1.2065  2.0090  0.7074
 4284SOL    HW224315   2.187   0.666   1.008 -0.0600  0.5087  0.2762
 4285SOL     OW24316   3.773   1.522   7.232 -0.3214  0.5132 -0.1564
 4285SOL    HW124317   3.715   1.565   7.169  1.1811 -0.1414 -1.9874
 4285SOL    HW224318   3.714   1.488   7.299  1.0790 -1.4406  0.0733
 4286SOL     OW24319   1.723   3.538   8.276  0.0060  0.1617  0.0256
 4286SOL    HW124320   1.629   3.541   8.289 -0.2441 -0.6435 -1.6505
 4286SOL    HW224321   1.750   3.460   8.325  1.1061 -0.3149 -1.3259
 4287SOL     OW24322   2.445   3.070   7.103  0.0897  0.2589  0.1905
 4287SOL    HW124323   2.437   3.151   7.053 -0.5399 -0.1324 -0.3497
 4287SOL    HW224324   2.537   3.081   7.127 -0.0874  0.6570  0.6790
 4288SOL     OW24325   0.774   2.955   7.828  0.4019  0.1356 -0.2927
 4288SOL    HW124326   0.799   3.025   7.889  0.6886 -0.7483  0.5994
 4288SOL    HW224327   0.808   2.992   7.746 -0.6773 -1.1328 -1.3255
 4289SOL     OW24328   1.572   1.320   5.145 -0.0034 -0.0477 -0.2632
 4289SOL    HW124329   1.486   1.296   5.178 -1.0337  2.6946 -0.9560
 4289SOL    HW224330   1.604   1.369   5.220  1.6917 -0.6746 -0.5651
 4290SOL     OW24331   3.578   1.707   8.790  0.4540 -1.0743  0.1100
 4290SOL    HW124332   3.489   1.742   8.786  1.1938  0.6367 -1.0571
 4290SOL    HW224333   3.604   1.728   8.700  1.9226  1.2623  1.0949
 4291SOL     OW24334   2.138   4.333   7.462 -0.0351  0.1608  0.2465
 4291SOL    HW124335   2.051   4.313   7.496  0.0065  0.4002  0.4986
 4291SOL    HW224336   2.110   4.334   7.371 -0.4551  0.9025  0.3834
 4292SOL     OW24337   2.318   3.747  11.948  0.4029  0.4771  0.1827
 4292SOL    HW124338   2.240   3.714  11.991  0.5151 -2.7539 -2.1170
 4292SOL    HW224339   2.367   3.776  12.024  0.9024  0.7849 -0.2550
 4293SOL     OW24340   1.061   1.128   5.823  0.0297 -0.0752  0.8687
 4293SOL    HW124341   1.047   1.084   5.907  1.8040 -0.4708  0.9463
 4293SOL    HW224342   0.992   1.086   5.772 -0.2472  0.2914  0.9351
 4294SOL     OW24343   0.710   2.116   4.840 -0.1451  0.2685 -0.5521
 4294SOL    HW124344   0.623   2.152   4.823 -0.9770 -1.5382 -0.1228
 4294SOL    HW224345   0.691   2.025   4.819 -1.1916  0.0176  1.5924
 4295SOL     OW24346   3.837   3.149  10.427 -0.4155 -0.2342 -0.3901
 4295SOL    HW124347   3.820   3.129  10.519 -0.0569 -1.2529 -0.5341
 4295SOL    HW224348   3.871   3.064  10.398  0.4308  0.5150 -1.5991
 4296SOL     OW24349   0.450   1.596   9.139  0.4604  0.3539 -0.2506
 4296SOL    HW124350   0.461   1.678   9.089  0.3577 -0.9360 -2.3809
 4296SOL    HW224351   0.437   1.536   9.065 -2.4327  1.7025 -0.8367
 4297SOL     OW24352   1.463   3.078   6.451  0.3788  0.2879  0.2828
 4297SOL    HW124353   1.380   3.125   6.456 -0.5833 -1.3146 -0.6076
 4297SOL    HW224354   1.485   3.070   6.544  1.6538  1.0018  0.0423
 4298SOL     OW24355   3.537   4.106  15.097  0.1079  0.7512  0.6000
 4298SOL    HW124356   3.563   4.032  15.042  0.8832 -1.9499  4.5699
 4298SOL    HW224357   3.444   4.088  15.114 -0.3000  2.4841  0.1743
 4299SOL     OW24358   3.443   3.350  15.121 -0.3287  0.4693  0.2235
 4299SOL    HW124359   3.490   3.429  15.149 -2.3501  2.1058 -1.0306
 4299SOL    HW224360   3.491   3.319  15.045  0.2940  1.2824  0.2854
 4300SOL     OW24361   2.274   3.249   4.511 -0.2864 -0.4296  0.5486
 4300SOL    HW124362   2.294   3.304   4.587  2.8858 -3.4007  1.8613
 4300SOL    HW224363   2.360   3.228   4.475 -1.0064 -2.3104 -0.1180
 4301SOL     OW24364   0.742   1.309   6.207 -0.1219 -0.1781 -0.3413
 4301SOL    HW124365   0.695   1.388   6.178 -0.2184 -0.1897 -0.2152
 4301SOL    HW224366   0.794   1.340   6.281 -1.1968 -2.5973  1.4381
 4302SOL     OW24367   2.722   1.788  12.441  0.3819  0.5366  0.5937
 4302SOL    HW124368   2.727   1.836  12.358 -0.8366  1.3497  0.9928
 4302SOL    HW224369   2.640   1.740  12.435  0.4298  0.6010 -0.4694
 4303SOL     OW24370   4.048   0.308   9.036  0.2470 -0.4700 -0.0702
 4303SOL    HW124371   4.016   0.349   8.955 -0.3699  2.7324  1.7800
 4303SOL    HW224372   3.972   0.257   9.061 -0.2935  1.4388  2.1689
 4304SOL     OW24373   3.416   3.521  12.494  0.5742  0.1354 -0.1497
 4304SOL    HW124374   3.489   3.571  12.457  0.2766  0.6255 -0.0667
 4304SOL    HW224375   3.455   3.492  12.577  1.2245  2.4227  0.3519
 4305SOL     OW24376   3.225   1.556   4.187  0.0975 -0.5936 -0.1195
 4305SOL    HW124377   3.305   1.528   4.232  0.5254 -0.4541 -0.7978
 4305SOL    HW224378   3.175   1.476   4.177 -1.7488  0.5103  0.3072
 4306SOL     OW24379   1.842   0.203   3.448 -0.2413 -0.0421 -0.0133
 4306SOL    HW124380   1.795   0.127   3.483  1.8464 -0.7585  1.2476
 4306SOL    HW224381   1.922   0.198   3.501  0.7426  1.4881 -1.3735
 4307SOL     OW24382   0.696   0.127  10.866  0.6770  0.1336  0.6790
 4307SOL    HW124383   0.649   0.050  10.899 -0.1236  0.7742  1.0044
 4307SOL    HW224384   0.664   0.198  10.921 -1.7594  0.0873 -0.6817
 4308SOL     OW24385   2.861   2.680  16.146  0.1741  0.1610  0.3043
 4308SOL    HW124386   2.902   2.755  16.189  0.8599 -1.1179  1.8573
 4308SOL    HW224387   2.882   2.696  16.053  2.4628 -1.6038  0.5063
 4309SOL     OW24388   3.463   1.020  14.631 -0.0971  0.1446 -0.5698
 4309SOL    HW124389   3.503   0.993  14.714 -2.0054  0.4305  0.4388
 4309SOL    HW224390   3.536   1.048  14.576  0.5414  0.9301  0.6793
 4310SOL     OW24391   4.583   3.328   8.224 -0.1286  0.1214 -0.1754
 4310SOL    HW124392   4.540   3.398   8.273  0.2746  0.7135 -0.6702
 4310SOL    HW224393   4.581   3.260   8.291 -0.7692  0.4873  0.1777
 4311SOL     OW24394   2.148   2.025   9.100 -0.5032 -0.4946 -0.0710
 4311SOL    HW124395   2.205   2.102   9.097 -1.7322  0.4285  0.0012
 4311SOL    HW224396   2.123   2.005   9.010  0.9912  2.0388 -1.0626
 4312SOL     OW24397   2.419   2.528   2.230 -0.1821 -0.1583 -0.5349
 4312SOL    HW124398   2.355   2.557   2.164  2.6561  1.6155 -2.5275
 4312SOL    HW224399   2.451   2.616   2.250 -0.3346  0.2928 -2.2621
 4313SOL     OW24400   3.929   4.347   1.731  0.5002  0.2262 -0.0393
 4313SOL    HW124401   4.014   4.375   1.766  0.1255  1.3442 -0.0513
 4313SOL    HW224402   3.888   4.432   1.744  2.0533  0.6853  1.8011
 4314SOL     OW24403   3.387   3.190   7.587 -0.3545  0.0823 -0.3496
 4314SOL    HW124404   3.343   3.174   7.504 -0.2294 -0.5990 -0.2831
 4314SOL    HW224405   3.479   3.192   7.561 -0.6211 -0.6748 -1.3215
 4315SOL     OW24406   0.085   0.799  11.046  0.3650 -0.6380 -0.4595
 4315SOL    HW124407   0.091   0.721  11.101  0.1311 -0.6723 -0.4831
 4315SOL    HW224408   0.007   0.849  11.072  1.0293 -0.7978  1.8490
 4316SOL     OW24409   1.720   2.550   2.815 -0.4024  0.3933 -0.0977
 4316SOL    HW124410   1.707   2.626   2.758  0.2511  0.1002 -0.6488
 4316SOL    HW224411   1.816   2.550   2.811 -0.3959  2.6131  0.0590
 4317SOL     OW24412   2.574   1.165  16.614 -0.1212 -0.4426 -0.0257
 4317SOL    HW124413   2.490   1.207  16.633  0.7681  1.4320 -0.2479
 4317SOL    HW224414   2.599   1.229  16.548 -1.4445 -2.4665 -2.4596
 4318SOL     OW24415   2.737   2.125   3.705  0.3419 -0.0544 -0.2333
 4318SOL    HW124416   2.647   2.158   3.710  0.6152  0.4884  1.1522
 4318SOL    HW224417   2.732   2.056   3.639 -1.2921 -0.2304  0.0764
 4319SOL     OW24418   1.929   0.573  11.602  0.3766  0.1770  0.4861
 4319SOL    HW124419   1.964   0.512  11.537 -2.5685 -2.0003  0.9208
 4319SOL    HW224420   1.887   0.645  11.555  1.4000  0.3757 -0.1181
 4320SOL     OW24421   2.422   4.454   9.360 -0.4093 -0.0295 -0.0488
 4320SOL    HW124422   2.379   4.379   9.402 -0.7826  0.4227  0.3771
 4320SOL    HW224423   2.480   4.408   9.299 -1.0304 -0.7331 -0.1058
 4321SOL     OW24424   2.459   2.321  13.503 -0.3210  0.0482  0.7184
 4321SOL    HW124425   2.471   2.381  13.429 -0.1065 -1.6773 -0.6309
 4321SOL    HW224426   2.545   2.324  13.544 -0.9947  0.9923  2.0564
 4322SOL     OW24427   4.463   1.172  13.470  0.3319  0.8122  0.1641
 4322SOL    HW124428   4.524   1.158  13.398  0.4340  0.1038  0.3879
 4322SOL    HW224429   4.516   1.226  13.528 -0.1811  0.3860  1.0353
 4323SOL     OW24430   1.285   3.383   4.372 -0.0617  0.3680 -0.4093
 4323SOL    HW124431   1.322   3.305   4.330  0.2959 -0.1605  0.8864
 4323SOL    HW224432   1.357   3.446   4.361 -0.2089  0.6026 -0.0507
 4324SOL     OW24433   1.675   2.250   5.369  0.3743 -0.4218 -0.8518
 4324SOL    HW124434   1.769   2.263   5.361  0.4352 -0.6340 -0.4478
 4324SOL    HW224435   1.650   2.237   5.277  1.5594 -1.4701 -1.0237
 4325SOL     OW24436   2.215   0.939  13.982 -0.3150 -0.2695 -0.2271
 4325SOL    HW124437   2.217   0.883  13.904  1.9751  0.0271 -0.3727
 4325SOL    HW224438   2.150   0.887  14.030 -1.9536  3.3633  1.4866
 4326SOL     OW24439   2.944   1.554   3.769 -0.7621 -0.2311  0.0711
 4326SOL    HW124440   3.040   1.549   3.766 -0.8614 -1.8342 -0.4813
 4326SOL    HW224441   2.941   1.617   3.841  0.4921  0.9130 -0.8726
 4327SOL     OW24442   3.952   0.482   5.680 -0.2531 -0.5263  0.3324
 4327SOL    HW124443   3.954   0.459   5.773  0.3924  2.2033  1.0057
 4327SOL    HW224444   4.027   0.542   5.674  0.0574 -0.9087  0.3896
 4328SOL     OW24445   4.364   1.822   8.216  0.4626  0.2001  0.0681
 4328SOL    HW124446   4.347   1.851   8.305  2.4816  0.9126  0.2246
 4328SOL    HW224447   4.342   1.729   8.211  1.1459  0.0557 -0.1875
 4329SOL     OW24448   2.987   4.462   3.282  0.1454  0.7641 -0.1980
 4329SOL    HW124449   2.962   4.536   3.227 -0.1228  0.9266  0.1406
 4329SOL    HW224450   3.075   4.481   3.314 -0.1306  1.9781 -0.1715
 4330SOL     OW24451   3.972   4.147   2.171  0.1973  0.0265 -0.0344
 4330SOL    HW124452   4.046   4.206   2.155  0.3917  0.2855  1.8064
 4330SOL    HW224453   3.961   4.105   2.086  1.9979 -0.5319  0.0170
 4331SOL     OW24454   2.558   2.981   4.879 -0.0065  0.0573  0.1277
 4331SOL    HW124455   2.643   2.980   4.923 -0.0016 -1.2330  0.0926
 4331SOL    HW224456   2.546   3.076   4.875 -0.5439 -0.0304 -0.2750
 4332SOL     OW24457   3.391   0.895   6.780  0.5094 -0.2490  0.2202
 4332SOL    HW124458   3.424   0.822   6.833  0.9701  1.0053  1.6705
 4332SOL    HW224459   3.303   0.899   6.818 -0.5514 -1.3160 -2.1319
 4333SOL     OW24460   2.398   1.444   2.873 -0.4939 -0.0042 -0.3008
 4333SOL    HW124461   2.475   1.500   2.876  0.3165 -1.3115  2.9317
 4333SOL    HW224462   2.401   1.399   2.957  0.3690  0.5067 -0.0594
 4334SOL     OW24463   4.126   0.079  13.279  0.2426  0.0864  0.9970
 4334SOL    HW124464   4.206   0.077  13.331  0.0638  2.3445  1.3456
 4334SOL    HW224465   4.120   4.713  13.253 -1.7722  0.6812 -0.6539
 4335SOL     OW24466   0.966   2.671   3.066 -0.0432 -0.1864 -0.0792
 4335SOL    HW124467   0.933   2.751   3.025 -0.5113  0.1283  0.8869
 4335SOL    HW224468   1.036   2.712   3.116 -1.6750 -0.7105  2.6432
 4336SOL     OW24469   1.929   0.766   3.906  0.1707  0.0838  0.2695
 4336SOL    HW124470   1.944   0.840   3.964 -1.8872  1.7952 -1.4114
 4336SOL    HW224471   1.900   0.697   3.965  0.5990 -0.0634  0.3127
 4337SOL     OW24472   2.588   2.063   4.220  0.4228 -0.4234  0.0201
 4337SOL    HW124473   2.527   2.129   4.186  1.4761  1.1330  1.1359
 4337SOL    HW224474   2.585   1.993   4.155 -1.0817 -0.0971 -0.2664
 4338SOL     OW24475   1.280   2.971   8.284  0.3396 -0.3249 -0.1330
 4338SOL    HW124476   1.266   3.064   8.267 -1.1098 -0.2979  1.2764
 4338SOL    HW224477   1.352   2.970   8.347  0.1276 -0.4566  0.1046
 4339SOL     OW24478   0.765   2.288  13.757  0.1474 -0.4471 -0.0694
 4339SOL    HW124479   0.750   2.368  13.707  0.2280  0.4490  1.3502
 4339SOL    HW224480   0.813   2.324  13.831  2.2587  0.7191 -1.9846
 4340SOL     OW24481   4.010   4.076   1.561  0.2797  0.5688  0.2620
 4340SOL    HW124482   4.004   4.159   1.608 -3.4692  1.2176 -1.4270
 4340SOL    HW224483   4.027   4.105   1.471  1.6864 -0.7995  0.0818
 4341SOL     OW24484   3.876   3.774   6.022 -0.0004  0.4365 -0.0928
 4341SOL    HW124485   3.847   3.693   6.063  1.6336  0.3417  0.8686
 4341SOL    HW224486   3.965   3.781   6.057 -0.0102  1.6612 -0.3123
 4342SOL     OW24487   0.575   1.272   7.472 -0.1499  0.2212 -0.2756
 4342SOL    HW124488   0.520   1.209   7.426  1.0386 -0.4198 -0.8148
 4342SOL    HW224489   0.619   1.216   7.536 -0.0784  1.3062  0.6078
 4343SOL     OW24490   0.352   1.025  16.791  0.7419 -0.2461 -0.0502
 4343SOL    HW124491   0.263   0.995  16.811  0.6422 -1.7786 -2.7508
 4343SOL    HW224492   0.346   1.060  16.702  1.1963  1.7430  0.7071
 4344SOL     OW24493   3.664   1.659   2.741  0.0291  0.2505  0.3159
 4344SOL    HW124494   3.717   1.737   2.757  0.7700 -0.3876  0.9452
 4344SOL    HW224495   3.693   1.630   2.655 -1.3487 -0.8367  0.2218
 4345SOL     OW24496   4.364   1.716   7.391  0.3527 -0.2602 -0.0924
 4345SOL    HW124497   4.334   1.627   7.374  1.8785 -0.2706 -2.7279
 4345SOL    HW224498   4.374   1.720   7.486  1.5193  3.9331 -0.3672
 4346SOL     OW24499   3.259   3.291  17.243 -0.2231  0.1879  0.2225
 4346SOL    HW124500   3.312   3.256  17.171 -2.3510 -2.7393  0.0576
 4346SOL    HW224501   3.295   3.236  17.313  0.7229  0.4051 -0.0860
 4347SOL     OW24502   1.260   2.169   9.815  0.5076 -0.6899 -0.3794
 4347SOL    HW124503   1.297   2.187   9.901  0.3214 -1.6224 -0.0953
 4347SOL    HW224504   1.262   2.255   9.775 -2.8201 -0.4522 -0.0121
 4348SOL     OW24505   1.777   1.262   6.983 -0.8074 -0.1723 -0.3012
 4348SOL    HW124506   1.802   1.296   7.069 -3.3392  0.5441  0.1544
 4348SOL    HW224507   1.831   1.183   6.993 -2.8448 -1.7541 -1.8772
 4349SOL     OW24508   4.616   0.754   5.327  0.6432  0.3050 -0.2519
 4349SOL    HW124509   4.576   0.750   5.240 -0.9238 -2.8991  0.6308
 4349SOL    HW224510   4.680   0.684   5.332  0.6057  0.3540  0.9375
 4350SOL     OW24511   2.840   2.571   2.588 -0.4534  0.1627 -0.6974
 4350SOL    HW124512   2.749   2.554   2.612 -0.4137 -1.4629 -1.6505
 4350SOL    HW224513   2.822   2.574   2.494 -0.5743 -0.7914 -0.7057
 4351SOL     OW24514   2.535   2.009   5.282 -0.3494 -0.0175  0.6808
 4351SOL    HW124515   2.480   1.991   5.358  0.0561  0.6706  1.1339
 4351SOL    HW224516   2.488   2.072   5.228 -0.7304 -1.1735 -0.3170
 4352SOL     OW24517   0.358   2.402   7.299 -0.0979 -0.1487  0.2144
 4352SOL    HW124518   0.416   2.447   7.238  0.2095 -2.2608 -1.0422
 4352SOL    HW224519   0.292   2.469   7.317  0.2155 -0.1489  1.3689
 4353SOL     OW24520   0.793   4.472   6.492  0.1287  0.6758 -0.3198
 4353SOL    HW124521   0.781   4.414   6.567 -0.4749  0.7690 -0.3500
 4353SOL    HW224522   0.885   4.499   6.500  0.7696 -1.5671 -0.0728
 4354SOL     OW24523   3.334   4.399   9.347  0.2899  0.1225  0.5017
 4354SOL    HW124524   3.286   4.440   9.418 -2.1056 -2.2770  0.2864
 4354SOL    HW224525   3.271   4.402   9.275 -1.7994  0.3056  2.3378
 4355SOL     OW24526   1.316   0.365   4.162 -0.3877  0.6062 -0.2493
 4355SOL    HW124527   1.243   0.396   4.109 -0.3302 -0.1915 -0.7755
 4355SOL    HW224528   1.282   0.379   4.251 -1.2850 -1.1954 -0.3142
 4356SOL     OW24529   2.440   1.946   3.276  0.7859 -0.8287 -0.1681
 4356SOL    HW124530   2.395   1.959   3.192 -2.1294 -2.4472  1.1235
 4356SOL    HW224531   2.440   1.853   3.296  0.5131 -0.7590  0.1576
 4357SOL     OW24532   2.406   1.083   7.965 -0.1643 -0.4969 -0.1418
 4357SOL    HW124533   2.336   1.035   7.921  0.4381 -2.5053  1.1016
 4357SOL    HW224534   2.431   1.015   8.028  2.6478  1.3022  0.7332
 4358SOL     OW24535   3.198   1.001   7.006 -0.4091 -0.5314 -0.1019
 4358SOL    HW124536   3.185   1.068   7.074  0.9106 -2.5989  2.1693
 4358SOL    HW224537   3.170   1.043   6.925 -0.6873  0.2178  0.3719
 4359SOL     OW24538   4.309   2.310  12.985  0.2159  0.2723  0.1248
 4359SOL    HW124539   4.230   2.342  12.942  0.2275 -0.4728 -0.4637
 4359SOL    HW224540   4.375   2.373  12.956  2.2787 -1.8911  0.1216
 4360SOL     OW24541   0.153   3.680   8.336  0.1083 -0.1287 -0.0807
 4360SOL    HW124542   0.144   3.595   8.379 -2.6910 -0.2036 -0.8409
 4360SOL    HW224543   0.244   3.674   8.307  0.2236 -1.2171  0.4870
 4361SOL     OW24544   4.298   2.077   6.321  0.3923  0.0643  0.6463
 4361SOL    HW124545   4.292   2.015   6.248  0.9540 -1.2456  1.7187
 4361SOL    HW224546   4.363   2.142   6.293 -0.6437 -0.2830 -2.6140
 4362SOL     OW24547   4.585   3.090   9.337  0.1587  0.3252 -0.2888
 4362SOL    HW124548   4.530   3.116   9.263 -0.5194 -1.3919 -0.3648
 4362SOL    HW224549   4.657   3.154   9.335  0.9309 -0.5777 -1.5487
 4363SOL     OW24550   0.723   0.858  13.115 -0.0751  0.6173 -0.6572
 4363SOL    HW124551   0.640   0.855  13.163 -0.4897  0.5579 -1.3842
 4363SOL    HW224552   0.700   0.860  13.022 -1.5960 -0.6461 -0.3000
 4364SOL     OW24553   3.578   2.831  15.536 -0.0892 -0.0558  0.2939
 4364SOL    HW124554   3.530   2.842  15.453  0.9554 -1.0187 -0.4217
 4364SOL    HW224555   3.611   2.917  15.562 -0.6728 -0.1177  1.2602
 4365SOL     OW24556   0.978   0.806   8.874 -0.8097  0.1238  0.1797
 4365SOL    HW124557   0.967   0.899   8.894 -2.1823  0.5032 -2.2801
 4365SOL    HW224558   0.905   0.794   8.813 -0.6757 -1.3287  0.2959
 4366SOL     OW24559   4.614   0.295   0.266  0.4050  0.7256  1.1543
 4366SOL    HW124560   4.606   0.355   0.340 -0.2525  0.6192  1.1746
 4366SOL    HW224561   4.559   0.221   0.292  0.3427 -0.1002 -1.3891
 4367SOL     OW24562   2.956   1.632   8.593  0.5947  0.7202  0.4751
 4367SOL    HW124563   2.986   1.633   8.684  0.6669  1.9359  0.4399
 4367SOL    HW224564   3.026   1.586   8.548  0.9010  0.6301  1.0501
 4368SOL     OW24565   1.514   4.137   5.547  0.2339  0.1823 -0.2238
 4368SOL    HW124566   1.422   4.123   5.523 -0.0829 -0.5037  1.3706
 4368SOL    HW224567   1.560   4.132   5.463  0.3607 -3.0432  0.0190
 4369SOL     OW24568   0.619   1.116   4.111 -0.3688  0.4959  0.0404
 4369SOL    HW124569   0.588   1.080   4.195 -0.7964 -0.6326 -0.6039
 4369SOL    HW224570   0.693   1.057   4.091  0.3663  1.8906 -1.2944
 4370SOL     OW24571   2.564   3.878  11.405 -0.4280  0.2185  0.2932
 4370SOL    HW124572   2.518   3.882  11.489  0.0361  4.2923  0.3593
 4370SOL    HW224573   2.656   3.869  11.429  0.1252  3.0850 -0.7616
 4371SOL     OW24574   1.712   2.649   5.923  0.5027 -0.3345 -0.1343
 4371SOL    HW124575   1.738   2.607   5.841 -0.1391 -1.7730  0.3928
 4371SOL    HW224576   1.763   2.606   5.991  1.3684 -0.7696 -1.0580
 4372SOL     OW24577   1.284   1.785   1.315 -0.4642  0.0232  0.0380
 4372SOL    HW124578   1.259   1.811   1.226  0.3420 -1.5269 -0.6251
 4372SOL    HW224579   1.214   1.730   1.350  1.1657 -1.0521  1.5535
 4373SOL     OW24580   4.080   0.029   6.315 -0.0611  0.3006 -0.4058
 4373SOL    HW124581   4.080   4.675   6.263 -0.9409 -0.3603  0.6158
 4373SOL    HW224582   4.055   0.008   6.404 -0.5391 -1.4581 -0.9608
 4374SOL     OW24583   0.357   0.771   1.194 -0.6949 -0.4015  0.2804
 4374SOL    HW124584   0.446   0.784   1.160 -0.1416  0.8487  2.2310
 4374SOL    HW224585   0.385   0.735   1.279  1.0169 -1.7449 -0.8455
 4375SOL     OW24586   3.007   4.146   5.127  0.0813  0.3820  0.0498
 4375SOL    HW124587   3.078   4.201   5.160 -0.8665  2.4339 -1.3497
 4375SOL    HW224588   3.061   4.072   5.101  1.3290  1.4842 -0.4910
 4376SOL     OW24589   1.449   4.426  16.797  0.2584  0.1320  0.3317
 4376SOL    HW124590   1.368   4.374  16.793  1.2725 -1.2998 -1.3253
 4376SOL    HW224591   1.482   4.400  16.711  1.6077 -1.3622  1.3136
 4377SOL     OW24592   0.873   2.687  12.052  0.0849 -0.0398  0.1557
 4377SOL    HW124593   0.843   2.597  12.036 -1.2051  0.6455 -1.2585
 4377SOL    HW224594   0.791   2.737  12.057 -1.1012 -1.9371 -0.0729
 4378SOL     OW24595   1.883   4.160   3.478 -0.1212  0.1789 -0.0032
 4378SOL    HW124596   1.925   4.087   3.434 -0.0314  0.7839 -0.9257
 4378SOL    HW224597   1.801   4.113   3.493 -0.2064  0.4516  0.3800
 4379SOL     OW24598   3.547   2.258   3.951  0.6628  0.1799  0.0609
 4379SOL    HW124599   3.516   2.202   3.880 -1.9988  0.6892  0.8171
 4379SOL    HW224600   3.597   2.309   3.888  0.4668  0.2747 -0.0164
 4380SOL     OW24601   0.765   3.809  16.888 -0.4975  0.6273  0.0447
 4380SOL    HW124602   0.846   3.760  16.876 -2.8721 -3.7181  1.4693
 4380SOL    HW224603   0.778   3.823  16.982 -0.1493 -0.4286  0.1570
 4381SOL     OW24604   2.387   0.275   4.295  0.6348  0.3801 -0.4842
 4381SOL    HW124605   2.460   0.279   4.356  2.0654  0.2533 -2.1947
 4381SOL    HW224606   2.322   0.327   4.341 -0.4601  0.7868 -2.5099
 4382SOL     OW24607   1.614   4.271   2.241  0.3221  0.0871  0.1162
 4382SOL    HW124608   1.643   4.337   2.304  3.1086  0.2014 -1.3304
 4382SOL    HW224609   1.689   4.266   2.182  0.6392  0.2940  0.5020
 4383SOL     OW24610   3.868   3.427   3.864 -0.4623  0.2047 -0.5183
 4383SOL    HW124611   3.884   3.347   3.913 -1.3655  0.3685  0.0253
 4383SOL    HW224612   3.952   3.430   3.818  1.2964  2.2799  2.8213
 4384SOL     OW24613   3.727   3.055  13.364 -0.1456  0.1240  0.1766
 4384SOL    HW124614   3.636   3.081  13.347 -0.5249  0.1645  2.2827
 4384SOL    HW224615   3.751   3.117  13.433 -0.7257  1.7248 -1.0629
 4385SOL     OW24616   2.888   1.827  11.245 -0.4984  0.1653 -0.5922
 4385SOL    HW124617   2.952   1.867  11.187 -0.9056  1.1883 -0.3264
 4385SOL    HW224618   2.843   1.770  11.182  0.1652 -1.3111  0.2752
 4386SOL     OW24619   0.894   1.539   1.830  0.1175 -0.0602 -0.1990
 4386SOL    HW124620   0.925   1.464   1.780 -0.8223  0.3803 -1.4287
 4386SOL    HW224621   0.802   1.515   1.820 -0.3978  1.1907  1.3973
 4387SOL     OW24622   3.144   3.806  11.078  0.0487 -0.3546  0.1905
 4387SOL    HW124623   3.073   3.762  11.031  1.0939 -1.4290 -0.3840
 4387SOL    HW224624   3.158   3.742  11.148 -1.0519 -1.7324 -0.8862
 4388SOL     OW24625   4.672   1.464  14.495  0.0412 -0.0059  0.0563
 4388SOL    HW124626   0.041   1.468  14.497 -0.0933  2.6406  0.1539
 4388SOL    HW224627   4.659   1.383  14.444 -0.5073 -0.3398  0.7246
 4389SOL     OW24628   1.655   4.281   8.335  0.2587  0.3328  0.3466
 4389SOL    HW124629   1.640   4.266   8.428 -0.5007 -0.9292  0.0261
 4389SOL    HW224630   1.739   4.237   8.320 -0.9555 -1.9891  0.3941
 4390SOL     OW24631   2.913   0.449  16.438 -0.2031 -0.1572  0.1352
 4390SOL    HW124632   2.989   0.398  16.410 -1.5609 -0.9200 -2.1741
 4390SOL    HW224633   2.842   0.386  16.447  0.4976 -1.1114 -0.8813
 4391SOL     OW24634   4.660   4.011  17.218 -0.1586 -0.4128 -0.7270
 4391SOL    HW124635   4.647   4.105  17.228 -2.1704 -0.8003  0.1971
 4391SOL    HW224636   0.019   4.024  17.174 -0.1553 -3.5645 -1.6278
 4392SOL     OW24637   2.371   2.424  17.704  0.1589 -0.0183 -0.5841
 4392SOL    HW124638   2.424   2.347  17.680  0.4311  0.4435 -1.4670
 4392SOL    HW224639   2.315   2.382   0.064  2.6216  0.6899  1.9777
 4393SOL     OW24640   3.038   3.001   4.386  0.1849  0.2080 -0.2684
 4393SOL    HW124641   3.115   2.991   4.330  1.5942  2.2252  1.3034
 4393SOL    HW224642   3.031   3.094   4.410  1.0755  0.9141 -2.7539
 4394SOL     OW24643   0.579   0.656   5.733 -0.0697 -0.1836  0.3366
 4394SOL    HW124644   0.497   0.613   5.759  1.4622 -2.7934  0.7952
 4394SOL    HW224645   0.559   0.742   5.771 -0.0970 -0.8254  1.7922
 4395SOL     OW24646   0.670   0.043   9.940  0.5991 -0.0933 -0.2967
 4395SOL    HW124647   0.718   4.692   9.967 -0.3604 -0.4232  0.4912
 4395SOL    HW224648   0.737   0.111   9.945  0.1546  0.1632  2.2460
 4396SOL     OW24649   0.810   0.100  12.783  0.0888 -0.0835 -0.5584
 4396SOL    HW124650   0.898   0.078  12.754  0.0610 -1.4201  0.3909
 4396SOL    HW224651   0.814   0.194  12.764 -2.6383 -0.0361 -1.0406
 4397SOL     OW24652   0.973   2.083  10.718 -0.3685  0.3882 -0.3741
 4397SOL    HW124653   0.952   2.097  10.810 -0.9512 -1.3235 -0.2571
 4397SOL    HW224654   1.055   2.132  10.710 -0.1901  0.4617  1.8784
 4398SOL     OW24655   3.969   3.090  13.635 -0.5061  0.3713  0.5029
 4398SOL    HW124656   4.039   3.076  13.700 -1.4084  1.3574  1.6873
 4398SOL    HW224657   4.007   3.078  13.548 -1.4360  2.3947 -0.1791
 4399SOL     OW24658   3.211   2.297   6.364  0.0339 -0.6920 -0.1344
 4399SOL    HW124659   3.205   2.309   6.270  0.7626  0.2391 -0.0547
 4399SOL    HW224660   3.176   2.208   6.376 -1.6759  0.2472  1.9025
 4400SOL     OW24661   4.222   4.073  10.522 -0.5640 -0.0436 -0.0833
 4400SOL    HW124662   4.287   4.061  10.453  1.7713 -0.5536  2.2237
 4400SOL    HW224663   4.243   4.165  10.539 -3.1992  0.6999 -0.9593
 4401SOL     OW24664   1.313   4.441  14.511 -0.1092  0.0421 -0.4420
 4401SOL    HW124665   1.268   4.362  14.541  0.8872 -0.6816 -0.8541
 4401SOL    HW224666   1.388   4.434  14.569 -1.7184 -0.2589  1.5993
 4402SOL     OW24667   3.241   3.045  14.547  0.3480  0.5854 -0.3815
 4402SOL    HW124668   3.241   3.133  14.586 -0.5996 -0.4600  1.9548
 4402SOL    HW224669   3.320   3.066  14.496  0.8633 -0.4151  0.0257
 4403SOL     OW24670   1.977   1.379   7.611  0.3698  0.0094 -0.5336
 4403SOL    HW124671   1.968   1.285   7.625  1.4176  0.1492  1.0576
 4403SOL    HW224672   1.901   1.423   7.649 -0.2547 -0.9387 -0.7129
 4404SOL     OW24673   2.704   1.246  13.900  0.0827  0.5261  0.2623
 4404SOL    HW124674   2.666   1.245  13.812  0.0425 -0.9875  0.2982
 4404SOL    HW224675   2.639   1.190  13.942 -0.2452 -0.1953 -1.2080
 4405SOL     OW24676   2.654   2.031  14.134 -0.2202 -0.0214 -0.3079
 4405SOL    HW124677   2.603   1.963  14.090  0.9560  0.1358 -1.9520
 4405SOL    HW224678   2.743   2.011  14.104  0.6309  0.3495  2.0194
 4406SOL     OW24679   0.424   3.936   4.425  0.3449 -0.2014  0.1863
 4406SOL    HW124680   0.378   3.933   4.341  0.9203  1.0828 -0.1888
 4406SOL    HW224681   0.486   3.865   4.410 -1.2364 -1.6235  0.5245
 4407SOL     OW24682   0.962   4.620  13.602  0.2690  0.6068 -0.3299
 4407SOL    HW124683   0.952   4.537  13.556  1.4597 -1.5816  3.3462
 4407SOL    HW224684   0.887   4.668  13.566 -1.0085 -1.2624 -0.1736
 4408SOL     OW24685   1.115   4.494  14.934 -0.2145  0.1794  0.3630
 4408SOL    HW124686   1.148   4.559  14.871  1.7246  0.0428  1.2441
 4408SOL    HW224687   1.174   4.516  15.006 -1.0929  0.4535  1.0047
 4409SOL     OW24688   4.292   2.282   4.437 -0.3024 -0.4473 -0.7657
 4409SOL    HW124689   4.385   2.260   4.428 -0.3365 -1.1994  0.7482
 4409SOL    HW224690   4.263   2.251   4.352  1.6266 -2.1779 -0.7897
 4410SOL     OW24691   3.671   4.420   2.661 -0.5248 -0.4506  0.0545
 4410SOL    HW124692   3.651   4.464   2.744 -1.9466 -1.2504  0.1334
 4410SOL    HW224693   3.581   4.427   2.629 -1.4485  1.4842  3.0408
 4411SOL     OW24694   0.872   0.371  12.735  0.1712  0.1190 -0.0872
 4411SOL    HW124695   0.889   0.448  12.681  0.1375 -0.8769 -1.5071
 4411SOL    HW224696   0.837   0.418  12.811 -0.9569 -1.1928  0.1985
 4412SOL     OW24697   3.312   0.677  10.998  0.2431  0.8146 -0.1510
 4412SOL    HW124698   3.306   0.746  11.064 -0.2849 -1.4700  2.1635
 4412SOL    HW224699   3.258   0.614  11.046  0.5323 -0.0452 -0.9470
 4413SOL     OW24700   4.077   3.644  14.274  0.0212 -0.0020  0.3707
 4413SOL    HW124701   3.988   3.642  14.310 -0.2587 -0.5340 -0.3627
 4413SOL    HW224702   4.097   3.551  14.279  1.8635  0.4142  0.9496
 4414SOL     OW24703   0.089   4.069   2.621  0.3128 -0.4404 -0.0959
 4414SOL    HW124704   0.085   4.145   2.562  1.1515  1.5959  2.4430
 4414SOL    HW224705   0.165   4.108   2.664 -1.2869  2.9061 -0.2710
 4415SOL     OW24706   0.968   1.297   7.467 -0.0751 -0.4565  0.8083
 4415SOL    HW124707   1.043   1.304   7.409 -0.9132  1.2031 -0.0789
 4415SOL    HW224708   0.902   1.292   7.398 -1.3941  0.8430  1.9660
 4416SOL     OW24709   1.439   3.407   4.948  0.5178 -0.2108  0.4104
 4416SOL    HW124710   1.485   3.325   4.930 -0.3910 -0.7685  0.6331
 4416SOL    HW224711   1.390   3.412   4.866  0.0519 -0.2801  0.6842
 4417SOL     OW24712   2.457   2.773  10.483  0.0753  0.0341 -0.0523
 4417SOL    HW124713   2.441   2.718  10.559 -0.2186 -0.0640 -0.1868
 4417SOL    HW224714   2.445   2.860  10.521  0.3069 -1.0249  2.4381
 4418SOL     OW24715   3.597   1.463   2.183 -0.4883 -0.5194 -0.4564
 4418SOL    HW124716   3.534   1.526   2.147  0.8674  2.4331  2.4219
 4418SOL    HW224717   3.633   1.412   2.110  1.3439 -0.6608  0.5535
 4419SOL     OW24718   4.674   0.658   6.829 -0.2320 -0.0745  0.1604
 4419SOL    HW124719   4.696   0.600   6.902 -0.4116  0.4112  0.6026
 4419SOL    HW224720   4.655   0.593   6.761 -1.5518  2.9026 -2.3289
 4420SOL     OW24721   0.734   3.807  15.552  0.0594  0.3988 -0.0221
 4420SOL    HW124722   0.663   3.847  15.602  2.5705  3.0867  1.4743
 4420SOL    HW224723   0.699   3.820  15.464  1.6033  2.9014 -0.2789
 4421SOL     OW24724   4.670   1.427  12.127  0.2414  0.0344  0.1023
 4421SOL    HW124725   4.719   1.346  12.140 -0.7350 -0.6117 -0.2159
 4421SOL    HW224726   4.585   1.385  12.115  1.8428 -2.1991 -3.2905
 4422SOL     OW24727   4.147   2.985   8.062  0.1714  0.2995  0.4118
 4422SOL    HW124728   4.144   2.950   7.973 -0.3217  0.6356  0.2982
 4422SOL    HW224729   4.199   3.064   8.045  1.0719 -0.2125  0.7594
 4423SOL     OW24730   3.599   3.774   8.031  0.0698 -0.5509 -0.0059
 4423SOL    HW124731   3.617   3.698   7.976  0.1994 -0.0031 -0.7266
 4423SOL    HW224732   3.565   3.733   8.111 -3.5030 -0.3179 -1.4019
 4424SOL     OW24733   4.077   3.781   9.451 -0.2531 -0.3008  0.4157
 4424SOL    HW124734   4.006   3.841   9.431  0.2380  0.2744  0.4148
 4424SOL    HW224735   4.027   3.699   9.459  1.2848 -1.1754  1.2151
 4425SOL     OW24736   1.768   0.614  14.207  0.3572 -0.2684 -0.3106
 4425SOL    HW124737   1.764   0.521  14.185  0.4061 -0.3816  0.1587
 4425SOL    HW224738   1.676   0.637  14.224 -0.2243 -3.4883  0.8496
 4426SOL     OW24739   1.514   0.307  10.588  0.2717 -0.0230  0.1819
 4426SOL    HW124740   1.445   0.304  10.654  0.1305  1.5250  0.0944
 4426SOL    HW224741   1.481   0.233  10.536  1.2411 -0.3658  0.0512
 4427SOL     OW24742   3.343   3.574   6.119 -0.1049 -0.1495  0.3072
 4427SOL    HW124743   3.292   3.640   6.072  0.7607 -1.1201 -1.9709
 4427SOL    HW224744   3.407   3.633   6.160  0.5408 -0.6335  0.0010
 4428SOL     OW24745   1.352   1.674  10.688 -0.3893 -0.2977 -0.6443
 4428SOL    HW124746   1.322   1.590  10.652  1.0522 -2.3464  2.9175
 4428SOL    HW224747   1.321   1.677  10.778 -1.5074 -3.0270 -0.9326
 4429SOL     OW24748   3.726   3.203   2.153  0.1034  0.3041  0.4025
 4429SOL    HW124749   3.673   3.255   2.093 -0.2283 -1.6443 -1.0213
 4429SOL    HW224750   3.678   3.209   2.236 -0.6329 -1.6072  0.1259
 4430SOL     OW24751   4.537   1.813   6.850  0.0740 -0.1189 -0.7035
 4430SOL    HW124752   4.489   1.816   6.768 -0.5856 -1.4220 -0.3667
 4430SOL    HW224753   4.511   1.901   6.879  2.1597 -0.0109  0.8622
 4431SOL     OW24754   4.282   4.480   6.571 -0.6336 -0.2405 -0.5982
 4431SOL    HW124755   4.321   4.422   6.636  1.5086  0.8685 -0.9101
 4431SOL    HW224756   4.358   4.490   6.514  0.2920  1.0802  0.8648
 4432SOL     OW24757   4.466   0.465   9.208 -0.1984  0.1693 -0.4000
 4432SOL    HW124758   4.454   0.558   9.225  0.8316 -0.4052  3.5247
 4432SOL    HW224759   4.375   0.440   9.222  0.1884 -1.0594 -0.0685
 4433SOL     OW24760   0.313   3.964   5.645  0.5509 -0.1401  0.3101
 4433SOL    HW124761   0.232   3.927   5.679  0.5431 -0.5834 -0.2012
 4433SOL    HW224762   0.326   3.913   5.566 -1.4408 -1.8441  1.0756
 4434SOL     OW24763   1.339   3.875  10.311 -0.5005 -0.2197 -0.8307
 4434SOL    HW124764   1.327   3.862  10.217 -0.3192  0.8928 -1.0059
 4434SOL    HW224765   1.408   3.811  10.329  0.0026  0.6323  0.2577
 4435SOL     OW24766   2.799   2.822   5.641  0.0547  0.1030  0.1876
 4435SOL    HW124767   2.770   2.907   5.674  1.1350  0.2675  0.7090
 4435SOL    HW224768   2.728   2.760   5.658 -0.3354 -0.3973 -3.2881
 4436SOL     OW24769   3.500   3.081  14.482 -0.5332  0.0694  0.2720
 4436SOL    HW124770   3.523   2.999  14.437  2.6265  1.6494 -0.9942
 4436SOL    HW224771   3.568   3.079  14.549 -0.5908  2.1353  0.3723
 4437SOL     OW24772   1.209   1.360   2.065 -0.0415 -0.6071  0.0335
 4437SOL    HW124773   1.166   1.349   2.149  0.1394  0.7117  0.2925
 4437SOL    HW224774   1.148   1.314   2.007 -0.0448  0.5554 -0.8858
 4438SOL     OW24775   1.482   1.425  13.691  0.0565  0.2422 -0.1872
 4438SOL    HW124776   1.449   1.448  13.605 -0.5206  1.3182  0.3205
 4438SOL    HW224777   1.413   1.367  13.722  1.5685 -1.2237  0.4202
 4439SOL     OW24778   2.005   1.563   6.591  0.1971  0.7829 -0.4898
 4439SOL    HW124779   1.909   1.559   6.596  0.0469  2.1809 -2.3378
 4439SOL    HW224780   2.027   1.655   6.576  0.2964  0.6032 -1.3935
 4440SOL     OW24781   2.399   3.655   3.255  0.2007  0.1722  0.5029
 4440SOL    HW124782   2.384   3.561   3.251 -2.1832  0.6092 -0.5512
 4440SOL    HW224783   2.317   3.691   3.289 -0.2864 -0.7657  0.3049
 4441SOL     OW24784   4.253   0.612   9.713  0.0261  0.1333  0.2453
 4441SOL    HW124785   4.312   0.588   9.784 -0.7166 -1.4488  0.3296
 4441SOL    HW224786   4.297   0.681   9.663 -0.5740  0.8658  0.7258
 4442SOL     OW24787   4.701   0.156   8.502 -0.3306 -0.5007  0.0189
 4442SOL    HW124788   0.016   0.160   8.588 -0.3810  0.9178 -0.0251
 4442SOL    HW224789   4.709   0.065   8.473 -3.1753 -1.5892  2.6081
 4443SOL     OW24790   2.917   4.069   6.970  0.2083  0.1102 -0.1702
 4443SOL    HW124791   2.843   4.060   7.030  1.7064  0.0269  1.7088
 4443SOL    HW224792   2.895   4.160   6.948  0.7094  0.1564 -0.4986
 4444SOL     OW24793   1.978   0.345   0.277  0.0509 -0.8868 -0.6143
 4444SOL    HW124794   1.913   0.331   0.345 -0.1615 -0.2683 -0.6840
 4444SOL    HW224795   1.967   0.260   0.235  1.4956 -1.4473  0.1167
 4445SOL     OW24796   4.146   0.222   7.828 -0.5104 -0.0125 -1.2199
 4445SOL    HW124797   4.228   0.209   7.875 -1.2698  1.7855  0.6377
 4445SOL    HW224798   4.087   0.271   7.886  1.6412  0.0140  0.9506
 4446SOL     OW24799   2.614   1.508   5.190  0.5256  0.6659 -0.6864
 4446SOL    HW124800   2.649   1.516   5.102  1.7387 -3.1023 -0.5463
 4446SOL    HW224801   2.651   1.424   5.217 -0.7670 -0.3042 -1.9156
 4447SOL     OW24802   2.346   4.029  11.567 -0.3561 -0.6043 -0.6732
 4447SOL    HW124803   2.423   4.007  11.620  0.4752 -0.3669 -1.7825
 4447SOL    HW224804   2.277   3.991  11.621  1.8400  0.1681  2.6236
 4448SOL     OW24805   0.726   0.858  12.846 -0.4105 -0.1494 -0.1133
 4448SOL    HW124806   0.739   0.814  12.762 -0.4895  0.9885 -0.7217
 4448SOL    HW224807   0.810   0.903  12.840  0.0406 -0.9161  0.5310
 4449SOL     OW24808   3.746   4.545   1.807 -0.3267 -0.2146  0.3029
 4449SOL    HW124809   3.794   4.573   1.885  1.0058 -2.9293  0.4659
 4449SOL    HW224810   3.690   4.473   1.838 -0.9420  0.3207  0.4280
 4450SOL     OW24811   3.111   3.296   5.504 -0.6340 -0.1788 -0.2193
 4450SOL    HW124812   3.057   3.362   5.546  0.4754  1.2480 -1.0224
 4450SOL    HW224813   3.061   3.215   5.513 -0.8408  0.0263  0.4818
 4451SOL     OW24814   1.519   3.828  17.462 -0.1278  0.3485  0.6748
 4451SOL    HW124815   1.508   3.743  17.419  1.6580  1.9420 -2.9643
 4451SOL    HW224816   1.462   3.882  17.408 -0.4403  1.2756  1.9244
 4452SOL     OW24817   1.629   0.788   7.722  0.3896 -0.1953 -0.2181
 4452SOL    HW124818   1.575   0.823   7.651 -1.4498  0.9445  1.7289
 4452SOL    HW224819   1.690   0.737   7.669  1.6467  1.2911 -0.2016
 4453SOL     OW24820   2.952   3.103   7.607 -0.2100 -0.0869  0.0623
 4453SOL    HW124821   2.890   3.030   7.608 -1.2940  0.8382  0.9182
 4453SOL    HW224822   2.886   3.171   7.620 -0.0022 -0.1348  1.3591
 4454SOL     OW24823   0.725   2.970   8.620 -0.2620 -0.4826  0.1949
 4454SOL    HW124824   0.652   2.935   8.570 -2.4647  0.8149  2.5446
 4454SOL    HW224825   0.774   3.025   8.557  3.0481 -1.4821  1.8859
 4455SOL     OW24826   1.920   3.936  12.294  0.2023  0.3660 -0.6187
 4455SOL    HW124827   1.867   3.887  12.231  0.1925  1.2372 -1.2915
 4455SOL    HW224828   2.001   3.960  12.250 -0.2285  0.9373 -1.1021
 4456SOL     OW24829   4.115   4.694   6.613 -0.2246  0.0705 -0.1612
 4456SOL    HW124830   4.071   4.634   6.673 -1.3650  1.0792  0.0192
 4456SOL    HW224831   4.197   4.645   6.601  1.1494  2.7036 -1.5808
 4457SOL     OW24832   3.148   3.899   5.052  0.0619 -0.0477 -0.3353
 4457SOL    HW124833   3.193   3.946   5.122  0.7119 -0.7196 -0.3086
 4457SOL    HW224834   3.227   3.875   5.003 -0.0575  0.6952 -0.8981
 4458SOL     OW24835   3.444   2.821   3.350  0.2523 -0.4555  0.0271
 4458SOL    HW124836   3.406   2.863   3.272 -2.2335  0.1234  1.5718
 4458SOL    HW224837   3.527   2.869   3.353  0.9211 -1.7143  1.1045
 4459SOL     OW24838   2.210   1.318   0.642 -0.1319  0.0660  0.1247
 4459SOL    HW124839   2.279   1.329   0.708  0.0046  1.3368 -0.2234
 4459SOL    HW224840   2.193   1.224   0.650  1.6118 -0.2527  0.1379
 4460SOL     OW24841   3.033   3.680   4.361  0.6605  0.3971 -0.4494
 4460SOL    HW124842   3.006   3.646   4.276 -0.4835 -2.7899  1.1963
 4460SOL    HW224843   3.053   3.767   4.326 -1.5231  0.4434 -1.6139
 4461SOL     OW24844   3.839   3.602   5.461 -1.3100  0.3686  0.0304
 4461SOL    HW124845   3.796   3.687   5.476 -0.9771  0.4400  0.6147
 4461SOL    HW224846   3.850   3.569   5.551  0.4825 -0.1943 -0.4004
 4462SOL     OW24847   0.327   3.570   9.127 -1.1293  0.1435  0.0251
 4462SOL    HW124848   0.309   3.663   9.138 -1.9594 -0.2758  2.3579
 4462SOL    HW224849   0.364   3.551   9.213 -2.9350 -1.0177  0.5607
 4463SOL     OW24850   1.318   3.922   7.577 -0.2232 -0.3408 -0.0553
 4463SOL    HW124851   1.278   3.862   7.639 -1.1854  0.5216  0.1556
 4463SOL    HW224852   1.243   3.930   7.517 -1.7781  1.4865  2.1023
 4464SOL     OW24853   0.322   2.230  11.726 -0.3694 -0.1663  0.0123
 4464SOL    HW124854   0.385   2.249  11.656  1.1722 -2.6976  0.7146
 4464SOL    HW224855   0.241   2.214  11.677 -0.2307  2.5564 -1.0786
 4465SOL     OW24856   3.782   1.122  15.643  0.5551 -0.3324  0.2426
 4465SOL    HW124857   3.853   1.177  15.676  1.7037 -0.8036 -1.4138
 4465SOL    HW224858   3.799   1.124  15.549 -0.4828 -1.3881  0.0363
 4466SOL     OW24859   3.290   2.653   2.437  0.5847  0.3631 -0.2882
 4466SOL    HW124860   3.373   2.700   2.426  0.4444  0.3574 -1.4433
 4466SOL    HW224861   3.214   2.710   2.442  2.2762  2.6104 -0.1509
 4467SOL     OW24862   1.824   4.079  12.945  0.6804 -0.4752  0.1806
 4467SOL    HW124863   1.794   4.031  13.022 -1.8361  0.8082 -0.0309
 4467SOL    HW224864   1.792   4.168  12.960  0.8140 -0.0531 -2.0240
 4468SOL     OW24865   1.327   3.128   4.047 -0.2524 -0.1025  0.3420
 4468SOL    HW124866   1.334   3.111   4.142  0.8327 -1.8547 -0.0395
 4468SOL    HW224867   1.250   3.081   4.017  0.5523 -1.4637  0.3658
 4469SOL     OW24868   4.029   1.624   9.399 -0.1187 -0.2955 -0.0379
 4469SOL    HW124869   3.988   1.545   9.435  2.6091 -1.9158 -0.5129
 4469SOL    HW224870   4.004   1.688   9.465  0.5623 -1.8483  1.7308
 4470SOL     OW24871   1.317   3.005   4.980 -0.2007 -0.2699 -0.5057
 4470SOL    HW124872   1.401   2.960   4.973 -0.3015 -0.6753  0.9067
 4470SOL    HW224873   1.315   3.052   5.064  1.0011  0.4165 -0.8617
 4471SOL     OW24874   1.962   2.843  15.387  0.7642  0.5155  0.1069
 4471SOL    HW124875   2.055   2.857  15.400  0.7207 -0.2287  1.1765
 4471SOL    HW224876   1.958   2.748  15.378 -0.9476  0.4834  1.2025
 4472SOL     OW24877   1.322   3.363   0.677 -0.5663 -0.1261  0.2189
 4472SOL    HW124878   1.235   3.393   0.702 -0.1373 -2.1818  4.1573
 4472SOL    HW224879   1.337   3.297   0.745  0.9098  0.2107  0.2330
 4473SOL     OW24880   3.324   3.578  16.983 -0.2090 -0.3164 -0.1479
 4473SOL    HW124881   3.409   3.545  17.012 -1.0608 -0.4402  2.2538
 4473SOL    HW224882   3.316   3.661  17.031  1.6116  0.8462 -1.8463
 4474SOL     OW24883   4.250   1.769  16.642 -0.7655 -0.2329  0.4565
 4474SOL    HW124884   4.329   1.822  16.633 -2.3585  2.2591  1.0397
 4474SOL    HW224885   4.197   1.783  16.564  2.4457 -1.2877 -1.8771
 4475SOL     OW24886   3.126   3.168   5.867  0.1229 -0.1116  0.4081
 4475SOL    HW124887   3.085   3.108   5.929  0.1421 -3.5707 -2.9048
 4475SOL    HW224888   3.117   3.253   5.909 -0.2791  0.5489 -1.0130
 4476SOL     OW24889   0.467   3.817  12.541  0.0585 -0.2144  0.1462
 4476SOL    HW124890   0.393   3.864  12.502  0.4597  0.1303 -0.1988
 4476SOL    HW224891   0.423   3.748  12.591 -1.9499  1.2258  0.3563
 4477SOL     OW24892   4.370   0.815   2.660 -0.1740 -0.0037  0.5227
 4477SOL    HW124893   4.461   0.825   2.690  0.1606  2.3918 -1.2868
 4477SOL    HW224894   4.368   0.744   2.597 -0.8162 -0.6435  1.2631
 4478SOL     OW24895   2.061   1.934   9.489 -0.4749 -0.2236 -0.0951
 4478SOL    HW124896   2.037   1.854   9.443  0.7542 -0.8965  0.4458
 4478SOL    HW224897   2.152   1.909   9.506 -0.2784  0.7648  0.3316
 4479SOL     OW24898   1.427   0.861   8.177  0.1324  0.0143 -0.0832
 4479SOL    HW124899   1.437   0.893   8.088  0.7440 -1.2201 -0.4538
 4479SOL    HW224900   1.460   0.771   8.169 -1.0695 -0.5836  1.5521
 4480SOL     OW24901   3.282   1.697   6.709  0.6989  0.0550 -0.0235
 4480SOL    HW124902   3.306   1.605   6.700  2.8047  0.6820 -0.8687
 4480SOL    HW224903   3.319   1.733   6.628  0.3557 -1.2212 -0.7584
 4481SOL     OW24904   4.519   4.140   8.029  0.1294  0.2058 -0.0551
 4481SOL    HW124905   4.468   4.090   7.965  0.4933  2.1955 -1.8953
 4481SOL    HW224906   4.523   4.225   7.986  1.4045  0.7293  1.1010
 4482SOL     OW24907   2.122   2.846  16.242 -0.2574  0.1241  0.6154
 4482SOL    HW124908   2.215   2.832  16.260 -0.2971 -1.0858 -0.1439
 4482SOL    HW224909   2.130   2.926  16.190 -2.4811  0.3924  0.6948
 4483SOL     OW24910   4.665   3.794   4.542 -0.2357  0.5430 -0.0398
 4483SOL    HW124911   0.022   3.821   4.582  0.3151 -0.0707 -0.7850
 4483SOL    HW224912   4.668   3.840   4.458 -0.8460 -0.3798 -0.5655
 4484SOL     OW24913   1.535   2.966   5.335  0.4620  0.1473 -0.4325
 4484SOL    HW124914   1.476   2.977   5.260  1.2912  1.2811 -0.9234
 4484SOL    HW224915   1.593   3.041   5.322 -0.6779  1.6242  3.1945
 4485SOL     OW24916   2.968   2.354   0.387 -0.0496  0.5332  0.1682
 4485SOL    HW124917   2.920   2.337   0.306  0.4910  0.5568 -0.1544
 4485SOL    HW224918   2.903   2.328   0.453  0.2521  1.2576  0.7562
 4486SOL     OW24919   1.039   0.086  10.568  0.2596 -0.4540 -0.1272
 4486SOL    HW124920   1.087   0.076  10.650  0.5835 -2.0018 -0.5063
 4486SOL    HW224921   1.061   0.001  10.529  0.0233 -1.1498  1.2535
 4487SOL     OW24922   4.251   4.554  13.340  0.0952  0.1772 -0.2221
 4487SOL    HW124923   4.303   4.474  13.331 -3.4022 -2.0971 -0.2229
 4487SOL    HW224924   4.201   4.527  13.417 -1.8989  1.6284 -1.0230
 4488SOL     OW24925   3.281   3.318  14.611  0.5536  0.5381  0.5247
 4488SOL    HW124926   3.245   3.382  14.672  0.5638 -0.6240  1.7350
 4488SOL    HW224927   3.356   3.370  14.582 -1.2292  1.8508 -1.7674
 4489SOL     OW24928   3.899   3.101  16.668  0.0161  0.0402  0.0774
 4489SOL    HW124929   3.900   3.057  16.583  0.0166  0.7053 -0.2657
 4489SOL    HW224930   3.955   3.178  16.661  0.5536 -0.5274 -1.8533
 4490SOL     OW24931   0.231   0.608   3.473  0.5139 -0.5268  0.2590
 4490SOL    HW124932   0.198   0.538   3.416  2.3497  0.9191 -2.5777
 4490SOL    HW224933   0.274   0.573   3.551 -1.1704 -2.9749  0.0895
 4491SOL     OW24934   1.368   4.244   6.779 -0.6797 -0.4177 -0.2441
 4491SOL    HW124935   1.461   4.247   6.799 -1.2930  1.0725  2.3685
 4491SOL    HW224936   1.331   4.164   6.818 -0.9982  0.9149  2.1980
 4492SOL     OW24937   2.473   0.658   3.113 -0.0352 -0.0698  0.0616
 4492SOL    HW124938   2.485   0.713   3.191 -1.4560  1.6162 -0.9066
 4492SOL    HW224939   2.559   0.617   3.114  0.7342  1.5790  0.9687
 4493SOL     OW24940   2.451   4.659   1.442 -0.1291 -0.5484  0.1674
 4493SOL    HW124941   2.519   4.688   1.381  0.7410 -2.5136  0.2154
 4493SOL    HW224942   2.484   4.692   1.525 -0.7523 -0.3877  0.3547
 4494SOL     OW24943   0.964   2.641  12.324  0.2499  0.2803  0.1336
 4494SOL    HW124944   1.058   2.624  12.330  0.1980 -0.1127 -0.1371
 4494SOL    HW224945   0.952   2.666  12.233  1.1184  0.8334  0.1697
 4495SOL     OW24946   4.506   2.317   4.004 -0.1078 -0.2845  0.1159
 4495SOL    HW124947   4.464   2.239   4.041  0.9393 -2.5099 -3.4096
 4495SOL    HW224948   4.499   2.317   3.909  0.7100 -1.2044  0.0594
 4496SOL     OW24949   3.080   1.856  13.818  0.1473  0.5713  0.4768
 4496SOL    HW124950   3.127   1.797  13.760  1.6427  1.0981  1.1557
 4496SOL    HW224951   3.145   1.923  13.839 -0.1092  0.4531  1.6556
 4497SOL     OW24952   2.667   4.284   8.389  0.1382 -0.1970 -0.0732
 4497SOL    HW124953   2.667   4.371   8.429 -0.8562  0.3773 -1.3214
 4497SOL    HW224954   2.648   4.304   8.297  2.1413 -1.7524 -0.8305
 4498SOL     OW24955   3.825   1.871   8.259  0.0414 -0.7026 -0.3451
 4498SOL    HW124956   3.784   1.814   8.195  0.6197  0.4718 -1.7529
 4498SOL    HW224957   3.755   1.930   8.285 -0.1601 -1.3170  0.5054
 4499SOL     OW24958   0.141   1.017  12.631 -0.0335  0.6724  0.5509
 4499SOL    HW124959   0.058   0.995  12.588  1.9808 -1.2328 -2.3486
 4499SOL    HW224960   0.202   0.978  12.569 -0.9377 -0.0789  0.1338
 4500SOL     OW24961   3.730   3.702   4.483  0.3051  0.2338  0.0406
 4500SOL    HW124962   3.666   3.642   4.521  1.8748 -1.1637  0.4791
 4500SOL    HW224963   3.699   3.713   4.393 -0.3770  0.2460  0.2715
 4501SOL     OW24964   4.639   2.737   6.051 -0.5866 -0.1992  0.1024
 4501SOL    HW124965   4.556   2.782   6.065 -1.5191 -1.4988 -1.2213
 4501SOL    HW224966   4.615   2.657   6.098 -0.0756 -0.4081  0.0066
 4502SOL     OW24967   1.313   4.408  12.391  0.3618 -0.0670 -0.3772
 4502SOL    HW124968   1.230   4.365  12.371  0.3895 -0.5110  0.4546
 4502SOL    HW224969   1.365   4.331  12.416 -2.2471 -0.8637  2.4660
 4503SOL     OW24970   0.961   2.314   9.617  0.4831 -0.7186 -0.3794
 4503SOL    HW124971   1.029   2.365   9.662  0.6615 -0.9271 -0.4091
 4503SOL    HW224972   0.919   2.388   9.575 -0.1647 -1.8087 -1.6449
 4504SOL     OW24973   4.115   2.103  11.698  0.0586  0.1158  0.2741
 4504SOL    HW124974   4.187   2.049  11.730 -1.1418 -1.8320 -0.3055
 4504SOL    HW224975   4.041   2.048  11.725  1.4213 -1.5875  0.5335
 4505SOL     OW24976   2.562   0.706   8.085 -0.2552  0.7777 -0.2931
 4505SOL    HW124977   2.647   0.749   8.090  0.4285 -0.2943 -2.1988
 4505SOL    HW224978   2.574   0.635   8.148 -0.9956  0.0559 -0.9462
 4506SOL     OW24979   1.900   2.184   0.446  0.3973 -0.4088 -0.6389
 4506SOL    HW124980   1.842   2.259   0.459  0.4774 -0.3513 -0.6101
 4506SOL    HW224981   1.844   2.110   0.467  0.6422 -0.2683  0.5222
 4507SOL     OW24982   4.643   2.463   3.284 -0.1329  0.8029  0.0910
 4507SOL    HW124983   4.606   2.527   3.345  0.3628 -0.6337  1.9237
 4507SOL    HW224984   4.577   2.445   3.216  0.0108 -0.6063  0.3155
 4508SOL     OW24985   1.060   4.491   6.803 -0.1808 -0.4208  0.7292
 4508SOL    HW124986   1.060   4.586   6.815  2.1909 -0.2764 -0.3842
 4508SOL    HW224987   1.151   4.471   6.783 -1.0255 -1.2766 -2.1586
 4509SOL     OW24988   1.800   1.714   2.700  0.0785 -0.3912 -0.2729
 4509SOL    HW124989   1.782   1.802   2.668 -0.7942 -0.5694 -0.2693
 4509SOL    HW224990   1.870   1.682   2.642 -0.1046 -2.0548  0.4195
 4510SOL     OW24991   1.763   1.431   7.770  0.3077 -0.6527  0.2432
 4510SOL    HW124992   1.750   1.517   7.809  0.3231 -1.1944  1.4435
 4510SOL    HW224993   1.775   1.388   7.855 -1.7339  1.4660  1.5719
 4511SOL     OW24994   0.427   2.246   2.133  0.4977  0.0352 -0.6555
 4511SOL    HW124995   0.486   2.278   2.065  0.6426  0.4448 -0.3286
 4511SOL    HW224996   0.479   2.236   2.212 -0.2461  1.9104  0.0644
 4512SOL     OW24997   3.501   0.992   5.120 -0.8285  0.2239 -0.3132
 4512SOL    HW124998   3.531   0.927   5.183 -0.3723  0.7174 -0.0200
 4512SOL    HW224999   3.489   0.945   5.037  0.3422  1.7186 -1.3247
 4513SOL     OW25000   4.679   0.900  14.544  0.2377  0.1973 -0.5670
 4513SOL    HW125001   4.717   0.938  14.465  0.1811 -0.1201 -0.7453
 4513SOL    HW225002   4.691   0.975  14.602 -1.8590  2.4692 -3.1071
 4514SOL     OW25003   1.609   4.708   2.879  0.3018 -0.0037 -0.1488
 4514SOL    HW125004   1.602   4.717   2.974  0.4523 -0.2405 -0.1149
 4514SOL    HW225005   1.703   4.725   2.869 -0.0607  2.1616  0.2133
 4515SOL     OW25006   0.002   3.135   6.744  0.5603  0.5757 -0.0722
 4515SOL    HW125007   4.684   3.189   6.679  1.6450  1.6966  0.1265
 4515SOL    HW225008   4.708   3.048   6.710  1.4097  0.8803 -1.3241
 4516SOL     OW25009   2.877   0.523   1.679  0.0502  0.2423  0.3176
 4516SOL    HW125010   2.947   0.549   1.620  1.2647 -1.3201  1.0892
 4516SOL    HW225011   2.804   0.575   1.646  0.5266  0.8298  0.1929
 4517SOL     OW25012   2.904   3.468   1.582 -0.1702 -0.0446 -0.2289
 4517SOL    HW125013   2.901   3.457   1.487  1.1792 -1.1514 -0.1412
 4517SOL    HW225014   2.935   3.558   1.592  2.9177 -0.9640 -1.6408
 4518SOL     OW25015   0.166   4.409   4.123  0.3683 -0.0881 -0.2979
 4518SOL    HW125016   0.185   4.487   4.071 -0.4219  0.4280  0.1849
 4518SOL    HW225017   0.094   4.447   4.173  1.7044  2.3168 -0.1890
 4519SOL     OW25018   2.638   0.354   5.422  0.6067  0.5140 -0.3320
 4519SOL    HW125019   2.620   0.326   5.332 -1.1119 -1.1864  0.5616
 4519SOL    HW225020   2.642   0.273   5.471 -0.9102  2.6770  3.3420
 4520SOL     OW25021   1.230   3.418   5.322  0.3881  0.1333 -1.0102
 4520SOL    HW125022   1.199   3.508   5.330  1.0150  0.2724 -0.1206
 4520SOL    HW225023   1.177   3.387   5.249 -1.9607  0.7138  0.4535
 4521SOL     OW25024   1.883   0.268   6.283  0.4099  0.2615 -0.4019
 4521SOL    HW125025   1.968   0.237   6.252  1.1121  0.4389  1.3730
 4521SOL    HW225026   1.847   0.200   6.339  1.4916 -1.2294 -1.5195
 4522SOL     OW25027   0.711   1.927   5.947  0.4678 -0.6505 -0.2460
 4522SOL    HW125028   0.780   1.902   5.885  0.0210 -1.7742 -0.2898
 4522SOL    HW225029   0.763   1.941   6.026  0.7456 -0.4180 -0.4688
 4523SOL     OW25030   1.552   2.885   4.923 -0.0411  0.4172  0.5972
 4523SOL    HW125031   1.540   2.822   4.852  0.4694  1.4101 -0.3776
 4523SOL    HW225032   1.640   2.870   4.958 -0.0673 -0.6400  0.2133
 4524SOL     OW25033   1.717   1.712   8.806 -0.3872  0.6451 -0.3236
 4524SOL    HW125034   1.723   1.648   8.734 -0.6680 -0.9105  1.0263
 4524SOL    HW225035   1.625   1.691   8.822 -0.0478 -0.9459 -0.4381
 4525SOL     OW25036   1.323   3.113   3.735  0.1058 -0.0331  0.0473
 4525SOL    HW125037   1.260   3.052   3.774  2.6272 -3.4434 -1.1714
 4525SOL    HW225038   1.402   3.067   3.766  1.1154 -0.1276 -2.6407
 4526SOL     OW25039   3.196   3.375   4.219  0.3182  0.1787  0.3822
 4526SOL    HW125040   3.213   3.413   4.305  1.4895  0.1464  0.1662
 4526SOL    HW225041   3.280   3.395   4.177  0.3179  0.5067  0.5323
 4527SOL     OW25042   1.594   4.346   9.643  0.0849 -0.0999  0.1588
 4527SOL    HW125043   1.540   4.280   9.600  0.3198  0.0705 -0.4016
 4527SOL    HW225044   1.613   4.401   9.567 -0.2462 -0.4533 -0.1787
 4528SOL     OW25045   2.238   1.502   3.287 -0.1789 -0.1692  0.1090
 4528SOL    HW125046   2.154   1.535   3.255 -0.8874 -2.1019 -0.0414
 4528SOL    HW225047   2.243   1.426   3.230  1.2580 -1.9145  2.5520
 4529SOL     OW25048   2.261   0.513  12.329 -0.8876  0.5333 -0.5286
 4529SOL    HW125049   2.181   0.538  12.283 -1.5047  1.3677  1.0285
 4529SOL    HW225050   2.327   0.555  12.274  0.3067  1.7661  1.8710
 4530SOL     OW25051   2.831   2.294   0.136  0.5047  0.1717  0.5502
 4530SOL    HW125052   2.802   2.359   0.072  2.3080  1.7210  1.3118
 4530SOL    HW225053   2.748   2.255   0.163 -0.1941  1.0652 -0.3261
 4531SOL     OW25054   0.175   0.523  17.180 -0.4150 -0.0933 -0.7040
 4531SOL    HW125055   0.155   0.494  17.091  0.5644  1.1468 -1.3341
 4531SOL    HW225056   0.089   0.521  17.223 -0.5684  2.0601 -0.9067
 4532SOL     OW25057   4.698   0.651   1.334  0.3963 -0.2276 -0.2757
 4532SOL    HW125058   0.029   0.650   1.411 -1.9613  0.2210  1.4347
 4532SOL    HW225059   4.690   0.555   1.329 -1.5060 -0.0667 -0.1279
 4533SOL     OW25060   3.148   2.813   6.244  0.4133  0.1267 -0.4486
 4533SOL    HW125061   3.178   2.723   6.251  1.5649  0.7198  2.3749
 4533SOL    HW225062   3.085   2.823   6.316 -0.2801 -1.8871 -0.8039
 4534SOL     OW25063   2.467   2.548  10.681 -0.1082 -0.1046  0.4252
 4534SOL    HW125064   2.479   2.543  10.776  1.1334  1.0719  0.3320
 4534SOL    HW225065   2.414   2.470  10.668  1.3122 -0.8693 -0.8097
 4535SOL     OW25066   4.534   2.840  14.517 -0.0497 -0.2281  0.6563
 4535SOL    HW125067   4.510   2.751  14.545 -3.0272  0.7173  1.1573
 4535SOL    HW225068   4.535   2.890  14.599  3.9430  0.4184  0.2027
 4536SOL     OW25069   2.841   2.806   3.887  0.0161  0.0603  0.7001
 4536SOL    HW125070   2.926   2.805   3.842  0.8726  1.0300  2.2863
 4536SOL    HW225071   2.850   2.885   3.942 -2.1588  1.7589 -1.3876
 4537SOL     OW25072   3.019   1.857   8.983  0.7989  0.2411  0.3202
 4537SOL    HW125073   3.039   1.942   8.944 -1.7722  0.7055 -0.0132
 4537SOL    HW225074   3.087   1.856   9.050  0.0351 -0.1528  1.0927
 4538SOL     OW25075   0.380   4.113   8.022 -0.1604  0.3400 -0.4499
 4538SOL    HW125076   0.467   4.135   8.056  1.1063 -4.9922 -0.1976
 4538SOL    HW225077   0.404   4.073   7.938 -0.0590  1.3603 -0.9061
 4539SOL     OW25078   1.547   0.918  16.604  0.7125 -0.1963  0.1812
 4539SOL    HW125079   1.604   0.845  16.582 -0.5992 -0.5191 -2.0841
 4539SOL    HW225080   1.524   0.906  16.696  3.2657  0.3079  0.8927
 4540SOL     OW25081   4.617   3.083   1.790 -0.3562  0.2322  0.1646
 4540SOL    HW125082   4.660   3.127   1.717  1.6347 -1.0690  0.5330
 4540SOL    HW225083   4.556   3.147   1.826 -1.4641 -1.6715  1.6815
 4541SOL     OW25084   3.698   2.958   3.285  0.0371  0.6054 -0.0238
 4541SOL    HW125085   3.650   2.944   3.203 -0.0908  0.2243  0.1138
 4541SOL    HW225086   3.790   2.950   3.260  0.4847  1.7917  1.2521
 4542SOL     OW25087   3.447   0.243   1.611 -0.2138  0.8502  0.1083
 4542SOL    HW125088   3.413   0.303   1.545 -1.2520  1.4964  1.2317
 4542SOL    HW225089   3.535   0.230   1.576 -1.0309  1.0185 -2.0233
 4543SOL     OW25090   4.005   2.623  16.935  0.1246  0.1723  0.0951
 4543SOL    HW125091   4.079   2.638  16.994  0.2303  0.8838 -0.2124
 4543SOL    HW225092   3.974   2.713  16.941 -1.5691 -0.3233 -1.3338
 4544SOL     OW25093   2.911   1.538   3.485  0.2563  0.2029  0.2503
 4544SOL    HW125094   2.908   1.550   3.580 -2.3726  0.8458  0.0748
 4544SOL    HW225095   2.968   1.611   3.461 -0.0447  0.2539 -0.3059
 4545SOL     OW25096   2.215   4.066   9.035 -0.0962 -0.1569  0.2471
 4545SOL    HW125097   2.305   4.070   9.068 -0.8491 -0.5672  2.3328
 4545SOL    HW225098   2.194   4.159   9.037  3.6131  0.6938 -1.0044
 4546SOL     OW25099   4.336   2.907   7.564  0.2181  0.1462 -0.0438
 4546SOL    HW125100   4.383   2.935   7.485  0.4289 -0.3772 -0.1017
 4546SOL    HW225101   4.382   2.827   7.587 -0.3975 -0.3893 -0.6804
 4547SOL     OW25102   3.786   1.778  13.059 -0.9244 -0.7090 -0.0188
 4547SOL    HW125103   3.806   1.771  12.965 -0.1289 -0.7344  0.1490
 4547SOL    HW225104   3.816   1.695  13.096  0.8073 -0.6924 -1.3602
 4548SOL     OW25105   2.218   2.248  14.109 -0.5440  0.3364 -0.2428
 4548SOL    HW125106   2.287   2.312  14.093  0.3524 -0.5148  0.1676
 4548SOL    HW225107   2.229   2.181  14.042  1.6684  2.9063 -2.4506
 4549SOL     OW25108   3.853   3.902   4.067  0.4515  0.8574 -0.1908
 4549SOL    HW125109   3.901   3.822   4.089 -0.3650  0.3677 -0.1834
 4549SOL    HW225110   3.900   3.943   3.995 -2.4706  2.1448 -1.3856
 4550SOL     OW25111   1.311   0.188  12.441  0.0477 -0.2091  0.2645
 4550SOL    HW125112   1.306   0.094  12.454 -2.7601 -0.1021 -0.0924
 4550SOL    HW225113   1.263   0.217  12.519 -2.4058 -1.7908 -0.6928
 4551SOL     OW25114   3.842   4.061   7.913 -0.2102 -0.2508  0.2007
 4551SOL    HW125115   3.770   4.005   7.884 -0.3134 -0.5085  0.9612
 4551SOL    HW225116   3.914   4.044   7.853  0.0529 -0.3198  0.5331
 4552SOL     OW25117   0.640   4.497   7.208  0.7326  0.0892 -0.1571
 4552SOL    HW125118   0.682   4.411   7.199  1.0839  0.0027  2.3787
 4552SOL    HW225119   0.685   4.526   7.288  1.1419 -2.8788  0.7002
 4553SOL     OW25120   4.277   2.323   1.069  0.2451  0.4336  0.1358
 4553SOL    HW125121   4.253   2.317   1.162  1.9453  0.7162  0.5923
 4553SOL    HW225122   4.314   2.410   1.055 -0.9111  1.0275  0.8238
 4554SOL     OW25123   4.282   2.437  16.662 -0.1790  0.0887  0.1881
 4554SOL    HW125124   4.306   2.345  16.668  2.3502  0.8714  2.2777
 4554SOL    HW225125   4.196   2.440  16.703  1.1803 -0.7653  3.0370
 4555SOL     OW25126   4.364   0.608   9.968  0.0855  0.1222  0.1088
 4555SOL    HW125127   4.454   0.601  10.001 -0.5296 -2.1027  1.3484
 4555SOL    HW225128   4.326   0.558  10.040  1.2512 -0.4514  0.3307
 4556SOL     OW25129   1.451   3.982   6.204 -0.3380 -0.6643  0.1542
 4556SOL    HW125130   1.463   3.936   6.287 -0.4006  2.2554  1.7701
 4556SOL    HW225131   1.437   4.074   6.223 -0.6960 -0.5617 -0.6068
 4557SOL     OW25132   0.375   4.664   6.304  0.0552 -0.2963 -0.0105
 4557SOL    HW125133   0.345   0.018   6.346  1.1015  0.9308 -1.6355
 4557SOL    HW225134   0.459   4.656   6.349  1.0680  2.6425 -1.3760
 4558SOL     OW25135   1.114   2.187  11.804 -0.2748 -0.0582  0.2881
 4558SOL    HW125136   1.064   2.261  11.839 -1.1383 -0.7782  0.5541
 4558SOL    HW225137   1.153   2.228  11.727  2.5319  2.3596  2.9353
 4559SOL     OW25138   2.304   0.540   4.743  0.2229 -0.1366 -0.3210
 4559SOL    HW125139   2.320   0.590   4.662  0.6236 -0.9757 -0.7591
 4559SOL    HW225140   2.349   0.459   4.721 -1.2973 -0.9791 -0.2573
 4560SOL     OW25141   1.389   2.360   6.295  0.1399  0.1017 -0.5451
 4560SOL    HW125142   1.382   2.272   6.333 -0.4684  0.1343 -0.5789
 4560SOL    HW225143   1.311   2.396   6.338  0.2477  0.2593 -0.4819
 4561SOL     OW25144   4.523   4.104  15.948 -0.2681  0.3798  0.3437
 4561SOL    HW125145   4.525   4.191  15.910  0.6846 -0.2231 -1.0036
 4561SOL    HW225146   4.598   4.060  15.907 -0.7407 -1.3572  1.3491
 4562SOL     OW25147   2.412   1.374   8.672 -0.4882 -0.3353  0.4604
 4562SOL    HW125148   2.328   1.329   8.674  0.0611 -1.3410  0.7910
 4562SOL    HW225149   2.453   1.345   8.590 -0.3584 -0.0717  0.4297
 4563SOL     OW25150   0.976   0.708   2.750  0.1929 -0.0890 -0.2530
 4563SOL    HW125151   1.006   0.734   2.664 -0.7443  1.2829 -0.1707
 4563SOL    HW225152   0.907   0.646   2.728 -1.8719  2.7098 -1.6147
 4564SOL     OW25153   0.824   1.704  12.488  0.0162 -0.4361 -0.4759
 4564SOL    HW125154   0.803   1.796  12.476  1.1669 -0.3030 -1.4660
 4564SOL    HW225155   0.842   1.710  12.581  2.2715 -0.5248 -0.9160
 4565SOL     OW25156   1.301   0.101   2.428 -0.3052  0.2211  0.1498
 4565SOL    HW125157   1.213   0.101   2.390  0.0703  0.6572 -0.7445
 4565SOL    HW225158   1.354   0.112   2.348 -1.4835 -0.2589 -0.6904
 4566SOL     OW25159   4.401   3.104   5.915  0.0735  0.7127  0.3939
 4566SOL    HW125160   4.493   3.116   5.937  0.1602  0.5031  0.1426
 4566SOL    HW225161   4.394   3.122   5.821  0.8208  2.3588  0.6687
 4567SOL     OW25162   3.614   2.498  17.609  0.1531 -0.2131 -0.5700
 4567SOL    HW125163   3.587   2.445  17.533  3.2188 -2.9853  0.2466
 4567SOL    HW225164   3.694   2.533  17.571 -0.4027  1.4324 -0.2069
 4568SOL     OW25165   2.655   0.952   0.740 -0.0347  0.6255  0.0415
 4568SOL    HW125166   2.747   0.935   0.718 -0.1826  0.8853 -0.7909
 4568SOL    HW225167   2.620   0.872   0.702  1.2796 -0.7808  1.7897
 4569SOL     OW25168   2.266   2.219   0.390 -0.1208 -0.3577 -0.3268
 4569SOL    HW125169   2.197   2.260   0.339  0.5226  1.0996 -0.0468
 4569SOL    HW225170   2.344   2.271   0.370 -1.6631  1.2619 -1.9969
 4570SOL     OW25171   4.237   1.882   3.062 -0.5259 -0.0685  0.4044
 4570SOL    HW125172   4.286   1.801   3.046  1.3842  0.7390  2.1356
 4570SOL    HW225173   4.271   1.945   2.998 -0.7036 -0.6052 -0.2242
 4571SOL     OW25174   1.645   3.663   2.967 -0.3444  0.3989  0.1093
 4571SOL    HW125175   1.665   3.726   2.898 -0.8638  0.9403  0.4631
 4571SOL    HW225176   1.719   3.604   2.950 -2.2060 -1.6806 -0.8943
 4572SOL     OW25177   1.248   2.713  10.637  0.0080 -0.1100 -0.4290
 4572SOL    HW125178   1.321   2.701  10.576 -0.1443  1.0069 -0.8441
 4572SOL    HW225179   1.181   2.727  10.570 -0.1135 -1.8015 -0.6505
 4573SOL     OW25180   4.578   0.262  11.966  1.0069  0.4382 -0.0330
 4573SOL    HW125181   4.546   0.263  12.057  0.3226  0.0123 -0.2654
 4573SOL    HW225182   4.512   0.318  11.925 -1.4896 -2.2671  0.3063
 4574SOL     OW25183   2.618   3.907   0.444 -0.2586 -0.2309  0.0311
 4574SOL    HW125184   2.617   3.858   0.362 -2.9101 -1.3584  0.7371
 4574SOL    HW225185   2.525   3.924   0.459 -0.0538  1.9705 -1.0840
 4575SOL     OW25186   3.840   0.866   7.836  0.5342  0.6118 -0.0035
 4575SOL    HW125187   3.893   0.814   7.775 -0.5531 -1.4281  0.7927
 4575SOL    HW225188   3.894   0.944   7.845 -0.1747  1.0493  0.4560
 4576SOL     OW25189   2.494   0.693  13.386 -0.3290  0.5264 -0.2098
 4576SOL    HW125190   2.452   0.742  13.457 -2.3723 -0.8730 -0.4659
 4576SOL    HW225191   2.419   0.697  13.326 -0.1245  0.7711 -0.4544
 4577SOL     OW25192   4.184   4.215   8.099  0.1207 -0.2048 -0.0622
 4577SOL    HW125193   4.148   4.137   8.142  1.3848 -0.6545  0.1722
 4577SOL    HW225194   4.211   4.180   8.014  0.2208  3.6064 -1.5926
 4578SOL     OW25195   3.739   1.382   3.785  0.7242 -0.1317  0.2626
 4578SOL    HW125196   3.657   1.334   3.772 -0.9175  2.0151  2.6549
 4578SOL    HW225197   3.779   1.372   3.698  3.9738  4.2269  1.3020
 4579SOL     OW25198   3.566   4.526  12.448 -0.4608  0.2808 -0.8522
 4579SOL    HW125199   3.518   4.590  12.499  1.6466  0.0906  1.3643
 4579SOL    HW225200   3.561   4.451  12.507  2.3203 -0.1034 -1.0876
 4580SOL     OW25201   2.071   1.993   7.075  0.8247 -0.4273 -0.3821
 4580SOL    HW125202   2.032   1.951   7.151 -1.2918 -0.1136 -1.2953
 4580SOL    HW225203   2.115   2.066   7.118 -0.6825  1.0585 -1.3435
 4581SOL     OW25204   1.636   4.564   9.460  0.2104  0.1582 -0.1147
 4581SOL    HW125205   1.687   4.562   9.380 -1.0295 -0.8196 -0.8868
 4581SOL    HW225206   1.677   4.640   9.502  1.1224 -0.3208 -0.1386
 4582SOL     OW25207   2.814   4.557   5.183  0.1851 -0.3484  0.4171
 4582SOL    HW125208   2.760   4.560   5.104 -1.5238  0.0658  1.5973
 4582SOL    HW225209   2.752   4.560   5.257  0.3742  1.4916  0.5183
 4583SOL     OW25210   4.186   1.114   3.652  0.2863 -0.2105  0.3628
 4583SOL    HW125211   4.122   1.082   3.588  1.0048  1.0479 -0.9841
 4583SOL    HW225212   4.188   1.203   3.616  0.0825 -1.2239 -2.1539
 4584SOL     OW25213   2.290   4.167   1.359 -0.1092  0.0586 -0.1605
 4584SOL    HW125214   2.331   4.254   1.354 -1.0856  0.5654  0.4667
 4584SOL    HW225215   2.197   4.183   1.344  0.2277  1.0159 -1.2171
 4585SOL     OW25216   2.723   1.187  10.376  0.0721 -0.7103 -0.6307
 4585SOL    HW125217   2.812   1.214  10.351 -0.1312 -0.0244 -0.5939
 4585SOL    HW225218   2.672   1.263  10.347 -0.4680 -0.9031 -0.1625
 4586SOL     OW25219   2.426   2.687   9.050 -0.0316  0.0842  0.3999
 4586SOL    HW125220   2.410   2.771   9.006 -1.6880 -0.7174 -0.5239
 4586SOL    HW225221   2.521   2.686   9.065  0.2198 -3.4263 -1.2731
 4587SOL     OW25222   1.264   2.313   5.450 -0.1645 -0.6259  0.1956
 4587SOL    HW125223   1.302   2.324   5.537  0.0056 -3.6450  0.5017
 4587SOL    HW225224   1.327   2.352   5.389 -0.7656  0.3100  0.1729
 4588SOL     OW25225   1.625   3.174   1.762  0.2378  0.2211  0.8458
 4588SOL    HW125226   1.592   3.084   1.770  2.6607 -0.8445 -1.1595
 4588SOL    HW225227   1.555   3.219   1.810  0.8926  1.2406  0.8435
 4589SOL     OW25228   3.886   3.136   8.005  0.7265  0.2769 -0.4577
 4589SOL    HW125229   3.903   3.047   7.973 -0.2299  0.7603 -2.3120
 4589SOL    HW225230   3.870   3.115   8.097  1.3421 -2.7338 -1.0246
 4590SOL     OW25231   1.916   3.487   0.720  0.4794  0.2030  0.1040
 4590SOL    HW125232   2.009   3.485   0.742  0.8549 -0.9638 -1.6205
 4590SOL    HW225233   1.906   3.396   0.694  0.9838  0.1421  0.1142
 4591SOL     OW25234   1.279   1.110   4.462 -0.2072 -0.2777  0.1700
 4591SOL    HW125235   1.189   1.078   4.451  0.4176 -2.3542  0.9634
 4591SOL    HW225236   1.277   1.183   4.523  1.2391  0.6285 -0.8701
 4592SOL     OW25237   2.526   0.999  10.351 -0.5640 -0.0453 -0.2905
 4592SOL    HW125238   2.595   1.060  10.377 -0.6933  1.3078 -3.0365
 4592SOL    HW225239   2.464   1.063  10.315  0.7181  2.4407  1.9395
 4593SOL     OW25240   1.548   4.501   5.778  0.3568  0.3197 -0.2860
 4593SOL    HW125241   1.557   4.495   5.873 -1.1385  1.7933 -0.0590
 4593SOL    HW225242   1.561   4.595   5.765 -3.4624  0.8592 -0.1152
 4594SOL     OW25243   4.496   0.283  13.219  0.3406 -0.2660 -0.5342
 4594SOL    HW125244   4.473   0.252  13.306 -3.2428  1.6507 -0.7998
 4594SOL    HW225245   4.586   0.313  13.231  0.2522 -0.4337  0.5356
 4595SOL     OW25246   2.838   4.404   0.871  0.2376 -0.2499  0.1856
 4595SOL    HW125247   2.859   4.344   0.800  2.3860  0.2009  0.4394
 4595SOL    HW225248   2.744   4.418   0.862  0.4762  0.3944 -1.2196
 4596SOL     OW25249   3.710   3.421   8.506 -0.8091 -0.3509 -0.2774
 4596SOL    HW125250   3.741   3.353   8.446 -0.7638  0.9056 -1.6913
 4596SOL    HW225251   3.759   3.402   8.586  0.8346 -2.4858 -1.7948
 4597SOL     OW25252   4.187   3.891   8.446  0.4161 -0.3274  0.1409
 4597SOL    HW125253   4.167   3.798   8.452 -0.8749  0.0964  2.6250
 4597SOL    HW225254   4.116   3.939   8.488  0.9109  1.1063 -0.6467
 4598SOL     OW25255   3.925   0.827   6.675 -0.0386 -0.3156  0.5676
 4598SOL    HW125256   4.020   0.825   6.691  0.4019 -0.5396 -2.1123
 4598SOL    HW225257   3.913   0.898   6.612 -0.9063 -2.3145 -1.4811
 4599SOL     OW25258   1.785   1.474   5.672 -0.5190  0.3495  0.4560
 4599SOL    HW125259   1.745   1.396   5.635 -1.6563  0.7585  0.8185
 4599SOL    HW225260   1.875   1.443   5.660 -1.1266 -0.9067 -0.7171
 4600SOL     OW25261   1.744   4.652   4.985  0.0071  0.2818 -0.2194
 4600SOL    HW125262   1.655   4.619   4.989 -0.0675  0.6294  0.9499
 4600SOL    HW225263   1.799   4.589   4.938 -1.4563  0.2234 -1.8303
 4601SOL     OW25264   2.098   2.978   9.185  0.4372  0.1941 -0.5547
 4601SOL    HW125265   2.177   2.965   9.133 -0.5558 -0.2262 -1.9835
 4601SOL    HW225266   2.045   2.987   9.105 -0.0909  0.3163 -0.1895
 4602SOL     OW25267   1.046   1.287   7.001  0.2592  0.3019  0.2667
 4602SOL    HW125268   1.120   1.229   7.021 -0.5333 -0.7133  0.2991
 4602SOL    HW225269   1.092   1.347   6.943  1.2234  0.0714  0.8063
 4603SOL     OW25270   0.173   3.817  15.991  0.2871 -0.1524  0.3101
 4603SOL    HW125271   0.167   3.737  16.043 -2.7596  1.2938  2.2190
 4603SOL    HW225272   0.141   3.886  16.050  2.8113  2.1875 -1.0866
 4604SOL     OW25273   2.613   3.452   7.946  0.1185 -0.5381  0.2052
 4604SOL    HW125274   2.681   3.403   7.993 -0.5893 -0.6900  1.0847
 4604SOL    HW225275   2.654   3.530   7.909  0.4624 -0.1787  1.3331
 4605SOL     OW25276   1.569   3.786   6.707  0.2887  0.0238  0.1200
 4605SOL    HW125277   1.523   3.772   6.624  2.2007  0.7131 -1.0355
 4605SOL    HW225278   1.590   3.879   6.708  1.0075 -0.1274 -2.6587
 4606SOL     OW25279   4.029   0.223   7.583  0.5530 -0.1267  0.2768
 4606SOL    HW125280   4.080   0.292   7.541  0.2163 -0.2979 -0.4181
 4606SOL    HW225281   4.067   0.231   7.670  0.8339  2.0342 -0.0385
 4607SOL     OW25282   4.046   1.568   6.983  0.2222  0.2646  0.9142
 4607SOL    HW125283   4.087   1.493   7.024 -1.3664 -1.0528  0.0908
 4607SOL    HW225284   4.100   1.572   6.904 -2.2261  0.5164 -0.7537
 4608SOL     OW25285   3.370   1.285   4.909  0.2330 -0.1869  0.5243
 4608SOL    HW125286   3.463   1.286   4.930 -0.0158  1.4686  1.5830
 4608SOL    HW225287   3.356   1.380   4.911  2.2478  0.1036  0.5174
 4609SOL     OW25288   2.971   3.520   8.503 -0.0171 -0.1118 -0.0285
 4609SOL    HW125289   2.977   3.453   8.571 -0.9757  0.5812  0.7304
 4609SOL    HW225290   3.003   3.597   8.550  0.7979 -0.1562 -0.5205
 4610SOL     OW25291   3.387   1.866  13.659 -0.6324 -0.0905 -0.0231
 4610SOL    HW125292   3.361   1.777  13.635  1.7227 -1.2212  1.6575
 4610SOL    HW225293   3.431   1.901  13.582  1.7807  1.8875  2.2825
 4611SOL     OW25294   3.779   0.636   3.350 -0.2533  0.0514  0.1031
 4611SOL    HW125295   3.837   0.564   3.374  1.1467  0.8403 -0.8695
 4611SOL    HW225296   3.707   0.605   3.404  0.1228 -0.5769  0.2442
 4612SOL     OW25297   2.638   1.077   5.118 -0.0357  0.7289  0.1223
 4612SOL    HW125298   2.635   0.982   5.122 -1.4066  0.6658 -2.7764
 4612SOL    HW225299   2.576   1.083   5.046  2.4345  1.1359 -1.9869
 4613SOL     OW25300   1.698   3.880   4.934 -0.2383 -0.3404 -0.4666
 4613SOL    HW125301   1.755   3.957   4.937  2.0024 -2.0250 -0.0296
 4613SOL    HW225302   1.622   3.926   4.969  0.6883  0.2558  0.7918
 4614SOL     OW25303   0.846   4.584  14.967 -0.0830 -0.8597 -0.3556
 4614SOL    HW125304   0.930   4.539  14.962  0.7187  0.3664  2.4852
 4614SOL    HW225305   0.864   4.672  14.936 -1.5680 -0.7378 -0.9111
 4615SOL     OW25306   2.539   1.636   2.538  0.2894  0.1256  0.4860
 4615SOL    HW125307   2.491   1.699   2.483  0.9647 -0.2800 -0.5759
 4615SOL    HW225308   2.621   1.642   2.489  0.0616 -2.1304 -0.1860
 4616SOL     OW25309   1.644   2.155   5.095 -0.2261 -0.4708  0.4739
 4616SOL    HW125310   1.647   2.181   5.003  1.5363 -1.4301  0.2527
 4616SOL    HW225311   1.690   2.071   5.102  1.1038  0.1796 -0.3776
 4617SOL     OW25312   2.773   3.749   8.679 -0.3974  0.5631  0.2619
 4617SOL    HW125313   2.807   3.802   8.607 -0.0889 -1.5896 -1.1591
 4617SOL    HW225314   2.856   3.726   8.722 -0.9380  2.2838  2.2395
 4618SOL     OW25315   3.712   0.021   2.231  0.3517  0.3089  0.4270
 4618SOL    HW125316   3.792   4.705   2.264  0.2522 -0.6897 -0.5817
 4618SOL    HW225317   3.663   4.672   2.196  1.2096  0.7440 -1.7451
 4619SOL     OW25318   0.437   1.521   9.440 -0.1012  0.4274 -0.2280
 4619SOL    HW125319   0.520   1.533   9.395 -0.9390  0.3863 -1.7981
 4619SOL    HW225320   0.377   1.548   9.370  0.2663 -1.0369 -1.1055
 4620SOL     OW25321   0.851   2.862   2.569 -0.3521  0.1627  0.4835
 4620SOL    HW125322   0.905   2.784   2.557 -1.1040 -0.5427  1.6713
 4620SOL    HW225323   0.760   2.838   2.584 -0.5074  1.8868  2.2904
 4621SOL     OW25324   0.875   1.901   8.188 -0.2445  0.1179  0.0116
 4621SOL    HW125325   0.960   1.938   8.213  0.1015 -0.1787 -0.7074
 4621SOL    HW225326   0.847   1.847   8.262 -1.6092 -0.0114 -0.6039
 4622SOL     OW25327   0.164   1.006   6.678  0.6539  0.2619  0.1657
 4622SOL    HW125328   0.095   0.984   6.740  0.0051 -0.3523 -0.7794
 4622SOL    HW225329   0.168   1.101   6.665 -0.1056  0.2467 -0.1455
 4623SOL     OW25330   2.639   3.586   6.635  0.2387  0.4280  0.0513
 4623SOL    HW125331   2.602   3.521   6.575 -0.8976 -0.7055  1.9581
 4623SOL    HW225332   2.663   3.650   6.569 -1.1107  1.9101  1.0039
 4624SOL     OW25333   2.145   1.479  13.218 -0.3550  0.0178 -0.4945
 4624SOL    HW125334   2.175   1.435  13.138  1.6917  3.3429 -1.5832
 4624SOL    HW225335   2.063   1.436  13.241 -1.3273  1.6532 -0.9240
 4625SOL     OW25336   1.880   0.657   7.690  0.5539 -0.2679 -0.1246
 4625SOL    HW125337   1.855   0.601   7.616 -1.8942  1.2490 -0.4039
 4625SOL    HW225338   1.976   0.665   7.686  0.8235 -3.2387  0.3408
 4626SOL     OW25339   2.298   0.643   4.497 -0.2025 -0.3983 -0.0645
 4626SOL    HW125340   2.259   0.719   4.452 -2.4013 -2.7732 -2.1689
 4626SOL    HW225341   2.359   0.611   4.431  1.3835 -1.9058  2.1651
 4627SOL     OW25342   3.678   4.137   4.871  0.7322 -0.3468 -0.5688
 4627SOL    HW125343   3.722   4.221   4.885  2.6522 -1.3083 -0.9720
 4627SOL    HW225344   3.723   4.084   4.936  1.3497  0.4667 -0.3350
 4628SOL     OW25345   3.360   2.083   6.226 -0.4770 -0.6678  0.3719
 4628SOL    HW125346   3.443   2.121   6.196  1.3819 -2.4293  3.1785
 4628SOL    HW225347   3.369   2.100   6.320  0.0150  1.3980 -0.0400
 4629SOL     OW25348   0.229   4.703   9.796  0.0189 -0.3381  0.4298
 4629SOL    HW125349   0.277   4.682   9.876  0.9193  1.9468  0.4837
 4629SOL    HW225350   0.230   0.072   9.801  0.0932 -0.4028  1.5181
 4630SOL     OW25351   2.936   4.270   4.623  0.5101 -0.0317 -0.0091
 4630SOL    HW125352   2.844   4.255   4.649  0.4697  0.9839  0.4270
 4630SOL    HW225353   2.962   4.191   4.576  0.9896 -1.4165  2.5945
 4631SOL     OW25354   2.584   1.315  10.706  0.2503 -0.0894  0.2580
 4631SOL    HW125355   2.616   1.228  10.685 -1.3670 -0.6763  0.3062
 4631SOL    HW225356   2.513   1.286  10.762  0.4582 -0.2032  0.4614
 4632SOL     OW25357   2.728   0.753   8.492  0.3404 -0.2294 -0.1526
 4632SOL    HW125358   2.805   0.790   8.449  0.9293 -1.1801  0.0795
 4632SOL    HW225359   2.694   0.689   8.429 -0.3093 -0.2006  0.1716
 4633SOL     OW25360   0.395   1.358  16.220  0.4532 -0.2423  0.2538
 4633SOL    HW125361   0.347   1.403  16.288  3.0721 -1.3720  2.8662
 4633SOL    HW225362   0.323   1.306  16.184 -0.1071 -0.2321  1.3649
 4634SOL     OW25363   3.858   0.541   6.976 -0.6665 -0.3034 -0.5096
 4634SOL    HW125364   3.909   0.555   6.897  1.5623  1.7979  1.2855
 4634SOL    HW225365   3.806   0.621   6.977  0.3444  0.3561 -1.2734
 4635SOL     OW25366   1.410   2.107   6.435 -0.0284  0.1962 -0.0871
 4635SOL    HW125367   1.405   2.032   6.375  1.7263  1.4734 -1.8431
 4635SOL    HW225368   1.396   2.064   6.520  0.2264 -0.1985 -0.2430
 4636SOL     OW25369   1.317   1.217  10.279  0.2487 -0.3533 -0.2889
 4636SOL    HW125370   1.282   1.301  10.248  1.5355 -0.0008 -0.7788
 4636SOL    HW225371   1.406   1.243  10.304  1.0323  0.3187 -3.8132
 4637SOL     OW25372   4.246   0.350  11.400 -0.2646  0.1376  0.1219
 4637SOL    HW125373   4.305   0.393  11.462  0.0493 -1.9010  1.2525
 4637SOL    HW225374   4.257   0.260  11.432  2.7435 -0.0737 -1.4888
 4638SOL     OW25375   0.277   1.943   9.221  0.0681 -0.1468  0.2822
 4638SOL    HW125376   0.185   1.957   9.201 -0.2441 -4.4675 -1.2342
 4638SOL    HW225377   0.283   1.995   9.301 -2.0754  0.1227  0.2558
 4639SOL     OW25378   3.281   2.442  10.048 -0.3571  0.6057 -0.3410
 4639SOL    HW125379   3.229   2.510  10.004 -0.1863  1.3309  0.5825
 4639SOL    HW225380   3.347   2.496  10.090  0.1902 -1.4858  1.4854
 4640SOL     OW25381   4.108   3.379   3.757  0.2133  0.1573  0.6607
 4640SOL    HW125382   4.127   3.306   3.698  2.0438 -0.6549  2.2683
 4640SOL    HW225383   4.152   3.352   3.838  1.2240 -2.1513 -0.6475
 4641SOL     OW25384   4.612   2.630  16.487  0.1037 -0.4412 -0.3232
 4641SOL    HW125385   4.622   2.720  16.518  1.4224 -0.0192 -1.9886
 4641SOL    HW225386   4.601   2.576  16.565  0.1001 -2.1269 -1.4830
 4642SOL     OW25387   0.746   0.450   5.729 -0.5077 -0.3447  0.4802
 4642SOL    HW125388   0.681   0.519   5.744 -2.2068 -1.9608  0.4651
 4642SOL    HW225389   0.692   0.375   5.702 -2.3404  1.6561 -1.4575
 4643SOL     OW25390   0.101   0.376   2.530  0.2153 -0.0246  0.5268
 4643SOL    HW125391   0.169   0.381   2.597 -0.9908  0.5650  1.7194
 4643SOL    HW225392   0.120   0.287   2.502  0.4569  0.6616 -1.4337
 4644SOL     OW25393   2.236   0.032   9.052  0.0719 -0.3263 -0.2120
 4644SOL    HW125394   2.244   4.706   9.131 -2.1303  0.2143  0.3556
 4644SOL    HW225395   2.307   0.096   9.062 -0.5238  0.7514 -2.8482
 4645SOL     OW25396   0.341   2.184   8.798  0.3143  0.3708  0.3449
 4645SOL    HW125397   0.350   2.092   8.772 -2.8610  0.1649 -0.0472
 4645SOL    HW225398   0.349   2.176   8.893 -0.2932  0.4856  0.4084
 4646SOL     OW25399   0.135   0.517   8.042  0.1837  0.1882 -0.2479
 4646SOL    HW125400   0.145   0.423   8.030  0.1013  0.1205  0.2168
 4646SOL    HW225401   0.077   0.520   8.118  1.0930 -2.0127  0.5123
 4647SOL     OW25402   1.386   1.349  10.667  0.0337  0.3266 -0.0402
 4647SOL    HW125403   1.327   1.409  10.620 -0.7016  0.3715  0.9527
 4647SOL    HW225404   1.323   1.279  10.678 -0.9581  1.4456  1.4293
 4648SOL     OW25405   4.097   2.945   8.340  0.3614  0.1911  0.7203
 4648SOL    HW125406   4.135   2.968   8.255 -1.8246  1.1300 -0.0000
 4648SOL    HW225407   4.003   2.964   8.334 -0.0990 -2.1158  0.9129
 4649SOL     OW25408   1.455   1.184   3.958 -0.0241 -0.3882 -0.0043
 4649SOL    HW125409   1.451   1.126   4.034  1.0934 -0.1952  0.2088
 4649SOL    HW225410   1.380   1.159   3.904 -0.9475 -2.5764  2.2726
 4650SOL     OW25411   1.813   1.439   9.957 -0.0033 -0.3523 -0.1668
 4650SOL    HW125412   1.720   1.436   9.936  0.4108 -3.4161 -1.6811
 4650SOL    HW225413   1.852   1.509   9.906 -0.9004 -0.0078 -0.3782
 4651SOL     OW25414   1.682   1.208   7.629  0.5182  0.0857  0.0371
 4651SOL    HW125415   1.673   1.178   7.720  2.1683  0.5069  0.3559
 4651SOL    HW225416   1.703   1.298   7.655  0.1281 -0.3989  2.0253
 4652SOL     OW25417   1.208   0.271   6.034  0.2426 -0.1387  0.7112
 4652SOL    HW125418   1.301   0.248   6.033  0.2539 -0.0252 -0.4308
 4652SOL    HW225419   1.188   0.221   5.955  0.8671 -0.7470  0.9311
 4653SOL     OW25420   2.245   1.775   9.127  0.1942  0.0604 -0.1336
 4653SOL    HW125421   2.328   1.787   9.173  0.3862 -0.6533 -0.2963
 4653SOL    HW225422   2.219   1.867   9.126 -3.5682 -0.9535  3.1553
 4654SOL     OW25423   2.221   1.974   6.220 -0.5558 -0.4566  0.3074
 4654SOL    HW125424   2.191   1.936   6.138 -0.4018 -0.3212  0.1868
 4654SOL    HW225425   2.313   1.948   6.219  0.2302  2.3806 -1.2365
 4655SOL     OW25426   4.051   1.916  15.577 -0.6709  0.1940 -0.4452
 4655SOL    HW125427   4.138   1.947  15.551 -0.6830 -0.8679 -1.7641
 4655SOL    HW225428   3.994   1.924  15.500 -1.1144 -0.3013 -0.1692
 4656SOL     OW25429   3.273   0.452   5.540  0.0034 -0.6416 -0.5802
 4656SOL    HW125430   3.241   0.543   5.536  2.5209  0.4219  4.3093
 4656SOL    HW225431   3.250   0.422   5.452 -1.1859 -2.1096  0.2455
 4657SOL     OW25432   0.905   1.426   3.746 -0.7532 -0.1976  0.8981
 4657SOL    HW125433   0.820   1.383   3.745 -0.2481 -1.1853  0.3935
 4657SOL    HW225434   0.878   1.517   3.731 -0.8628 -0.2395  0.8444
 4658SOL     OW25435   0.785   0.615   0.759 -0.2104  0.0480 -0.5168
 4658SOL    HW125436   0.720   0.665   0.709 -1.1188 -0.6392 -0.0165
 4658SOL    HW225437   0.818   0.691   0.808 -2.0246  1.3437 -1.2908
 4659SOL     OW25438   1.230   0.150   4.651  0.3610 -0.1744 -0.2086
 4659SOL    HW125439   1.289   0.111   4.586 -0.4433  1.0610 -1.6726
 4659SOL    HW225440   1.205   0.224   4.596 -0.5697  1.2206  2.1050
 4660SOL     OW25441   1.119   4.603   0.784 -0.3459  0.2548  0.0317
 4660SOL    HW125442   1.078   4.516   0.793 -1.4410  0.8175  0.4828
 4660SOL    HW225443   1.131   4.604   0.689  0.3305 -0.2671  0.1078
 4661SOL     OW25444   2.642   0.357   4.801  0.0818  0.2726  0.6221
 4661SOL    HW125445   2.671   0.306   4.877 -0.2997 -3.4020 -1.7350
 4661SOL    HW225446   2.727   0.401   4.800 -0.4437  1.2023 -1.6378
 4662SOL     OW25447   2.936   0.964   0.178  0.1902  0.1842 -0.1184
 4662SOL    HW125448   2.918   0.871   0.163 -0.6336  0.0474  1.7987
 4662SOL    HW225449   2.910   0.981   0.269 -0.7992  1.4469 -0.6320
 4663SOL     OW25450   1.705   0.066  13.198  0.1211  0.3440  0.5032
 4663SOL    HW125451   1.633   0.004  13.212  1.5974 -1.2531  0.8912
 4663SOL    HW225452   1.767   0.028  13.259 -0.1634 -0.9875 -0.0296
 4664SOL     OW25453   0.266   0.902   2.903 -0.2394 -0.1505  0.5120
 4664SOL    HW125454   0.249   0.945   2.987 -0.7024  0.4769  0.1004
 4664SOL    HW225455   0.356   0.933   2.889 -0.3574  0.2190  0.5734
 4665SOL     OW25456   3.957   1.621   6.546 -0.1922 -0.0722  0.1620
 4665SOL    HW125457   4.032   1.629   6.606  0.2146  1.6905 -0.5939
 4665SOL    HW225458   3.996   1.656   6.467 -0.9602  0.7260  0.1363
 4666SOL     OW25459   3.280   4.358   4.912  0.1441 -0.1003 -0.1673
 4666SOL    HW125460   3.295   4.269   4.880 -1.8959 -0.4518 -0.1330
 4666SOL    HW225461   3.314   4.407   4.837  0.1779  0.7693  0.4199
 4667SOL     OW25462   4.028   2.205   6.103 -0.1194 -0.5108  0.2223
 4667SOL    HW125463   3.997   2.119   6.073  0.5875 -0.7281  0.1133
 4667SOL    HW225464   4.116   2.209   6.065 -0.2702  1.3493  0.0806
 4668SOL     OW25465   0.583   1.090  10.215 -0.2725  0.2238  0.0995
 4668SOL    HW125466   0.563   1.108  10.307 -0.8412  2.3989 -0.4443
 4668SOL    HW225467   0.656   1.030  10.230 -0.8915 -0.8080 -1.0069
 4669SOL     OW25468   3.843   4.126   8.989 -0.2863 -0.4880 -0.8027
 4669SOL    HW125469   3.768   4.151   8.935 -0.1420  0.7844 -0.4157
 4669SOL    HW225470   3.921   4.147   8.937 -0.7369  3.9088  0.3458
 4670SOL     OW25471   1.531   2.755  12.992  0.2797  0.2242  0.1884
 4670SOL    HW125472   1.508   2.663  12.997  2.5973 -0.4846 -2.3288
 4670SOL    HW225473   1.545   2.770  13.086  0.4627  1.7385 -0.0695
 4671SOL     OW25474   4.363   4.452   8.806 -0.0948  0.5346  0.7514
 4671SOL    HW125475   4.364   4.525   8.744 -0.0433 -1.5149 -1.6393
 4671SOL    HW225476   4.374   4.500   8.888  0.1098  2.2348 -0.2867
 4672SOL     OW25477   2.373   2.423  15.596 -0.0757  0.2763  0.3115
 4672SOL    HW125478   2.376   2.353  15.530  0.2721  2.7614 -2.2704
 4672SOL    HW225479   2.382   2.367  15.673 -1.8307 -0.5631 -0.0918
 4673SOL     OW25480   3.813   3.714   2.474  0.4309  0.2928 -0.2890
 4673SOL    HW125481   3.846   3.624   2.468 -1.2214 -0.1816 -2.1243
 4673SOL    HW225482   3.766   3.723   2.392  0.6171 -0.7724 -0.5089
 4674SOL     OW25483   3.359   1.581   2.396 -0.1708 -0.3062  0.3631
 4674SOL    HW125484   3.281   1.603   2.344  0.0585 -1.4641 -0.4660
 4674SOL    HW225485   3.397   1.667   2.414  0.3491 -1.0260  2.7227
 4675SOL     OW25486   1.156   1.809  14.638  0.8570 -0.4799 -0.1215
 4675SOL    HW125487   1.100   1.885  14.623  2.9105  1.6272  2.9677
 4675SOL    HW225488   1.232   1.833  14.586 -0.3041  0.0565 -1.6030
 4676SOL     OW25489   2.857   3.361   8.820 -0.1275  0.2980  0.0451
 4676SOL    HW125490   2.870   3.293   8.754 -0.4506  0.6265 -0.3542
 4676SOL    HW225491   2.919   3.326   8.885 -0.1980  1.9597  1.0221
 4677SOL     OW25492   3.624   2.469   7.861 -0.4499 -0.2405  0.5050
 4677SOL    HW125493   3.681   2.525   7.808 -1.0967 -0.4627 -0.4428
 4677SOL    HW225494   3.636   2.506   7.948 -0.4518 -1.5146  1.0523
 4678SOL     OW25495   4.138   4.073   2.996  0.3534  0.1105  0.5559
 4678SOL    HW125496   4.142   4.163   2.966  0.0696 -0.5946 -1.6043
 4678SOL    HW225497   4.230   4.047   2.991  1.4910  4.0969  0.7925
 4679SOL     OW25498   2.068   2.145   0.680  0.2654  0.1492  0.1349
 4679SOL    HW125499   2.039   2.175   0.594 -2.3276  0.9868  1.2838
 4679SOL    HW225500   2.000   2.183   0.736  1.1716 -1.3453  2.2445
 4680SOL     OW25501   0.905   4.669  17.099  0.4217  0.7349 -0.2950
 4680SOL    HW125502   1.000   4.668  17.091  0.4597 -1.9293  0.4674
 4680SOL    HW225503   0.903   4.670  17.195 -1.6303 -0.8592 -0.3167
 4681SOL     OW25504   1.320   1.153   3.243 -0.7168 -0.1162 -0.1819
 4681SOL    HW125505   1.378   1.178   3.316 -1.8788  0.1511  0.6588
 4681SOL    HW225506   1.247   1.214   3.252 -1.1960 -0.7268  0.0675
 4682SOL     OW25507   2.544   1.224  13.672  0.6704  0.3309  0.2204
 4682SOL    HW125508   2.479   1.153  13.670  2.5171 -1.3385 -0.2049
 4682SOL    HW225509   2.480   1.293  13.690 -0.1824 -0.5015  0.3808
 4683SOL     OW25510   3.727   1.302  10.091  0.1579 -0.0968 -0.0111
 4683SOL    HW125511   3.733   1.211  10.062 -0.1717 -0.8389  2.2612
 4683SOL    HW225512   3.640   1.328  10.062  0.4580 -1.1228 -1.8027
 4684SOL     OW25513   4.156   3.786  16.387  0.2043 -0.3701 -0.1112
 4684SOL    HW125514   4.229   3.803  16.446 -0.0623 -0.0950  0.1380
 4684SOL    HW225515   4.115   3.714  16.433 -0.3493  1.2937  2.0036
 4685SOL     OW25516   3.447   4.540   3.760 -0.1604 -0.4063 -0.7416
 4685SOL    HW125517   3.539   4.512   3.761  0.0131  0.4023  3.4431
 4685SOL    HW225518   3.454   4.603   3.688  3.5103  0.5723  0.4645
 4686SOL     OW25519   3.301   3.723   4.633 -0.1973 -0.4906 -0.0455
 4686SOL    HW125520   3.271   3.811   4.609 -1.4333 -1.0877 -0.7426
 4686SOL    HW225521   3.258   3.711   4.718 -0.8170  0.4156 -0.2322
 4687SOL     OW25522   0.764   3.859  12.509  0.7454 -0.0616  0.2903
 4687SOL    HW125523   0.776   3.769  12.479 -0.5240 -0.2568  0.3575
 4687SOL    HW225524   0.672   3.855  12.537  1.0057  0.4186  1.1835
 4688SOL     OW25525   2.082   0.403   2.951  0.7713  0.5147  0.0590
 4688SOL    HW125526   2.000   0.432   2.910  1.1840  2.5822  0.6948
 4688SOL    HW225527   2.054   0.362   3.033 -0.4217 -0.3037 -0.7432
 4689SOL     OW25528   0.753   3.897   2.800  0.1905 -0.2908  0.0728
 4689SOL    HW125529   0.710   3.817   2.770  0.1415 -0.5868  0.9236
 4689SOL    HW225530   0.727   3.965   2.738  3.4517  0.3477 -0.6002
 4690SOL     OW25531   0.353   0.143   0.912  0.3944 -0.2274 -0.7848
 4690SOL    HW125532   0.299   0.070   0.941 -0.1129 -0.4366 -2.2500
 4690SOL    HW225533   0.440   0.105   0.922  0.4773 -0.5003 -2.4487
 4691SOL     OW25534   0.931   4.190  15.174 -0.4051  0.2996  0.6007
 4691SOL    HW125535   0.970   4.149  15.097 -0.3103  3.0603 -0.8416
 4691SOL    HW225536   1.003   4.234  15.220  1.2814 -0.3658 -1.4009
 4692SOL     OW25537   3.811   4.387   4.314  0.4335  0.1562 -0.7127
 4692SOL    HW125538   3.813   4.293   4.298 -1.4889 -0.2082  1.2867
 4692SOL    HW225539   3.817   4.415   4.222  0.4804 -1.3006 -1.1426
 4693SOL     OW25540   3.754   4.131   1.842 -0.3214  0.0944  0.2552
 4693SOL    HW125541   3.812   4.198   1.805  1.5889 -0.6384  1.9046
 4693SOL    HW225542   3.814   4.080   1.897 -0.1065 -0.4052 -0.4392
 4694SOL     OW25543   4.389   3.417   8.829 -0.1781 -0.2042 -0.2754
 4694SOL    HW125544   4.426   3.505   8.816  0.0992 -0.2312  0.3590
 4694SOL    HW225545   4.446   3.374   8.892 -1.1968 -1.1738 -0.0126
 4695SOL     OW25546   3.378   3.186   7.309  0.2046  0.3140  0.3937
 4695SOL    HW125547   3.395   3.095   7.284  3.8021  0.6551  1.6494
 4695SOL    HW225548   3.343   3.222   7.227 -1.2221  0.0306  0.8795
 4696SOL     OW25549   4.062   4.180   8.817 -0.0308 -0.1130  0.4182
 4696SOL    HW125550   4.090   4.257   8.768  1.6141 -0.2342  1.1911
 4696SOL    HW225551   4.141   4.138   8.849  0.6791 -0.7719 -2.1602
 4697SOL     OW25552   1.130   3.280   7.762 -0.0420  0.7889  0.0804
 4697SOL    HW125553   1.095   3.228   7.690 -1.6343  1.7945  0.1382
 4697SOL    HW225554   1.060   3.267   7.825  0.8176  1.5523  1.1904
 4698SOL     OW25555   4.449   2.406   0.299  0.5397 -0.1387  0.4696
 4698SOL    HW125556   4.443   2.416   0.204  1.4771 -1.7526  0.2386
 4698SOL    HW225557   4.420   2.494   0.321 -1.3268 -0.8024  0.6380
 4699SOL     OW25558   1.192   0.186   7.500 -0.2263  0.2252 -0.6222
 4699SOL    HW125559   1.252   0.255   7.471 -1.9209  1.8719 -0.1875
 4699SOL    HW225560   1.243   0.130   7.559  0.4075 -0.9549 -2.2789
 4700SOL     OW25561   4.243   4.360  15.980 -0.5659 -0.1121  0.0359
 4700SOL    HW125562   4.165   4.386  15.931  0.4544  1.6543 -0.6414
 4700SOL    HW225563   4.315   4.356  15.917 -1.3930 -0.0217 -0.9107
 4701SOL     OW25564   0.193   2.385   9.229 -0.1264 -0.1285 -0.7119
 4701SOL    HW125565   0.183   2.336   9.311 -1.3308 -2.7137 -2.4101
 4701SOL    HW225566   0.198   2.473   9.266  0.5056 -1.4645  2.3952
 4702SOL     OW25567   3.881   1.339  11.428 -0.3436  0.4520 -0.1193
 4702SOL    HW125568   3.952   1.296  11.381  0.4037 -0.2174  1.6225
 4702SOL    HW225569   3.906   1.328  11.520 -1.1630 -0.9802 -0.0860
 4703SOL     OW25570   1.981   4.196   2.183  0.0419 -0.4825  0.2459
 4703SOL    HW125571   1.950   4.106   2.191  1.1547 -0.9927 -1.2919
 4703SOL    HW225572   2.055   4.190   2.123  0.5649 -0.4857  0.8965
 4704SOL     OW25573   2.914   1.302   7.567 -0.6668  0.1976  0.3792
 4704SOL    HW125574   2.907   1.266   7.479 -0.5071 -0.9709  0.8444
 4704SOL    HW225575   2.950   1.389   7.552  0.2738  0.3563  3.5965
 4705SOL     OW25576   0.440   0.316   4.049  0.2114  0.1950  0.2766
 4705SOL    HW125577   0.445   0.251   3.979 -0.3560  0.2963  0.1438
 4705SOL    HW225578   0.407   0.256   4.116 -0.7131  1.3139  0.8259
 4706SOL     OW25579   4.432   2.295   7.439  0.5157 -0.1084  0.0707
 4706SOL    HW125580   4.357   2.336   7.483  1.9257  0.8736  1.5817
 4706SOL    HW225581   4.411   2.203   7.456 -0.4013  0.3313  1.3573
 4707SOL     OW25582   2.421   0.983   0.502 -0.8281 -0.2554  0.1620
 4707SOL    HW125583   2.358   1.055   0.494  1.5385  1.8233  0.4615
 4707SOL    HW225584   2.393   0.960   0.591  0.1220  0.7121  0.7106
 4708SOL     OW25585   2.792   1.221   6.054  0.0627 -0.3668  0.4978
 4708SOL    HW125586   2.858   1.157   6.028  1.6664  1.1296  0.8790
 4708SOL    HW225587   2.743   1.165   6.113 -0.2416  0.0028  0.6009
 4709SOL     OW25588   3.514   4.707   8.543 -0.0703  0.3002 -0.6215
 4709SOL    HW125589   3.570   4.641   8.585  0.3489  0.8589 -0.3121
 4709SOL    HW225590   3.466   4.652   8.479  1.7835 -1.1155 -0.8039
 4710SOL     OW25591   1.360   0.892   0.768 -0.0918  0.0682  0.6027
 4710SOL    HW125592   1.359   0.913   0.862 -1.3929  0.0748  0.5886
 4710SOL    HW225593   1.441   0.936   0.742  1.3852 -1.2282  3.0646
 4711SOL     OW25594   3.115   2.555  15.211 -0.1603  0.0790 -0.2835
 4711SOL    HW125595   3.111   2.464  15.181  0.7459 -0.0344 -0.0637
 4711SOL    HW225596   3.049   2.590  15.151  0.1748  0.6277 -0.3396
 4712SOL     OW25597   3.215   4.302   6.887  0.0111  0.4955  0.3792
 4712SOL    HW125598   3.305   4.275   6.903 -0.1432 -0.3254 -0.1415
 4712SOL    HW225599   3.212   4.393   6.917  4.0213  0.8827 -0.4935
 4713SOL     OW25600   1.585   3.817  13.863  0.0410 -0.1226 -0.3689
 4713SOL    HW125601   1.491   3.825  13.878  0.2896 -1.6236  2.1820
 4713SOL    HW225602   1.598   3.723  13.881 -0.1604 -0.0980 -0.0990
 4714SOL     OW25603   0.105   2.686   0.416 -0.2091 -0.5680  0.1418
 4714SOL    HW125604   0.081   2.762   0.469 -2.9117 -0.6810 -0.9616
 4714SOL    HW225605   0.113   2.629   0.493  0.5714 -0.7184 -0.0446
 4715SOL     OW25606   3.627   3.678  12.429 -0.2055 -0.0125  0.2568
 4715SOL    HW125607   3.686   3.673  12.504  0.7518 -2.1730 -0.6421
 4715SOL    HW225608   3.690   3.705  12.361 -0.9390 -0.3808 -0.5757
 4716SOL     OW25609   2.955   0.573   6.985 -0.6081 -0.4829 -0.2346
 4716SOL    HW125610   2.946   0.616   7.070  1.6217  1.9903 -1.2474
 4716SOL    HW225611   2.889   0.633   6.950 -1.1184  0.9145  3.1911
 4717SOL     OW25612   2.362   2.345  11.033  0.4450 -0.0629  0.1339
 4717SOL    HW125613   2.319   2.260  11.020  2.3188 -0.6867 -2.0159
 4717SOL    HW225614   2.312   2.375  11.108 -2.9076 -3.3482 -0.7753
 4718SOL     OW25615   1.237   3.386  16.922 -0.3851 -0.1137 -0.1976
 4718SOL    HW125616   1.192   3.470  16.927  1.9752  1.0947  0.6009
 4718SOL    HW225617   1.313   3.406  16.867  0.1931  0.3897  0.7953
 4719SOL     OW25618   0.990   2.612   9.706 -0.4494 -0.5622 -0.1441
 4719SOL    HW125619   0.953   2.572   9.785 -2.6431 -1.1865 -1.4900
 4719SOL    HW225620   0.920   2.584   9.648 -0.8348 -0.3527  0.2116
 4720SOL     OW25621   2.231   4.358   5.626  0.0950  0.5106 -0.1930
 4720SOL    HW125622   2.183   4.438   5.649  0.7063  0.6001  0.7575
 4720SOL    HW225623   2.264   4.334   5.712 -0.6742 -0.1205 -0.0647
 4721SOL     OW25624   0.269   2.594  10.924 -0.7057 -0.1879  0.4951
 4721SOL    HW125625   0.246   2.504  10.902 -1.7714  0.8657 -2.7486
 4721SOL    HW225626   0.205   2.642  10.870 -1.5705  0.6477  2.2545
 4722SOL     OW25627   2.739   0.266   9.265 -0.2653  0.5045 -0.2381
 4722SOL    HW125628   2.781   0.313   9.337 -0.4249 -0.5701  0.5558
 4722SOL    HW225629   2.659   0.255   9.316 -0.1178  0.6632  0.0310
 4723SOL     OW25630   2.945   1.652   7.660  0.7378  0.8963  0.3384
 4723SOL    HW125631   3.015   1.692   7.712  1.7841 -1.7270  0.9670
 4723SOL    HW225632   2.866   1.701   7.685 -1.2155 -2.0539 -0.0722
 4724SOL     OW25633   3.136   4.382  14.050  0.0367 -0.2705  0.6510
 4724SOL    HW125634   3.144   4.347  14.139 -1.9113 -1.7397  0.2401
 4724SOL    HW225635   3.103   4.471  14.065 -0.6081 -0.0387 -2.1208
 4725SOL     OW25636   2.117   3.651  16.772 -0.5022  0.3980  0.3967
 4725SOL    HW125637   2.102   3.597  16.849 -0.1770  2.4953  1.9319
 4725SOL    HW225638   2.035   3.699  16.768 -0.2833  0.5460 -2.2688
 4726SOL     OW25639   3.373   3.300   3.418 -0.2687 -0.3587  0.2335
 4726SOL    HW125640   3.396   3.393   3.417  0.3794 -0.6069 -5.0211
 4726SOL    HW225641   3.457   3.258   3.440 -0.0016  0.7684  1.3668
 4727SOL     OW25642   1.314   2.791  11.614 -0.1866 -0.5519  0.2153
 4727SOL    HW125643   1.337   2.711  11.661 -2.7068 -1.8934 -0.8134
 4727SOL    HW225644   1.371   2.775  11.539 -0.3862 -0.3513  0.0211
 4728SOL     OW25645   1.971   0.407   2.577  0.3348  0.0772  0.0841
 4728SOL    HW125646   1.959   0.473   2.509 -1.2368  1.5705  1.7881
 4728SOL    HW225647   1.944   0.439   2.663 -0.7864 -0.8407  0.0781
 4729SOL     OW25648   1.810   3.498   4.062  0.1724 -0.0424  0.1790
 4729SOL    HW125649   1.891   3.452   4.082 -0.5021 -1.1211  0.4998
 4729SOL    HW225650   1.783   3.524   4.150 -0.0312 -1.2037  0.4599
 4730SOL     OW25651   3.381   2.823  17.659 -0.5605  0.2617  0.4607
 4730SOL    HW125652   3.315   2.847  17.595 -1.0405  0.4785  1.0422
 4730SOL    HW225653   3.424   2.908  17.670  0.2383 -0.0501 -0.1892
 4731SOL     OW25654   0.565   3.969   7.834 -0.4046 -0.4558 -0.1922
 4731SOL    HW125655   0.596   3.938   7.919  0.6532  1.3404  0.0654
 4731SOL    HW225656   0.626   4.037   7.807  1.0302 -1.8305 -0.4335
 4732SOL     OW25657   0.071   2.594   2.214 -0.1571 -0.1093  0.1175
 4732SOL    HW125658   0.163   2.578   2.193 -0.3285 -1.4901  0.4576
 4732SOL    HW225659   0.034   2.615   2.129 -0.2688  1.0819  0.4636
 4733SOL     OW25660   4.508   3.873  16.118 -0.1193 -0.2039 -0.5066
 4733SOL    HW125661   4.474   3.939  16.058  0.8864  1.7924  1.1477
 4733SOL    HW225662   4.426   3.837  16.152 -0.4619 -1.9286 -3.1591
 4734SOL     OW25663   0.087   4.075   1.788 -0.1792  0.6526  0.0209
 4734SOL    HW125664   0.097   4.026   1.706  2.0565 -1.4439  1.5462
 4734SOL    HW225665   0.173   4.073   1.829 -1.0191 -0.7933  1.7045
 4735SOL     OW25666   2.493   0.802   4.636  0.2556 -0.1832 -0.1229
 4735SOL    HW125667   2.513   0.892   4.610 -0.2509  0.5833  2.1673
 4735SOL    HW225668   2.406   0.787   4.599  1.3519 -2.4635 -1.8000
 4736SOL     OW25669   1.214   3.415   7.981  0.4331  1.1497 -0.3018
 4736SOL    HW125670   1.217   3.509   7.961  2.4335  0.3030 -4.0183
 4736SOL    HW225671   1.183   3.384   7.896 -1.0884  0.5072  0.4882
 4737SOL     OW25672   4.275   0.215  16.638  0.4285 -0.1284 -0.2141
 4737SOL    HW125673   4.231   0.144  16.684  3.3143 -0.3844  2.0664
 4737SOL    HW225674   4.333   0.255  16.703 -1.6181  0.4168  1.2784
 4738SOL     OW25675   2.308   4.080   3.138  0.1702 -0.2957 -0.3026
 4738SOL    HW125676   2.216   4.103   3.153 -0.3471 -1.7820 -1.1841
 4738SOL    HW225677   2.313   4.001   3.084 -1.3218  0.1119 -1.0180
 4739SOL     OW25678   2.290   3.051   9.971 -0.6797 -0.0962 -0.3885
 4739SOL    HW125679   2.194   3.050   9.976 -0.6320  0.1568  0.6751
 4739SOL    HW225680   2.307   3.121   9.907 -2.2279  0.9983  0.3669
 4740SOL     OW25681   1.200   3.278   1.998 -0.6529  0.0096  0.1785
 4740SOL    HW125682   1.107   3.255   2.006 -0.3586 -1.1722  0.1629
 4740SOL    HW225683   1.204   3.307   2.090  1.9122  0.7079 -0.1653
 4741SOL     OW25684   4.141   1.062  15.954 -0.6260 -0.1387  0.1958
 4741SOL    HW125685   4.053   1.035  15.927 -0.7637  0.4425  0.0687
 4741SOL    HW225686   4.188   1.061  15.871  0.7789 -0.5414  0.9943
 4742SOL     OW25687   3.040   3.167   9.553  0.0075  0.1186  0.6402
 4742SOL    HW125688   3.015   3.207   9.637 -2.9193  0.8533 -0.5858
 4742SOL    HW225689   2.960   3.169   9.500 -0.6823 -0.8879  1.6563
 4743SOL     OW25690   3.943   3.182   3.950  0.0592 -0.6742  0.3282
 4743SOL    HW125691   3.967   3.091   3.936 -1.1392 -0.8049 -0.8977
 4743SOL    HW225692   4.027   3.212   3.984  1.0301 -2.9714 -0.0478
 4744SOL     OW25693   1.771   2.667  11.554  0.8387 -0.0748 -0.3765
 4744SOL    HW125694   1.846   2.668  11.494  0.7493  0.5794 -0.4746
 4744SOL    HW225695   1.771   2.574  11.578 -1.5994  0.6072  2.1866
 4745SOL     OW25696   3.606   3.503   2.691 -0.4492 -0.5987  0.0264
 4745SOL    HW125697   3.651   3.537   2.769 -0.9874  0.3333 -0.0790
 4745SOL    HW225698   3.616   3.409   2.710  0.6784 -0.2906  1.0192
 4746SOL     OW25699   0.397   3.299   9.771 -0.7100 -0.1643  0.3339
 4746SOL    HW125700   0.422   3.371   9.713  1.8062 -1.4971 -0.2113
 4746SOL    HW225701   0.403   3.226   9.710  0.2619 -0.9044  1.3140
 4747SOL     OW25702   2.137   0.817  12.833  0.3281 -0.0535  0.7999
 4747SOL    HW125703   2.215   0.765  12.817  0.9425  1.1747 -0.2040
 4747SOL    HW225704   2.069   0.758  12.799 -1.1009  1.7036  0.6031
 4748SOL     OW25705   0.083   1.913   4.088 -0.5859 -0.3254  0.2500
 4748SOL    HW125706   0.018   1.922   4.159 -3.2249 -1.0295 -2.0717
 4748SOL    HW225707   0.148   1.853   4.123 -0.1406 -1.1926 -2.0880
 4749SOL     OW25708   2.474   0.735   6.366 -0.2947  0.2730  0.8479
 4749SOL    HW125709   2.562   0.748   6.330  1.1621  1.2835  4.7568
 4749SOL    HW225710   2.487   0.704   6.455  2.0620 -1.6867 -0.1643
 4750SOL     OW25711   0.100   4.448   4.853  0.0313  0.1683 -0.2618
 4750SOL    HW125712   0.019   4.474   4.809  0.0486  1.2963  0.3761
 4750SOL    HW225713   0.055   4.406   4.926 -2.1774  1.1636 -1.0525
 4751SOL     OW25714   0.636   3.444   4.005  0.2141 -0.8446  0.6614
 4751SOL    HW125715   0.600   3.377   4.063  1.7766 -2.2923 -0.0456
 4751SOL    HW225716   0.567   3.435   3.939  0.4848 -1.7481  0.5043
 4752SOL     OW25717   1.747   2.949   4.167 -0.4812 -0.2119  0.6518
 4752SOL    HW125718   1.708   3.017   4.222  0.0024  1.1090 -0.6583
 4752SOL    HW225719   1.825   2.997   4.140 -2.2520  3.0177  1.2962
 4753SOL     OW25720   0.962   0.066   0.893  0.2090 -0.3497  0.0781
 4753SOL    HW125721   0.897   0.104   0.834  0.3887  1.7679  1.2166
 4753SOL    HW225722   1.009   4.721   0.850 -0.1174 -0.5724  0.0858
 4754SOL     OW25723   3.675   2.081  10.741 -0.0894  0.4305  0.1963
 4754SOL    HW125724   3.624   2.088  10.821 -0.6025 -1.0802  0.0036
 4754SOL    HW225725   3.704   1.990  10.741  1.0075  0.7851  3.0491
 4755SOL     OW25726   3.018   1.610   2.596  0.6824  0.4441  0.0917
 4755SOL    HW125727   3.055   1.621   2.684  1.1794 -1.0919  0.0766
 4755SOL    HW225728   3.093   1.643   2.547 -0.5352  2.4967 -0.3715
 4756SOL     OW25729   4.269   1.474  10.764  0.3460  0.2487  0.6180
 4756SOL    HW125730   4.218   1.455  10.843  0.7751  0.0142  0.8464
 4756SOL    HW225731   4.311   1.390  10.745 -1.7232 -0.2268 -1.7035
 4757SOL     OW25732   1.307   2.442   8.967  0.1245  0.6239 -0.4658
 4757SOL    HW125733   1.317   2.452   8.873  1.8064  3.8341  0.0616
 4757SOL    HW225734   1.381   2.498   8.988 -1.0796  1.4610  1.5754
 4758SOL     OW25735   3.641   0.455  13.651  0.2154 -0.1693  0.4776
 4758SOL    HW125736   3.570   0.519  13.652 -0.1190 -0.5612  2.1311
 4758SOL    HW225737   3.720   0.506  13.634 -1.4232  2.5194  0.9850
 4759SOL     OW25738   0.414   1.022  12.340 -0.5486 -0.0540  0.1719
 4759SOL    HW125739   0.505   1.015  12.311  0.2281  2.6041  2.0346
 4759SOL    HW225740   0.410   0.949  12.402  0.7485  0.3990  0.7762
 4760SOL     OW25741   2.510   3.207   3.037 -0.5298  0.2871 -0.0997
 4760SOL    HW125742   2.525   3.120   2.999 -0.0804  0.2775  0.0934
 4760SOL    HW225743   2.453   3.195   3.112  0.3326  1.1410  0.6866
 4761SOL     OW25744   3.202   0.052  17.223  0.2733  0.6706  0.0668
 4761SOL    HW125745   3.243   0.042  17.309  1.5686 -0.2100 -0.6674
 4761SOL    HW225746   3.122   0.103  17.237 -1.2268 -1.3088 -1.3453
 4762SOL     OW25747   4.109   2.786   1.452 -0.2234 -0.3478 -0.4347
 4762SOL    HW125748   4.105   2.858   1.390 -1.1251 -1.5570 -1.7883
 4762SOL    HW225749   4.169   2.726   1.407 -0.6843  0.1384 -1.6913
 4763SOL     OW25750   4.158   3.772  13.762 -0.2981  0.1724  0.1794
 4763SOL    HW125751   4.193   3.793  13.676  0.5352  0.4064  0.5768
 4763SOL    HW225752   4.222   3.704  13.784  0.8477  0.6898 -1.5695
 4764SOL     OW25753   2.185   0.923  13.273 -0.4513  0.2748 -0.1551
 4764SOL    HW125754   2.219   0.852  13.217  2.1302  0.8731  0.6532
 4764SOL    HW225755   2.255   0.988  13.276  0.9911 -1.1796 -2.0311
 4765SOL     OW25756   3.497   0.086  12.868 -0.5213 -0.2276  0.6019
 4765SOL    HW125757   3.468   4.721  12.861 -0.0522 -0.2273 -1.2677
 4765SOL    HW225758   3.451   0.126  12.794  0.1269 -0.4971  0.0557
 4766SOL     OW25759   1.628   3.008  16.699  0.4361 -0.4687  0.1582
 4766SOL    HW125760   1.666   2.998  16.612  2.8581 -0.0598  1.1634
 4766SOL    HW225761   1.547   3.051  16.673  1.1099  1.2720  0.9436
 4767SOL     OW25762   4.394   2.047   4.039 -0.2441 -0.1702  0.8214
 4767SOL    HW125763   4.427   2.022   3.953 -0.8947  0.3604  0.4147
 4767SOL    HW225764   4.358   1.966   4.075  1.6161 -2.0034 -1.5566
 4768SOL     OW25765   3.018   4.634   1.938 -0.1391 -0.0269 -0.5827
 4768SOL    HW125766   3.112   4.619   1.944 -0.5294 -1.8268  0.9378
 4768SOL    HW225767   2.995   4.588   2.018  2.0692 -0.9002 -0.4653
 4769SOL     OW25768   4.040   2.591   8.429  0.2005  0.1096  0.5202
 4769SOL    HW125769   4.040   2.495   8.432 -1.1869  0.0887  0.0284
 4769SOL    HW225770   4.026   2.600   8.523  0.9612 -2.3886  0.8663
 4770SOL     OW25771   3.301   1.397  12.810 -0.0935 -0.3008  0.2303
 4770SOL    HW125772   3.242   1.467  12.837 -0.0618 -0.2988  0.2959
 4770SOL    HW225773   3.287   1.351  12.893  0.2439  0.8748  0.9251
 4771SOL     OW25774   3.249   4.617   5.336  0.2073 -0.8029 -0.1072
 4771SOL    HW125775   3.187   4.653   5.400  1.7794 -0.2290  1.1001
 4771SOL    HW225776   3.234   4.675   5.262 -2.1694  0.9831  1.7599
 4772SOL     OW25777   1.135   1.880   8.559 -0.2719  0.3361  0.1911
 4772SOL    HW125778   1.053   1.912   8.596 -2.2755 -3.5316 -0.7840
 4772SOL    HW225779   1.198   1.923   8.616 -1.3661  2.3564 -0.1391
 4773SOL     OW25780   4.570   3.667   3.352 -0.3773  0.3382  0.3237
 4773SOL    HW125781   4.498   3.631   3.404 -0.0376  0.3411  0.7900
 4773SOL    HW225782   4.521   3.677   3.270  0.4693  1.3855 -0.0559
 4774SOL     OW25783   2.637   3.191   1.051 -0.2315  0.2113 -0.0851
 4774SOL    HW125784   2.668   3.103   1.033 -1.3227  0.0288 -1.0977
 4774SOL    HW225785   2.547   3.182   1.019 -0.2376 -0.9079  0.2742
 4775SOL     OW25786   2.273   4.136   2.407  0.8062  0.2434  0.2227
 4775SOL    HW125787   2.319   4.053   2.418  1.2064  0.3540 -0.5901
 4775SOL    HW225788   2.330   4.176   2.341 -0.1572  0.1526 -0.6546
 4776SOL     OW25789   4.291   0.250   3.610 -0.3600 -0.0805 -0.3553
 4776SOL    HW125790   4.254   0.173   3.655  2.9797 -1.3236  0.2328
 4776SOL    HW225791   4.304   0.312   3.682  2.1457  0.9453 -1.7317
 4777SOL     OW25792   2.113   3.417   8.578  0.0843  0.6174  0.1302
 4777SOL    HW125793   2.079   3.504   8.556  1.1209  0.6054 -1.5103
 4777SOL    HW225794   2.108   3.417   8.673  2.0371 -1.2339  0.2266
 4778SOL     OW25795   1.015   4.507  10.051 -0.6649  0.4004  0.4781
 4778SOL    HW125796   0.931   4.545  10.026 -0.1457  0.0020 -1.8538
 4778SOL    HW225797   0.999   4.457  10.131 -0.3273 -0.0768  0.2472
 4779SOL     OW25798   1.459   3.818   6.411 -0.7502  0.5720 -0.8672
 4779SOL    HW125799   1.379   3.773   6.438 -0.6488 -0.4522 -2.2820
 4779SOL    HW225800   1.498   3.748   6.359 -0.5827 -1.1271  1.5062
 4780SOL     OW25801   2.896   0.951   5.353  0.7236  0.4332 -0.3959
 4780SOL    HW125802   2.864   0.902   5.277 -1.8257  1.3130  0.1060
 4780SOL    HW225803   2.828   0.936   5.419 -0.6056  0.9932 -1.6335
 4781SOL     OW25804   3.160   0.667   5.408 -0.1486  0.4201 -0.4321
 4781SOL    HW125805   3.195   0.748   5.372 -0.0866 -0.2214 -1.8100
 4781SOL    HW225806   3.086   0.653   5.349 -1.2969  0.5505  0.9724
 4782SOL     OW25807   1.064   3.519   2.996  0.0784 -0.3875  0.1243
 4782SOL    HW125808   1.032   3.449   2.940 -0.9047 -0.7478  1.1345
 4782SOL    HW225809   0.990   3.578   2.985 -0.5584 -1.0623  0.7607
 4783SOL     OW25810   1.679   2.771  13.245  0.2821 -0.3222  0.0409
 4783SOL    HW125811   1.681   2.682  13.280  0.6309  0.7509  2.7439
 4783SOL    HW225812   1.751   2.762  13.183  0.7038 -0.0383  0.4862
 4784SOL     OW25813   2.401   1.411   1.044 -0.9443 -0.0842 -0.0888
 4784SOL    HW125814   2.382   1.467   1.119  1.2999 -1.5816  1.6350
 4784SOL    HW225815   2.478   1.362   1.076 -1.4067 -0.6892  0.1041
 4785SOL     OW25816   1.875   4.681  13.434 -0.0993 -0.0140 -0.2580
 4785SOL    HW125817   1.847   4.654  13.522  1.1180 -0.5672 -0.0510
 4785SOL    HW225818   1.968   4.697  13.450 -0.3798  0.5320  0.8484
 4786SOL     OW25819   3.757   0.860  11.343  0.3339  0.3151 -0.5384
 4786SOL    HW125820   3.812   0.781  11.348 -2.0502 -1.2572  0.6618
 4786SOL    HW225821   3.706   0.840  11.264  0.7330 -0.0973 -0.6946
 4787SOL     OW25822   0.482   0.136   9.696 -0.3730  0.2127  0.0374
 4787SOL    HW125823   0.556   0.188   9.664  2.2641 -2.5201  1.6432
 4787SOL    HW225824   0.506   0.131   9.789 -1.6068 -2.6382  0.1910
 4788SOL     OW25825   1.718   3.679   0.713  0.6961 -0.2261 -0.7859
 4788SOL    HW125826   1.764   3.750   0.668  0.7811 -1.0005 -1.9280
 4788SOL    HW225827   1.800   3.630   0.721 -0.2794 -1.7979 -0.4789
 4789SOL     OW25828   3.899   4.314   3.085  0.4802  0.2444 -0.1133
 4789SOL    HW125829   3.953   4.355   3.153 -0.9263  1.9884 -0.0195
 4789SOL    HW225830   3.977   4.295   3.032  1.6400  1.4652  1.1520
 4790SOL     OW25831   3.886   0.340   5.213  0.4446 -0.0926  0.3079
 4790SOL    HW125832   3.906   0.365   5.123 -2.8879  2.2082  0.1806
 4790SOL    HW225833   3.963   0.374   5.259 -0.2206  0.7886  0.7793
 4791SOL     OW25834   0.351   3.760  16.585 -0.4613 -0.8591  0.2350
 4791SOL    HW125835   0.320   3.675  16.616  1.4391 -1.6083  0.0362
 4791SOL    HW225836   0.445   3.759  16.603  0.3039  2.9743 -3.5946
 4792SOL     OW25837   0.545   0.674  14.696  0.5405 -0.3834  0.0896
 4792SOL    HW125838   0.458   0.668  14.658 -0.0936  0.3254  1.4152
 4792SOL    HW225839   0.598   0.699  14.621 -0.0798 -1.5105 -0.7176
 4793SOL     OW25840   0.354   1.394   5.114 -0.9146  0.0364  0.0616
 4793SOL    HW125841   0.272   1.345   5.103 -0.0019 -1.2268 -1.0774
 4793SOL    HW225842   0.407   1.317   5.132 -1.5895 -0.3377  0.4757
 4794SOL     OW25843   1.338   4.014   4.929 -0.2192 -1.0387 -0.3534
 4794SOL    HW125844   1.252   3.976   4.945 -0.9252  0.9534  0.5601
 4794SOL    HW225845   1.396   3.972   4.993  1.4829 -2.0759 -2.5799
 4795SOL     OW25846   2.341   4.302   2.194 -0.4227 -0.0390 -0.5192
 4795SOL    HW125847   2.418   4.256   2.158 -0.1970 -0.5759  0.6470
 4795SOL    HW225848   2.279   4.277   2.126 -2.1424 -3.8117  2.4582
 4796SOL     OW25849   1.619   3.037   0.026 -0.2234  0.0680 -0.4142
 4796SOL    HW125850   1.597   3.117   0.073  0.2031 -1.4983  2.4424
 4796SOL    HW225851   1.670   2.989   0.091  0.9949  1.3287 -0.4570
 4797SOL     OW25852   2.379   2.837  11.108  0.5541 -0.2710  0.0141
 4797SOL    HW125853   2.434   2.834  11.029  1.0169 -1.2321  0.3691
 4797SOL    HW225854   2.417   2.768  11.162 -1.7162 -2.2706 -0.9330
 4798SOL     OW25855   3.936   0.477   2.331 -0.4035  0.5346  0.4453
 4798SOL    HW125856   4.031   0.467   2.324 -0.4469 -0.5737  1.3802
 4798SOL    HW225857   3.919   0.462   2.424 -0.6583 -1.5435  0.0710
 4799SOL     OW25858   4.034   3.666   6.842 -0.0777 -0.2976 -0.5227
 4799SOL    HW125859   3.950   3.643   6.882 -0.1132  0.8518  0.0695
 4799SOL    HW225860   4.036   3.758   6.867 -0.0061 -0.7488  1.1126
 4800SOL     OW25861   2.206   3.743   5.046  0.4778  0.1871 -0.3066
 4800SOL    HW125862   2.295   3.762   5.075  0.9396 -1.0708 -0.8795
 4800SOL    HW225863   2.193   3.677   5.114 -1.3115  0.3577 -0.5036
 4801SOL     OW25864   0.202   0.246   6.877  0.0267  0.0064 -0.0870
 4801SOL    HW125865   0.115   0.221   6.849 -1.1639  3.4916  0.4748
 4801SOL    HW225866   0.243   0.262   6.792  1.3007 -1.3348  0.2618
 4802SOL     OW25867   0.786   0.249   5.370 -0.0068 -0.0844  0.5850
 4802SOL    HW125868   0.811   0.162   5.400  1.6974  0.0682 -0.4088
 4802SOL    HW225869   0.842   0.253   5.293 -0.6881  2.0637  0.1943
 4803SOL     OW25870   3.742   0.419  17.176  0.7552  1.1675 -0.0077
 4803SOL    HW125871   3.648   0.420  17.155  0.6875 -0.0719  0.2612
 4803SOL    HW225872   3.767   0.335  17.137  0.3538  1.2327 -0.4107
 4804SOL     OW25873   0.075   2.151   3.676  0.4260  0.0421 -0.1706
 4804SOL    HW125874   0.012   2.143   3.748 -0.5093 -0.0292 -0.9886
 4804SOL    HW225875   0.026   2.145   3.594  1.4204 -1.3708 -0.6694
 4805SOL     OW25876   1.601   1.640   4.129 -0.9831  0.3278 -0.3000
 4805SOL    HW125877   1.609   1.565   4.071  1.8653  1.6534 -1.6145
 4805SOL    HW225878   1.507   1.658   4.126 -0.8683  0.7141 -1.6788
 4806SOL     OW25879   3.301   3.672   1.560 -0.1904 -0.1968  0.3048
 4806SOL    HW125880   3.210   3.680   1.531  0.3445 -0.2187 -1.4014
 4806SOL    HW225881   3.300   3.764   1.587  1.3927 -0.3773  0.9830
 4807SOL     OW25882   2.269   1.820  10.789 -0.2637  0.9696  0.1589
 4807SOL    HW125883   2.260   1.862  10.875  0.5635  0.5186  0.4665
 4807SOL    HW225884   2.220   1.876  10.729 -0.2422 -0.5955 -1.3207
 4808SOL     OW25885   1.291   0.045   4.427 -0.3433  0.2605  0.1024
 4808SOL    HW125886   1.224   0.063   4.361 -0.1974 -1.2965 -0.4680
 4808SOL    HW225887   1.262   4.682   4.447 -1.4960  0.9043  1.2631
 4809SOL     OW25888   3.538   3.085   8.300  0.2612 -0.6071 -1.0801
 4809SOL    HW125889   3.501   3.169   8.327  0.8276 -0.1800 -1.6228
 4809SOL    HW225890   3.470   3.050   8.243  0.0328  0.5393 -1.5221
 4810SOL     OW25891   0.372   3.686   8.152 -0.2743  0.2645 -0.1075
 4810SOL    HW125892   0.457   3.699   8.194 -1.4179 -0.7391  2.5354
 4810SOL    HW225893   0.388   3.639   8.070 -1.8458 -1.3728  0.5195
 4811SOL     OW25894   4.057   1.100  13.261 -0.4684  0.1116 -0.1656
 4811SOL    HW125895   4.053   1.148  13.179  0.3747  0.9244  0.2731
 4811SOL    HW225896   4.108   1.150  13.325  0.7238  0.2139 -1.1946
 4812SOL     OW25897   1.593   0.856   9.273  0.7399 -0.6065 -0.1297
 4812SOL    HW125898   1.555   0.865   9.185 -1.7909  1.4821  1.1815
 4812SOL    HW225899   1.597   0.943   9.314  1.1340 -0.3224 -0.7656
 4813SOL     OW25900   0.378   0.293   9.089  0.0834 -0.8268 -0.1591
 4813SOL    HW125901   0.440   0.315   9.158 -0.9300  5.7560 -1.3898
 4813SOL    HW225902   0.447   0.294   9.024  0.1238  1.4130 -0.0877
 4814SOL     OW25903   4.638   4.643  16.452 -0.7556 -0.0584 -0.0163
 4814SOL    HW125904   4.557   4.606  16.489 -0.1040 -0.5737  0.9124
 4814SOL    HW225905   4.655   4.585  16.378  1.0212  0.6802 -0.1809
 4815SOL     OW25906   0.019   1.243   7.459  0.1263 -0.0209 -0.0499
 4815SOL    HW125907   0.083   1.175   7.480 -0.2448 -0.9581 -1.9333
 4815SOL    HW225908   4.676   1.216   7.520  0.0400 -2.6832 -1.3488
 4816SOL     OW25909   2.608   2.291   1.990  0.1605  0.5467  0.6812
 4816SOL    HW125910   2.574   2.219   2.043  1.8733 -0.5842  0.2267
 4816SOL    HW225911   2.603   2.257   1.901 -0.6361 -0.3364  1.0560
 4817SOL     OW25912   1.127   2.700  11.934  0.2157 -0.0921  0.3896
 4817SOL    HW125913   1.054   2.735  11.985  0.6973 -3.2658  3.2786
 4817SOL    HW225914   1.184   2.675  12.007  0.3524 -0.3037  0.2119
 4818SOL     OW25915   3.693   0.258   1.443 -0.1946  0.4494  0.1430
 4818SOL    HW125916   3.649   0.337   1.412 -2.3813  0.0516  2.3066
 4818SOL    HW225917   3.642   0.195   1.392  1.1666  0.0760 -0.7738
 4819SOL     OW25918   3.459   1.729   2.888 -0.3272  0.3799  0.3204
 4819SOL    HW125919   3.532   1.724   2.827  0.3244  2.0249  0.9757
 4819SOL    HW225920   3.486   1.669   2.957  1.7874 -1.6888 -2.3383
 4820SOL     OW25921   0.577   1.273   9.513  0.3059  0.4832  0.7891
 4820SOL    HW125922   0.628   1.335   9.563  2.0145 -1.2770  1.2148
 4820SOL    HW225923   0.499   1.326   9.496 -1.8932 -2.6172  1.1736
 4821SOL     OW25924   0.233   3.742   8.641 -0.7303 -0.1057  0.8326
 4821SOL    HW125925   0.320   3.781   8.634 -0.4611 -1.2755 -2.6366
 4821SOL    HW225926   0.188   3.805   8.585  0.3478 -1.2115 -1.2964
 4822SOL     OW25927   1.826   3.207   2.139  0.5077 -0.0877 -0.1575
 4822SOL    HW125928   1.845   3.265   2.065  2.2139  0.0924  0.4039
 4822SOL    HW225929   1.734   3.191   2.123  0.0514  0.6277  1.6851
 4823SOL     OW25930   2.979   0.145  14.307  0.3600  0.6083  0.5635
 4823SOL    HW125931   2.934   0.139  14.391  0.3568  0.1652  0.5286
 4823SOL    HW225932   3.041   0.072  14.299  1.1867  1.3358  0.3152
 4824SOL     OW25933   4.098   1.840   3.923  0.0644 -0.4614 -0.2144
 4824SOL    HW125934   4.180   1.852   3.875 -0.2205 -0.0108 -0.5805
 4824SOL    HW225935   4.103   1.759   3.975 -3.5253  0.2895  1.3088
 4825SOL     OW25936   1.613   0.909  11.487  0.1846  0.1614  1.0334
 4825SOL    HW125937   1.560   0.971  11.437  0.7879 -0.7732 -0.7756
 4825SOL    HW225938   1.550   0.840  11.507 -0.6528  0.1981 -1.4966
 4826SOL     OW25939   1.720   0.665   9.037 -0.5323  0.3077 -0.5677
 4826SOL    HW125940   1.761   0.645   9.121 -2.0058 -2.0883 -0.4110
 4826SOL    HW225941   1.648   0.726   9.050  0.5611  2.0494 -2.6025
 4827SOL     OW25942   2.273   1.726   4.241  0.0254  0.1914  0.4950
 4827SOL    HW125943   2.364   1.701   4.230 -0.6023 -1.8875 -0.0299
 4827SOL    HW225944   2.251   1.738   4.149 -0.0969 -0.1801  0.4744
 4828SOL     OW25945   0.876   0.520   6.518 -0.3249 -0.5015 -0.2597
 4828SOL    HW125946   0.937   0.582   6.477 -0.9249 -1.3871 -2.4742
 4828SOL    HW225947   0.935   0.448   6.541 -1.2149 -1.0829  0.1736
 4829SOL     OW25948   2.137   1.392  16.229 -0.1108  0.2112  0.2944
 4829SOL    HW125949   2.081   1.316  16.214 -0.5203  0.8619 -1.4394
 4829SOL    HW225950   2.145   1.427  16.140 -1.1463  0.0852  0.1596
 4830SOL     OW25951   4.580   4.374   5.528  0.3823  0.1332 -0.6157
 4830SOL    HW125952   4.610   4.462   5.506  0.3848 -0.1601 -1.8057
 4830SOL    HW225953   4.644   4.354   5.596 -0.7670  0.7109  0.6366
 4831SOL     OW25954   2.241   1.140  17.243 -0.2367  0.8670 -0.6203
 4831SOL    HW125955   2.154   1.163  17.209 -0.7296 -0.1374 -0.0392
 4831SOL    HW225956   2.250   1.047  17.224 -1.7271  0.6088 -0.0464
 4832SOL     OW25957   3.442   0.610   7.980 -0.0611  0.5959 -0.4049
 4832SOL    HW125958   3.433   0.522   8.019  4.1242  0.4718  0.3116
 4832SOL    HW225959   3.428   0.675   8.049 -0.7466  1.4867 -1.3980
 4833SOL     OW25960   2.714   0.039  15.365  0.3628  0.4200  0.0836
 4833SOL    HW125961   2.783   0.100  15.340  0.2064  1.0610  1.2415
 4833SOL    HW225962   2.637   0.095  15.357 -0.0885 -0.1416  0.4954
 4834SOL     OW25963   1.548   4.262   3.263 -0.2243 -0.7343 -0.0740
 4834SOL    HW125964   1.601   4.184   3.247 -0.9746 -1.1079 -0.7589
 4834SOL    HW225965   1.511   4.272   3.175 -2.4637 -1.6408  0.7811
 4835SOL     OW25966   2.899   0.105   4.344  0.2502 -0.0068 -0.2773
 4835SOL    HW125967   2.985   0.067   4.362  0.1089  0.0654  0.5370
 4835SOL    HW225968   2.892   0.088   4.250  2.6221  2.4234 -0.9198
 4836SOL     OW25969   2.922   2.207  13.902 -0.3821 -0.2981 -0.1603
 4836SOL    HW125970   2.988   2.255  13.953 -0.2856 -0.6511  0.0544
 4836SOL    HW225971   2.913   2.127  13.954 -0.4755  0.2607  0.6978
 4837SOL     OW25972   0.330   3.067  13.258  0.2395  0.0011  0.0701
 4837SOL    HW125973   0.273   3.039  13.186 -1.2468  1.0735  0.8357
 4837SOL    HW225974   0.379   2.985  13.251  2.6918  1.4409  0.4185
 4838SOL     OW25975   0.294   4.256   4.853 -0.8466  0.2509  0.1736
 4838SOL    HW125976   0.233   4.330   4.851 -0.6594  0.3475 -1.9082
 4838SOL    HW225977   0.250   4.195   4.794  0.9787  0.2944 -1.2419
 4839SOL     OW25978   2.413   0.469   2.397  0.2334  0.1521  0.3670
 4839SOL    HW125979   2.440   0.477   2.305 -0.6254 -0.5667  0.0461
 4839SOL    HW225980   2.326   0.510   2.394 -0.6596 -1.7338  0.7327
 4840SOL     OW25981   3.449   3.332   8.448 -0.0627 -0.1407  0.2134
 4840SOL    HW125982   3.535   3.369   8.467  0.6150 -1.2149 -0.7292
 4840SOL    HW225983   3.400   3.387   8.508 -0.5018 -0.5044  0.1848
 4841SOL     OW25984   1.938   4.267   9.808 -0.1454  0.2650  0.0516
 4841SOL    HW125985   1.923   4.290   9.717  2.5855 -0.2441 -0.4927
 4841SOL    HW225986   1.849   4.233   9.823 -0.2100  0.7541  0.8112
 4842SOL     OW25987   1.247   4.265   5.975 -0.2934  0.9105  0.3010
 4842SOL    HW125988   1.257   4.317   5.895  0.9033  0.4328  0.1480
 4842SOL    HW225989   1.161   4.226   5.958 -0.3561  0.1929  2.3083
 4843SOL     OW25990   3.548   1.603   3.768 -0.2101 -0.2854  0.3429
 4843SOL    HW125991   3.630   1.563   3.798 -0.0359  0.4533  0.8613
 4843SOL    HW225992   3.548   1.692   3.801  0.5098  0.4078 -1.5582
 4844SOL     OW25993   2.523   1.153   2.073  0.2280 -0.5458  0.1196
 4844SOL    HW125994   2.562   1.137   1.987  1.6100 -1.6904  0.9633
 4844SOL    HW225995   2.592   1.119   2.130  0.4495 -2.6714 -1.4205
 4845SOL     OW25996   3.238   3.985   1.861 -0.2424  0.0121  0.3497
 4845SOL    HW125997   3.147   3.963   1.881 -0.2630 -0.3248 -0.1173
 4845SOL    HW225998   3.288   3.914   1.900  0.9633  0.5624 -0.1841
 4846SOL     OW25999   0.585   4.518   1.953  0.4842 -0.2989  0.4015
 4846SOL    HW126000   0.679   4.504   1.942  0.2883 -1.1286 -0.1897
 4846SOL    HW226001   0.584   4.610   1.930  1.4211 -0.5569 -0.6495
 4847SOL     OW26002   3.317   0.076  16.952 -0.3607 -0.1629  0.7375
 4847SOL    HW126003   3.233   0.040  16.926 -0.5825 -0.2178  1.5303
 4847SOL    HW226004   3.294   0.090  17.044 -2.9840  0.9140 -0.0891
 4848SOL     OW26005   4.093   3.843  17.402 -0.6425 -0.4279 -0.4116
 4848SOL    HW126006   4.050   3.886  17.476  0.5456  0.1966 -0.0748
 4848SOL    HW226007   4.184   3.860  17.428  0.4818 -1.8409 -3.4306
 4849SOL     OW26008   4.152   2.507  15.013 -0.3745  0.3419  0.4698
 4849SOL    HW126009   4.100   2.521  15.092  0.6926  1.9636  0.8880
 4849SOL    HW226010   4.204   2.585  14.994  0.6330 -0.5478 -0.4436
 4850SOL     OW26011   3.046   3.338   1.107  0.3814 -0.0924  0.4729
 4850SOL    HW126012   2.996   3.397   1.162 -0.3295 -1.2407  1.0651
 4850SOL    HW226013   3.102   3.304   1.177  0.3837 -1.4674 -0.1855
 4851SOL     OW26014   2.752   1.376   7.855 -0.3808  0.8117 -0.2273
 4851SOL    HW126015   2.765   1.427   7.935 -2.4323  2.5030 -0.9676
 4851SOL    HW226016   2.709   1.439   7.797 -3.6951 -1.6669 -0.4492
 4852SOL     OW26017   2.487   2.189  17.569 -0.2642 -0.2233 -0.0421
 4852SOL    HW126018   2.573   2.155  17.544 -1.2144 -2.8265  0.3229
 4852SOL    HW226019   2.463   2.124  17.634  0.0427 -1.3629 -1.0662
 4853SOL     OW26020   4.401   1.627   7.063 -0.1758 -0.2879  0.0501
 4853SOL    HW126021   4.447   1.692   7.010  3.1058 -2.4147  0.2849
 4853SOL    HW226022   4.362   1.682   7.132 -0.2078 -0.9975  0.5957
 4854SOL     OW26023   1.564   1.306   9.274  0.1177 -0.0289 -0.1271
 4854SOL    HW126024   1.593   1.344   9.191 -1.7017  3.5177  0.8687
 4854SOL    HW226025   1.487   1.358   9.295  0.4181  0.1812  0.4557
 4855SOL     OW26026   1.117   1.360   4.432  0.4326  0.9223 -0.2224
 4855SOL    HW126027   1.037   1.358   4.379 -0.4645 -0.6288  1.1878
 4855SOL    HW226028   1.184   1.369   4.364  0.6384 -1.6870 -0.3722
 4856SOL     OW26029   3.317   4.506   3.455 -0.8000  0.1170  0.5012
 4856SOL    HW126030   3.261   4.545   3.523  0.3633  1.5141  0.6677
 4856SOL    HW226031   3.348   4.440   3.516 -1.4918  0.7982  1.6058
 4857SOL     OW26032   2.446   0.895  13.586  0.5496  0.5249  0.3405
 4857SOL    HW126033   2.485   0.842  13.655 -2.0133 -2.1872 -0.2924
 4857SOL    HW226034   2.372   0.944  13.622 -1.1440 -2.3028  0.6788
 4858SOL     OW26035   0.961   2.378   1.741 -0.2605  0.1604  0.6651
 4858SOL    HW126036   0.980   2.441   1.811  0.3700  1.6235 -0.8052
 4858SOL    HW226037   0.995   2.300   1.785  0.6728 -0.2722 -0.8057
 4859SOL     OW26038   1.937   0.312   8.037 -0.4609 -0.2251  0.4281
 4859SOL    HW126039   1.878   0.306   7.962 -0.7380 -0.5824  0.6773
 4859SOL    HW226040   1.881   0.328   8.113 -1.8769  0.5954 -0.8087
 4860SOL     OW26041   0.570   2.345   8.233 -0.5759  0.3956 -0.3100
 4860SOL    HW126042   0.554   2.322   8.141  0.9991  1.1777 -0.7974
 4860SOL    HW226043   0.638   2.283   8.259 -1.7718  0.0677  1.9792
 4861SOL     OW26044   4.474   1.165   8.630  0.2175 -0.2135  0.7524
 4861SOL    HW126045   4.476   1.109   8.708  0.3907 -1.6124 -0.2412
 4861SOL    HW226046   4.461   1.250   8.671 -1.6614 -1.4731  2.7950
 4862SOL     OW26047   1.540   2.445   0.326  0.7952 -0.5858 -0.0734
 4862SOL    HW126048   1.503   2.533   0.340  1.0048 -0.1651 -2.2427
 4862SOL    HW226049   1.460   2.392   0.324 -0.5517  1.3787  0.6956
 4863SOL     OW26050   3.966   3.378  13.670  0.6673 -0.1778  0.3163
 4863SOL    HW126051   3.915   3.297  13.663  0.3437  0.3783 -4.0461
 4863SOL    HW226052   3.923   3.432  13.735  1.8115 -0.4812  1.3115
 4864SOL     OW26053   2.812   2.640   1.800  0.2536  0.3067  0.1054
 4864SOL    HW126054   2.819   2.634   1.705  2.9724 -1.7865  0.4203
 4864SOL    HW226055   2.743   2.706   1.805  0.6019  0.5357  2.0775
 4865SOL     OW26056   1.338   1.213   2.746 -0.1848  0.7473 -0.0661
 4865SOL    HW126057   1.378   1.228   2.832 -1.3053 -0.2464  0.6142
 4865SOL    HW226058   1.324   1.119   2.753  0.5659  0.7067  0.8121
 4866SOL     OW26059   4.166   4.668   8.619  0.0646  0.1052 -0.4093
 4866SOL    HW126060   4.084   4.681   8.666 -0.1180  1.5155 -1.1397
 4866SOL    HW226061   4.137   4.608   8.550 -0.7709  1.2796 -1.0741
 4867SOL     OW26062   2.568   4.202   3.174 -0.0030  0.7175 -0.1587
 4867SOL    HW126063   2.497   4.147   3.140 -0.4149  0.0156  1.8697
 4867SOL    HW226064   2.602   4.250   3.099 -2.0014  0.3744 -1.2707
 4868SOL     OW26065   3.061   1.393  14.314 -0.3683 -0.0484  0.0023
 4868SOL    HW126066   3.069   1.298  14.312 -0.1806 -0.0734  1.5703
 4868SOL    HW226067   3.006   1.411  14.238 -0.1086  0.0275 -0.1703
 4869SOL     OW26068   2.572   0.859   9.126  0.2728  0.5235  0.4455
 4869SOL    HW126069   2.537   0.792   9.184  1.5918 -1.4036 -0.9913
 4869SOL    HW226070   2.651   0.817   9.092 -0.0875  1.1722 -1.2052
 4870SOL     OW26071   2.456   4.215  16.389 -0.0486  0.3317 -0.1270
 4870SOL    HW126072   2.484   4.304  16.369  3.8453 -0.5167  1.4849
 4870SOL    HW226073   2.484   4.178  16.305  1.1887 -0.4133  0.6082
 4871SOL     OW26074   1.383   4.390   3.418 -0.4838  0.8378  0.6517
 4871SOL    HW126075   1.413   4.348   3.499 -2.8375  0.1162  1.1379
 4871SOL    HW226076   1.441   4.350   3.353 -2.2538 -0.5653 -0.0629
 4872SOL     OW26077   0.963   3.246   8.078  0.4016  0.2523 -0.2266
 4872SOL    HW126078   1.054   3.270   8.057 -0.1717  1.5538 -1.2497
 4872SOL    HW226079   0.967   3.159   8.116  2.6366 -0.0328 -1.0699
 4873SOL     OW26080   1.586   1.328   4.243  0.4706 -0.5953 -0.6633
 4873SOL    HW126081   1.652   1.359   4.306 -0.3351  0.5014 -0.3667
 4873SOL    HW226082   1.603   1.379   4.164  0.2991 -0.7138 -0.7757
 4874SOL     OW26083   3.485   4.056   2.057 -0.2742  0.0451  0.1727
 4874SOL    HW126084   3.534   4.129   2.094 -1.0278  0.7559 -0.2421
 4874SOL    HW226085   3.394   4.065   2.087 -0.2197  0.4718  0.2093
 4875SOL     OW26086   0.427   1.577   1.378 -0.1407 -0.5833  0.2936
 4875SOL    HW126087   0.488   1.549   1.446  1.2124  1.8942  0.1300
 4875SOL    HW226088   0.424   1.500   1.321  2.1438 -0.0506 -0.5548
 4876SOL     OW26089   3.384   2.522   1.951  0.0686  0.5029  0.2101
 4876SOL    HW126090   3.290   2.516   1.966  0.3571 -0.6769  1.5707
 4876SOL    HW226091   3.417   2.579   2.021  2.7466  0.2415 -0.8319
 4877SOL     OW26092   2.262   2.928   6.798 -0.3139 -0.1531 -0.4461
 4877SOL    HW126093   2.354   2.934   6.825 -0.3937 -2.0813  0.2833
 4877SOL    HW226094   2.248   3.021   6.809 -0.4167 -0.0298 -1.5720
 4878SOL     OW26095   2.143   1.704   0.929  0.6805  0.2800 -0.0332
 4878SOL    HW126096   2.092   1.784   0.921 -0.0983 -0.2822 -0.7009
 4878SOL    HW226097   2.158   1.682   0.838  2.8086  3.1177 -0.3621
 4879SOL     OW26098   2.699   3.863   0.161 -0.0467 -0.3171 -0.3471
 4879SOL    HW126099   2.637   3.796   0.132 -0.2404 -0.6486  0.8621
 4879SOL    HW226100   2.757   3.880   0.087  0.5042 -0.9858 -0.0623
 4880SOL     OW26101   3.393   4.168   1.193 -0.1099 -0.3258  0.8741
 4880SOL    HW126102   3.361   4.187   1.105  1.6254  0.2871  0.3769
 4880SOL    HW226103   3.472   4.222   1.191 -0.9785  0.9438  0.9052
 4881SOL     OW26104   3.161   0.517   3.135  0.4250 -0.5962 -0.2622
 4881SOL    HW126105   3.146   0.428   3.101 -0.2191 -1.1314  1.4477
 4881SOL    HW226106   3.126   0.565   3.060 -0.7773  0.1368  0.7772
 4882SOL     OW26107   2.317   4.702   4.767  0.2964  0.1458 -0.1961
 4882SOL    HW126108   2.280   0.006   4.849 -0.6308  0.6154 -0.7831
 4882SOL    HW226109   2.264   0.024   4.703 -0.2234  0.2614  0.3251
 4883SOL     OW26110   3.007   2.342  13.662 -0.6793  0.0062 -0.2158
 4883SOL    HW126111   3.061   2.417  13.688 -1.4745  1.4205 -2.6733
 4883SOL    HW226112   2.983   2.299  13.744  1.0893 -1.3436 -0.4155
 4884SOL     OW26113   0.777   1.153   1.221  0.5474  0.1637  0.6681
 4884SOL    HW126114   0.811   1.223   1.277 -2.0198  0.5971  1.6943
 4884SOL    HW226115   0.834   1.179   1.149 -0.2799 -0.0518 -0.0545
 4885SOL     OW26116   1.620   3.464   9.959  0.6237  0.5182 -0.4220
 4885SOL    HW126117   1.669   3.399   9.908  0.9791  2.2355 -2.2547
 4885SOL    HW226118   1.578   3.504   9.883 -1.2979  0.9295  0.8779
 4886SOL     OW26119   3.149   1.888   2.127  0.2984 -0.5419  0.4216
 4886SOL    HW126120   3.071   1.888   2.072  0.8747  2.1380 -0.3480
 4886SOL    HW226121   3.143   1.798   2.160 -0.7426 -0.2544  1.0386
 4887SOL     OW26122   0.443   1.687   7.813  0.3843  0.1017  0.4440
 4887SOL    HW126123   0.488   1.761   7.854  1.7036  0.2071 -1.1618
 4887SOL    HW226124   0.516   1.641   7.772  1.1573  3.2784 -1.7970
 4888SOL     OW26125   1.981   3.294   7.474 -0.5756 -0.4448 -0.0927
 4888SOL    HW126126   1.998   3.354   7.547  1.7398 -0.3136 -0.7465
 4888SOL    HW226127   1.923   3.234   7.521 -0.4345  0.7574  1.6328
 4889SOL     OW26128   4.278   1.614   0.288 -0.1339 -0.1851 -0.8396
 4889SOL    HW126129   4.218   1.556   0.335  4.5897 -5.0935 -0.8901
 4889SOL    HW226130   4.318   1.652   0.366 -3.6484 -0.1183  0.9452
 4890SOL     OW26131   4.120   2.658  10.673  0.1278  0.4043  0.5109
 4890SOL    HW126132   4.080   2.572  10.688  0.6690  0.1046  0.2280
 4890SOL    HW226133   4.055   2.694  10.612  2.0856  0.6635 -1.4235
 4891SOL     OW26134   3.610   3.948   9.422 -0.1653  0.0677  0.4758
 4891SOL    HW126135   3.603   4.043   9.417  1.7950  0.0870 -1.7584
 4891SOL    HW226136   3.542   3.916   9.363  0.1653 -0.6189  0.4691
 4892SOL     OW26137   0.983   1.180   7.717 -0.0643 -0.1929  0.7233
 4892SOL    HW126138   0.915   1.247   7.711 -0.0098 -0.1440  0.6457
 4892SOL    HW226139   0.994   1.155   7.625  0.8566 -0.2837  0.8555
 4893SOL     OW26140   2.851   3.907   6.105  0.1659  0.4483  0.3318
 4893SOL    HW126141   2.909   3.974   6.070 -0.1170 -0.3624 -1.6630
 4893SOL    HW226142   2.785   3.956   6.154 -0.4737 -1.5663  1.4732
 4894SOL     OW26143   0.178   3.068  17.052  0.2531 -0.1489 -0.1990
 4894SOL    HW126144   0.270   3.044  17.040  0.2992  0.1196 -0.3817
 4894SOL    HW226145   0.176   3.062  17.148  0.5609  1.4952 -0.0899
 4895SOL     OW26146   1.495   3.189   3.543 -0.6279 -0.1722  0.5938
 4895SOL    HW126147   1.442   3.170   3.620  1.6694 -3.7129  1.3012
 4895SOL    HW226148   1.578   3.219   3.581  1.1105 -0.4314 -3.0125
 4896SOL     OW26149   4.240   2.322   2.152 -0.4122  0.2289  0.2274
 4896SOL    HW126150   4.292   2.402   2.154  0.9126 -0.6447  0.3543
 4896SOL    HW226151   4.156   2.361   2.127 -0.8834  0.3322  2.0096
 4897SOL     OW26152   1.139   4.464   5.540 -0.9033 -0.3854 -0.4205
 4897SOL    HW126153   1.116   4.424   5.456  1.7551 -1.9273 -0.4182
 4897SOL    HW226154   1.223   4.424   5.558 -0.1739  1.8732  1.2091
 4898SOL     OW26155   0.360   4.503   5.759 -0.8720  0.0167  0.8103
 4898SOL    HW126156   0.303   4.487   5.834  0.3516  0.6836  1.8848
 4898SOL    HW226157   0.407   4.421   5.743  0.1596  1.0699 -1.7255
 4899SOL     OW26158   1.831   2.711  17.222  0.5906 -0.3889 -0.0361
 4899SOL    HW126159   1.844   2.626  17.181  0.4191 -0.6782  0.5110
 4899SOL    HW226160   1.736   2.715  17.216  0.6158 -0.4354 -0.4838
 4900SOL     OW26161   0.231   0.485   8.801  0.1649  0.1490  0.1029
 4900SOL    HW126162   0.288   0.547   8.756  1.5313 -0.8159  0.4964
 4900SOL    HW226163   0.143   0.500   8.768  0.7660  3.4096  0.0539
 4901SOL     OW26164   3.109   4.578   5.989  0.8388 -0.1190  0.4915
 4901SOL    HW126165   3.189   4.557   6.037 -0.3029 -0.5438  2.2155
 4901SOL    HW226166   3.128   4.670   5.971  0.4687 -0.4399 -1.5748
 4902SOL     OW26167   0.662   0.315   2.637  0.2948  0.1356 -0.1901
 4902SOL    HW126168   0.568   0.300   2.647  0.4159  0.2036  1.0161
 4902SOL    HW226169   0.686   0.291   2.727  0.6184 -0.6610 -0.4865
 4903SOL     OW26170   0.042   2.683  14.756  0.4160  0.3414  0.0589
 4903SOL    HW126171   0.098   2.632  14.815 -0.1319 -0.0055  0.2841
 4903SOL    HW226172   0.043   2.636  14.673  2.4520  1.2991 -0.4589
 4904SOL     OW26173   0.177   4.005   0.377  0.2644  0.1620 -0.3709
 4904SOL    HW126174   0.085   4.003   0.351 -0.0314 -0.1044  0.6844
 4904SOL    HW226175   0.183   3.954   0.458  1.4056  0.9621  0.0561
 4905SOL     OW26176   2.615   1.804   9.130  0.1513 -0.3510 -0.5417
 4905SOL    HW126177   2.596   1.710   9.139 -0.4837  0.0223  2.1943
 4905SOL    HW226178   2.539   1.828   9.078  2.8326  1.6586 -3.5278
 4906SOL     OW26179   1.059   4.085   9.142 -0.0266 -0.2302  0.2960
 4906SOL    HW126180   1.001   4.015   9.170 -2.2598  1.4969 -0.0039
 4906SOL    HW226181   1.032   4.155   9.201 -1.9702 -0.3893 -0.3989
 4907SOL     OW26182   2.970   3.071   7.308 -0.2310  0.0210  0.1620
 4907SOL    HW126183   2.996   3.151   7.355  1.5174 -0.5351  0.1264
 4907SOL    HW226184   2.928   3.032   7.384 -1.2721  0.2098 -0.3172
 4908SOL     OW26185   4.260   1.506  16.019  0.1468  0.5483 -0.5125
 4908SOL    HW126186   4.236   1.591  16.057 -0.9280  0.3337 -0.7090
 4908SOL    HW226187   4.260   1.450  16.096 -0.2199  2.0372  0.5666
 4909SOL     OW26188   4.449   0.453   6.058 -0.1950  0.2436 -0.0527
 4909SOL    HW126189   4.429   0.529   6.113 -0.8110  1.9817 -2.7031
 4909SOL    HW226190   4.364   0.425   6.027  0.0988  1.3352 -1.8272
 4910SOL     OW26191   1.049   2.233  17.472  0.1850 -0.2450 -0.0415
 4910SOL    HW126192   1.094   2.301  17.522  2.0232 -2.9124  1.9297
 4910SOL    HW226193   1.087   2.241  17.385 -0.6002 -0.2828 -0.3911
 4911SOL     OW26194   0.595   1.166  16.286 -0.4219  0.1381 -0.2118
 4911SOL    HW126195   0.649   1.164  16.207 -1.2854  0.0329 -0.7894
 4911SOL    HW226196   0.534   1.233  16.255  0.8976  0.4502 -2.1640
 4912SOL     OW26197   2.538   4.075   8.745 -0.2098  0.0673 -0.0471
 4912SOL    HW126198   2.535   4.163   8.784 -0.5863 -1.3706  3.1478
 4912SOL    HW226199   2.620   4.082   8.696 -0.0631  0.1825  0.2141
 4913SOL     OW26200   4.455   0.738   4.362  0.6403  0.2396  0.2864
 4913SOL    HW126201   4.412   0.791   4.295  0.7449 -0.7723 -0.5900
 4913SOL    HW226202   4.509   0.672   4.318 -0.8311 -0.8156  0.0931
 4914SOL     OW26203   0.179   0.841   1.863  0.1704 -0.3160 -0.5984
 4914SOL    HW126204   0.167   0.934   1.840 -1.2363 -1.0705 -2.9623
 4914SOL    HW226205   0.194   0.847   1.957  0.9235 -1.7448 -0.6348
 4915SOL     OW26206   1.466   3.356   3.986 -0.1048  0.1761  0.1789
 4915SOL    HW126207   1.414   3.277   3.996  0.6471 -0.3288  0.0965
 4915SOL    HW226208   1.551   3.333   4.024  2.1503  1.3953 -4.1177
 4916SOL     OW26209   4.132   3.495  15.001  0.6322 -0.4791 -0.1628
 4916SOL    HW126210   4.081   3.414  15.002  1.9247 -1.3094 -1.9485
 4916SOL    HW226211   4.171   3.477  15.087 -0.3602 -0.6219  0.2523
 4917SOL     OW26212   2.731   4.321   6.606  0.1521 -0.1212  0.1914
 4917SOL    HW126213   2.685   4.245   6.572 -3.3256  1.2464  1.9141
 4917SOL    HW226214   2.670   4.390   6.580 -1.4121 -1.2219  0.9568
 4918SOL     OW26215   3.924   2.757   4.818  0.3100  0.3172 -0.1219
 4918SOL    HW126216   4.006   2.716   4.791 -1.5506 -1.2942 -3.2826
 4918SOL    HW226217   3.922   2.736   4.912  2.6062 -1.0477 -0.3880
 4919SOL     OW26218   3.281   1.427   5.928 -0.4196 -0.2340  0.5452
 4919SOL    HW126219   3.220   1.463   5.992  0.2777  0.0380  1.0629
 4919SOL    HW226220   3.213   1.373   5.888 -0.0757 -0.9887  0.9721
 4920SOL     OW26221   2.569   1.837  17.603 -0.1895  0.5120  0.2375
 4920SOL    HW126222   2.628   1.912  17.605  0.4775 -0.0432  1.1130
 4920SOL    HW226223   2.608   1.776  17.665 -0.5719  0.4286  0.3936
 4921SOL     OW26224   2.640   4.381  12.988  0.3491 -0.5507  0.4311
 4921SOL    HW126225   2.596   4.436  13.052 -2.0405 -0.6024 -1.1687
 4921SOL    HW226226   2.573   4.375  12.920  0.4982  0.0145  0.2336
 4922SOL     OW26227   0.354   1.974   3.859 -0.3748  0.1366  0.4238
 4922SOL    HW126228   0.331   2.028   3.934 -0.2105 -0.2614  0.7591
 4922SOL    HW226229   0.349   2.040   3.789  0.4076 -0.5575 -0.2888
 4923SOL     OW26230   0.301   1.174   4.530  0.4796 -0.2187  0.1284
 4923SOL    HW126231   0.326   1.223   4.608  1.8867 -1.8230  0.6933
 4923SOL    HW226232   0.249   1.111   4.580  1.6591  1.7152  3.7372
 4924SOL     OW26233   2.752   2.623   2.856  0.0990  0.3367  0.3063
 4924SOL    HW126234   2.805   2.690   2.814  0.5912 -0.5821 -0.5378
 4924SOL    HW226235   2.795   2.610   2.941 -1.5167  1.4504  1.2844
 4925SOL     OW26236   1.934   0.869  13.910  0.2332  0.1329  0.6760
 4925SOL    HW126237   1.848   0.886  13.870  0.2251  1.1457  1.1257
 4925SOL    HW226238   1.977   0.954  13.905  0.9693 -0.3175 -0.3752
 4926SOL     OW26239   0.159   4.719   9.232 -0.2327 -0.4832  0.1053
 4926SOL    HW126240   0.134   4.648   9.291 -1.5635  0.6538  0.9283
 4926SOL    HW226241   0.192   0.049   9.302 -3.1186  0.5970  0.6083
 4927SOL     OW26242   1.330   1.863   4.470  0.0794  0.2898 -0.5009
 4927SOL    HW126243   1.297   1.773   4.472  0.1400  0.2918  0.8391
 4927SOL    HW226244   1.266   1.905   4.529  0.4326  1.4888 -0.9649
 4928SOL     OW26245   3.931   4.239   8.297 -0.2392  0.2306  0.0155
 4928SOL    HW126246   3.978   4.199   8.224  1.7878 -1.9199  2.4913
 4928SOL    HW226247   3.968   4.189   8.370  0.9300  1.3334  0.1597
 4929SOL     OW26248   0.272   4.344  11.234  0.0717  0.0670  0.1815
 4929SOL    HW126249   0.282   4.438  11.217  0.2128 -0.1311 -0.8281
 4929SOL    HW226250   0.176   4.345  11.243 -0.1448  0.5133 -2.1242
 4930SOL     OW26251   1.409   3.334   3.103  0.0872  0.3829 -0.7940
 4930SOL    HW126252   1.450   3.276   3.167  0.0719  0.7767 -0.4272
 4930SOL    HW226253   1.474   3.319   3.034 -0.6895  3.7719 -2.2546
 4931SOL     OW26254   3.864   1.758   3.791  0.2540 -0.0367 -0.6031
 4931SOL    HW126255   3.952   1.793   3.807 -0.1056 -0.0396  1.3593
 4931SOL    HW226256   3.864   1.735   3.698 -1.5581  2.7342 -1.2693
 4932SOL     OW26257   3.890   0.583   5.997  0.2449  0.4461 -0.9568
 4932SOL    HW126258   3.939   0.624   6.068 -0.5167  1.1770 -0.8530
 4932SOL    HW226259   3.839   0.660   5.970  0.4835  0.7445 -0.5671
 4933SOL     OW26260   2.787   0.704   4.253  0.6497  0.1497  0.0933
 4933SOL    HW126261   2.804   0.640   4.184 -0.6029 -0.4867  0.3995
 4933SOL    HW226262   2.872   0.700   4.297  0.7341  0.7610 -0.0073
 4934SOL     OW26263   3.807   3.326   6.078  0.1228 -0.1956  0.0507
 4934SOL    HW126264   3.856   3.353   6.000 -0.7697  0.4853 -0.2802
 4934SOL    HW226265   3.845   3.241   6.099  1.5601  0.3051 -0.5063
 4935SOL     OW26266   2.841   0.182   6.817  0.3671 -0.1713  0.2133
 4935SOL    HW126267   2.918   0.195   6.872  0.1854 -0.3732  0.5121
 4935SOL    HW226268   2.806   0.271   6.817  1.3410  0.2160  0.0413
 4936SOL     OW26269   3.061   0.178   4.681  0.0722 -0.2814  0.3229
 4936SOL    HW126270   3.027   0.090   4.664 -0.7771  0.0463  0.3413
 4936SOL    HW226271   3.064   0.195   4.775  0.7069  1.8074 -0.0802
 4937SOL     OW26272   1.975   1.360   1.243  0.0294 -0.4186  0.0319
 4937SOL    HW126273   2.005   1.394   1.328  1.0631 -0.4253 -0.3250
 4937SOL    HW226274   1.881   1.372   1.257 -0.3320 -0.8022 -2.0081
 4938SOL     OW26275   3.847   1.702   5.946  0.7682  0.9812  0.3565
 4938SOL    HW126276   3.812   1.685   5.859  0.2089  2.9647  0.2081
 4938SOL    HW226277   3.817   1.627   5.998 -1.8218  2.7209  1.3864
 4939SOL     OW26278   3.328   2.936  13.170  0.1332  0.3022  0.3329
 4939SOL    HW126279   3.382   2.869  13.212  0.9705  0.7943  0.0513
 4939SOL    HW226280   3.332   2.900  13.081 -1.2160 -1.5175  1.0140
 4940SOL     OW26281   0.597   0.871   6.587  0.6134 -0.2930  0.0544
 4940SOL    HW126282   0.633   0.784   6.570 -3.3671 -1.6956 -1.2393
 4940SOL    HW226283   0.533   0.845   6.653 -1.4608  3.0898 -0.6197
 4941SOL     OW26284   0.451   0.860   8.964 -0.0738 -0.6566 -0.3017
 4941SOL    HW126285   0.400   0.896   8.892 -1.4883 -1.4750  0.2877
 4941SOL    HW226286   0.443   0.928   9.031  2.9312 -1.7748  1.2017
 4942SOL     OW26287   0.366   3.675   3.462  0.1758 -0.1918 -0.5680
 4942SOL    HW126288   0.302   3.604   3.454  1.0857 -1.0640 -0.1864
 4942SOL    HW226289   0.436   3.628   3.508 -2.8478 -3.3951  0.8210
 4943SOL     OW26290   3.279   2.070   5.523 -0.1766  0.6560  0.7550
 4943SOL    HW126291   3.228   2.092   5.445 -0.8453  0.0779  1.0305
 4943SOL    HW226292   3.304   1.981   5.498 -2.7952  0.4007 -0.9868
 4944SOL     OW26293   4.348   1.408  13.180  0.4597  0.0612  0.3929
 4944SOL    HW126294   4.433   1.436  13.216  0.2696 -0.4231  1.2181
 4944SOL    HW226295   4.305   1.491  13.162 -1.4452 -0.4292  2.6249
 4945SOL     OW26296   0.936   4.268   9.320 -0.1029  0.3055 -0.5858
 4945SOL    HW126297   0.954   4.362   9.323  1.7544 -0.0743  1.0399
 4945SOL    HW226298   0.947   4.235   9.410  0.6337  1.6377 -0.1788
 4946SOL     OW26299   1.728   3.736   4.520 -0.2932 -0.0514 -0.4075
 4946SOL    HW126300   1.727   3.641   4.529  1.2313  0.1727  2.1535
 4946SOL    HW226301   1.633   3.752   4.516 -0.3627 -0.4932 -0.5226
 4947SOL     OW26302   2.499   1.773  16.371  0.5774  0.1289  0.5043
 4947SOL    HW126303   2.427   1.828  16.402  0.2135  0.7399 -1.3720
 4947SOL    HW226304   2.564   1.838  16.345 -0.2301  1.5690  2.0776
 4948SOL     OW26305   1.593   1.439   3.964  0.4110  0.1359  0.4673
 4948SOL    HW126306   1.545   1.356   3.968 -1.6099  1.1095 -3.4412
 4948SOL    HW226307   1.655   1.415   3.895 -1.1971 -2.9731  0.1278
 4949SOL     OW26308   1.077   3.858   6.717 -0.8266  0.3880  0.6157
 4949SOL    HW126309   1.039   3.942   6.691  0.5915  1.6009  2.4424
 4949SOL    HW226310   1.030   3.843   6.799 -0.2958  3.2083  1.4514
 4950SOL     OW26311   1.081   4.197   7.466  1.0176 -0.9957 -0.7473
 4950SOL    HW126312   1.032   4.134   7.413 -0.4137 -1.4542  1.1218
 4950SOL    HW226313   1.125   4.251   7.400 -0.9624  1.1551 -0.3593
 4951SOL     OW26314   2.154   1.840   3.689  0.2666  0.0193  0.3158
 4951SOL    HW126315   2.227   1.877   3.639  0.2063 -0.6379 -0.2561
 4951SOL    HW226316   2.165   1.745   3.685  1.7161  0.1190  1.6978
 4952SOL     OW26317   1.856   3.396  14.178  0.4909  0.0800 -0.0263
 4952SOL    HW126318   1.926   3.332  14.188 -0.4457 -0.9268  0.0086
 4952SOL    HW226319   1.912   3.473  14.191  0.3495 -0.0194  1.2165
 4953SOL     OW26320   4.088   0.900  12.283 -0.3761  0.1188 -0.5214
 4953SOL    HW126321   4.075   0.993  12.299 -0.3464  0.5332 -2.8531
 4953SOL    HW226322   4.102   0.859  12.368  0.9131 -0.4895 -1.0324
 4954SOL     OW26323   1.500   3.909   5.131  0.1947 -0.1412 -0.1137
 4954SOL    HW126324   1.452   3.831   5.101  0.4774 -0.7844  1.1420
 4954SOL    HW226325   1.490   3.890   5.224  1.1585 -0.5569 -0.1015
 4955SOL     OW26326   2.266   2.025   0.839 -0.0203  0.2049 -0.2362
 4955SOL    HW126327   2.272   2.103   0.893  2.5367 -0.8203  0.9308
 4955SOL    HW226328   2.192   2.045   0.781  1.9246  1.8552 -2.1219
 4956SOL     OW26329   0.936   4.107   6.704 -0.3958 -0.2321 -0.4145
 4956SOL    HW126330   0.946   4.122   6.798 -2.1640 -0.2492 -0.2303
 4956SOL    HW226331   0.895   4.189   6.678  0.2167  0.5711  1.1532
 4957SOL     OW26332   0.364   1.571   2.842 -0.1879 -0.3865 -0.2520
 4957SOL    HW126333   0.350   1.624   2.921 -0.6619 -1.0642  0.1269
 4957SOL    HW226334   0.418   1.497   2.870  0.3232  1.7670  4.5026
 4958SOL     OW26335   2.006   0.940   3.718 -0.0220 -0.1586 -0.3652
 4958SOL    HW126336   1.977   0.860   3.762 -2.5706  0.8561 -0.1990
 4958SOL    HW226337   2.101   0.929   3.719  0.1773  1.5894 -0.5201
 4959SOL     OW26338   1.352   1.294   5.289  0.2218 -0.0778  0.1804
 4959SOL    HW126339   1.263   1.265   5.270  0.3730 -0.7500  0.4760
 4959SOL    HW226340   1.333   1.386   5.303  2.6234  0.2600  1.1806
 4960SOL     OW26341   2.108   1.404   8.637  0.0912 -0.0466 -0.8660
 4960SOL    HW126342   2.131   1.325   8.588  1.9741 -1.1056  1.6897
 4960SOL    HW226343   2.066   1.365   8.714 -0.9278 -1.0738 -1.9404
 4961SOL     OW26344   4.653   2.598   0.210 -0.0191 -0.4132 -0.1322
 4961SOL    HW126345   4.720   2.631   0.270 -1.7593 -0.1881  1.7244
 4961SOL    HW226346   4.577   2.619   0.266 -1.2510  0.7299 -2.2417
 4962SOL     OW26347   3.331   1.387   7.657 -0.3971  0.0883 -0.5698
 4962SOL    HW126348   3.408   1.396   7.713 -0.6647 -2.7025  0.2799
 4962SOL    HW226349   3.347   1.298   7.624  0.5079  0.5398 -1.3239
 4963SOL     OW26350   0.698   1.120   9.902 -0.4318  0.0632 -0.2593
 4963SOL    HW126351   0.747   1.178   9.844  0.0880 -0.7389 -0.6348
 4963SOL    HW226352   0.772   1.066   9.929  0.3025  1.5450  0.6612
 4964SOL     OW26353   0.642   0.101   8.056 -0.2462  0.4652  0.5194
 4964SOL    HW126354   0.561   0.116   8.105 -0.9636 -2.3782  0.2306
 4964SOL    HW226355   0.655   0.187   8.016  3.8648 -0.8072 -0.9176
 4965SOL     OW26356   2.905   0.383   2.999 -0.1614  0.3145 -0.6691
 4965SOL    HW126357   2.816   0.406   3.027 -0.7240  0.5437 -2.6553
 4965SOL    HW226358   2.921   0.461   2.947  1.5148 -1.3083 -2.5821
 4966SOL     OW26359   2.800   0.532   2.764 -0.2142 -0.0502  0.3412
 4966SOL    HW126360   2.780   0.616   2.806  1.9054  0.2489  0.7965
 4966SOL    HW226361   2.845   0.568   2.687 -3.5638  0.5454 -1.3456
 4967SOL     OW26362   0.328   0.574  17.391 -0.0260 -0.0120 -0.2539
 4967SOL    HW126363   0.321   0.490  17.436  1.3796 -0.9423 -1.7845
 4967SOL    HW226364   0.277   0.554  17.313  0.1246 -0.0442 -0.3452
 4968SOL     OW26365   4.137   3.293  11.424  0.1379  0.3813  0.6552
 4968SOL    HW126366   4.147   3.229  11.353 -1.6924 -0.4860  1.1690
 4968SOL    HW226367   4.067   3.245  11.469  1.9240 -2.3357  0.5675
 4969SOL     OW26368   4.305   2.027   2.812  0.3299 -0.3711  0.0013
 4969SOL    HW126369   4.376   2.088   2.792  0.8123 -0.7604  0.5248
 4969SOL    HW226370   4.319   1.951   2.755 -0.7560 -1.1163  0.7180
 4970SOL     OW26371   4.534   3.129   8.436 -0.0637 -0.2863 -0.0214
 4970SOL    HW126372   4.491   3.130   8.521 -0.3832  1.6372 -0.1913
 4970SOL    HW226373   4.570   3.041   8.426  1.5459  0.2494  1.1158
 4971SOL     OW26374   0.442   2.132   5.135 -0.2621 -0.1870  0.1523
 4971SOL    HW126375   0.350   2.127   5.162 -0.2131 -2.5065 -0.0609
 4971SOL    HW226376   0.477   2.058   5.185 -1.0460 -0.6996 -0.0641
 4972SOL     OW26377   3.961   1.028   7.256  0.3682 -0.7074  0.3543
 4972SOL    HW126378   4.006   1.043   7.339  2.3138 -0.6314 -0.6964
 4972SOL    HW226379   3.933   0.937   7.246 -0.0716 -0.2946 -2.3570
 4973SOL     OW26380   3.672   4.094   2.656  0.1553 -0.3768  0.3804
 4973SOL    HW126381   3.688   4.004   2.683 -1.0563 -1.0179 -1.0365
 4973SOL    HW226382   3.699   4.143   2.733 -1.2223  0.5942  0.2568
 4974SOL     OW26383   1.014   0.033  12.584 -0.7321 -0.2658  0.2409
 4974SOL    HW126384   1.091   0.071  12.541  0.3631 -0.6720  1.8588
 4974SOL    HW226385   1.052   4.679  12.620 -0.8337 -0.6961 -0.6138
 4975SOL     OW26386   2.031   1.027   7.648  0.0508  0.3857 -0.3434
 4975SOL    HW126387   2.094   1.076   7.700  2.3578 -3.4975  0.5398
 4975SOL    HW226388   1.954   1.030   7.705 -0.0185  1.3249 -0.4983
 4976SOL     OW26389   0.309   1.048  13.392 -0.7594 -0.2269  0.1107
 4976SOL    HW126390   0.283   1.057  13.483  0.7960 -0.1171  0.5465
 4976SOL    HW226391   0.230   1.002  13.362 -1.4357  0.8900  0.1922
 4977SOL     OW26392   1.472   3.558   3.711 -0.0885 -0.3519  0.0423
 4977SOL    HW126393   1.542   3.593   3.766  2.1624 -1.8020 -1.9325
 4977SOL    HW226394   1.402   3.558   3.776  0.6517  0.6847  0.8477
 4978SOL     OW26395   2.787   1.473  10.705  0.2287  0.0273  0.0701
 4978SOL    HW126396   2.702   1.429  10.694  0.2933  0.1227 -0.8039
 4978SOL    HW226397   2.791   1.529  10.628  2.0229 -0.5655 -0.2707
 4979SOL     OW26398   2.381   2.784  12.481 -0.4274 -0.0615  0.1466
 4979SOL    HW126399   2.390   2.789  12.576  1.5762  0.7693 -0.0723
 4979SOL    HW226400   2.388   2.689  12.470 -1.6159 -0.1058 -0.1757
 4980SOL     OW26401   2.006   1.375   9.623  0.0943  0.2407  0.1392
 4980SOL    HW126402   1.949   1.357   9.548 -1.3538  1.1389  1.0393
 4980SOL    HW226403   2.058   1.294   9.627 -1.2438 -0.6320 -0.0882
 4981SOL     OW26404   3.921   4.575   9.198 -0.2261 -0.4218 -0.3405
 4981SOL    HW126405   3.879   4.559   9.283 -1.8222  0.8033 -0.8995
 4981SOL    HW226406   3.991   4.511   9.184  0.0627 -0.2457  0.2690
 4982SOL     OW26407   2.542   2.302  16.139  0.2760  0.3440  0.0852
 4982SOL    HW126408   2.630   2.313  16.102  0.2521  3.6790  1.0021
 4982SOL    HW226409   2.541   2.357  16.217  1.7691  1.2071 -0.4857
 4983SOL     OW26410   2.198   2.459   4.670 -0.2897  0.2583  0.4509
 4983SOL    HW126411   2.237   2.406   4.601 -2.8775  0.4563 -1.1998
 4983SOL    HW226412   2.215   2.545   4.633 -3.2119  0.5590 -0.2500
 4984SOL     OW26413   2.503   2.692   2.809 -0.0510  0.1648  0.0308
 4984SOL    HW126414   2.587   2.669   2.848 -0.4476 -0.6128  0.4360
 4984SOL    HW226415   2.512   2.645   2.725 -0.2600  0.6429 -0.2600
 4985SOL     OW26416   3.078   1.918   8.300 -0.5816  0.3270 -0.0686
 4985SOL    HW126417   3.117   1.956   8.221  2.2768  0.3227  1.3354
 4985SOL    HW226418   3.087   1.826   8.276 -1.7175  0.3216 -0.4410
 4986SOL     OW26419   0.390   1.526  10.181 -0.0084  0.2461 -0.1026
 4986SOL    HW126420   0.424   1.556  10.097 -1.9350 -1.8380 -1.6597
 4986SOL    HW226421   0.464   1.557  10.234 -0.3392 -1.2225  1.2573
 4987SOL     OW26422   1.636   2.490   3.769  0.0553  0.3992  0.2747
 4987SOL    HW126423   1.596   2.540   3.697  1.9097 -0.4100 -1.3284
 4987SOL    HW226424   1.565   2.452   3.820 -0.2194  0.0562 -0.3687
 4988SOL     OW26425   0.638   1.950   8.608 -0.2128  0.6923 -0.1484
 4988SOL    HW126426   0.624   2.015   8.539  2.9981 -1.1004 -2.4698
 4988SOL    HW226427   0.668   2.002   8.683  2.8374 -0.0542 -0.8751
 4989SOL     OW26428   0.502   1.728  14.833  0.1424  0.3927  0.3771
 4989SOL    HW126429   0.441   1.661  14.802  1.9924  0.5934 -3.5475
 4989SOL    HW226430   0.550   1.757  14.756 -2.0619  1.5164 -0.5954
 4990SOL     OW26431   4.543   1.616  10.539 -0.0435  0.1500  0.1713
 4990SOL    HW126432   4.615   1.672  10.511  0.8364  0.1166  2.3510
 4990SOL    HW226433   4.500   1.605  10.454 -0.3438  1.7051  0.1146
 4991SOL     OW26434   0.140   3.116   5.611 -0.2348 -0.0756 -0.0742
 4991SOL    HW126435   0.166   3.028   5.585  0.0380  0.3998 -1.4432
 4991SOL    HW226436   0.215   3.132   5.668 -0.5110 -0.6930  0.4582
 4992SOL     OW26437   3.487   4.542   5.215  0.2370 -0.5559  0.4604
 4992SOL    HW126438   3.404   4.582   5.240  2.1168  2.1747  2.4669
 4992SOL    HW226439   3.527   4.616   5.170 -0.1869 -2.3132 -2.7900
 4993SOL     OW26440   3.194   0.425   6.986 -0.3152  0.1445 -0.7275
 4993SOL    HW126441   3.160   0.336   6.987 -1.5304  0.6371  2.0907
 4993SOL    HW226442   3.113   0.476   6.996 -0.5323 -0.4435  0.4944
 4994SOL     OW26443   2.008   2.502   5.755  0.3445  0.1470  0.6457
 4994SOL    HW126444   2.065   2.527   5.682  0.4876  0.9274  1.0251
 4994SOL    HW226445   1.924   2.534   5.721  0.7254 -0.2919 -0.7180
 4995SOL     OW26446   2.474   3.991   4.694 -0.2480  0.0427  0.6133
 4995SOL    HW126447   2.519   3.906   4.703 -2.3341 -1.1442 -0.2052
 4995SOL    HW226448   2.535   4.045   4.745 -1.7944  0.7497  1.7058
 4996SOL     OW26449   1.410   4.394   5.573  0.7123 -0.9242  0.0479
 4996SOL    HW126450   1.474   4.435   5.632  1.3966 -2.1422  0.1514
 4996SOL    HW226451   1.434   4.303   5.591  1.6710 -0.7399 -0.2896
 4997SOL     OW26452   1.163   2.509   5.972  0.0143  0.2167 -0.1569
 4997SOL    HW126453   1.235   2.546   6.023  1.5652 -0.8032 -1.6061
 4997SOL    HW226454   1.103   2.583   5.966  0.9431  0.8727 -1.4958
 4998SOL     OW26455   0.320   0.404  15.862  0.3468  0.4590 -0.0890
 4998SOL    HW126456   0.368   0.436  15.938 -0.1643 -0.1515  0.5006
 4998SOL    HW226457   0.386   0.342  15.832  0.4826  0.7471 -0.3740
 4999SOL     OW26458   4.200   0.010   3.738  0.0054 -0.3414 -0.0160
 4999SOL    HW126459   4.258   4.664   3.717  1.6992  0.8677  0.4908
 4999SOL    HW226460   4.229   0.026   3.827 -0.9133 -2.2458  0.6194
 5000SOL     OW26461   0.728   1.712   4.984  0.0034 -0.2314  0.6616
 5000SOL    HW126462   0.760   1.651   4.918 -0.6882  1.1328 -0.9420
 5000SOL    HW226463   0.670   1.775   4.940 -1.3918 -1.1203  1.2556
 5001SOL     OW26464   1.553   3.228   8.143 -0.1315 -0.9086  0.3199
 5001SOL    HW126465   1.569   3.313   8.100  1.6732 -1.6189 -0.4148
 5001SOL    HW226466   1.599   3.233   8.227 -0.2998 -0.0359  0.3612
 5002SOL     OW26467   2.371   3.676   1.585  0.1303 -0.3844  0.0507
 5002SOL    HW126468   2.442   3.737   1.567  1.5418 -1.7747  0.9603
 5002SOL    HW226469   2.340   3.699   1.673 -0.8063  1.2687 -0.7100
 5003SOL     OW26470   1.154   4.298   4.329 -0.5641  0.5520  0.0125
 5003SOL    HW126471   1.134   4.224   4.386 -1.2198 -1.0805 -2.3314
 5003SOL    HW226472   1.247   4.278   4.334  0.0155  2.8313 -1.2955
 5004SOL     OW26473   0.896   4.421   0.470 -0.3581 -0.3194  0.2954
 5004SOL    HW126474   0.928   4.415   0.560  2.2129  1.8451 -0.4593
 5004SOL    HW226475   0.864   4.510   0.458  0.1106 -0.4541 -2.0172
 5005SOL     OW26476   1.720   1.281  11.546 -0.0942 -0.0904  0.1896
 5005SOL    HW126477   1.704   1.373  11.527  0.5997  0.3456  1.7106
 5005SOL    HW226478   1.812   1.284  11.570 -0.9565 -0.9504  3.6159
 5006SOL     OW26479   1.111   0.379   8.312  0.1278 -0.3491  0.4538
 5006SOL    HW126480   1.127   0.285   8.300 -0.9839 -0.3825 -0.6675
 5006SOL    HW226481   1.087   0.409   8.225 -3.5766 -1.0996  1.2368
 5007SOL     OW26482   3.877   0.106   9.057  0.2252  0.0432 -0.6241
 5007SOL    HW126483   3.787   0.124   9.031  0.2980  0.3523 -0.6595
 5007SOL    HW226484   3.859   0.021   9.096 -1.9637  0.3935 -0.8539
 5008SOL     OW26485   3.847   3.895   9.130  0.3535  0.0864 -0.6090
 5008SOL    HW126486   3.842   3.976   9.079 -2.0706  1.2392  1.3979
 5008SOL    HW226487   3.934   3.874   9.097  0.7672 -0.6312  0.8992
 5009SOL     OW26488   4.467   0.718   9.297 -0.5004  0.4046 -0.1492
 5009SOL    HW126489   4.430   0.714   9.385 -0.3882 -1.8532 -0.2135
 5009SOL    HW226490   4.527   0.790   9.314  1.1118 -1.2236  1.0647
 5010SOL     OW26491   4.450   3.387  16.064 -0.2523  0.2185 -0.1315
 5010SOL    HW126492   4.364   3.348  16.076 -1.2476  2.3770 -0.2068
 5010SOL    HW226493   4.437   3.419  15.974  2.5164 -1.2189 -1.0519
 5011SOL     OW26494   1.597   1.698   1.856 -0.1541  0.1943 -0.0810
 5011SOL    HW126495   1.548   1.635   1.802 -2.2435 -0.2613  2.3597
 5011SOL    HW226496   1.681   1.682   1.814 -0.2325 -0.8565  0.1655
 5012SOL     OW26497   0.301   2.184  17.155 -0.0855 -0.1639  0.0361
 5012SOL    HW126498   0.288   2.238  17.233  0.2945 -0.9124  0.6168
 5012SOL    HW226499   0.262   2.242  17.089  0.7408  1.6606  1.1631
 5013SOL     OW26500   3.173   2.148   3.882 -0.0134 -0.2353  0.3197
 5013SOL    HW126501   3.221   2.157   3.799  0.7124  0.6873  0.8396
 5013SOL    HW226502   3.092   2.197   3.869 -1.3282 -2.3066  0.8865
 5014SOL     OW26503   0.207   1.445  14.471  0.2202  0.1331  0.2538
 5014SOL    HW126504   0.252   1.513  14.421 -0.4834 -0.1583 -0.7753
 5014SOL    HW226505   0.238   1.364  14.430  1.9943  1.3964 -0.9216
 5015SOL     OW26506   3.317   1.317   5.431  0.2811 -0.0441 -0.2100
 5015SOL    HW126507   3.290   1.285   5.518 -0.6851  0.2935 -0.3844
 5015SOL    HW226508   3.319   1.237   5.380 -0.3863 -1.1508  1.4941
 5016SOL     OW26509   1.499   3.621   0.932 -1.0911 -0.7883  0.1796
 5016SOL    HW126510   1.570   3.663   0.883 -1.7382 -0.6586 -0.6532
 5016SOL    HW226511   1.459   3.696   0.975 -1.4008  0.5951 -2.4735
 5017SOL     OW26512   1.440   0.474   3.861 -0.6300  0.0612 -0.6425
 5017SOL    HW126513   1.404   0.400   3.812 -3.4028 -0.5180  2.2567
 5017SOL    HW226514   1.530   0.440   3.860 -0.0743  1.3840  2.7928
 5018SOL     OW26515   1.875   4.111   2.918  0.2886 -0.0768 -0.5536
 5018SOL    HW126516   1.780   4.109   2.908  0.4302  2.8577 -2.4689
 5018SOL    HW226517   1.900   4.020   2.900  1.5515  0.6593 -2.4912
 5019SOL     OW26518   1.505   3.923   8.287  0.2522 -0.2351 -0.0305
 5019SOL    HW126519   1.587   3.908   8.334 -0.5817 -0.2360  1.4199
 5019SOL    HW226520   1.526   3.905   8.195  0.6813 -0.3114  0.0839
 5020SOL     OW26521   3.376   0.652  10.726 -0.1188 -0.1717 -0.0661
 5020SOL    HW126522   3.361   0.564  10.759 -0.3537 -0.4303 -0.8555
 5020SOL    HW226523   3.371   0.705  10.805  0.4481 -2.4989  1.5058
 5021SOL     OW26524   2.136   3.751  15.383  0.2423  0.3138 -0.0028
 5021SOL    HW126525   2.053   3.797  15.398  0.9483  0.8794  2.0230
 5021SOL    HW226526   2.184   3.830  15.359  1.2324 -1.0774 -2.6079
 5022SOL     OW26527   3.934   0.130   0.905 -0.3394  0.3790 -0.7475
 5022SOL    HW126528   3.916   0.044   0.941 -0.2429  0.8706  0.4779
 5022SOL    HW226529   3.875   0.182   0.960  0.6404  1.5992 -0.8489
 5023SOL     OW26530   3.667   1.748   6.400  0.1096  0.0395  0.4155
 5023SOL    HW126531   3.657   1.802   6.322  1.5915  0.6359  0.6345
 5023SOL    HW226532   3.751   1.779   6.435  1.6714 -2.3037 -1.2453
 5024SOL     OW26533   1.570   3.688  10.618  0.2387  0.4413 -0.4000
 5024SOL    HW126534   1.518   3.744  10.675 -1.2305 -0.2809 -1.0289
 5024SOL    HW226535   1.640   3.672  10.681  2.4724 -1.1234 -3.2746
 5025SOL     OW26536   0.093   4.602   6.370  0.3496  0.3953 -0.2340
 5025SOL    HW126537   0.186   4.595   6.347  0.3479  1.0502 -0.4458
 5025SOL    HW226538   0.042   4.546   6.312  1.1192  0.7534 -1.2571
 5026SOL     OW26539   4.024   2.411  16.765  0.0942  0.5294 -0.0988
 5026SOL    HW126540   4.008   2.468  16.841 -1.7456 -0.5070  0.2986
 5026SOL    HW226541   3.950   2.413  16.705 -1.1385 -0.8481  1.3818
 5027SOL     OW26542   4.209   3.429  11.196 -0.1972 -0.0803  0.3032
 5027SOL    HW126543   4.172   3.420  11.284 -0.0376 -1.2645  0.2561
 5027SOL    HW226544   4.185   3.341  11.165 -1.0585  0.3589 -0.2751
 5028SOL     OW26545   1.294   4.015   6.903  0.0424 -0.2588 -0.2683
 5028SOL    HW126546   1.313   3.966   6.982 -1.5125 -1.7526 -0.8218
 5028SOL    HW226547   1.244   3.956   6.846 -1.7954  1.0215  0.0072
 5029SOL     OW26548   4.343   1.036   8.152 -0.1595 -0.0665  0.6926
 5029SOL    HW126549   4.331   1.056   8.245  0.9451 -2.7758  1.4021
 5029SOL    HW226550   4.251   1.021   8.127  0.8783 -1.0403 -2.5066
 5030SOL     OW26551   0.647   2.398   3.474  0.1270  0.1999 -0.1218
 5030SOL    HW126552   0.589   2.322   3.473 -0.0595  0.3456 -1.1683
 5030SOL    HW226553   0.586   2.453   3.524  0.8884  0.4700  0.4962
 5031SOL     OW26554   2.938   0.845   8.368  1.0232 -0.5344 -0.0371
 5031SOL    HW126555   2.973   0.857   8.280 -0.0032 -1.1305 -0.5145
 5031SOL    HW226556   2.971   0.927   8.405 -0.0991  0.6270 -1.6174
 5032SOL     OW26557   4.197   2.171   9.087 -0.4352  0.2333  0.0099
 5032SOL    HW126558   4.275   2.119   9.068 -0.1103  1.2281 -1.3447
 5032SOL    HW226559   4.142   2.107   9.134  1.4643 -1.0742  0.4622
 5033SOL     OW26560   3.938   1.434   3.985 -0.4493 -0.6885  0.0484
 5033SOL    HW126561   3.967   1.350   3.951  0.8719 -1.1408  2.2491
 5033SOL    HW226562   3.856   1.462   3.943  1.1860  1.1632 -1.8951
 5034SOL     OW26563   3.101   1.549   6.082 -0.1590 -0.1736  0.1723
 5034SOL    HW126564   3.037   1.499   6.133 -0.1822  0.8976  1.2002
 5034SOL    HW226565   3.112   1.616   6.149 -0.1774 -1.3223  1.3298
 5035SOL     OW26566   3.404   2.168   5.941  0.2762  0.2280 -0.3969
 5035SOL    HW126567   3.346   2.092   5.944  0.5678 -0.0030 -0.6359
 5035SOL    HW226568   3.408   2.177   5.846 -2.0319 -2.1534 -0.7125
 5036SOL     OW26569   4.305   0.027  15.835  0.0814 -0.1581  0.6465
 5036SOL    HW126570   4.239   0.096  15.833 -2.7972 -2.9154  0.0820
 5036SOL    HW226571   4.271   4.705  15.760 -1.0897 -0.5231  1.4182
 5037SOL     OW26572   3.564   0.073  14.207  0.2516  0.4852  0.1948
 5037SOL    HW126573   3.609   0.107  14.130 -0.8650  1.0568 -0.2081
 5037SOL    HW226574   3.643   0.036  14.245 -0.9998 -2.2136  0.2053
 5038SOL     OW26575   2.748   3.783   4.826 -0.2139 -0.3243 -0.7570
 5038SOL    HW126576   2.818   3.847   4.819  0.5438 -1.1094 -0.3624
 5038SOL    HW226577   2.771   3.721   4.757 -3.4066 -1.5420 -0.7519
 5039SOL     OW26578   0.950   2.177   3.797 -0.5990 -0.0490 -0.0210
 5039SOL    HW126579   0.982   2.115   3.732  2.9241  0.6592  1.0254
 5039SOL    HW226580   0.864   2.200   3.761 -0.1826  0.1812 -0.8565
 5040SOL     OW26581   3.172   3.999   3.824 -0.0448 -0.0095 -0.2711
 5040SOL    HW126582   3.160   4.042   3.738 -2.9305 -0.8241 -0.2837
 5040SOL    HW226583   3.194   3.909   3.802 -0.0963 -0.1770  0.3945
 5041SOL     OW26584   3.924   4.674   4.019 -1.1065 -0.3055  0.7205
 5041SOL    HW126585   3.855   4.721   3.973 -0.1964 -0.0628 -0.3889
 5041SOL    HW226586   3.899   4.589   3.984  0.4213 -0.3308 -0.3301
 5042SOL     OW26587   1.634   4.335   8.664 -0.0578 -0.2471 -0.1802
 5042SOL    HW126588   1.575   4.298   8.730 -0.2260 -0.5113 -0.4813
 5042SOL    HW226589   1.667   4.419   8.698  0.9990 -1.1393  1.0127
 5043SOL     OW26590   4.034   1.824  10.085  0.0317  0.3325 -0.4136
 5043SOL    HW126591   4.075   1.743  10.115 -1.1678 -0.4605 -0.9079
 5043SOL    HW226592   4.049   1.891  10.152 -1.8404 -0.2811  0.6282
 5044SOL     OW26593   1.246   1.450   8.451  0.5297 -0.6878  0.4842
 5044SOL    HW126594   1.249   1.506   8.374  1.8334 -2.7518 -0.9974
 5044SOL    HW226595   1.203   1.503   8.517  2.8610  1.5733  0.1743
 5045SOL     OW26596   0.365   1.589  11.808  0.0517  0.4851  0.8106
 5045SOL    HW126597   0.348   1.504  11.769 -0.8742  0.7581  0.6103
 5045SOL    HW226598   0.430   1.569  11.875  0.7668 -0.4881 -0.1719
 5046SOL     OW26599   4.323   2.242  14.970  0.1417  0.1003  0.1617
 5046SOL    HW126600   4.401   2.279  14.927 -0.5026  1.1202 -0.1162
 5046SOL    HW226601   4.337   2.275  15.059  2.3931 -2.8365  0.8988
 5047SOL     OW26602   4.687   0.870   3.433  0.1546 -0.0823  0.0802
 5047SOL    HW126603   4.621   0.931   3.399 -2.4485 -1.3202  2.9291
 5047SOL    HW226604   0.019   0.931   3.479 -0.0702 -1.7321  2.4952
 5048SOL     OW26605   1.285   1.687   4.864  0.0098 -0.2110 -0.0820
 5048SOL    HW126606   1.203   1.731   4.887 -0.4058  0.3436 -2.6596
 5048SOL    HW226607   1.249   1.626   4.800 -1.5655 -0.7032  1.2719
 5049SOL     OW26608   3.061   0.291   7.327  0.0631 -0.1707 -0.4910
 5049SOL    HW126609   3.045   0.317   7.236 -0.2798 -1.1152 -0.7058
 5049SOL    HW226610   3.008   0.211   7.333 -0.1283  0.1575  2.1316
 5050SOL     OW26611   0.361   2.865   0.214  0.2609 -0.1222 -0.2772
 5050SOL    HW126612   0.436   2.890   0.268 -0.1171 -0.3584  0.3575
 5050SOL    HW226613   0.399   2.891   0.130 -1.3124  2.2823 -0.2303
 5051SOL     OW26614   4.498   3.195   6.330  0.2207 -0.1722  0.5981
 5051SOL    HW126615   4.491   3.101   6.349 -1.5123 -0.4449 -1.3881
 5051SOL    HW226616   4.591   3.198   6.351  0.3175  0.9826  0.0033
 5052SOL     OW26617   1.291   1.014   3.800  0.6259  0.0111 -0.6462
 5052SOL    HW126618   1.251   0.958   3.733  0.8590 -1.2702  0.2956
 5052SOL    HW226619   1.322   0.949   3.863  2.1261  0.5093 -0.8609
 5053SOL     OW26620   2.301   0.026   7.826 -0.3285  0.5137 -0.5499
 5053SOL    HW126621   2.317   0.121   7.826 -0.1615  0.4822  1.2159
 5053SOL    HW226622   2.206   0.019   7.835 -0.3040 -0.3828 -1.0344
 5054SOL     OW26623   2.018   2.443   5.026  0.3230 -0.0444  0.2464
 5054SOL    HW126624   2.098   2.392   5.015  0.0274 -0.3974 -0.2902
 5054SOL    HW226625   2.019   2.462   5.120 -0.1142  0.5184  0.1385
 5055SOL     OW26626   2.398   0.512   1.691 -0.2474 -0.3391  0.1031
 5055SOL    HW126627   2.433   0.426   1.714 -1.5890 -0.8376  0.2774
 5055SOL    HW226628   2.424   0.514   1.599 -0.3656 -1.9837  0.0371
 5056SOL     OW26629   0.630   3.577  14.787  0.3380 -0.0994 -0.2551
 5056SOL    HW126630   0.585   3.517  14.847 -0.0117  0.3603 -0.0587
 5056SOL    HW226631   0.583   3.660  14.792  2.5541  1.0334  2.1323
 5057SOL     OW26632   3.003   0.599   4.373 -0.4315  0.1204  0.3793
 5057SOL    HW126633   2.962   0.518   4.405  0.4401 -0.0988  0.9335
 5057SOL    HW226634   3.094   0.573   4.385 -0.1881  1.4155  1.2793
 5058SOL     OW26635   4.249   2.941   3.204 -0.2152 -0.1705  0.1081
 5058SOL    HW126636   4.230   2.935   3.110 -0.8955 -2.2455  0.3781
 5058SOL    HW226637   4.243   2.847   3.220 -0.3362  0.2882  2.7188
 5059SOL     OW26638   3.435   0.965  16.526 -0.0136  0.8007  0.4175
 5059SOL    HW126639   3.358   0.952  16.581 -1.0856  2.0561 -0.7930
 5059SOL    HW226640   3.463   0.873  16.530 -0.3242  0.7257  0.9129
 5060SOL     OW26641   3.758   3.614   7.301 -0.7405 -0.1901  0.1862
 5060SOL    HW126642   3.694   3.543   7.312  0.5829 -1.1296  1.7756
 5060SOL    HW226643   3.763   3.650   7.389  4.1634 -1.5287  0.4352
 5061SOL     OW26644   2.808   2.735  14.214  0.3365  0.4771 -0.1407
 5061SOL    HW126645   2.774   2.658  14.260 -2.5828  0.8491 -1.6353
 5061SOL    HW226646   2.860   2.756  14.291  0.9650 -0.5244 -0.2866
 5062SOL     OW26647   3.489   0.956   5.471 -0.3303 -0.0327 -0.0857
 5062SOL    HW126648   3.497   0.873   5.425 -2.0602  0.7426 -1.7853
 5062SOL    HW226649   3.394   0.970   5.468 -0.4200 -1.0701 -1.5622
 5063SOL     OW26650   1.324   3.026  14.232 -0.3940 -0.6803 -0.3423
 5063SOL    HW126651   1.234   3.017  14.199 -0.2255  1.8789 -1.5338
 5063SOL    HW226652   1.335   2.959  14.300  2.6970  0.1468 -0.0433
 5064SOL     OW26653   1.294   4.720   3.336  0.0119  0.1941  0.5814
 5064SOL    HW126654   1.200   4.724   3.354 -0.1229 -1.0597  0.1579
 5064SOL    HW226655   1.286   0.033   3.249  0.4858 -1.8802 -0.3889
 5065SOL     OW26656   2.174   3.198   2.839  0.4424 -0.2807  0.1206
 5065SOL    HW126657   2.168   3.180   2.933 -0.7789  0.7486  0.2326
 5065SOL    HW226658   2.082   3.201   2.813  0.6189  1.7003 -0.2645
 5066SOL     OW26659   2.176   3.034   0.935 -0.2368 -0.3001  0.9046
 5066SOL    HW126660   2.225   2.962   0.894  0.7846  0.3970  0.8950
 5066SOL    HW226661   2.132   3.076   0.861 -0.3885 -0.7708  0.7254
 5067SOL     OW26662   3.923   2.704   3.736  0.1210  0.4943  0.4146
 5067SOL    HW126663   3.829   2.715   3.722  0.0332 -0.5896  0.1338
 5067SOL    HW226664   3.941   2.673   3.647 -1.7255  0.9117 -0.1013
 5068SOL     OW26665   0.732   2.895   7.359  0.0850 -0.1777 -0.1157
 5068SOL    HW126666   0.759   2.818   7.410 -2.3446 -2.0230 -1.6114
 5068SOL    HW226667   0.796   2.894   7.288  0.0912 -0.8108 -0.0966
 5069SOL     OW26668   2.210   0.247   8.513  0.3492 -0.5236 -0.2461
 5069SOL    HW126669   2.137   0.193   8.482 -0.2023  0.7766 -1.2212
 5069SOL    HW226670   2.172   0.300   8.583  1.9619  0.3658 -0.0434
 5070SOL     OW26671   1.524   4.665  13.677 -0.3142 -0.0721  0.6480
 5070SOL    HW126672   1.617   4.651  13.694 -0.4480 -1.8388 -0.0608
 5070SOL    HW226673   1.487   4.585  13.638  1.5134  0.0995 -1.4195
 5071SOL     OW26674   4.275   1.887   3.721  0.1129 -0.0074 -0.0639
 5071SOL    HW126675   4.280   1.816   3.657  1.4388 -0.8708  1.0119
 5071SOL    HW226676   4.368   1.906   3.735 -0.0874  2.0078 -1.4366
 5072SOL     OW26677   0.335   2.505  13.531  0.2389 -0.3590  0.0454
 5072SOL    HW126678   0.255   2.525  13.484  0.9249 -1.1204 -1.4527
 5072SOL    HW226679   0.381   2.457  13.462 -0.3578  0.9160 -1.2500
 5073SOL     OW26680   4.560   4.049   2.897  0.2066  0.1044 -0.1002
 5073SOL    HW126681   4.496   4.055   2.826 -0.8060 -2.0438  0.6314
 5073SOL    HW226682   4.604   4.129   2.871 -1.2717  0.9943  0.1659
 5074SOL     OW26683   2.135   2.021   2.817  0.0146  0.5385 -1.0065
 5074SOL    HW126684   2.152   2.097   2.761  1.7517 -0.0443 -1.2655
 5074SOL    HW226685   2.046   2.045   2.843  0.1368 -1.0680  0.9220
 5075SOL     OW26686   3.758   2.814  12.814  0.5206 -0.3573 -0.4963
 5075SOL    HW126687   3.738   2.850  12.901 -1.0533  0.2017 -1.0874
 5075SOL    HW226688   3.711   2.875  12.757 -1.0600 -1.4147 -0.3366
 5076SOL     OW26689   4.455   3.792   8.030 -0.3162 -0.0076 -0.2157
 5076SOL    HW126690   4.526   3.745   8.074  0.1111  0.0571 -0.8422
 5076SOL    HW226691   4.429   3.845   8.105 -0.0138 -0.5908  0.3045
 5077SOL     OW26692   2.069   1.413   0.987  0.2563 -0.5483  0.4285
 5077SOL    HW126693   2.040   1.407   1.078  1.3973 -2.9918  0.6224
 5077SOL    HW226694   2.095   1.505   0.977  0.7797 -1.1723 -3.7267
 5078SOL     OW26695   4.352   1.864   2.593  0.0729  0.1713  0.3790
 5078SOL    HW126696   4.415   1.876   2.522 -1.9207 -0.2180 -1.4665
 5078SOL    HW226697   4.264   1.854   2.556 -0.3528  2.7797  0.6355
 5079SOL     OW26698   2.891   0.684   2.548 -0.2520 -0.2626  0.2583
 5079SOL    HW126699   2.936   0.669   2.465  0.0351 -0.9506  0.5324
 5079SOL    HW226700   2.893   0.779   2.549  0.1122 -0.2510 -1.0034
 5080SOL     OW26701   4.304   1.302  15.793  0.0438  0.2199  0.3114
 5080SOL    HW126702   4.262   1.328  15.711  0.2244  2.2149  0.8466
 5080SOL    HW226703   4.258   1.359  15.855 -0.0859 -0.3067  0.6975
 5081SOL     OW26704   3.412   3.360   0.593  0.6793 -0.0088 -0.2577
 5081SOL    HW126705   3.332   3.320   0.626  2.8497 -2.5227  1.9509
 5081SOL    HW226706   3.382   3.373   0.503  0.2846 -0.5873 -0.2023
 5082SOL     OW26707   0.156   1.021   3.520 -0.3633  1.2637 -0.0290
 5082SOL    HW126708   0.242   0.989   3.494 -1.0333 -0.5319  0.0022
 5082SOL    HW226709   0.189   1.105   3.554  2.0365  0.8671 -1.3893
 5083SOL     OW26710   2.406   2.140   8.464  0.1012 -0.1412 -0.0485
 5083SOL    HW126711   2.366   2.226   8.446  0.6057 -0.1971 -1.4536
 5083SOL    HW226712   2.454   2.168   8.542 -0.9768 -0.7022  0.8278
 5084SOL     OW26713   2.068   1.264  15.124 -0.2642  0.0608  0.1974
 5084SOL    HW126714   1.976   1.259  15.096 -0.5045  0.7688  0.8633
 5084SOL    HW226715   2.103   1.295  15.040  1.0883  1.3656  1.2515
 5085SOL     OW26716   1.191   1.495   3.699  0.2119 -0.2361 -0.7577
 5085SOL    HW126717   1.145   1.412   3.690  0.0291 -0.2116 -0.0370
 5085SOL    HW226718   1.137   1.551   3.755  0.1057  0.3157 -1.4068
 5086SOL     OW26719   0.699   0.215   3.093 -0.3605  0.1938  0.6010
 5086SOL    HW126720   0.759   0.191   3.021 -0.1583 -0.0072  0.8353
 5086SOL    HW226721   0.618   0.205   3.044 -0.5346 -0.1086  0.9529
 5087SOL     OW26722   0.950   0.034   2.662  0.3269 -0.0457  0.6107
 5087SOL    HW126723   1.039   0.001   2.648  1.1073  3.2325 -2.0477
 5087SOL    HW226724   0.907   4.687   2.705 -3.0363  0.6766 -1.5047
 5088SOL     OW26725   2.459   3.801   5.128 -0.1361  0.0864  0.2648
 5088SOL    HW126726   2.520   3.869   5.155  0.1180  0.2917 -0.8157
 5088SOL    HW226727   2.526   3.734   5.112  2.3908  2.4054  1.2090
 5089SOL     OW26728   1.095   1.605   8.654 -1.1027 -0.2849 -0.4986
 5089SOL    HW126729   1.093   1.681   8.595  2.6172 -0.8023 -1.3249
 5089SOL    HW226730   1.073   1.646   8.737 -1.2221 -1.1305 -0.1217
 5090SOL     OW26731   3.461   2.166   5.685 -0.3100  0.3035 -0.2562
 5090SOL    HW126732   3.518   2.090   5.701  0.1413  0.5406 -0.7459
 5090SOL    HW226733   3.395   2.125   5.630  0.5032  1.8533 -2.3469
 5091SOL     OW26734   2.649   3.377   1.242  0.6159 -0.2683  0.4529
 5091SOL    HW126735   2.605   3.323   1.308  0.5984  0.9197  1.3988
 5091SOL    HW226736   2.657   3.312   1.171  0.2651  0.8468 -0.6027
 5092SOL     OW26737   2.327   0.445   1.018  0.2006 -0.1871  0.0180
 5092SOL    HW126738   2.255   0.382   1.009  1.1975 -1.0999 -1.4342
 5092SOL    HW226739   2.375   0.404   1.090  1.8773  1.0990 -0.3810
 5093SOL     OW26740   2.823   1.443   6.693  0.1084  0.6582 -0.7253
 5093SOL    HW126741   2.790   1.532   6.691 -1.0652  0.2394 -0.3681
 5093SOL    HW226742   2.849   1.428   6.602 -0.8620 -2.0614 -0.5714
 5094SOL     OW26743   2.103   0.205   7.581 -0.4908  0.2049  0.7661
 5094SOL    HW126744   2.137   0.216   7.670 -1.8053 -1.3473  1.4747
 5094SOL    HW226745   2.149   0.127   7.551  0.1648  1.5489 -1.6967
 5095SOL     OW26746   4.349   3.850  17.483  0.5360 -0.0093  0.3477
 5095SOL    HW126747   4.411   3.815  17.418 -4.0185 -1.6294 -3.1271
 5095SOL    HW226748   4.418   3.879  17.543 -1.2366  1.9664  1.4207
 5096SOL     OW26749   2.634   4.048   8.251  0.4149  0.4392  0.2452
 5096SOL    HW126750   2.557   4.064   8.197 -0.3946 -1.9104  0.7185
 5096SOL    HW226751   2.645   4.128   8.302  3.2355  0.6540 -0.6903
 5097SOL     OW26752   2.569   0.109  10.900 -0.4175 -0.0476 -0.0493
 5097SOL    HW126753   2.636   0.044  10.920 -1.4174 -0.7796  0.9688
 5097SOL    HW226754   2.590   0.163  10.976 -1.0674 -0.8979  0.7416
 5098SOL     OW26755   1.759   4.694   0.861  0.3481 -0.8683  0.2731
 5098SOL    HW126756   1.774   4.721   0.951 -0.2300 -0.6531  0.3029
 5098SOL    HW226757   1.664   4.690   0.861  0.3543 -1.1241 -0.7502
 5099SOL     OW26758   2.465   3.791  14.338 -0.3305  0.1386 -0.5876
 5099SOL    HW126759   2.536   3.830  14.287  1.7981 -0.8140  1.6730
 5099SOL    HW226760   2.446   3.704  14.304 -1.6478  0.2234 -0.0635
 5100SOL     OW26761   2.723   1.771  15.814 -0.6155 -0.2578 -0.6335
 5100SOL    HW126762   2.815   1.742  15.817 -1.0414 -1.5330  0.0537
 5100SOL    HW226763   2.695   1.711  15.744  1.1126 -0.8449 -0.8329
 5101SOL     OW26764   2.915   2.562   7.895  0.1370 -0.1304 -0.6947
 5101SOL    HW126765   2.913   2.613   7.814 -0.9465 -0.5488 -0.9288
 5101SOL    HW226766   2.912   2.634   7.958 -0.6277 -1.3761  0.6849
 5102SOL     OW26767   1.068   3.627   5.595 -0.1531 -0.0126  0.0786
 5102SOL    HW126768   1.059   3.620   5.500  1.0496  2.0396 -0.1974
 5102SOL    HW226769   1.081   3.722   5.593 -0.5154  0.0724  2.5946
 5103SOL     OW26770   1.124   2.986  12.753  0.3758  0.3691 -0.3339
 5103SOL    HW126771   1.205   2.938  12.771  0.9397  1.3916 -0.1492
 5103SOL    HW226772   1.161   3.073  12.738  0.4731  0.8936  2.8559
 5104SOL     OW26773   0.808   2.135  17.581  0.3336 -0.3942 -0.6527
 5104SOL    HW126774   0.746   2.199  17.545  0.5179  0.5006  0.6476
 5104SOL    HW226775   0.898   2.162  17.560  0.2122 -0.8054 -1.7219
 5105SOL     OW26776   2.480   4.044   6.658  0.4279  0.1491 -0.5599
 5105SOL    HW126777   2.427   3.974   6.619  1.0292 -1.4490  1.5555
 5105SOL    HW226778   2.524   4.067   6.576 -1.4300 -1.6707 -2.0729
 5106SOL     OW26779   3.043   2.722  11.642  0.3039  0.2930  0.7773
 5106SOL    HW126780   3.061   2.796  11.583  1.1004  0.5623  1.3686
 5106SOL    HW226781   2.959   2.747  11.683 -0.6276 -0.4766 -0.6598
 5107SOL     OW26782   2.077   3.558   7.211 -0.1516 -0.1676 -0.2054
 5107SOL    HW126783   1.984   3.533   7.215 -0.0087 -0.5110  1.0824
 5107SOL    HW226784   2.114   3.473   7.188 -0.6294 -0.4720  0.1616
 5108SOL     OW26785   3.298   3.326  14.320 -0.2603  0.0942 -0.1578
 5108SOL    HW126786   3.268   3.242  14.286  0.0168  0.5093 -1.4201
 5108SOL    HW226787   3.286   3.331  14.415  0.4985  1.7530 -0.1370
 5109SOL     OW26788   4.500   2.236  11.265  0.0300  0.2267 -0.2330
 5109SOL    HW126789   4.577   2.180  11.264  0.4283  0.7706  0.0458
 5109SOL    HW226790   4.494   2.252  11.359 -0.7599  2.3902 -0.6532
 5110SOL     OW26791   2.367   1.433   8.013 -0.1346  0.3120  0.1696
 5110SOL    HW126792   2.434   1.483   8.059  1.7999 -2.1971  0.0570
 5110SOL    HW226793   2.412   1.349   8.001  1.1267  0.9613  0.3776
 5111SOL     OW26794   1.618   1.508   8.649  0.3908 -0.7925  0.2160
 5111SOL    HW126795   1.551   1.450   8.684 -0.3530  0.6322  1.1534
 5111SOL    HW226796   1.572   1.560   8.583 -1.3010 -0.5326  1.6049
 5112SOL     OW26797   0.268   2.665   5.084 -0.4034 -0.2764  0.6043
 5112SOL    HW126798   0.212   2.633   5.154 -0.8929  1.3807  0.9862
 5112SOL    HW226799   0.200   2.689   5.020 -0.2235 -1.0786  0.1219
 5113SOL     OW26800   0.039   1.326   3.784 -0.4394 -0.1539 -0.1974
 5113SOL    HW126801   0.105   1.341   3.851 -1.4913 -0.3354  0.8791
 5113SOL    HW226802   4.706   1.260   3.820  1.1078 -1.1067  0.5772
 5114SOL     OW26803   4.440   2.342   1.861  0.4560  0.4446  0.0038
 5114SOL    HW126804   4.352   2.312   1.836  0.3615  1.3452 -0.7392
 5114SOL    HW226805   4.437   2.417   1.802 -0.0805  0.6269  0.2636
 5115SOL     OW26806   1.879   2.653   3.809  0.0216 -0.5837  0.0212
 5115SOL    HW126807   1.823   2.581   3.782 -0.3796  0.2963 -1.5100
 5115SOL    HW226808   1.838   2.688   3.889 -0.0056 -0.8826  0.1379
 5116SOL     OW26809   3.693   4.100   5.777  0.0764  0.0702  0.5232
 5116SOL    HW126810   3.681   4.106   5.872  3.0569 -0.6930  0.9506
 5116SOL    HW226811   3.713   4.007   5.760  0.8989  0.5054 -0.8871
 5117SOL     OW26812   2.960   3.275   3.171  0.1543  0.0135 -0.1071
 5117SOL    HW126813   2.948   3.253   3.263 -2.9273 -2.1315 -1.0323
 5117SOL    HW226814   3.054   3.257   3.157 -0.2424 -2.2013  0.0510
 5118SOL     OW26815   1.606   1.879  10.693 -0.1633 -0.7036 -0.1502
 5118SOL    HW126816   1.605   1.804  10.752  2.8233 -0.1611  0.5621
 5118SOL    HW226817   1.527   1.926  10.720  0.8645  1.2993 -0.6461
 5119SOL     OW26818   3.517   1.333   8.204  0.2576 -0.3814 -0.1832
 5119SOL    HW126819   3.556   1.282   8.275  1.1672  2.1617  1.1306
 5119SOL    HW226820   3.549   1.292   8.123 -0.8882 -0.4445 -0.6105
 5120SOL     OW26821   3.965   2.815   1.179  0.6729  0.1827  0.2969
 5120SOL    HW126822   4.012   2.810   1.096 -2.3936 -0.9491 -1.3661
 5120SOL    HW226823   3.893   2.758   1.152 -2.6102  4.5930 -0.2725
 5121SOL     OW26824   0.276   2.808   8.255  0.0881  0.0551  0.0486
 5121SOL    HW126825   0.245   2.740   8.315  2.3566 -0.1251  0.9994
 5121SOL    HW226826   0.275   2.890   8.304  1.2576  1.3407 -2.0472
 5122SOL     OW26827   2.058   1.989   4.030  0.1445 -0.3885 -0.0543
 5122SOL    HW126828   2.152   2.006   4.026  0.2335 -1.2508 -1.5107
 5122SOL    HW226829   2.047   2.025   4.118 -0.1368 -1.0442  0.1788
 5123SOL     OW26830   0.144   2.991   5.269 -0.2179 -0.4505  0.1611
 5123SOL    HW126831   0.092   2.923   5.227  1.0125 -0.1416 -1.8656
 5123SOL    HW226832   0.204   3.008   5.197  0.6096 -0.5091  0.8356
 5124SOL     OW26833   0.278   3.642   7.608  0.4518  0.0708  0.2019
 5124SOL    HW126834   0.327   3.720   7.633  1.5986 -0.6692  0.2181
 5124SOL    HW226835   0.319   3.575   7.661 -0.6235 -0.6005  0.1956
 5125SOL     OW26836   4.530   2.355  13.206 -0.0303  0.5426 -0.1664
 5125SOL    HW126837   4.474   2.419  13.162 -1.0226 -1.8330 -2.3624
 5125SOL    HW226838   4.471   2.326  13.275  1.4184  1.0126  1.2425
 5126SOL     OW26839   4.531   0.214  11.448  0.7258  0.3842  0.1609
 5126SOL    HW126840   4.540   0.156  11.524  0.9179  2.0234  1.3757
 5126SOL    HW226841   4.479   0.156  11.392  1.6730 -0.0750 -0.2457
 5127SOL     OW26842   3.260   1.067   2.276 -0.0725  0.1576  0.3978
 5127SOL    HW126843   3.279   1.018   2.356 -2.1770 -1.0823  0.1316
 5127SOL    HW226844   3.165   1.077   2.268 -0.3113 -2.0330  0.4904
 5128SOL     OW26845   0.979   3.382  15.242  0.2430 -0.2485 -0.2238
 5128SOL    HW126846   1.001   3.321  15.312  1.9865  0.8219  0.1485
 5128SOL    HW226847   0.922   3.442  15.291  0.8537 -0.8375  1.2122
 5129SOL     OW26848   0.042   3.847   6.877  0.6640 -0.3428  0.3029
 5129SOL    HW126849   4.679   3.812   6.878  0.7120 -0.4583  0.7624
 5129SOL    HW226850   0.029   3.929   6.925  0.5674 -0.5391  0.6087
 5130SOL     OW26851   1.040   2.262   2.741  0.2462 -0.6299 -0.4229
 5130SOL    HW126852   1.001   2.300   2.820  0.1657  0.5178 -1.0175
 5130SOL    HW226853   0.972   2.197   2.726  2.5839 -2.6612 -2.2086
 5131SOL     OW26854   0.864   2.210   8.141  0.1346 -0.1199 -0.2361
 5131SOL    HW126855   0.939   2.266   8.160  1.5716 -1.4796 -1.9416
 5131SOL    HW226856   0.825   2.260   8.070 -1.4658 -1.3567 -0.2229
 5132SOL     OW26857   4.202   1.392   7.104 -0.6729 -0.4582  0.1233
 5132SOL    HW126858   4.286   1.410   7.064 -0.7766  0.5024  0.3258
 5132SOL    HW226859   4.220   1.315   7.158  1.0757 -1.0622 -1.3446
 5133SOL     OW26860   3.349   3.041   8.111 -0.0369 -0.5527  0.2236
 5133SOL    HW126861   3.431   3.025   8.064  1.2313  0.5041  2.1163
 5133SOL    HW226862   3.287   3.021   8.040  0.9360 -1.4885 -0.3699
 5134SOL     OW26863   4.690   2.157   8.704 -0.0768  0.0808 -0.0522
 5134SOL    HW126864   4.645   2.203   8.775 -1.1736 -0.3825 -0.4466
 5134SOL    HW226865   0.051   2.194   8.712 -0.0194 -0.0686  0.0216
 5135SOL     OW26866   1.146   2.417   2.206  0.0463  0.4075  0.3769
 5135SOL    HW126867   1.053   2.426   2.186  0.3505 -2.1539 -2.1929
 5135SOL    HW226868   1.192   2.435   2.124  0.5699  0.7880  0.7575
 5136SOL     OW26869   1.081   3.113  14.371  0.1226  0.3240  0.4205
 5136SOL    HW126870   1.041   3.065  14.443 -0.2566 -0.1917 -0.1339
 5136SOL    HW226871   1.058   3.046  14.307 -0.6407  1.4980 -0.5330
 5137SOL     OW26872   2.041   2.793   4.984  0.6551 -0.1690 -0.5388
 5137SOL    HW126873   2.056   2.700   4.970  0.3451 -0.4369  1.0157
 5137SOL    HW226874   2.132   2.821   4.977  0.2664  0.5733 -2.8303
 5138SOL     OW26875   4.032   0.272   6.163 -0.0487 -0.3178  0.1304
 5138SOL    HW126876   3.946   0.305   6.191  1.1472  1.9238  1.0988
 5138SOL    HW226877   4.050   0.202   6.227  1.9125  0.1722  0.0949
 5139SOL     OW26878   4.707   0.044  11.931 -0.5271 -0.0985 -0.7206
 5139SOL    HW126879   4.646   0.115  11.950 -0.0135 -0.2166  1.3551
 5139SOL    HW226880   0.014   0.060  11.842  2.3143 -0.4049  0.2983
 5140SOL     OW26881   0.560   0.469   4.244 -0.1096  0.1570 -0.0319
 5140SOL    HW126882   0.654   0.452   4.240 -0.6529 -2.9750  0.6235
 5140SOL    HW226883   0.524   0.401   4.187 -0.3392  0.9719 -0.8529
 5141SOL     OW26884   2.789   4.188  10.119 -0.1711 -0.5267 -0.4269
 5141SOL    HW126885   2.737   4.261  10.154  0.2640 -0.0376 -0.8098
 5141SOL    HW226886   2.733   4.147  10.052 -2.3531 -0.3630  1.2824
 5142SOL     OW26887   1.218   1.142  17.371  0.0620 -0.8576  0.4467
 5142SOL    HW126888   1.249   1.180  17.453  4.2058  1.4319 -2.1810
 5142SOL    HW226889   1.192   1.058  17.408  0.1563 -0.9349  0.3387
 5143SOL     OW26890   1.079   3.137   0.706 -0.5352 -0.6507  0.3661
 5143SOL    HW126891   1.024   3.188   0.647 -0.1650  0.2328  0.7753
 5143SOL    HW226892   1.148   3.114   0.644 -0.6950 -0.2143  0.0275
 5144SOL     OW26893   1.811   3.653   6.358 -0.2183  0.5055 -0.6468
 5144SOL    HW126894   1.823   3.678   6.266 -0.1066 -1.7789 -1.2352
 5144SOL    HW226895   1.866   3.720   6.398  0.5059  1.2473 -2.8749
 5145SOL     OW26896   4.273   3.362   6.150  0.9370  0.2739 -0.7738
 5145SOL    HW126897   4.342   3.297   6.166 -1.3829 -2.5033 -1.8804
 5145SOL    HW226898   4.213   3.320   6.088  2.0829 -0.9772 -1.0503
 5146SOL     OW26899   0.509   1.150   3.392 -0.3450  0.0402  0.0324
 5146SOL    HW126900   0.579   1.192   3.342  1.0765 -0.5753  1.4941
 5146SOL    HW226901   0.502   1.074   3.335  0.5467  0.9333 -1.2527
 5147SOL     OW26902   2.214   1.589   5.143  0.1471  0.7533  0.4775
 5147SOL    HW126903   2.131   1.552   5.172  0.9152 -1.1778  0.2150
 5147SOL    HW226904   2.238   1.624   5.229  1.7613  0.4578  0.1493
 5148SOL     OW26905   3.161   0.859   5.218  0.4493  0.0357 -0.1490
 5148SOL    HW126906   3.231   0.864   5.153 -0.5069  1.5301 -1.0858
 5148SOL    HW226907   3.090   0.851   5.154  0.8158 -1.3209 -0.3795
 5149SOL     OW26908   1.668   1.272   3.147 -0.4726 -0.0903 -0.6103
 5149SOL    HW126909   1.659   1.204   3.214  0.7437  1.8215  1.4917
 5149SOL    HW226910   1.605   1.241   3.082  0.0854 -1.4446 -0.5099
 5150SOL     OW26911   4.099   0.589   0.339 -0.2293  0.0008  0.1677
 5150SOL    HW126912   4.017   0.546   0.362 -0.2724  0.6238  1.1970
 5150SOL    HW226913   4.125   0.618   0.427  0.5289 -1.8518  0.5391
 5151SOL     OW26914   3.651   3.142  14.956  0.0008 -0.1137 -0.0259
 5151SOL    HW126915   3.728   3.170  14.906  0.0486 -1.7641 -0.9127
 5151SOL    HW226916   3.581   3.191  14.913 -0.6189 -1.1070 -0.1508
 5152SOL     OW26917   1.838   1.967  10.614  0.0870  0.6304  0.6703
 5152SOL    HW126918   1.764   1.908  10.627  0.1900  0.6252  1.2369
 5152SOL    HW226919   1.792   2.044  10.647 -0.2192  1.0247 -0.6840
 5153SOL     OW26920   1.324   2.288   9.203 -0.1606  0.1106 -0.4401
 5153SOL    HW126921   1.322   2.353   9.132  0.7431  0.4829 -0.1329
 5153SOL    HW226922   1.253   2.313   9.262  0.1594  0.5804 -0.2525
 5154SOL     OW26923   3.194   2.994   7.084  0.3054  0.4749 -0.5701
 5154SOL    HW126924   3.255   2.937   7.130 -0.1709  0.6774  0.3137
 5154SOL    HW226925   3.148   3.037   7.156 -0.2159 -0.3010 -0.4315
 5155SOL     OW26926   0.391   4.337   7.488  0.1748  0.3109  0.3392
 5155SOL    HW126927   0.306   4.307   7.520  0.5965 -0.7058  0.4850
 5155SOL    HW226928   0.365   4.393   7.414 -1.7951 -1.4090 -0.2735
 5156SOL     OW26929   2.398   2.273   2.299 -0.0199  0.0830 -0.0106
 5156SOL    HW126930   2.396   2.363   2.268 -0.0287 -0.0015 -0.2567
 5156SOL    HW226931   2.419   2.229   2.216  1.9925 -2.0691  1.6630
 5157SOL     OW26932   3.151   3.363   9.286 -0.3905  0.7351  0.8700
 5157SOL    HW126933   3.094   3.416   9.231  0.8066  0.2258 -0.8464
 5157SOL    HW226934   3.118   3.280   9.250 -3.1170  2.4222 -0.4817
 5158SOL     OW26935   3.142   1.812  17.197  0.4773  0.1742 -0.2752
 5158SOL    HW126936   3.209   1.754  17.161 -0.8316 -2.6191  1.7616
 5158SOL    HW226937   3.164   1.794  17.289 -0.6854 -1.0015 -0.2153
 5159SOL     OW26938   3.570   2.703   6.829 -0.3451  0.5233 -0.4011
 5159SOL    HW126939   3.617   2.787   6.826 -0.6790  0.6110 -2.7558
 5159SOL    HW226940   3.523   2.698   6.746  0.2395  0.8442 -0.7519
 5160SOL     OW26941   3.235   3.109   3.537 -0.0845  0.2265 -0.7597
 5160SOL    HW126942   3.256   3.189   3.490 -2.3857 -0.1208 -2.3861
 5160SOL    HW226943   3.186   3.055   3.474 -0.1574 -0.8334  0.1904
 5161SOL     OW26944   4.030   3.002   4.741  0.3597 -0.1748 -0.0210
 5161SOL    HW126945   3.992   2.917   4.765  0.2682  0.0805  0.7403
 5161SOL    HW226946   3.957   3.056   4.711  0.3982  2.4584  4.5833
 5162SOL     OW26947   4.351   3.639  14.401 -0.2487  0.0949  0.1418
 5162SOL    HW126948   4.283   3.668  14.463 -0.6216  0.8552 -0.6189
 5162SOL    HW226949   4.344   3.549  14.434 -0.4944  0.6973  1.7540
 5163SOL     OW26950   0.415   3.913  12.204 -0.3125  0.6118  0.1974
 5163SOL    HW126951   0.498   3.944  12.239  0.8708 -3.0180  0.5931
 5163SOL    HW226952   0.354   3.952  12.266 -1.0917 -0.5790  0.1776
 5164SOL     OW26953   0.404   3.387  13.814 -0.1334 -0.2469 -0.0613
 5164SOL    HW126954   0.351   3.429  13.746  2.4698  0.4101 -1.7176
 5164SOL    HW226955   0.491   3.425  13.799 -0.7497  1.3796  0.4730
 5165SOL     OW26956   1.227   1.476  10.325 -0.3460 -0.2073 -0.5524
 5165SOL    HW126957   1.197   1.481  10.416  1.1615  1.8146 -0.1644
 5165SOL    HW226958   1.320   1.497  10.330 -0.7472  1.5171 -0.0827
 5166SOL     OW26959   0.513   1.316   0.251  0.3773  0.2138  0.0460
 5166SOL    HW126960   0.480   1.380   0.313 -2.7414  2.0320 -3.5087
 5166SOL    HW226961   0.439   1.281   0.202  0.2554 -0.4780  0.7389
 5167SOL     OW26962   3.692   4.294   2.415  0.7061 -0.1286 -0.6175
 5167SOL    HW126963   3.694   4.343   2.498  0.9116 -1.7444  0.3504
 5167SOL    HW226964   3.780   4.255   2.421  0.4271 -0.6642 -0.0006
 5168SOL     OW26965   3.782   0.103   8.040  0.5410 -0.1717  0.4733
 5168SOL    HW126966   3.759   0.187   8.000  1.2854  0.2977  1.0167
 5168SOL    HW226967   3.775   0.047   7.963 -1.6497  0.5831  0.1248
 5169SOL     OW26968   1.946   2.456  17.133 -0.4789  0.0014 -0.3935
 5169SOL    HW126969   1.915   2.366  17.118 -0.1407 -0.0394 -0.8296
 5169SOL    HW226970   1.994   2.473  17.052  1.3063  2.3079  1.1624
 5170SOL     OW26971   2.937   3.645   4.081 -0.1949  0.2735 -0.2418
 5170SOL    HW126972   2.993   3.601   4.017 -0.0967 -0.0193  0.0430
 5170SOL    HW226973   2.946   3.739   4.062  1.8091  0.0720 -0.2895
 5171SOL     OW26974   1.902   3.668  14.050 -0.1599  0.5701  0.1205
 5171SOL    HW126975   1.955   3.626  14.119 -0.8791  0.8461  0.8397
 5171SOL    HW226976   1.839   3.702  14.113 -1.4294  1.2821 -1.5390
 5172SOL     OW26977   2.048   0.178   4.218  0.1788  0.1236  0.0401
 5172SOL    HW126978   1.961   0.190   4.256 -0.5102 -0.3725 -1.3780
 5172SOL    HW226979   2.066   0.265   4.184 -0.8991 -0.0452 -0.9436
 5173SOL     OW26980   1.509   2.979   8.433  0.0535  0.6390  0.7136
 5173SOL    HW126981   1.596   3.006   8.403 -0.9783 -0.7074 -3.5231
 5173SOL    HW226982   1.533   2.941   8.517  0.6338  1.3761  0.8808
 5174SOL     OW26983   2.731   2.336  13.573 -0.2017  0.2038  0.7090
 5174SOL    HW126984   2.817   2.347  13.613  0.1562 -0.4986  0.1460
 5174SOL    HW226985   2.751   2.287  13.492  0.4959  0.4405  0.7411
 5175SOL     OW26986   2.669   4.469   7.890  0.5764  0.2331  0.1308
 5175SOL    HW126987   2.759   4.493   7.869  0.4211  1.2833  0.6603
 5175SOL    HW226988   2.613   4.518   7.829  1.3648  1.1334  0.1113
 5176SOL     OW26989   4.445   0.226  16.885  0.2916 -0.3743 -0.3036
 5176SOL    HW126990   4.521   0.284  16.883 -0.1638  0.2288 -0.1499
 5176SOL    HW226991   4.399   0.264  16.959  0.4650 -1.3330  0.2979
 5177SOL     OW26992   1.945   0.279   9.863 -0.1320  0.5182 -0.0444
 5177SOL    HW126993   1.965   0.353   9.920  2.1133 -0.2298  0.1459
 5177SOL    HW226994   1.849   0.281   9.868 -0.0347 -0.5642  2.2984
 5178SOL     OW26995   0.100   0.580   2.038  0.2262  0.3210  0.3403
 5178SOL    HW126996   0.032   0.548   2.097 -0.6664 -0.8568 -1.3612
 5178SOL    HW226997   0.118   0.664   2.080 -0.4892 -0.7600  2.8110
 5179SOL     OW26998   4.291   2.647   3.048 -0.0319  0.6067 -0.3982
 5179SOL    HW126999   4.304   2.591   2.972 -1.0652 -0.0865 -0.0633
 5179SOL    HW227000   4.339   2.717   3.005  1.6361 -0.6801 -0.6572
 5180SOL     OW27001   3.450   1.900  15.851  0.0597  0.0079  0.0941
 5180SOL    HW127002   3.505   1.979  15.847 -0.8367  0.6215 -0.0524
 5180SOL    HW227003   3.481   1.841  15.782  1.6115 -0.9370  1.6230
 5181SOL     OW27004   2.918   0.958   5.693 -0.0650  0.4249  0.2117
 5181SOL    HW127005   2.965   0.874   5.693  1.4258  1.2622  2.2782
 5181SOL    HW227006   2.832   0.943   5.653 -0.2312  0.5604  0.5223
 5182SOL     OW27007   3.422   0.907   3.672  0.2584 -0.4100  0.1570
 5182SOL    HW127008   3.395   0.991   3.708 -2.2160  0.5293 -3.9732
 5182SOL    HW227009   3.414   0.854   3.752  0.7661  0.2384  0.6348
 5183SOL     OW27010   3.105   2.970  13.520  0.3361 -0.2230  0.3375
 5183SOL    HW127011   3.035   3.036  13.518 -0.2409 -0.8820 -1.0960
 5183SOL    HW227012   3.060   2.895  13.559 -2.0158  2.0671  2.0689
 5184SOL     OW27013   2.829   2.573   4.797  0.1327 -0.3523 -0.0440
 5184SOL    HW127014   2.879   2.651   4.773  1.7375 -1.5951 -0.7025
 5184SOL    HW227015   2.890   2.516   4.844 -1.7284 -1.6360  0.8009
 5185SOL     OW27016   4.545   3.932   2.224 -0.4609  0.2800  0.0093
 5185SOL    HW127017   4.473   3.983   2.186 -0.5554 -0.6964 -1.1212
 5185SOL    HW227018   4.521   3.925   2.317 -1.2080  1.8834 -0.0563
 5186SOL     OW27019   3.765   2.832   5.178 -0.1452 -0.0742 -0.2846
 5186SOL    HW127020   3.858   2.841   5.156 -0.6041  3.3539 -0.9624
 5186SOL    HW227021   3.726   2.920   5.182 -0.5671 -0.3004  0.5754
 5187SOL     OW27022   0.225   3.915  12.468  0.0769 -0.0223  0.8919
 5187SOL    HW127023   0.145   3.869  12.490  0.1567 -1.4488 -1.7875
 5187SOL    HW227024   0.201   3.976  12.398  1.5931  0.0165  0.3876
 5188SOL     OW27025   2.666   2.167   7.830  0.1231 -0.6341 -1.1383
 5188SOL    HW127026   2.736   2.219   7.869  1.7285 -2.5473 -1.4266
 5188SOL    HW227027   2.719   2.091   7.804  0.1333 -1.1575  0.4144
 5189SOL     OW27028   0.085   2.197   5.197  0.0538 -0.1122 -0.3341
 5189SOL    HW127029   0.159   2.135   5.198  1.8962  2.0944  0.4547
 5189SOL    HW227030   0.078   2.209   5.102  4.3166  0.0927 -0.6424
 5190SOL     OW27031   0.504   2.867   8.107 -0.3798  0.1804  0.0513
 5190SOL    HW127032   0.432   2.838   8.163 -1.3734  1.3028 -0.6652
 5190SOL    HW227033   0.486   2.960   8.102  0.2457  0.2106 -1.6963
 5191SOL     OW27034   2.774   4.155   8.608  0.1440 -0.4545  0.0825
 5191SOL    HW127035   2.789   4.067   8.575 -2.8605 -1.4191  1.3742
 5191SOL    HW227036   2.784   4.202   8.525 -0.5717  1.8971  1.3409
 5192SOL     OW27037   0.889   3.309   6.880 -0.2222  0.2204 -0.2836
 5192SOL    HW127038   0.850   3.225   6.856 -1.8576  0.2692  2.2472
 5192SOL    HW227039   0.834   3.365   6.825  0.1696 -0.4800 -1.3935
 5193SOL     OW27040   1.560   2.227  13.228 -0.0497 -0.3890  0.2567
 5193SOL    HW127041   1.560   2.196  13.137  0.0194 -0.1264  0.1695
 5193SOL    HW227042   1.540   2.144  13.272  0.3972 -0.8741 -0.4584
 5194SOL     OW27043   2.602   4.329   2.913 -0.0874 -0.1699 -0.2072
 5194SOL    HW127044   2.689   4.336   2.873 -0.3064 -0.4818 -0.7397
 5194SOL    HW227045   2.557   4.274   2.848  3.1923 -0.9661 -1.8148
 5195SOL     OW27046   2.920   3.299   0.508 -0.4719  0.2313 -0.2670
 5195SOL    HW127047   2.846   3.239   0.504 -1.2137  1.1690 -0.4488
 5195SOL    HW227048   2.922   3.333   0.597 -1.3273 -2.2204  0.7010
 5196SOL     OW27049   1.824   0.979   7.210  0.2468 -0.1518  0.0056
 5196SOL    HW127050   1.757   0.929   7.162 -0.5126  0.8614  0.0127
 5196SOL    HW227051   1.789   0.974   7.299 -2.1564  0.2554 -0.9095
 5197SOL     OW27052   0.491   0.959   7.793 -0.0084  0.6298  0.0204
 5197SOL    HW127053   0.421   0.895   7.784 -1.2501  1.6652  2.2011
 5197SOL    HW227054   0.434   1.020   7.840 -0.2201 -0.0860  0.6806
 5198SOL     OW27055   2.370   2.728  16.281 -0.2810 -0.0532  0.2190
 5198SOL    HW127056   2.452   2.726  16.232  0.6334 -0.1727  1.7341
 5198SOL    HW227057   2.402   2.730  16.371 -0.9330  5.7830  0.3337
 5199SOL     OW27058   1.243   3.261   6.850 -0.2757  0.2424 -0.2430
 5199SOL    HW127059   1.325   3.216   6.867 -0.6741 -0.6907 -0.8315
 5199SOL    HW227060   1.234   3.242   6.757 -0.5064 -0.4054 -0.0840
 5200SOL     OW27061   1.508   2.371   5.585 -0.1182  0.3665 -0.0831
 5200SOL    HW127062   1.573   2.354   5.653  0.3980  0.6239 -0.5033
 5200SOL    HW227063   1.555   2.317   5.521 -0.7892  0.9517 -1.0653
 5201SOL     OW27064   3.739   1.132  17.570  0.2209 -0.4398  0.4036
 5201SOL    HW127065   3.791   1.096  17.498  1.6308 -1.0262  1.7204
 5201SOL    HW227066   3.656   1.084  17.567 -1.0886  1.9639 -1.7034
 5202SOL     OW27067   3.975   3.103   1.788 -0.3465  0.0839  0.3390
 5202SOL    HW127068   4.022   3.033   1.743  0.9675 -0.6044  2.7381
 5202SOL    HW227069   3.888   3.085   1.753 -0.4475  1.1136  0.0612
 5203SOL     OW27070   3.503   4.192   8.130  0.1457 -0.7610  0.1531
 5203SOL    HW127071   3.550   4.167   8.210 -0.3510 -1.5370  0.2078
 5203SOL    HW227072   3.573   4.197   8.065  0.0513  1.8762  0.2725
 5204SOL     OW27073   3.641   1.308   1.951  0.3637 -0.7900  0.2482
 5204SOL    HW127074   3.697   1.295   2.028  1.0300 -0.1744 -0.1321
 5204SOL    HW227075   3.695   1.269   1.882  1.0096  2.2059 -0.9374
 5205SOL     OW27076   2.046   3.804   2.495  0.1171 -0.5315 -0.7170
 5205SOL    HW127077   2.132   3.813   2.536 -0.6528 -0.0719  0.8010
 5205SOL    HW227078   2.030   3.898   2.481 -1.1651 -0.5365  0.6977
 5206SOL     OW27079   2.357   1.557   7.221 -0.0144 -0.2320  0.0720
 5206SOL    HW127080   2.437   1.585   7.264  0.8143 -0.2751 -1.4407
 5206SOL    HW227081   2.388   1.489   7.162 -1.4323 -1.5757  0.8882
 5207SOL     OW27082   1.278   3.546   3.952 -0.2138 -0.5956 -0.1689
 5207SOL    HW127083   1.341   3.475   3.964 -0.8588 -0.9061  1.3606
 5207SOL    HW227084   1.321   3.614   4.004 -0.9164 -0.5451  0.3468
 5208SOL     OW27085   4.609   1.229  14.335 -0.0099  0.8081  0.3316
 5208SOL    HW127086   4.604   1.167  14.263 -0.4299 -0.9894  1.9191
 5208SOL    HW227087   4.661   1.179  14.398 -1.3836  1.6471  2.1361
 5209SOL     OW27088   4.377   3.620  14.052 -0.8314 -0.2478 -0.0187
 5209SOL    HW127089   4.439   3.552  14.079 -0.3613  0.4233  0.5733
 5209SOL    HW227090   4.373   3.607  13.957  0.3354 -0.3336 -0.0524
 5210SOL     OW27091   2.352   1.208  10.286  0.2954  0.0639  0.1414
 5210SOL    HW127092   2.279   1.236  10.340  0.9735  1.9485  0.0791
 5210SOL    HW227093   2.406   1.287  10.293 -0.0961  0.2104  1.4009
 5211SOL     OW27094   0.974   0.147  10.959 -0.5416  0.6971  0.7311
 5211SOL    HW127095   0.879   0.147  10.955 -0.5292  1.3496  0.2768
 5211SOL    HW227096   1.001   0.098  10.881 -0.5050  0.2719  1.0137
 5212SOL     OW27097   3.015   2.318  13.389 -0.6592 -0.6608 -0.0404
 5212SOL    HW127098   3.004   2.317  13.484  0.0527 -0.4730  0.0409
 5212SOL    HW227099   2.929   2.296  13.354 -0.2987 -1.6623 -0.3196
 5213SOL     OW27100   1.743   2.204   3.884  0.1685  0.4600  0.2504
 5213SOL    HW127101   1.797   2.128   3.861  0.0737  0.0601  1.3427
 5213SOL    HW227102   1.658   2.174   3.854 -0.1683  1.4019  0.2447
 5214SOL     OW27103   2.936   4.155   3.030 -0.1797 -0.5337  0.4343
 5214SOL    HW127104   2.923   4.060   3.021 -1.6041 -0.0368 -2.3602
 5214SOL    HW227105   3.006   4.163   3.095  0.5870 -1.0377 -0.3342
 5215SOL     OW27106   2.863   1.478   8.979 -0.2859  0.2084  0.4566
 5215SOL    HW127107   2.773   1.447   8.970 -0.0665 -0.0610 -0.8913
 5215SOL    HW227108   2.868   1.498   9.072 -2.0311  0.4067  0.5066
 5216SOL     OW27109   2.164   4.305   5.363  0.0840 -0.1200  0.9215
 5216SOL    HW127110   2.181   4.300   5.457  2.0312  4.3503  0.8178
 5216SOL    HW227111   2.200   4.221   5.337 -0.8929 -0.1299 -0.3539
 5217SOL     OW27112   3.866   1.974  16.783 -0.4332 -0.1932 -0.4123
 5217SOL    HW127113   3.792   1.925  16.820  0.2840 -0.0488  1.2315
 5217SOL    HW227114   3.827   2.061  16.787 -1.0389 -0.3388 -3.9382
 5218SOL     OW27115   1.059   2.212   6.387  0.1160  0.3385 -0.1013
 5218SOL    HW127116   0.970   2.177   6.391  0.4207 -0.4036  0.1723
 5218SOL    HW227117   1.088   2.213   6.478  0.8310  1.2372 -0.3306
 5219SOL     OW27118   0.822   0.732   2.226 -0.3851  0.2001 -0.6227
 5219SOL    HW127119   0.781   0.677   2.293  2.0541 -0.6391  0.1704
 5219SOL    HW227120   0.892   0.679   2.188 -1.8457 -0.5086 -2.3132
 5220SOL     OW27121   3.029   2.990  12.927  0.2386 -0.0722 -0.2579
 5220SOL    HW127122   3.044   3.032  13.012  1.5917  0.4355 -0.7483
 5220SOL    HW227123   2.980   3.059  12.881  1.7716  2.0594  1.2637
 5221SOL     OW27124   1.507   3.508  14.539  0.1504 -0.3537  0.2279
 5221SOL    HW127125   1.588   3.533  14.494  0.9793  0.4545  2.1441
 5221SOL    HW227126   1.507   3.580  14.602  0.3846 -0.0445 -0.1210
 5222SOL     OW27127   0.434   3.148   8.632 -0.4697 -0.3573 -0.4758
 5222SOL    HW127128   0.492   3.073   8.620 -1.8175 -0.9081 -3.4849
 5222SOL    HW227129   0.375   3.121   8.702 -0.7080  2.2949  0.3613
 5223SOL     OW27130   0.049   0.709   9.174 -0.7189 -0.5358  0.1644
 5223SOL    HW127131   0.069   0.758   9.094  2.8877 -0.8427  0.8386
 5223SOL    HW227132   0.089   0.625   9.154 -0.2480 -0.9098  2.5943
 5224SOL     OW27133   3.586   0.223  14.472  0.1537 -0.2444 -0.1168
 5224SOL    HW127134   3.678   0.237  14.448  0.2081 -0.2535  0.0868
 5224SOL    HW227135   3.548   0.221  14.385  2.0419 -0.7022 -0.9409
 5225SOL     OW27136   0.249   2.942   0.535  0.5758 -0.2202 -0.0491
 5225SOL    HW127137   0.249   2.931   0.440  0.8288  0.4727 -0.1317
 5225SOL    HW227138   0.154   2.946   0.549  0.3588 -2.6589 -0.7988
 5226SOL     OW27139   3.900   2.723   8.211  0.4630 -0.1035  0.2013
 5226SOL    HW127140   3.948   2.682   8.284 -2.0635 -2.3026  0.6218
 5226SOL    HW227141   3.937   2.670   8.140  1.4601  0.1619  0.5199
 5227SOL     OW27142   3.853   3.834   1.593  0.1911  0.0046 -0.0890
 5227SOL    HW127143   3.935   3.885   1.599  0.8461 -1.1207  0.5301
 5227SOL    HW227144   3.798   3.905   1.559 -1.0922 -1.4177 -0.9747
 5228SOL     OW27145   1.978   3.530   2.523 -0.5168  0.4803 -0.2329
 5228SOL    HW127146   1.997   3.623   2.513 -2.3399  1.0312  1.3977
 5228SOL    HW227147   1.916   3.516   2.452 -2.7979  1.2694  1.5954
 5229SOL     OW27148   2.543   2.285   5.146 -0.3978 -0.2801 -0.2497
 5229SOL    HW127149   2.611   2.217   5.140 -1.3606 -1.3167  0.5054
 5229SOL    HW227150   2.590   2.368   5.137 -0.8696 -0.2227 -2.0017
 5230SOL     OW27151   4.140   2.776  11.949 -0.5416  0.4441 -0.0939
 5230SOL    HW127152   4.162   2.710  11.882 -1.0041 -1.3391  1.5152
 5230SOL    HW227153   4.100   2.845  11.897 -0.2343  0.4313 -0.3475
 5231SOL     OW27154   0.788   3.168   4.225  0.0912  0.3697  0.0154
 5231SOL    HW127155   0.880   3.146   4.238  0.2685 -0.7668 -3.2828
 5231SOL    HW227156   0.746   3.149   4.309 -1.1237  0.0081 -0.6768
 5232SOL     OW27157   4.726   2.083   5.965  0.0881 -0.6135  0.1505
 5232SOL    HW127158   0.000   2.023   6.040  1.9892  0.9985  1.4075
 5232SOL    HW227159   0.090   2.116   5.967  0.8791 -2.8386  1.1339
 5233SOL     OW27160   0.218   0.132   7.448  0.2804  0.6819 -0.6348
 5233SOL    HW127161   0.225   0.183   7.529  2.8467  0.0446 -0.4671
 5233SOL    HW227162   0.123   0.125   7.436  0.5380 -1.0259 -1.5668
 5234SOL     OW27163   1.395   3.813   2.344 -0.4615 -0.1414  0.2931
 5234SOL    HW127164   1.344   3.756   2.402 -1.0316 -0.5567 -0.6146
 5234SOL    HW227165   1.361   3.783   2.259  0.0625 -0.6904  0.2808
 5235SOL     OW27166   3.428   2.258   8.259 -0.5586 -0.1764 -0.4905
 5235SOL    HW127167   3.366   2.298   8.198 -1.1863  1.2863  1.1079
 5235SOL    HW227168   3.495   2.236   8.195 -1.7051 -1.7166 -1.1620
 5236SOL     OW27169   1.006   3.740  10.925 -0.4995  0.2931  0.5366
 5236SOL    HW127170   0.919   3.779  10.924  0.7558  3.0847 -0.5065
 5236SOL    HW227171   1.056   3.797  10.983  1.1147  1.2221 -1.7546
 5237SOL     OW27172   1.849   4.621   9.282  0.0916  0.4429  0.1768
 5237SOL    HW127173   1.899   4.691   9.324  2.5484  0.9668 -3.5843
 5237SOL    HW227174   1.914   4.565   9.237  1.0706  1.9793 -0.3067
 5238SOL     OW27175   0.730   0.850   7.496 -0.1710  0.7248 -0.5204
 5238SOL    HW127176   0.809   0.835   7.444  1.1670  0.6604  1.5574
 5238SOL    HW227177   0.661   0.795   7.458 -0.6614  1.1061 -0.1790
 5239SOL     OW27178   2.662   4.380  10.232 -0.1996 -0.3072 -0.1656
 5239SOL    HW127179   2.576   4.398  10.271 -0.6361  0.0308 -1.2857
 5239SOL    HW227180   2.714   4.418  10.303  1.3026  1.2676 -2.1331
 5240SOL     OW27181   2.721   4.582   5.803 -0.5456 -0.0014  0.2334
 5240SOL    HW127182   2.717   4.486   5.795  1.3647 -0.0735  0.1056
 5240SOL    HW227183   2.764   4.596   5.719 -1.9590  1.6945 -0.2089
 5241SOL     OW27184   3.917   2.544  13.807  0.4228 -0.6748  0.4257
 5241SOL    HW127185   3.999   2.517  13.849 -0.9924 -0.4256  3.3341
 5241SOL    HW227186   3.872   2.571  13.886  0.9160  1.2107  0.0593
 5242SOL     OW27187   4.232   0.650   7.845  0.3021 -0.3560 -0.3639
 5242SOL    HW127188   4.285   0.582   7.887 -0.9760  0.6325  2.9336
 5242SOL    HW227189   4.289   0.690   7.780  0.6321  0.2705  0.3122
 5243SOL     OW27190   1.219   0.200   4.926 -0.2745 -0.0291  0.2821
 5243SOL    HW127191   1.124   0.189   4.922 -0.1785 -0.3604 -1.0603
 5243SOL    HW227192   1.246   0.197   4.834  2.0369 -0.4783  0.9781
 5244SOL     OW27193   3.282   4.397   2.132  0.6849  0.2389  0.1787
 5244SOL    HW127194   3.272   4.400   2.037 -1.1060  1.4669  0.4156
 5244SOL    HW227195   3.274   4.304   2.155  0.8786  0.5179  1.3897
 5245SOL     OW27196   0.238   1.671   9.323  0.1824  0.2605 -0.5835
 5245SOL    HW127197   0.283   1.687   9.241  2.3557  2.0491  0.9599
 5245SOL    HW227198   0.254   1.758   9.360  1.8434  0.8129 -2.6634
 5246SOL     OW27199   4.710   2.977   2.592 -0.2361  0.0603  0.5848
 5246SOL    HW127200   4.624   2.975   2.551  0.0296 -1.0481  0.0870
 5246SOL    HW227201   4.685   2.947   2.680 -2.7995  0.3302 -0.0546
 5247SOL     OW27202   1.618   3.243   2.942  0.3138  0.4355  0.5456
 5247SOL    HW127203   1.634   3.276   2.853  1.8355  0.7573  0.9423
 5247SOL    HW227204   1.624   3.151   2.917 -0.6782  0.3503  0.6298
 5248SOL     OW27205   2.552   0.193   2.975  0.0217  0.2632  0.0666
 5248SOL    HW127206   2.603   0.213   2.897  1.0618 -0.9049  0.4554
 5248SOL    HW227207   2.492   0.128   2.941  0.1540  0.7985 -1.1756
 5249SOL     OW27208   0.427   0.153  15.046 -0.4430 -0.0060  0.1601
 5249SOL    HW127209   0.365   0.208  15.093  0.7472  0.6985  0.8950
 5249SOL    HW227210   0.414   0.184  14.956 -1.0062  0.2987  0.3443
 5250SOL     OW27211   0.602   0.693  17.561  0.4346  0.6725  0.7385
 5250SOL    HW127212   0.642   0.607  17.552 -0.2215  0.5242 -0.8023
 5250SOL    HW227213   0.669   0.730  17.618  2.1372  1.5928 -1.8335
 5251SOL     OW27214   3.182   4.373   5.191 -0.9904  0.1954  0.1011
 5251SOL    HW127215   3.224   4.429   5.257 -1.6540  0.3279  0.4074
 5251SOL    HW227216   3.229   4.400   5.112  0.6366  1.1524  1.3957
 5252SOL     OW27217   1.995   1.320   4.618  0.6439  0.1246  0.0326
 5252SOL    HW127218   1.967   1.274   4.697  0.6144  0.4496  0.2090
 5252SOL    HW227219   2.075   1.363   4.647 -0.1255  0.9269  0.9610
 5253SOL     OW27220   0.980   0.612   3.667  0.8602 -0.3257 -0.4299
 5253SOL    HW127221   0.898   0.565   3.652  0.9147 -0.5194 -0.1061
 5253SOL    HW227222   1.032   0.532   3.665  1.9899  0.3659  1.5846
 5254SOL     OW27223   2.365   3.814   4.347 -0.5305 -0.2539  0.3653
 5254SOL    HW127224   2.399   3.783   4.263 -1.2182  1.0138 -0.3872
 5254SOL    HW227225   2.284   3.765   4.361 -0.9752  0.2789 -0.3143
 5255SOL     OW27226   4.583   0.071   0.678 -0.2583  0.2890  0.0265
 5255SOL    HW127227   4.505   0.123   0.658 -0.9733 -0.5159  0.7342
 5255SOL    HW227228   4.560   0.029   0.761 -0.4009  0.4410  0.0641
 5256SOL     OW27229   1.669   3.002   2.826 -0.1266 -0.0035  0.1357
 5256SOL    HW127230   1.746   2.976   2.776 -1.1770 -0.5203 -1.1956
 5256SOL    HW227231   1.618   2.928   2.793  0.3595  0.2327 -1.1233
 5257SOL     OW27232   3.875   1.033  16.513 -0.0476  0.6255  0.2071
 5257SOL    HW127233   3.926   1.113  16.501  0.0562  0.1293 -2.6807
 5257SOL    HW227234   3.792   1.070  16.542 -1.0961  0.0189 -2.0032
 5258SOL     OW27235   0.930   0.969   9.623 -0.1996 -0.1566 -0.0109
 5258SOL    HW127236   0.911   1.061   9.639  1.5921  0.2353 -0.1580
 5258SOL    HW227237   1.019   0.953   9.655 -1.3996 -0.7217  3.0359
 5259SOL     OW27238   4.150   3.211   5.969 -0.0590  0.1003 -0.2680
 5259SOL    HW127239   4.119   3.121   5.964  1.1918 -0.1323 -3.9189
 5259SOL    HW227240   4.238   3.186   5.942 -0.4935 -0.3615 -1.2406
 5260SOL     OW27241   0.988   4.149   5.110 -0.2971  0.9881 -0.0459
 5260SOL    HW127242   1.018   4.168   5.021  3.4560 -0.0520  1.0028
 5260SOL    HW227243   0.895   4.139   5.088 -0.7389  0.3044  2.1376
 5261SOL     OW27244   2.673   3.800   4.489  0.0413  0.4570  0.4494
 5261SOL    HW127245   2.679   3.895   4.476 -0.1699  0.6592  1.7850
 5261SOL    HW227246   2.578   3.785   4.483  0.2610 -1.2731  1.2718
 5262SOL     OW27247   1.988   2.850   8.328  0.1708 -0.6052  0.0647
 5262SOL    HW127248   2.028   2.910   8.266 -0.5355  0.1070  0.2895
 5262SOL    HW227249   2.051   2.782   8.304  0.1249  0.0539 -1.9413
 5263SOL     OW27250   4.377   0.597   7.217  0.0270  0.2712 -0.0386
 5263SOL    HW127251   4.285   0.594   7.242 -0.2352  0.1234 -1.0382
 5263SOL    HW227252   4.378   0.525   7.155  2.1768  1.2852 -1.1871
 5264SOL     OW27253   1.462   0.365   6.210 -0.2040 -0.3061  0.2733
 5264SOL    HW127254   1.528   0.373   6.142  0.1459 -0.1376  0.6307
 5264SOL    HW227255   1.407   0.437   6.178  1.8392 -0.9502 -4.6273
 5265SOL     OW27256   0.196   3.427   1.058 -0.2593  0.1084 -0.0060
 5265SOL    HW127257   0.120   3.369   1.064  0.9994 -1.6330 -0.8671
 5265SOL    HW227258   0.160   3.504   1.101 -1.0326  0.9451 -2.1511
 5266SOL     OW27259   3.269   4.053   5.256  0.0858 -0.0827 -0.0651
 5266SOL    HW127260   3.322   3.994   5.309  0.5435 -0.4637 -0.9582
 5266SOL    HW227261   3.311   4.137   5.276  0.8617 -0.6187  0.5497
 5267SOL     OW27262   0.229   0.839  17.405 -0.3883  0.3001  0.2646
 5267SOL    HW127263   0.218   0.857  17.499  1.2750  0.4522  0.4240
 5267SOL    HW227264   0.264   0.750  17.408 -0.2843  0.2235 -3.1839
 5268SOL     OW27265   0.879   1.024   7.222  0.5223 -0.4018 -0.6200
 5268SOL    HW127266   0.930   0.974   7.285  2.4004 -0.1158 -1.9027
 5268SOL    HW227267   0.897   1.111   7.258 -1.5102 -0.3113  0.1808
 5269SOL     OW27268   4.619   2.908  13.009 -0.0195  0.1807  0.1096
 5269SOL    HW127269   4.616   2.946  13.097  0.8225  1.3330 -0.3515
 5269SOL    HW227270   4.642   2.993  12.972 -0.7682  0.6302  0.6811
 5270SOL     OW27271   1.752   4.246  13.338 -0.0570  0.2126 -0.6745
 5270SOL    HW127272   1.687   4.213  13.400  0.3794 -0.2419 -0.4580
 5270SOL    HW227273   1.721   4.213  13.254 -0.7261  0.4438 -0.5201
 5271SOL     OW27274   3.759   1.501   6.097  0.1864 -0.1891  0.1138
 5271SOL    HW127275   3.672   1.471   6.071  0.0985 -0.2035  0.4274
 5271SOL    HW227276   3.759   1.500   6.193  0.6328 -2.0364  0.0902
 5272SOL     OW27277   3.913   2.233   5.143  0.3811  0.1029  0.0862
 5272SOL    HW127278   3.892   2.154   5.193 -0.5969  0.2981 -0.0249
 5272SOL    HW227279   3.882   2.210   5.056  0.2708  0.0723  0.1335
 5273SOL     OW27280   1.505   2.359   0.605  0.2411  0.4796  0.3762
 5273SOL    HW127281   1.509   2.347   0.510 -0.8791 -0.2044  0.4166
 5273SOL    HW227282   1.423   2.408   0.613 -0.3619 -0.0384 -2.4172
 5274SOL     OW27283   0.433   1.039   4.325  0.2745 -0.2026 -0.0594
 5274SOL    HW127284   0.413   1.085   4.407  0.1923 -3.2857  1.6603
 5274SOL    HW227285   0.438   0.948   4.354  0.0904  0.3829  1.8325
 5275SOL     OW27286   1.299   1.515   8.871  0.9355  0.5264  0.1084
 5275SOL    HW127287   1.241   1.555   8.806  1.3051  0.7835 -0.0627
 5275SOL    HW227288   1.324   1.591   8.924 -1.1379  2.0555 -1.1430
 5276SOL     OW27289   3.673   0.525   7.860 -0.1168  0.5994  0.3069
 5276SOL    HW127290   3.735   0.547   7.929  0.1524  2.4615 -0.5463
 5276SOL    HW227291   3.594   0.560   7.902 -1.2579 -0.9075 -0.5420
 5277SOL     OW27292   1.398   0.449   5.013 -0.2958  0.5154 -0.6017
 5277SOL    HW127293   1.331   0.423   4.949 -1.3153 -0.8195  1.0032
 5277SOL    HW227294   1.464   0.407   4.959 -0.6720 -1.6136  0.5762
 5278SOL     OW27295   0.870   0.256   2.838 -0.2858 -0.2398 -0.3137
 5278SOL    HW127296   0.873   0.176   2.785 -0.8463 -0.8998  0.6525
 5278SOL    HW227297   0.958   0.294   2.828  0.2095 -0.1315  4.3843
 5279SOL     OW27298   1.129   3.712   5.346 -0.0919 -0.1979 -0.1102
 5279SOL    HW127299   1.085   3.794   5.323  0.5706 -0.1568 -1.2346
 5279SOL    HW227300   1.215   3.753   5.356  0.3066 -0.8609 -0.8935
 5280SOL     OW27301   1.546   3.143   2.122 -0.1172  0.2157 -0.0396
 5280SOL    HW127302   1.570   3.069   2.066 -1.0574 -0.5871  0.6121
 5280SOL    HW227303   1.478   3.101   2.175 -1.4101 -1.8822 -3.3650
 5281SOL     OW27304   0.073   0.470   7.262 -0.1696  0.3368 -0.1199
 5281SOL    HW127305   0.169   0.477   7.265 -0.1278 -0.4940  0.3215
 5281SOL    HW227306   0.059   0.565   7.272  2.7788  0.5017  2.6261
 5282SOL     OW27307   0.145   1.034   9.512  0.4882 -0.8641  0.5686
 5282SOL    HW127308   0.225   0.983   9.507  1.0533 -0.1908  2.5975
 5282SOL    HW227309   0.075   0.977   9.482 -0.2620  1.0107 -1.2382
 5283SOL     OW27310   3.898   1.673  15.564  0.2985  0.7782 -0.0820
 5283SOL    HW127311   3.937   1.760  15.570 -0.4743  1.1928 -1.1646
 5283SOL    HW227312   3.822   1.674  15.507  0.4727  3.0216 -0.2725
 5284SOL     OW27313   0.784   1.101   5.360 -0.1313  0.0093  0.2150
 5284SOL    HW127314   0.808   1.051   5.437  1.2136  1.2714  0.6239
 5284SOL    HW227315   0.691   1.081   5.352 -0.0345  0.0692 -1.2039
 5285SOL     OW27316   0.261   4.720   8.075  0.1902  0.0692 -0.2173
 5285SOL    HW127317   0.247   4.655   8.006  1.4036 -0.3851 -0.0327
 5285SOL    HW227318   0.303   4.664   8.141  1.4383  0.2313 -0.8839
 5286SOL     OW27319   1.222   4.534   5.827 -0.2947  0.2854 -0.1037
 5286SOL    HW127320   1.161   4.572   5.765 -1.1648  0.6923  1.0053
 5286SOL    HW227321   1.303   4.550   5.778  1.0209  0.0978  2.0244
 5287SOL     OW27322   0.065   2.204   4.927 -0.2116 -0.1561 -0.5804
 5287SOL    HW127323   0.132   2.178   4.863 -1.0358  0.5099 -1.7152
 5287SOL    HW227324   4.715   2.180   4.873 -1.1257  1.6646 -0.1142
 5288SOL     OW27325   2.919   1.310   8.769 -1.0325  0.1236 -0.0059
 5288SOL    HW127326   2.911   1.239   8.833  0.6046 -0.3891 -0.3839
 5288SOL    HW227327   2.912   1.380   8.834 -1.1304 -0.2662  0.4038
 5289SOL     OW27328   2.085   0.997  10.982 -0.2272  0.3843  0.9112
 5289SOL    HW127329   2.056   1.088  10.985 -3.3269 -0.5266 -1.5793
 5289SOL    HW227330   2.177   1.013  11.005 -0.2639  0.6748  0.8578
 5290SOL     OW27331   2.109   2.011  17.159  0.1965 -0.2683 -0.0254
 5290SOL    HW127332   2.186   2.049  17.201  1.2892 -2.1160 -0.3252
 5290SOL    HW227333   2.073   1.968  17.237 -1.1398  0.9732  0.0334
 5291SOL     OW27334   0.197   0.688  14.770 -0.0562 -0.5613  0.4925
 5291SOL    HW127335   0.203   0.605  14.817 -0.1083 -1.3018 -0.8235
 5291SOL    HW227336   0.248   0.670  14.691  0.3350 -0.3066  0.6889
 5292SOL     OW27337   3.573   2.320   2.956  0.0387 -0.2941 -0.6605
 5292SOL    HW127338   3.525   2.288   2.880  0.3915 -0.3044 -0.8800
 5292SOL    HW227339   3.639   2.374   2.911  0.8639 -4.2593 -4.1387
 5293SOL     OW27340   1.058   0.443  10.243  0.0710  0.2615 -0.3679
 5293SOL    HW127341   1.111   0.454  10.165 -0.9353  2.9088 -0.6705
 5293SOL    HW227342   1.013   0.527  10.249 -0.5620 -0.2648  2.5775
 5294SOL     OW27343   4.528   2.090   6.930  0.2758 -0.1657  0.3445
 5294SOL    HW127344   4.470   2.165   6.935  1.9301  1.1779 -0.7227
 5294SOL    HW227345   4.553   2.090   7.022  1.3381 -1.0680  0.0619
 5295SOL     OW27346   2.178   0.888  14.634 -0.0610 -0.1780  0.2672
 5295SOL    HW127347   2.223   0.952  14.580  0.4850  0.7165  1.7640
 5295SOL    HW227348   2.143   0.826  14.571 -0.5196 -2.0705  2.3635
 5296SOL     OW27349   3.498   4.433   4.441  0.7599 -0.0922 -0.0889
 5296SOL    HW127350   3.499   4.480   4.525  2.4963 -0.3399  0.0196
 5296SOL    HW227351   3.593   4.424   4.436  0.6318 -0.7869 -1.2292
 5297SOL     OW27352   3.431   1.519   0.323  0.1146  0.2990 -0.2904
 5297SOL    HW127353   3.468   1.478   0.402 -0.4483  2.4761  1.1000
 5297SOL    HW227354   3.421   1.443   0.266 -3.0106 -0.0053  0.6724
 5298SOL     OW27355   3.355   2.545   0.250 -0.3047  0.4529  0.0027
 5298SOL    HW127356   3.435   2.536   0.301 -0.5877  0.1088  0.3850
 5298SOL    HW227357   3.384   2.516   0.163  0.4488  1.5349 -0.1129
 5299SOL     OW27358   0.608   4.663  10.277  0.3038 -0.4192  0.3873
 5299SOL    HW127359   0.611   4.602  10.203 -0.4904  2.7798 -2.3136
 5299SOL    HW227360   0.538   4.622  10.327 -1.8363  1.1781 -1.2741
 5300SOL     OW27361   0.161   3.696   1.159  0.1346  0.3044 -0.2532
 5300SOL    HW127362   0.155   3.740   1.074 -0.0879  0.0033 -0.3953
 5300SOL    HW227363   0.146   3.763   1.225  1.0820 -0.1984  0.4558
 5301SOL     OW27364   4.712   0.580   8.685 -0.4771 -0.1183 -0.2615
 5301SOL    HW127365   4.667   0.530   8.617 -0.9425  2.3983 -1.8009
 5301SOL    HW227366   4.644   0.593   8.750 -1.5597  0.1768 -1.4536
 5302SOL     OW27367   0.259   1.601  12.265  0.3430 -0.2654 -0.1698
 5302SOL    HW127368   0.312   1.529  12.230  0.8322 -0.9948  2.0986
 5302SOL    HW227369   0.189   1.557  12.313 -1.6164  1.0145 -1.8156
 5303SOL     OW27370   4.362   3.434   7.527 -0.1618 -0.2676  0.4651
 5303SOL    HW127371   4.414   3.356   7.508  1.7938  0.8978  1.0477
 5303SOL    HW227372   4.342   3.421   7.619  0.6978  3.0249  1.1444
 5304SOL     OW27373   0.198   0.767   6.548 -0.1289 -0.3721  0.5097
 5304SOL    HW127374   0.197   0.844   6.604 -1.6071  0.2039 -0.3139
 5304SOL    HW227375   0.260   0.800   6.483 -0.1078 -0.4324  0.4989
 5305SOL     OW27376   3.735   1.512   5.403  0.4298 -0.1685 -0.0741
 5305SOL    HW127377   3.829   1.518   5.422  0.4694 -1.3068  0.0570
 5305SOL    HW227378   3.752   1.450   5.332 -0.9018  0.4114 -0.8846
 5306SOL     OW27379   0.908   4.695   5.421  0.5047  0.3699 -0.2090
 5306SOL    HW127380   0.974   4.665   5.358  1.2136  0.2559  0.5916
 5306SOL    HW227381   0.835   4.640   5.393  0.0074  0.8681  0.1216
 5307SOL     OW27382   4.158   1.750   5.608 -0.4860  0.2695 -0.0279
 5307SOL    HW127383   4.214   1.805   5.663 -1.2056 -0.2362  1.2100
 5307SOL    HW227384   4.114   1.698   5.675  1.2971 -2.6452 -1.1455
 5308SOL     OW27385   0.246   3.475   5.554  0.1122 -0.2873 -0.2400
 5308SOL    HW127386   0.329   3.510   5.587  1.7839  0.4702 -5.3477
 5308SOL    HW227387   0.223   3.419   5.629 -1.6454  1.3569  0.4378
 5309SOL     OW27388   3.553   1.485   9.475  0.5346 -0.0349  0.3912
 5309SOL    HW127389   3.579   1.520   9.560 -1.2223  0.2042  0.8406
 5309SOL    HW227390   3.527   1.562   9.425  0.4170  0.1566  0.7428
 5310SOL     OW27391   0.605   4.582  17.616  0.2998  0.1365 -0.3742
 5310SOL    HW127392   0.564   4.561  17.700 -0.0167  0.4754 -0.4403
 5310SOL    HW227393   0.686   4.532  17.617  0.6621  0.7835  1.8896
 5311SOL     OW27394   3.380   4.104  17.442 -0.0331 -0.2219 -0.2749
 5311SOL    HW127395   3.345   4.084  17.529  2.6859 -0.2080  0.8368
 5311SOL    HW227396   3.311   4.063  17.390  0.1427 -0.1571 -0.5598
 5312SOL     OW27397   1.031   4.341   0.093  0.8967 -0.0469 -0.3081
 5312SOL    HW127398   1.025   4.296   0.178  3.8463 -0.2842 -0.2391
 5312SOL    HW227399   1.116   4.383   0.101  1.3671 -1.2706  1.2201
 5313SOL     OW27400   1.698   3.290   6.036  0.2511  0.4014  0.0180
 5313SOL    HW127401   1.645   3.369   6.023  0.8601  0.7720 -0.1970
 5313SOL    HW227402   1.707   3.295   6.131 -1.3836 -3.8565  0.3942
 5314SOL     OW27403   2.769   4.307   5.843  0.2136  0.2694 -0.4697
 5314SOL    HW127404   2.728   4.300   5.929 -2.2029 -1.5898 -1.7876
 5314SOL    HW227405   2.793   4.215   5.833 -1.9278 -0.0861 -2.2251
 5315SOL     OW27406   2.863   0.252   1.335 -0.0980 -0.2199  0.8241
 5315SOL    HW127407   2.818   0.281   1.414  0.9134 -1.5866  1.8950
 5315SOL    HW227408   2.844   0.158   1.330 -1.8198  0.3114 -3.0962
 5316SOL     OW27409   0.710   1.395  10.147 -0.7008  0.7553 -0.3998
 5316SOL    HW127410   0.655   1.444  10.209  1.9847  0.2673  2.3785
 5316SOL    HW227411   0.779   1.361  10.204  0.0087  1.0472 -1.0804
 5317SOL     OW27412   2.313   2.954   8.018  0.9435  0.1637  0.1857
 5317SOL    HW127413   2.382   3.020   8.019  1.7967 -0.7298  1.6058
 5317SOL    HW227414   2.276   2.950   8.106  1.2225  1.7081  0.3739
 5318SOL     OW27415   0.027   1.136   8.102  0.1188 -0.4494 -0.3175
 5318SOL    HW127416   0.029   1.120   8.197  1.7083 -1.4718 -0.5241
 5318SOL    HW227417   0.052   1.227   8.084  1.1192 -0.3526  1.5302
 5319SOL     OW27418   2.331   3.079   6.176  0.5931 -0.4798  0.0644
 5319SOL    HW127419   2.326   3.041   6.088  1.9391 -0.3615 -0.0754
 5319SOL    HW227420   2.283   3.015   6.228  0.9647 -0.1751  0.7718
 5320SOL     OW27421   4.696   1.630   1.562 -0.5504 -0.4702 -0.2363
 5320SOL    HW127422   4.637   1.692   1.603 -1.0142  0.1690 -1.8760
 5320SOL    HW227423   0.027   1.680   1.504  0.3266  1.7157  2.5201
 5321SOL     OW27424   4.605   1.720   8.409 -0.2107 -0.0017 -0.0446
 5321SOL    HW127425   4.688   1.673   8.408 -0.1788  0.0543 -0.0205
 5321SOL    HW227426   4.633   1.804   8.373 -2.8349  0.7429 -0.3657
 5322SOL     OW27427   0.908   0.236  10.007 -0.4525 -0.0449 -0.1482
 5322SOL    HW127428   0.905   0.197  10.095 -3.9338 -0.3611 -0.4006
 5322SOL    HW227429   0.852   0.312  10.025  0.4919  0.6350 -0.0291
 5323SOL     OW27430   3.961   2.085   3.125  0.5795  0.1768 -0.0276
 5323SOL    HW127431   3.986   2.110   3.037 -2.7733  0.4158 -0.9146
 5323SOL    HW227432   4.005   2.000   3.130 -0.8106 -0.3997  2.7949
 5324SOL     OW27433   1.498   0.272   2.512  0.0316  0.4809 -0.2949
 5324SOL    HW127434   1.430   0.300   2.450 -0.4323 -2.4850 -1.1259
 5324SOL    HW227435   1.541   0.355   2.532 -0.7224  0.7497  0.2583
 5325SOL     OW27436   4.304   0.762   7.564  0.1901  0.0065 -0.2005
 5325SOL    HW127437   4.358   0.811   7.502  1.2644 -0.0077  0.7292
 5325SOL    HW227438   4.258   0.712   7.496  0.2984 -2.5664  1.6507
 5326SOL     OW27439   0.600   3.510   0.239  0.2047 -0.0243 -0.7036
 5326SOL    HW127440   0.591   3.589   0.185  0.9103  0.0564 -0.7039
 5326SOL    HW227441   0.521   3.459   0.223 -0.4585  0.2778  1.5257
 5327SOL     OW27442   4.418   3.773  16.564  0.6148  0.0739 -0.2354
 5327SOL    HW127443   4.340   3.757  16.616  0.9983 -0.8484  0.0479
 5327SOL    HW227444   4.447   3.684  16.542 -1.1606 -0.8247  1.1070
 5328SOL     OW27445   3.615   3.421  16.014 -0.0902 -0.5187  0.0888
 5328SOL    HW127446   3.646   3.384  16.096 -1.5164 -1.0858  0.3557
 5328SOL    HW227447   3.698   3.452  15.977 -0.5446  1.3710  0.6229
 5329SOL     OW27448   1.890   1.212   9.102 -0.9016 -0.2844  0.0432
 5329SOL    HW127449   1.887   1.154   9.026 -0.5398  0.3181 -0.4306
 5329SOL    HW227450   1.803   1.251   9.093 -1.2737 -0.6829  1.9827
 5330SOL     OW27451   4.277   1.051  15.375  0.6405 -0.2183  0.1919
 5330SOL    HW127452   4.373   1.046  15.366  0.5585 -1.6890  0.1827
 5330SOL    HW227453   4.264   1.071  15.282 -0.0558 -1.0122  0.1278
 5331SOL     OW27454   0.170   2.157   2.174  0.1700 -0.2976 -0.1427
 5331SOL    HW127455   0.245   2.217   2.163 -0.2658  0.2537 -0.1083
 5331SOL    HW227456   0.195   2.108   2.252 -1.0483  0.8361  0.9502
 5332SOL     OW27457   3.442   1.620  15.238 -0.0395  1.1105  0.2678
 5332SOL    HW127458   3.364   1.622  15.182  0.2326 -0.5074 -0.1553
 5332SOL    HW227459   3.484   1.704  15.218 -0.1035  0.9510 -0.5106
 5333SOL     OW27460   1.583   4.569   9.077  0.4458 -0.2160 -0.4659
 5333SOL    HW127461   1.656   4.600   9.129 -3.0031  2.0365  2.9794
 5333SOL    HW227462   1.510   4.605   9.126 -0.0294 -4.1618  1.7229
 5334SOL     OW27463   0.614   2.388   5.163 -0.1230  0.2083 -0.0869
 5334SOL    HW127464   0.580   2.449   5.097 -1.5744 -0.0930  0.3708
 5334SOL    HW227465   0.563   2.308   5.147  0.1820 -0.3086  1.5588
 5335SOL     OW27466   2.276   0.967  11.763 -0.0566 -0.3242 -0.1198
 5335SOL    HW127467   2.364   0.985  11.731  0.0438  0.4547  0.6120
 5335SOL    HW227468   2.300   0.931  11.848  0.2706  0.3228  0.0581
 5336SOL     OW27469   1.529   0.618   8.042  0.0594  0.1162  0.1160
 5336SOL    HW127470   1.558   0.560   8.113  2.0531 -0.2218 -0.9639
 5336SOL    HW227471   1.615   0.625   8.000  1.1893 -0.0776  2.3935
 5337SOL     OW27472   2.265   4.279  15.186  0.3199  0.1781 -0.2641
 5337SOL    HW127473   2.206   4.296  15.112  0.7725  1.4877 -0.3318
 5337SOL    HW227474   2.264   4.363  15.232 -0.3609 -0.6828  1.2630
 5338SOL     OW27475   3.187   1.648  13.648 -0.6689 -0.0882 -0.0843
 5338SOL    HW127476   3.211   1.555  13.643  4.0376  1.1437  0.0449
 5338SOL    HW227477   3.123   1.656  13.576  0.8257 -1.0056 -1.5274
 5339SOL     OW27478   0.524   0.931  13.264  0.4765  0.1891  0.4659
 5339SOL    HW127479   0.568   0.982  13.332  0.4409 -0.8398  1.2643
 5339SOL    HW227480   0.435   0.956  13.288  0.4789 -0.1778  0.8605
 5340SOL     OW27481   2.889   2.552   4.496 -0.2779  0.4200  0.1060
 5340SOL    HW127482   2.879   2.465   4.459  1.8321  0.7408 -1.2379
 5340SOL    HW227483   2.845   2.537   4.580  1.3141 -0.1523  0.8454
 5341SOL     OW27484   1.020   1.752   1.716  0.3937  0.7941  0.7305
 5341SOL    HW127485   0.948   1.704   1.757  2.7333 -1.0110  2.7116
 5341SOL    HW227486   1.007   1.837   1.757 -0.8796  2.3756 -2.9310
 5342SOL     OW27487   2.843   3.800   5.574 -0.2747 -0.3097  0.4911
 5342SOL    HW127488   2.816   3.790   5.483  2.5379 -2.6758 -0.0818
 5342SOL    HW227489   2.912   3.866   5.567 -0.4404 -0.4238 -2.3923
 5343SOL     OW27490   4.049   3.470  14.569 -0.6248 -0.6881 -0.1063
 5343SOL    HW127491   4.004   3.554  14.568  1.2136  0.3019  0.0935
 5343SOL    HW227492   4.119   3.487  14.632 -2.4340  0.9971  1.4422
 5344SOL     OW27493   2.074   0.056   2.349  0.4196  0.2829  0.0698
 5344SOL    HW127494   1.988   0.026   2.322  1.0151 -1.0791 -0.2992
 5344SOL    HW227495   2.057   0.078   2.441 -1.5300  0.3933 -0.3330
 5345SOL     OW27496   3.661   1.092   0.161 -0.4517  0.3464 -0.4511
 5345SOL    HW127497   3.590   1.030   0.174  0.2650 -0.2156  0.7429
 5345SOL    HW227498   3.680   1.083   0.067  0.6233  0.2382 -0.2214
 5346SOL     OW27499   3.333   1.682  11.994  0.0357  0.6867 -0.3148
 5346SOL    HW127500   3.318   1.763  11.945  0.6643  0.3976 -0.9858
 5346SOL    HW227501   3.257   1.628  11.971 -0.4738  0.7393  1.2288
 5347SOL     OW27502   2.794   2.296   5.396 -0.0172  0.1771 -0.2074
 5347SOL    HW127503   2.779   2.214   5.443  1.8020 -0.2720 -0.4200
 5347SOL    HW227504   2.722   2.345   5.437  0.4277 -0.8585  1.8032
 5348SOL     OW27505   2.943   3.892   3.961  0.3500 -0.1339 -0.0916
 5348SOL    HW127506   2.896   3.972   3.987 -1.0164 -1.2069  0.7241
 5348SOL    HW227507   3.019   3.933   3.920 -0.8954  2.4197  0.0893
 5349SOL     OW27508   4.039   1.492  13.453  0.5861  0.0002 -0.3575
 5349SOL    HW127509   4.116   1.434  13.456 -0.4912 -1.3724  0.6005
 5349SOL    HW227510   3.971   1.425  13.452 -0.2601  0.8399  1.6403
 5350SOL     OW27511   1.238   0.457   1.875  0.0891 -0.2412 -0.0614
 5350SOL    HW127512   1.264   0.549   1.866 -0.0555 -0.2424 -0.5015
 5350SOL    HW227513   1.237   0.443   1.780  1.6508 -1.4363  0.0956
 5351SOL     OW27514   3.423   4.525   2.604  0.3986  0.1565 -0.4677
 5351SOL    HW127515   3.356   4.536   2.537  0.7446  0.6058 -0.7392
 5351SOL    HW227516   3.442   4.616   2.628  0.4744 -0.9795  3.7789
 5352SOL     OW27517   0.521   2.252   9.281  0.3649  0.3706 -0.1956
 5352SOL    HW127518   0.582   2.271   9.352  1.8202 -1.0260 -1.0531
 5352SOL    HW227519   0.456   2.197   9.325 -2.5577  3.8284 -0.1662
 5353SOL     OW27520   1.315   0.873   2.404  0.1913  0.5218 -0.0932
 5353SOL    HW127521   1.344   0.951   2.357  2.7159 -0.9158 -0.9204
 5353SOL    HW227522   1.328   0.804   2.339  0.4110 -2.0309  2.6576
 5354SOL     OW27523   2.490   3.732  12.179 -0.2808 -0.3327 -0.1424
 5354SOL    HW127524   2.514   3.676  12.253 -0.4265 -1.6854 -1.1012
 5354SOL    HW227525   2.460   3.815  12.216  2.3412  1.9289 -3.1092
 5355SOL     OW27526   1.136   0.121   7.074  0.3833 -0.1863 -0.1654
 5355SOL    HW127527   1.127   0.118   6.979 -0.4319 -0.2085 -0.0855
 5355SOL    HW227528   1.054   0.078   7.100 -0.0504 -0.1633 -1.4827
 5356SOL     OW27529   4.238   3.871   1.382 -0.4502  0.0154 -0.3415
 5356SOL    HW127530   4.252   3.814   1.457 -1.5257  0.7944  0.4515
 5356SOL    HW227531   4.157   3.843   1.339 -0.3130 -1.4787  0.3949
 5357SOL     OW27532   1.313   2.781   8.639 -0.9165  0.1009  0.0716
 5357SOL    HW127533   1.392   2.795   8.691  0.7620  1.1968 -2.7492
 5357SOL    HW227534   1.259   2.857   8.657  0.7437  1.3868 -0.3695
 5358SOL     OW27535   4.311   0.857   7.147  0.5222  0.6861  0.1707
 5358SOL    HW127536   4.346   0.775   7.179  0.7732  0.8694  0.3638
 5358SOL    HW227537   4.230   0.829   7.104  0.8447  0.0169  0.0044
 5359SOL     OW27538   3.316   1.218  13.182 -0.1084  0.0196 -0.4236
 5359SOL    HW127539   3.287   1.266  13.260 -0.1242  0.7031 -0.8513
 5359SOL    HW227540   3.320   1.128  13.215  0.1291  0.7953  1.6590
 5360SOL     OW27541   1.375   1.114   6.029  0.2781 -0.2369  0.0972
 5360SOL    HW127542   1.295   1.139   6.075  0.0075 -0.6808 -0.1341
 5360SOL    HW227543   1.392   1.031   6.074  1.8912 -1.3139 -2.4967
 5361SOL     OW27544   0.791   0.787   9.745 -0.3862  0.0329  0.0125
 5361SOL    HW127545   0.834   0.853   9.689 -0.4942  1.1966  1.2995
 5361SOL    HW227546   0.846   0.792   9.824  0.2958  0.9481 -0.5125
 5362SOL     OW27547   0.786   1.312   6.660  0.1147  0.2152 -0.5086
 5362SOL    HW127548   0.692   1.293   6.651 -0.0038 -0.5322  2.2739
 5362SOL    HW227549   0.816   1.223   6.677 -1.4166 -0.4021 -0.9899
 5363SOL     OW27550   3.795   0.148  17.166  0.1866  0.3442 -0.0218
 5363SOL    HW127551   3.780   0.175  17.256 -1.4890 -0.8115  0.0457
 5363SOL    HW227552   3.876   0.097  17.165 -0.2522 -0.3307 -1.9337
 5364SOL     OW27553   3.939   2.319   8.411  0.0847 -0.2486  0.1707
 5364SOL    HW127554   3.883   2.334   8.488  0.3048 -1.2128  0.5183
 5364SOL    HW227555   3.970   2.230   8.427 -2.4039 -1.2345 -0.5131
 5365SOL     OW27556   1.331   0.979   8.665 -0.0345  0.7473 -0.3930
 5365SOL    HW127557   1.280   0.901   8.641  0.4122 -0.1836  1.6798
 5365SOL    HW227558   1.264   1.046   8.677 -0.8472 -0.5862  2.5734
 5366SOL     OW27559   1.848   4.574   9.921 -0.1926 -0.4481  0.5912
 5366SOL    HW127560   1.841   4.570   9.826  1.0496  2.2914  0.3898
 5366SOL    HW227561   1.932   4.530   9.938  0.9685  2.3657  2.1423
 5367SOL     OW27562   2.348   2.510   3.610  0.0756 -0.1876 -0.0500
 5367SOL    HW127563   2.404   2.550   3.676  1.0231  0.6967 -1.4050
 5367SOL    HW227564   2.262   2.536   3.642 -0.5612  1.7485 -3.4049
 5368SOL     OW27565   3.170   1.164  10.687  0.2095  0.0012  0.2294
 5368SOL    HW127566   3.187   1.153  10.780 -0.8848 -1.6547  0.2499
 5368SOL    HW227567   3.139   1.254  10.690  1.2065  0.2392  3.0416
 5369SOL     OW27568   3.878   0.506   7.331  0.1611 -0.0325  0.5528
 5369SOL    HW127569   3.815   0.535   7.397 -0.0909 -0.0327  0.3128
 5369SOL    HW227570   3.834   0.423   7.311  0.5119 -0.1751  0.3726
 5370SOL     OW27571   4.334   0.709   4.592 -0.3537  0.4713  0.5798
 5370SOL    HW127572   4.382   0.726   4.511  2.0181 -1.3293  1.6237
 5370SOL    HW227573   4.242   0.701   4.565 -0.6139  1.6006  1.1135
 5371SOL     OW27574   1.255   3.339   6.201  0.4104  0.2379  0.1432
 5371SOL    HW127575   1.194   3.411   6.182  0.4692 -0.0800 -1.2917
 5371SOL    HW227576   1.325   3.399   6.226  1.8065 -1.3642  0.0692
 5372SOL     OW27577   0.839   4.075  13.907 -0.1407  0.4018  0.1850
 5372SOL    HW127578   0.823   4.086  14.000  0.5905  1.0661  0.2330
 5372SOL    HW227579   0.834   4.167  13.882 -0.1414  0.1780 -0.6586
 5373SOL     OW27580   1.329   0.525   8.429 -0.1321  0.4235 -0.6278
 5373SOL    HW127581   1.288   0.607   8.402  0.7195  0.8304 -0.6883
 5373SOL    HW227582   1.265   0.468   8.386  1.8880 -2.2319 -0.1542
 5374SOL     OW27583   3.172   2.185  10.113 -0.0641 -0.2821  0.0793
 5374SOL    HW127584   3.197   2.276  10.096  1.5579 -1.0147 -1.4462
 5374SOL    HW227585   3.216   2.185  10.198 -0.6605  0.8915  0.3934
 5375SOL     OW27586   0.545   2.946   4.143  0.1353  0.3253  0.4839
 5375SOL    HW127587   0.627   2.914   4.106 -1.2198 -1.4170 -1.0340
 5375SOL    HW227588   0.536   2.909   4.230  1.8004  0.5477  0.7463
 5376SOL     OW27589   0.433   2.610  14.278 -0.1705  0.0926  0.0242
 5376SOL    HW127590   0.403   2.643  14.192  1.1067 -0.4533 -0.6251
 5376SOL    HW227591   0.516   2.650  14.302  0.4916 -0.8352 -0.7579
 5377SOL     OW27592   4.475   2.147  10.168  0.2499 -0.1451  0.3381
 5377SOL    HW127593   4.477   2.205  10.093  0.3574  0.7000  0.9933
 5377SOL    HW227594   4.428   2.075  10.126  0.1059  0.7435 -0.9973
 5378SOL     OW27595   3.607   1.404   3.307 -0.1781  0.8774  0.1152
 5378SOL    HW127596   3.568   1.457   3.376 -0.1320 -0.2741  1.0231
 5378SOL    HW227597   3.602   1.317   3.347 -1.2908  0.7352 -0.3418
 5379SOL     OW27598   3.189   4.136   3.162  0.4115  0.7318 -0.4307
 5379SOL    HW127599   3.218   4.077   3.231  0.0409  1.2143  0.1394
 5379SOL    HW227600   3.251   4.206   3.180 -0.4132  1.0796  1.0908
 5380SOL     OW27601   0.404   2.152   2.520 -0.2337 -0.4938 -0.2132
 5380SOL    HW127602   0.386   2.067   2.480 -0.8612  0.0163 -0.9997
 5380SOL    HW227603   0.326   2.157   2.575 -0.2689  1.1489 -0.3999
 5381SOL     OW27604   0.886   2.152   9.366 -0.6810  0.1632  0.1985
 5381SOL    HW127605   0.892   2.169   9.271 -2.5279  1.3865  0.3134
 5381SOL    HW227606   0.938   2.073   9.386 -0.5190  0.0876 -0.5073
 5382SOL     OW27607   0.186   0.927  12.900  0.3917  0.2603 -0.2661
 5382SOL    HW127608   0.137   0.933  12.818 -1.1462  1.1727  0.7187
 5382SOL    HW227609   0.276   0.900  12.882 -0.3110 -1.9888 -0.4528
 5383SOL     OW27610   4.257   2.836   6.529  0.0205 -0.2161 -0.1083
 5383SOL    HW127611   4.226   2.756   6.487 -0.5924  0.0490 -0.1563
 5383SOL    HW227612   4.324   2.863   6.466 -0.8275 -0.5329 -1.1470
 5384SOL     OW27613   3.864   2.376   5.708 -0.1175  0.3803 -0.2996
 5384SOL    HW127614   3.840   2.424   5.629 -0.0513 -0.2555 -0.7137
 5384SOL    HW227615   3.959   2.363   5.704 -0.0656  0.4298  1.0185
 5385SOL     OW27616   1.564   3.017   7.990  0.2413 -0.7500 -0.0825
 5385SOL    HW127617   1.531   2.948   8.047  0.6581  1.4994  2.8752
 5385SOL    HW227618   1.541   3.093   8.043 -0.9845  0.1044 -1.8379
 5386SOL     OW27619   0.143   1.584  10.443  0.4593 -0.4227 -0.7504
 5386SOL    HW127620   0.078   1.619  10.383  1.3864  0.5512 -1.1809
 5386SOL    HW227621   0.153   1.497  10.404  1.4048 -0.7348  0.1872
 5387SOL     OW27622   2.852   2.092   2.066  0.1124 -0.3724 -0.0656
 5387SOL    HW127623   2.792   2.106   1.993  1.3449  1.1862 -0.7824
 5387SOL    HW227624   2.888   2.007   2.041 -1.2298 -1.2343  0.9365
 5388SOL     OW27625   4.353   2.670  16.920  0.0409  0.4840  0.6297
 5388SOL    HW127626   4.305   2.662  17.002 -1.8034 -1.6418 -0.6718
 5388SOL    HW227627   4.314   2.597  16.873  1.6639 -0.7643  1.2301
 5389SOL     OW27628   3.868   0.202   1.640 -0.5258 -0.0257  0.4060
 5389SOL    HW127629   3.810   0.223   1.713 -1.6129  0.7666 -0.6882
 5389SOL    HW227630   3.806   0.216   1.568  0.5047  1.3813 -0.2036
 5390SOL     OW27631   0.821   0.393   6.922 -0.0281 -0.4512  0.2608
 5390SOL    HW127632   0.760   0.374   6.850 -0.6570 -1.9974  1.2091
 5390SOL    HW227633   0.904   0.377   6.877 -0.4298 -1.6492 -0.0555
 5391SOL     OW27634   0.501   3.934   4.886  0.0431 -0.6888 -0.8417
 5391SOL    HW127635   0.459   3.966   4.806  2.0125  0.6885 -1.3331
 5391SOL    HW227636   0.561   3.868   4.853  2.6057  1.4669 -0.5013
 5392SOL     OW27637   1.748   4.353   5.604 -0.1445 -0.0209  0.5535
 5392SOL    HW127638   1.713   4.390   5.685 -1.5759  0.3614 -0.2385
 5392SOL    HW227639   1.732   4.428   5.546 -1.0229  0.2427  1.1372
 5393SOL     OW27640   2.580   0.929   7.790  0.6034  0.1069  0.6603
 5393SOL    HW127641   2.600   0.979   7.710 -0.0592 -0.3478  0.2119
 5393SOL    HW227642   2.551   0.997   7.852  0.1727  2.1172 -1.7435
 5394SOL     OW27643   3.007   3.228  15.419 -0.2003 -0.7822 -0.0510
 5394SOL    HW127644   2.999   3.173  15.496 -2.1911 -1.0957 -0.4698
 5394SOL    HW227645   3.096   3.261  15.429 -1.6432  3.1842 -0.0782
 5395SOL     OW27646   3.136   3.663   5.876 -0.0863  0.0050 -0.4167
 5395SOL    HW127647   3.042   3.669   5.889  0.0395 -1.0401  0.9504
 5395SOL    HW227648   3.156   3.746   5.832 -0.8114  1.8510  2.7677
 5396SOL     OW27649   3.265   0.821  14.500  0.2333  0.8248  1.0103
 5396SOL    HW127650   3.223   0.741  14.530 -1.1537  1.1316 -0.1359
 5396SOL    HW227651   3.354   0.786  14.487  0.6050  0.7192  3.8691
 5397SOL     OW27652   1.954   0.844   3.046 -0.2309 -0.3984 -0.0771
 5397SOL    HW127653   1.930   0.789   3.120 -0.5020  1.5161  1.2739
 5397SOL    HW227654   1.959   0.777   2.978 -2.2522  0.2978 -0.9112
 5398SOL     OW27655   3.764   3.937   8.172 -0.2136 -0.4446  0.6705
 5398SOL    HW127656   3.704   3.875   8.131  0.6834  1.0690 -2.8517
 5398SOL    HW227657   3.792   4.005   8.111  1.2074 -0.8558  0.8777
 5399SOL     OW27658   0.717   1.601   4.057  0.4751 -0.4108 -0.0112
 5399SOL    HW127659   0.693   1.644   3.975  0.3103  0.0989  0.3080
 5399SOL    HW227660   0.698   1.509   4.037 -2.1206  0.6775 -2.5979
 5400SOL     OW27661   4.043   0.819  10.645  0.4594 -0.5413 -0.0906
 5400SOL    HW127662   3.970   0.858  10.597  0.8648  0.1953 -0.1105
 5400SOL    HW227663   4.005   0.818  10.732 -1.7209  0.3370 -1.0412
 5401SOL     OW27664   4.053   3.351  10.398  0.2107 -0.5584  0.0986
 5401SOL    HW127665   4.139   3.323  10.430  0.7125 -0.6616 -1.3071
 5401SOL    HW227666   3.996   3.281  10.428 -1.0815  0.6597  0.4732
 5402SOL     OW27667   1.879   3.010   4.436 -0.6517  0.3147 -0.3176
 5402SOL    HW127668   1.848   2.925   4.406  2.7245 -0.8652 -0.4754
 5402SOL    HW227669   1.876   2.998   4.531  0.4224 -2.4343 -0.6466
 5403SOL     OW27670   3.944   2.875   3.142  0.0323  0.0670 -0.0435
 5403SOL    HW127671   3.998   2.832   3.208 -0.8032 -0.5134  0.2627
 5403SOL    HW227672   3.944   2.820   3.064 -1.2866  2.5112 -1.7553
 5404SOL     OW27673   0.746   2.974   3.791 -0.3900 -0.0100 -0.1813
 5404SOL    HW127674   0.832   2.960   3.752 -0.0882 -1.7139  1.0965
 5404SOL    HW227675   0.764   3.063   3.821 -0.5333 -0.7074  1.9473
 5405SOL     OW27676   2.758   1.984   7.325  0.5902  0.0124  0.5302
 5405SOL    HW127677   2.717   1.934   7.254  0.9135  1.2424 -0.5154
 5405SOL    HW227678   2.697   1.955   7.393 -0.9810  1.2567 -0.3581
 5406SOL     OW27679   1.164   0.998   1.441 -0.3418 -0.2960 -0.2377
 5406SOL    HW127680   1.140   1.022   1.352  0.3848  0.0363 -0.3375
 5406SOL    HW227681   1.139   1.074   1.494 -0.3475 -0.5077  0.0625
 5407SOL     OW27682   4.598   3.051   2.838  0.4164 -0.1460 -0.8430
 5407SOL    HW127683   4.658   3.087   2.904 -2.2988 -0.3228  1.7345
 5407SOL    HW227684   4.518   3.044   2.891  0.8732 -2.8621 -0.4871
 5408SOL     OW27685   4.076   3.383  14.303 -0.6861 -0.1406  0.2204
 5408SOL    HW127686   4.141   3.315  14.285 -1.5333 -0.3643 -1.9748
 5408SOL    HW227687   4.055   3.372  14.396  0.7086 -2.3133  0.2674
 5409SOL     OW27688   0.190   3.579   6.491  0.2754  0.0054  0.2025
 5409SOL    HW127689   0.181   3.658   6.545  0.7273 -0.2956  0.7148
 5409SOL    HW227690   0.118   3.523   6.517  0.4266  0.0948  0.8173
 5410SOL     OW27691   1.773   0.242  10.606 -0.9593  0.7727 -0.5753
 5410SOL    HW127692   1.782   0.283  10.692  2.8639 -2.5406  0.6304
 5410SOL    HW227693   1.681   0.263  10.596 -1.0425  0.0224 -1.4494
 5411SOL     OW27694   1.758   1.337   8.032 -0.0647  0.0225  0.5636
 5411SOL    HW127695   1.803   1.266   8.076  0.0350  0.3662  1.0104
 5411SOL    HW227696   1.751   1.392   8.110 -1.6346 -0.2149  0.6022
 5412SOL     OW27697   3.080   4.371   2.391 -0.0644 -0.4718  0.2391
 5412SOL    HW127698   3.055   4.303   2.454 -0.0816 -1.6373 -1.0412
 5412SOL    HW227699   3.151   4.418   2.435 -0.1455 -0.3758  0.2677
 5413SOL     OW27700   4.524   4.130   4.622  0.0776  0.2608 -0.1937
 5413SOL    HW127701   4.502   4.081   4.543 -0.9233  0.1390  0.1643
 5413SOL    HW227702   4.509   4.063   4.689 -0.8522  1.2070  0.5529
 5414SOL     OW27703   0.274   3.775   3.723  0.0719 -0.2944 -0.3284
 5414SOL    HW127704   0.221   3.854   3.711  0.1383 -0.4114 -1.4277
 5414SOL    HW227705   0.279   3.746   3.632  0.4504  0.7806 -0.6599
 5415SOL     OW27706   3.657   0.186   8.911  0.2112  0.0641 -0.4384
 5415SOL    HW127707   3.582   0.133   8.884  0.3897  0.3542 -1.5057
 5415SOL    HW227708   3.693   0.208   8.825 -0.0487  3.5477  0.3420
 5416SOL     OW27709   0.767   1.398  12.813  0.8580 -0.3445 -0.5834
 5416SOL    HW127710   0.808   1.477  12.778  0.2828 -0.4021 -1.3955
 5416SOL    HW227711   0.684   1.395  12.765 -0.3143  3.6333  1.2017
 5417SOL     OW27712   3.220   2.184  15.821 -0.5283 -0.0540 -0.3702
 5417SOL    HW127713   3.310   2.188  15.852  0.5240 -0.3070 -3.4502
 5417SOL    HW227714   3.192   2.271  15.849  0.8339  0.3308 -0.2218
 5418SOL     OW27715   3.252   3.442  13.470  0.2115 -0.1993  0.4133
 5418SOL    HW127716   3.198   3.373  13.510  0.7768 -0.1043  1.3528
 5418SOL    HW227717   3.322   3.460  13.533 -1.9599 -1.7905  3.2747
 5419SOL     OW27718   3.351   2.519  12.291 -0.6618 -0.2475  0.2110
 5419SOL    HW127719   3.336   2.580  12.218 -0.8445  0.6285  0.9816
 5419SOL    HW227720   3.305   2.571  12.357 -1.3990  1.0247 -1.2956
 5420SOL     OW27721   2.600   2.644  11.433 -0.0983  0.1192  0.2663
 5420SOL    HW127722   2.517   2.642  11.385 -0.3617  0.9375  0.6753
 5420SOL    HW227723   2.659   2.680  11.368 -1.1097  1.8084  0.2666
 5421SOL     OW27724   2.295   1.217  14.684 -0.1721  0.4049  0.9333
 5421SOL    HW127725   2.288   1.276  14.609 -2.3037  0.0441  0.8674
 5421SOL    HW227726   2.385   1.229  14.716 -0.5984 -0.1565  2.3211
 5422SOL     OW27727   4.189   3.739   6.563  0.4025  0.1676  0.6266
 5422SOL    HW127728   4.229   3.793   6.495 -1.0786  0.9879  0.4041
 5422SOL    HW227729   4.207   3.792   6.641 -2.2911  0.3491  1.1346
 5423SOL     OW27730   3.883   2.517  17.569 -0.0854 -0.1970  0.1035
 5423SOL    HW127731   3.907   2.449  17.507  0.1245 -0.0506  0.0253
 5423SOL    HW227732   3.968   2.560  17.579  0.1469 -1.0414  1.7752
 5424SOL     OW27733   3.881   3.518  13.450  0.2310 -0.9594 -0.8648
 5424SOL    HW127734   3.962   3.534  13.402  0.1879 -0.1519 -0.6616
 5424SOL    HW227735   3.916   3.474  13.528 -0.8021  0.5985  0.4814
 5425SOL     OW27736   2.086   3.479   3.844 -0.3083  1.2385  0.6312
 5425SOL    HW127737   2.180   3.465   3.836 -0.0807  2.6526  0.9434
 5425SOL    HW227738   2.078   3.484   3.939 -0.6412 -1.9383  0.7722
 5426SOL     OW27739   2.140   0.111   6.550  0.2483  0.3411  0.2781
 5426SOL    HW127740   2.140   0.084   6.458  1.7954 -1.9181  0.9329
 5426SOL    HW227741   2.158   0.205   6.543  0.4436  0.2029 -1.2020
 5427SOL     OW27742   3.257   0.717   6.046 -0.0391 -0.1364  0.5015
 5427SOL    HW127743   3.283   0.735   6.137  2.6586 -0.1025 -0.2786
 5427SOL    HW227744   3.339   0.688   6.007  0.7268  2.0057  0.5166
 5428SOL     OW27745   4.421   2.563   1.035 -0.7798 -0.3255 -0.3508
 5428SOL    HW127746   4.508   2.594   1.060 -0.2405  0.3604 -3.0680
 5428SOL    HW227747   4.422   2.586   0.942  1.2666  0.1063 -0.2173
 5429SOL     OW27748   0.431   0.037  14.165  0.3915  0.2451 -0.0774
 5429SOL    HW127749   0.443   0.065  14.256  0.3081 -0.7036  0.2288
 5429SOL    HW227750   0.335   0.046  14.166  0.4568  0.9546 -0.2512
 5430SOL     OW27751   0.546   0.883   8.570 -0.0605 -0.5949 -0.5060
 5430SOL    HW127752   0.580   0.968   8.597 -1.3884 -0.9389  2.2353
 5430SOL    HW227753   0.456   0.907   8.549 -0.5858 -1.7875  0.3457
 5431SOL     OW27754   4.668   2.374   2.270 -0.4321  0.0743  0.2365
 5431SOL    HW127755   4.703   2.454   2.231 -3.2100  0.2314 -1.9427
 5431SOL    HW227756   4.577   2.400   2.259 -0.0696 -0.0467 -2.9574
 5432SOL     OW27757   3.835   0.633   9.166  0.0761 -0.1690 -0.3531
 5432SOL    HW127758   3.898   0.647   9.236 -2.4411 -0.1476  1.8899
 5432SOL    HW227759   3.819   0.539   9.178  0.7378  0.0260  2.0082
 5433SOL     OW27760   1.750   1.522   3.264 -0.2832 -0.2780 -0.0636
 5433SOL    HW127761   1.728   1.431   3.242  1.9820 -0.6377 -0.8328
 5433SOL    HW227762   1.676   1.561   3.311  0.9459  1.5444  0.3431
 5434SOL     OW27763   2.591   2.203  10.680  0.1545 -0.0301  0.3000
 5434SOL    HW127764   2.504   2.243  10.681 -0.7851 -2.0757 -0.0706
 5434SOL    HW227765   2.609   2.232  10.591 -0.7092  2.8659  1.0447
 5435SOL     OW27766   2.374   1.995   5.482 -0.5690 -0.1044  0.0454
 5435SOL    HW127767   2.288   1.994   5.523 -0.6065 -2.3017 -0.0683
 5435SOL    HW227768   2.411   1.916   5.521 -1.9524 -0.4003  0.7501
 5436SOL     OW27769   3.945   1.400  15.350 -0.4182 -0.2887 -0.4485
 5436SOL    HW127770   3.878   1.442  15.297 -1.3153  0.8060  1.5887
 5436SOL    HW227771   4.018   1.405  15.288 -0.0459 -4.0738 -0.3700
 5437SOL     OW27772   2.837   4.127   0.138 -0.5524 -0.1195  0.0281
 5437SOL    HW127773   2.839   4.110   0.232  1.1420 -0.0133  0.0255
 5437SOL    HW227774   2.918   4.087   0.106 -0.2699  1.7708 -1.6643
 5438SOL     OW27775   0.531   1.534   3.765 -0.4100 -0.4011 -0.5886
 5438SOL    HW127776   0.549   1.454   3.717  0.9710  0.5893 -1.7293
 5438SOL    HW227777   0.617   1.576   3.773 -0.1289 -1.0638 -0.1806
 5439SOL     OW27778   3.665   3.650  10.039 -0.2616 -0.2254  0.0523
 5439SOL    HW127779   3.603   3.696  10.096 -0.2272 -0.6250  0.4059
 5439SOL    HW227780   3.745   3.701  10.054 -1.7677  1.9405  0.8238
 5440SOL     OW27781   0.194   0.823   1.506 -0.2022 -0.2664 -0.0551
 5440SOL    HW127782   0.281   0.784   1.498 -0.1663 -0.0767 -0.6178
 5440SOL    HW227783   0.162   0.797   1.592 -1.7968  0.7703 -0.3306
 5441SOL     OW27784   3.828   0.660   6.455 -0.3137 -0.1026 -0.0919
 5441SOL    HW127785   3.889   0.595   6.490  0.2574  0.7352  0.4849
 5441SOL    HW227786   3.837   0.731   6.519 -2.0154  0.4622 -0.4772
 5442SOL     OW27787   4.413   0.690   1.253  0.4375  0.3313 -0.2524
 5442SOL    HW127788   4.496   0.670   1.298 -1.1694 -1.8307  1.8032
 5442SOL    HW227789   4.440   0.729   1.170 -1.4334 -1.1452 -1.5614
 5443SOL     OW27790   1.476   0.257   8.344  0.6930  0.1879 -0.2002
 5443SOL    HW127791   1.455   0.186   8.406 -1.1740  1.1868  0.3054
 5443SOL    HW227792   1.450   0.333   8.396  1.2561 -0.6334  1.3082
 5444SOL     OW27793   1.811   1.751   7.105 -0.3840 -0.2486  0.0334
 5444SOL    HW127794   1.862   1.745   7.186 -0.1892  1.0015  0.0031
 5444SOL    HW227795   1.860   1.689   7.051 -1.1153 -0.2444 -0.6207
 5445SOL     OW27796   0.032   0.967   3.836 -0.4994 -0.3741  0.7707
 5445SOL    HW127797   0.044   0.903   3.906 -1.8605 -1.6053 -0.1431
 5445SOL    HW227798   0.115   0.965   3.787 -1.7912  0.9704 -1.4641
 5446SOL     OW27799   0.594   2.705   6.566  0.1190 -0.2044  0.1371
 5446SOL    HW127800   0.517   2.742   6.523  0.9837  0.8303 -0.5218
 5446SOL    HW227801   0.553   2.664   6.642 -2.6033 -0.0902 -1.2574
 5447SOL     OW27802   4.657   2.425   8.176  0.2214 -0.0691 -0.1164
 5447SOL    HW127803   4.651   2.338   8.216  1.1913  0.1310  0.4487
 5447SOL    HW227804   4.724   2.399   8.112 -2.1174  1.3621 -3.1479
 5448SOL     OW27805   1.222   4.169   3.055 -0.0908  0.4083 -0.8667
 5448SOL    HW127806   1.308   4.196   3.022  1.5316 -1.3154  1.9078
 5448SOL    HW227807   1.240   4.187   3.147  1.2139  0.8802 -1.2147
 5449SOL     OW27808   2.575   4.532   5.323 -0.7773 -0.3287 -0.1459
 5449SOL    HW127809   2.488   4.548   5.286 -1.5400  0.2486  1.9431
 5449SOL    HW227810   2.543   4.470   5.389  0.2533 -0.1270  0.5307
 5450SOL     OW27811   3.948   1.886   8.657 -0.0781  0.0410  0.4960
 5450SOL    HW127812   4.012   1.916   8.722  1.3608  0.0939 -0.9479
 5450SOL    HW227813   3.982   1.801   8.629  1.1774  0.4780  0.6895
 5451SOL     OW27814   1.421   3.155   4.304 -0.5669  0.2834 -0.0407
 5451SOL    HW127815   1.409   3.062   4.322 -1.0853 -0.0705 -2.1767
 5451SOL    HW227816   1.513   3.169   4.323 -0.8945  2.1244  0.1543
 5452SOL     OW27817   0.494   1.854  14.321 -0.2264 -0.3070  0.1760
 5452SOL    HW127818   0.558   1.908  14.275 -1.1249  1.4565  1.0211
 5452SOL    HW227819   0.465   1.912  14.392 -2.3084  0.1682 -1.0714
 5453SOL     OW27820   4.161   3.303   4.067  0.2104 -0.5055 -0.0557
 5453SOL    HW127821   4.121   3.284   4.152  3.3525 -1.4152  1.2276
 5453SOL    HW227822   4.234   3.241   4.067  0.0948 -0.6393  1.2497
 5454SOL     OW27823   0.438   1.494   4.844 -0.8536 -0.0531  0.9197
 5454SOL    HW127824   0.532   1.494   4.826 -0.9992 -1.7479  0.2078
 5454SOL    HW227825   0.449   1.516   4.937  1.0932 -3.7604  1.5334
 5455SOL     OW27826   1.414   2.623  13.363  0.0220  0.3674  0.1873
 5455SOL    HW127827   1.351   2.570  13.412  0.9947 -1.7564 -0.8570
 5455SOL    HW227828   1.380   2.712  13.370 -0.5721 -0.0263  2.1353
 5456SOL     OW27829   0.091   0.106   6.514 -0.5066  0.0459 -0.2347
 5456SOL    HW127830   0.090   0.045   6.441 -2.8599  0.9667 -0.9610
 5456SOL    HW227831   0.151   0.174   6.484  1.9870 -1.7611  0.6390
 5457SOL     OW27832   1.325   0.473  11.806 -0.3412 -0.3337 -0.5793
 5457SOL    HW127833   1.254   0.536  11.813 -0.7145 -0.8125 -0.0243
 5457SOL    HW227834   1.279   0.404  11.758 -3.0617  1.2221 -0.2255
 5458SOL     OW27835   3.371   0.512   4.062  0.0582 -0.1270 -0.1129
 5458SOL    HW127836   3.289   0.490   4.018 -0.0162  1.3795 -0.7141
 5458SOL    HW227837   3.378   0.607   4.056 -0.7316 -0.1490 -1.3836
 5459SOL     OW27838   2.445   2.776   8.339  0.0086  0.2153  0.1498
 5459SOL    HW127839   2.446   2.735   8.425  2.2129 -1.7130 -0.8170
 5459SOL    HW227840   2.352   2.765   8.316 -0.5283  2.4732  1.1851
 5460SOL     OW27841   3.542   4.481   9.180  0.2064 -0.4715 -0.8343
 5460SOL    HW127842   3.612   4.493   9.245 -0.6275 -0.9760  0.1557
 5460SOL    HW227843   3.466   4.466   9.236 -0.0685 -0.3492 -1.1791
 5461SOL     OW27844   2.352   1.716  12.755 -0.5109 -0.1025  0.1648
 5461SOL    HW127845   2.436   1.745  12.718  0.1955 -2.4764 -0.1617
 5461SOL    HW227846   2.384   1.638  12.801 -0.7169  0.1708  0.7710
 5462SOL     OW27847   4.256   2.213   8.459 -0.1053  0.0498  0.3515
 5462SOL    HW127848   4.276   2.260   8.378 -0.3932  0.0079  0.2535
 5462SOL    HW227849   4.175   2.168   8.433  0.5677  0.2333 -2.0444
 5463SOL     OW27850   2.005   2.095   2.292 -0.2029 -0.5524  0.4700
 5463SOL    HW127851   2.009   2.153   2.217  0.9584  1.7013  2.2794
 5463SOL    HW227852   1.970   2.146   2.365 -2.0849 -0.8135 -0.2668
 5464SOL     OW27853   0.208   2.105   4.668  0.0546  0.4246 -0.1874
 5464SOL    HW127854   0.300   2.130   4.660  0.5329 -1.5456 -0.9864
 5464SOL    HW227855   0.183   2.075   4.581 -1.2595 -0.1570  0.3960
 5465SOL     OW27856   3.428   1.339   4.085  0.2812  0.2298  0.2895
 5465SOL    HW127857   3.447   1.366   4.175  0.5421  1.2483 -0.0726
 5465SOL    HW227858   3.350   1.392   4.069  0.1780 -0.2766 -0.9201
 5466SOL     OW27859   1.810   2.983   4.732 -0.1465  0.1405 -0.3474
 5466SOL    HW127860   1.754   3.060   4.732  1.5616  1.3976 -1.9787
 5466SOL    HW227861   1.893   3.018   4.764 -0.4371  0.7547 -0.2647
 5467SOL     OW27862   1.974   0.626  12.755  0.4864 -0.0345  0.2976
 5467SOL    HW127863   2.008   0.564  12.689  1.5866  1.3413 -0.4230
 5467SOL    HW227864   1.945   0.572  12.829 -0.4991  1.5924  1.0821
 5468SOL     OW27865   0.615   2.091   6.865 -0.5454  0.1392 -0.7355
 5468SOL    HW127866   0.601   2.129   6.778  0.4986  1.1763 -0.4513
 5468SOL    HW227867   0.529   2.054   6.885  0.3792 -1.8760 -0.3968
 5469SOL     OW27868   2.693   2.894  11.599  0.4718 -0.5259  0.6011
 5469SOL    HW127869   2.775   2.916  11.555 -0.7201 -0.5272 -1.5948
 5469SOL    HW227870   2.738   2.869  11.680  0.3774  2.9770  1.7555
 5470SOL     OW27871   2.981   4.104  16.164  0.2561  0.1869 -0.2902
 5470SOL    HW127872   2.903   4.139  16.119  0.8887  2.0298  0.0482
 5470SOL    HW227873   2.973   4.140  16.252 -3.6284 -1.8624  0.2067
 5471SOL     OW27874   4.150   1.553  12.711  0.1192 -0.1101  1.0598
 5471SOL    HW127875   4.093   1.516  12.779 -1.8522 -0.8295 -0.9690
 5471SOL    HW227876   4.216   1.572  12.777  1.3687  0.6738 -0.4230
 5472SOL     OW27877   1.649   1.123  16.169  0.6254  0.0305  0.0283
 5472SOL    HW127878   1.581   1.107  16.236 -0.5629  1.5811 -0.8119
 5472SOL    HW227879   1.599   1.108  16.089  1.9741  0.1457 -0.8238
 5473SOL     OW27880   2.897   0.040   8.963  0.3246 -0.4317 -0.4759
 5473SOL    HW127881   2.817   0.092   8.967 -1.7937 -3.8255  1.3911
 5473SOL    HW227882   2.900   0.026   9.058  1.5893  0.1262 -0.4303
 5474SOL     OW27883   0.533   2.922   5.436 -0.7114 -0.1026 -0.0108
 5474SOL    HW127884   0.524   2.908   5.341  1.5167  0.2468 -0.2837
 5474SOL    HW227885   0.450   2.889   5.470 -0.2957  0.7705  1.8422
 5475SOL     OW27886   0.414   0.262   2.714 -0.1101 -0.2008 -0.2693
 5475SOL    HW127887   0.350   0.333   2.718  2.0220  1.7169  0.2787
 5475SOL    HW227888   0.361   0.213   2.651  0.5494 -1.2695  0.0136
 5476SOL     OW27889   0.351   2.035   6.094  0.6288  0.3342 -0.0509
 5476SOL    HW127890   0.311   2.085   6.023  1.8030  0.3027 -0.7425
 5476SOL    HW227891   0.397   2.106   6.139  0.1463  1.1766 -0.8818
 5477SOL     OW27892   0.263   4.144   5.310  0.2360  0.0510  0.2995
 5477SOL    HW127893   0.253   4.190   5.394 -0.3723  1.4331 -0.5288
 5477SOL    HW227894   0.248   4.219   5.253  1.1596  1.5293  1.9963
 5478SOL     OW27895   1.176   0.305   3.390  0.2788 -0.3913  0.0018
 5478SOL    HW127896   1.181   0.371   3.458 -1.6158 -0.2434  0.0046
 5478SOL    HW227897   1.109   0.253   3.435  1.4275 -0.6576  1.4124
 5479SOL     OW27898   3.141   4.507  17.038  0.3813  0.5650 -0.1701
 5479SOL    HW127899   3.203   4.575  17.064  2.6377 -2.6590  2.8318
 5479SOL    HW227900   3.078   4.561  16.990  0.2243  0.7491  0.2449
 5480SOL     OW27901   3.321   1.953   4.035  0.6003  0.1627  0.0563
 5480SOL    HW127902   3.258   1.987   3.972  0.1475  2.0046  1.5302
 5480SOL    HW227903   3.265   1.916   4.104  1.5987 -0.6274  0.4423
 5481SOL     OW27904   2.380   0.645  15.236 -0.0795  0.6370  0.6247
 5481SOL    HW127905   2.371   0.725  15.185  2.2195  0.9796  0.7730
 5481SOL    HW227906   2.402   0.681  15.322 -1.1036 -1.0539  1.6156
 5482SOL     OW27907   2.271   0.012   7.493  0.3533 -0.5554 -0.0713
 5482SOL    HW127908   2.357   0.046   7.467 -0.0965 -1.0613 -2.1983
 5482SOL    HW227909   2.293   4.647   7.511  0.6085 -0.7545 -1.3524
 5483SOL     OW27910   2.849   3.862  11.669 -0.1167 -0.2318 -0.2461
 5483SOL    HW127911   2.841   3.957  11.655  0.7246  0.1698  1.9735
 5483SOL    HW227912   2.894   3.841  11.587  1.2193  0.7149  0.2555
 5484SOL     OW27913   3.019   4.442  10.236  0.4777 -0.2142  0.2743
 5484SOL    HW127914   3.092   4.493  10.272  0.5583  0.5561 -0.9931
 5484SOL    HW227915   2.945   4.475  10.287  1.1527 -0.7547  1.6217
 5485SOL     OW27916   1.026   0.855   5.519  0.0643 -0.0517  0.5087
 5485SOL    HW127917   0.956   0.825   5.577 -2.4816  1.9534 -1.5668
 5485SOL    HW227918   1.032   0.772   5.471  0.2809  0.4928 -0.3992
 5486SOL     OW27919   2.566   2.785  10.927 -0.2006  0.2829 -0.2074
 5486SOL    HW127920   2.611   2.789  10.843 -0.3583  1.7141 -0.2253
 5486SOL    HW227921   2.562   2.689  10.933  0.2909  0.3512  1.2354
 5487SOL     OW27922   1.286   1.608   7.193 -0.3174  0.1169  0.1178
 5487SOL    HW127923   1.319   1.632   7.106 -0.6142 -0.0304 -0.0352
 5487SOL    HW227924   1.345   1.536   7.215 -1.1805 -0.7112 -0.2727
 5488SOL     OW27925   1.495   3.637  10.368 -0.0860  0.3054  0.2163
 5488SOL    HW127926   1.410   3.602  10.394 -0.4120  0.8515 -0.1269
 5488SOL    HW227927   1.524   3.654  10.458  0.8476 -1.0027  0.1727
 5489SOL     OW27928   1.155   2.221   5.117 -0.0830 -0.4245  0.2584
 5489SOL    HW127929   1.247   2.209   5.142  0.4094  3.3440  0.1771
 5489SOL    HW227930   1.113   2.183   5.194 -1.4567  2.2813  0.8289
 5490SOL     OW27931   3.268   0.886  13.166 -0.1481 -0.5379 -0.4660
 5490SOL    HW127932   3.251   0.938  13.244 -0.3237 -0.0446 -0.8319
 5490SOL    HW227933   3.361   0.870  13.177  0.4484  2.6546 -0.8899
 5491SOL     OW27934   2.785   3.847   6.490  0.8071  0.2027 -0.0190
 5491SOL    HW127935   2.861   3.879   6.540  1.6622 -3.7967  1.2034
 5491SOL    HW227936   2.730   3.925   6.480  0.9019  0.0236 -1.9523
 5492SOL     OW27937   4.079   4.621   4.621 -0.1523 -0.1274  0.0046
 5492SOL    HW127938   4.030   4.639   4.701  0.6462  1.1014  0.2354
 5492SOL    HW227939   4.051   4.533   4.597  2.0262 -1.2505  1.5452
 5493SOL     OW27940   4.186   0.701   5.747  0.2456 -0.1590 -0.3434
 5493SOL    HW127941   4.126   0.754   5.695 -1.8815  0.8355  3.1874
 5493SOL    HW227942   4.198   0.755   5.825 -0.8421 -0.5093  0.0623
 5494SOL     OW27943   4.456   1.474   8.810  0.1642 -0.1509  0.1513
 5494SOL    HW127944   4.385   1.536   8.828  0.7266  0.6557 -0.4174
 5494SOL    HW227945   4.493   1.504   8.727 -1.9915  0.0139 -0.7559
 5495SOL     OW27946   0.666   1.328  11.528 -0.6865  0.0523 -0.5168
 5495SOL    HW127947   0.618   1.409  11.547 -0.0310  0.5003 -0.7623
 5495SOL    HW227948   0.718   1.349  11.451 -2.2242 -0.7316 -1.7527
 5496SOL     OW27949   0.315   2.480   2.562  0.5169 -0.2866 -0.4163
 5496SOL    HW127950   0.387   2.419   2.580  0.6983  0.2865  0.8146
 5496SOL    HW227951   0.242   2.421   2.539  1.6916 -1.1440 -1.9374
 5497SOL     OW27952   0.656   1.880   7.493 -0.4204 -0.1864  0.2146
 5497SOL    HW127953   0.750   1.869   7.480 -1.0920 -1.6461 -3.1822
 5497SOL    HW227954   0.633   1.877   7.400  0.9909  0.1920 -0.1326
 5498SOL     OW27955   2.116   2.191   8.023 -0.2039 -0.1561  0.2638
 5498SOL    HW127956   2.101   2.273   7.976 -0.8000 -1.0132 -1.0619
 5498SOL    HW227957   2.096   2.138   7.945 -0.3930 -0.3253  0.4282
 5499SOL     OW27958   0.476   3.335   3.786 -0.3375  0.3158 -0.2055
 5499SOL    HW127959   0.456   3.316   3.694  2.0342 -0.7938 -0.4892
 5499SOL    HW227960   0.570   3.345   3.776 -0.0390 -0.8784  1.4443
 5500SOL     OW27961   3.608   2.556  12.736  0.8780  0.0581  0.3119
 5500SOL    HW127962   3.645   2.634  12.779  2.6306  0.1551 -1.3512
 5500SOL    HW227963   3.683   2.535  12.680  1.4785  0.6257  0.8983
 5501SOL     OW27964   2.747   3.532  14.287 -0.0260 -0.3677 -0.0344
 5501SOL    HW127965   2.659   3.499  14.266  0.2422 -0.2720 -1.3052
 5501SOL    HW227966   2.795   3.458  14.324 -2.1107 -0.9488  1.5311
 5502SOL     OW27967   4.462   0.164   9.126  0.1508 -0.5170 -0.2537
 5502SOL    HW127968   4.541   0.217   9.111 -1.9860  2.2389 -1.7329
 5502SOL    HW227969   4.452   0.182   9.219 -0.4459 -1.3052 -0.1686
 5503SOL     OW27970   4.453   2.582   9.566  0.0771 -0.3499 -0.2767
 5503SOL    HW127971   4.530   2.544   9.523 -0.0991  0.8329 -1.6471
 5503SOL    HW227972   4.447   2.666   9.522 -1.3132 -0.6916 -0.7224
 5504SOL     OW27973   3.059   3.407   6.728 -0.6565 -0.0826  0.5494
 5504SOL    HW127974   3.072   3.319   6.691 -2.2378  0.5235 -1.4665
 5504SOL    HW227975   3.138   3.451   6.696 -0.6510  1.0740  2.1967
 5505SOL     OW27976   2.912   0.252  17.220  0.1671 -0.0305 -0.0428
 5505SOL    HW127977   2.901   0.303  17.140 -1.6756  0.2862  0.3993
 5505SOL    HW227978   2.824   0.257  17.259  0.0029 -0.4377 -0.3560
 5506SOL     OW27979   4.063   1.784   8.004 -0.1840 -0.3292 -0.0240
 5506SOL    HW127980   4.013   1.790   7.923 -0.7666  1.8417  0.4982
 5506SOL    HW227981   4.092   1.693   8.004 -0.2697 -0.3585  0.3589
 5507SOL     OW27982   4.058   3.607   3.018  0.0401  0.0632  0.6021
 5507SOL    HW127983   4.100   3.678   3.067  1.1715  0.4440 -0.9429
 5507SOL    HW227984   4.098   3.535   3.068 -0.9890 -0.5431  0.5466
 5508SOL     OW27985   1.783   2.720  11.932  0.2026  0.3574  0.1767
 5508SOL    HW127986   1.713   2.659  11.954 -0.0651  1.2010  1.6825
 5508SOL    HW227987   1.743   2.776  11.865  1.9919  1.3520 -0.0667
 5509SOL     OW27988   2.947   0.414  16.970  0.4965 -0.2769 -0.3423
 5509SOL    HW127989   3.037   0.444  16.986  0.5857 -0.6194 -0.1805
 5509SOL    HW227990   2.916   0.461  16.893  0.7098 -0.3323 -0.4650
 5510SOL     OW27991   3.235   2.410  13.799 -0.0498 -0.1733  0.6480
 5510SOL    HW127992   3.206   2.395  13.889 -0.1217 -0.4226  0.5828
 5510SOL    HW227993   3.284   2.492  13.804 -0.8283  0.3882 -1.0499
 5511SOL     OW27994   2.691   4.511   2.191 -0.1079 -0.3103 -0.3433
 5511SOL    HW127995   2.786   4.517   2.194 -0.1921  0.7168  0.5357
 5511SOL    HW227996   2.673   4.418   2.183  0.3133 -0.4741  0.7126
 5512SOL     OW27997   2.593   1.313   8.429 -0.1910 -0.2841 -0.2166
 5512SOL    HW127998   2.645   1.359   8.495  0.8987 -0.7173 -0.7854
 5512SOL    HW227999   2.613   1.221   8.444  0.0829 -0.2382 -0.3060
 5513SOL     OW28000   1.302   0.142  15.922 -0.3028 -0.2538 -0.4692
 5513SOL    HW128001   1.216   0.144  15.963 -1.4633  0.0569 -2.9318
 5513SOL    HW228002   1.309   0.046  15.918 -2.1839 -0.3948 -0.3510
 5514SOL     OW28003   2.316   4.215  12.599  0.5588  0.0241  0.0107
 5514SOL    HW128004   2.398   4.167  12.603 -0.0075 -1.0137 -0.8835
 5514SOL    HW228005   2.270   4.151  12.654  0.4563  0.1943  0.1239
 5515SOL     OW28006   4.153   2.690   0.219  0.1424  0.1475 -0.1427
 5515SOL    HW128007   4.109   2.772   0.240  0.1711  0.3625 -0.9074
 5515SOL    HW228008   4.126   2.684   0.127  2.0367  1.8465 -0.8018
 5516SOL     OW28009   0.059   3.370   7.983 -0.3880  0.1221 -0.5613
 5516SOL    HW128010   0.040   3.319   8.062  0.7171  2.6790  1.3147
 5516SOL    HW228011   4.708   3.426   7.977 -0.5667  0.0156  0.7829
 5517SOL     OW28012   0.501   3.609  15.547  0.0988  0.0134  0.1515
 5517SOL    HW128013   0.545   3.527  15.524  0.0319  0.3163 -1.0874
 5517SOL    HW228014   0.536   3.634  15.633 -1.0836  0.3291  0.5392
 5518SOL     OW28015   2.175   0.963  16.895 -0.4731 -0.0163 -0.2605
 5518SOL    HW128016   2.216   0.900  16.955 -0.8134 -0.3780 -0.4057
 5518SOL    HW228017   2.085   0.968  16.926  0.1686  1.1840  1.3889
 5519SOL     OW28018   0.134   0.117   3.037 -0.0624  0.0096  0.0652
 5519SOL    HW128019   0.052   0.124   3.085  0.0722 -0.9272  0.4406
 5519SOL    HW228020   0.176   0.035   3.065 -0.9918 -0.1747  0.9226
 5520SOL     OW28021   0.023   1.185   6.420 -0.0109 -0.2035  0.0146
 5520SOL    HW128022   4.713   1.169   6.333 -0.6529  0.0965  0.2253
 5520SOL    HW228023   0.112   1.189   6.385 -0.3868  0.5930 -0.8389
 5521SOL     OW28024   0.692   2.658  13.165 -0.5993 -0.5253  0.6638
 5521SOL    HW128025   0.720   2.567  13.149  1.4802  0.1093  0.6789
 5521SOL    HW228026   0.727   2.674  13.253  2.4710 -2.1365 -0.2443
 5522SOL     OW28027   4.394   0.325  14.977 -0.6338  0.7155  0.3252
 5522SOL    HW128028   4.352   0.240  14.992 -0.2852  0.1377 -1.9550
 5522SOL    HW228029   4.332   0.360  14.913 -1.0066 -0.2370  0.1624
 5523SOL     OW28030   0.463   0.609   3.296 -0.6284  0.4993  0.4205
 5523SOL    HW128031   0.383   0.626   3.346 -0.2761  1.5622  0.6336
 5523SOL    HW228032   0.456   0.515   3.277 -0.1194  0.4104  0.6799
 5524SOL     OW28033   0.439   0.840  10.001 -0.1068  0.0571  0.1140
 5524SOL    HW128034   0.508   0.776   9.986 -0.5653 -0.2481 -0.6764
 5524SOL    HW228035   0.366   0.803   9.951  0.2325  0.5708 -0.7647
 5525SOL     OW28036   3.471   1.339  14.762 -0.4238  0.1939 -0.0947
 5525SOL    HW128037   3.481   1.363  14.854 -0.8749 -1.0593  0.2872
 5525SOL    HW228038   3.560   1.346  14.725 -0.3713  0.2592  0.0434
 5526SOL     OW28039   3.695   1.486   1.539 -0.0264 -0.5519 -0.1794
 5526SOL    HW128040   3.614   1.451   1.501 -0.4446  1.3869 -1.0537
 5526SOL    HW228041   3.713   1.564   1.487  1.2333 -0.8170 -0.1409
 5527SOL     OW28042   3.516   1.876  15.215  0.1280  0.6380 -0.1020
 5527SOL    HW128043   3.503   1.942  15.283  0.1869  2.4605 -1.8709
 5527SOL    HW228044   3.531   1.932  15.139  2.0043  0.1904 -0.0696
 5528SOL     OW28045   4.006   0.047   5.368  0.6651  0.2741  0.4792
 5528SOL    HW128046   4.101   0.051   5.384  1.0011 -1.8108 -1.0028
 5528SOL    HW228047   3.978   0.109   5.436  0.4785 -0.0983  0.7389
 5529SOL     OW28048   3.966   2.678  13.166 -0.2134  0.0863 -0.0360
 5529SOL    HW128049   3.881   2.684  13.209 -0.4975 -2.0786 -0.3078
 5529SOL    HW228050   4.007   2.594  13.190 -2.6193 -0.5762  1.7786
 5530SOL     OW28051   3.223   3.292   8.644  0.0748 -0.6099 -1.1236
 5530SOL    HW128052   3.256   3.244   8.568  2.0429 -2.3468  0.8253
 5530SOL    HW228053   3.129   3.274   8.643 -0.0430 -0.0557  0.3838
 5531SOL     OW28054   4.327   3.115   4.154 -0.0896 -0.4589 -0.1175
 5531SOL    HW128055   4.336   3.092   4.247  0.0764  0.1186  0.0107
 5531SOL    HW228056   4.412   3.092   4.118  0.6770  0.6697  0.9732
 5532SOL     OW28057   1.864   0.946   2.600 -0.0222 -0.5335  0.5124
 5532SOL    HW128058   1.820   1.025   2.566  0.8622 -0.5258 -0.6074
 5532SOL    HW228059   1.933   0.990   2.649  1.0928 -2.6735  0.8161
 5533SOL     OW28060   1.617   1.249  10.605  0.4306 -0.6892  0.5586
 5533SOL    HW128061   1.534   1.282  10.640  1.3556  0.8702  1.2581
 5533SOL    HW228062   1.627   1.167  10.654  0.9543  0.8571  3.0464
 5534SOL     OW28063   0.958   3.634  14.515  0.1345 -0.2017  0.2231
 5534SOL    HW128064   1.024   3.651  14.583  1.1833  1.2591 -1.1514
 5534SOL    HW228065   0.913   3.717  14.525 -0.2662 -0.1813 -1.8001
 5535SOL     OW28066   2.551   0.755  10.232  0.0605  0.4858 -0.0642
 5535SOL    HW128067   2.562   0.842  10.270  1.7125 -0.2105  1.0602
 5535SOL    HW228068   2.456   0.747  10.236  0.1934  1.0598  3.5359
 5536SOL     OW28069   1.289   3.057  15.365  0.2207 -0.9790 -0.2079
 5536SOL    HW128070   1.314   3.034  15.275 -2.1551 -1.0096 -0.8618
 5536SOL    HW228071   1.375   3.055  15.408  0.1559  0.3229 -0.0163
 5537SOL     OW28072   0.332   0.620   9.418 -0.2038 -0.2703 -0.0600
 5537SOL    HW128073   0.339   0.639   9.325 -0.4077  0.6845  0.1155
 5537SOL    HW228074   0.386   0.541   9.423 -1.5348 -1.2778 -1.5900
 5538SOL     OW28075   1.210   4.055  16.945  0.5983 -0.0452 -0.0743
 5538SOL    HW128076   1.274   4.000  16.899 -0.4940 -1.3690 -0.0349
 5538SOL    HW228077   1.183   4.123  16.883 -1.5099 -1.1810 -0.4051
 5539SOL     OW28078   0.558   2.784   3.683  0.2233  0.0025  0.1690
 5539SOL    HW128079   0.581   2.873   3.709 -1.0972  1.2660 -3.0837
 5539SOL    HW228080   0.634   2.731   3.710 -0.2652 -0.7055  0.1686
 5540SOL     OW28081   4.240   1.292   2.713  0.0085 -0.2064  0.0154
 5540SOL    HW128082   4.206   1.216   2.666  1.3785 -0.2993 -0.8241
 5540SOL    HW228083   4.278   1.342   2.641 -1.4719  0.1123 -0.5532
 5541SOL     OW28084   0.791   0.523   2.810 -0.1782  0.4766 -0.3492
 5541SOL    HW128085   0.812   0.430   2.799  1.1095  0.5853  1.1433
 5541SOL    HW228086   0.851   0.538   2.884  2.4627 -2.0166 -1.9628
 5542SOL     OW28087   2.953   3.631  10.922 -0.2433  0.2532  0.1284
 5542SOL    HW128088   2.981   3.593  11.006  1.5144 -1.6383 -1.3002
 5542SOL    HW228089   2.879   3.573  10.904 -0.0067  0.1779 -0.5884
 5543SOL     OW28090   3.074   0.512   6.422  0.2336  0.3744 -0.0528
 5543SOL    HW128091   3.098   0.605   6.424  1.2192  0.1203 -0.1321
 5543SOL    HW228092   3.061   0.501   6.516 -1.2318 -0.0413 -0.2959
 5544SOL     OW28093   1.211   4.032  15.094 -0.0917 -0.1690 -0.3218
 5544SOL    HW128094   1.183   4.026  15.186  0.5389 -0.8687 -0.1847
 5544SOL    HW228095   1.306   4.023  15.095 -0.0291  0.6240  1.3024
 5545SOL     OW28096   1.609   1.076   9.424 -0.5015  0.1969 -0.0085
 5545SOL    HW128097   1.703   1.088   9.441 -0.1056 -1.5707 -1.0131
 5545SOL    HW228098   1.587   1.142   9.358 -1.0605 -0.0406 -0.0580
 5546SOL     OW28099   4.487   4.462  11.097  0.2436  0.1584  0.1677
 5546SOL    HW128100   4.519   4.420  11.017  2.2738 -0.7666  1.4654
 5546SOL    HW228101   4.459   4.549  11.069  0.0899 -0.7838 -2.5987
 5547SOL     OW28102   3.928   3.996   7.661  0.4439 -0.2185  0.0795
 5547SOL    HW128103   3.943   3.978   7.568 -2.5464  0.3300 -0.5202
 5547SOL    HW228104   3.847   3.947   7.675  0.9432 -0.5274  1.8084
 5548SOL     OW28105   3.995   1.608   2.850 -0.3685 -0.1793 -0.0795
 5548SOL    HW128106   3.980   1.615   2.756  2.1879 -0.9176 -0.5325
 5548SOL    HW228107   3.928   1.548   2.882  0.3879 -0.9729  0.0025
 5549SOL     OW28108   3.529   3.125  13.974 -0.3918 -0.0150  0.0760
 5549SOL    HW128109   3.497   3.041  13.942  1.2003 -0.3503 -0.6510
 5549SOL    HW228110   3.491   3.197  13.924  0.5304 -0.0920 -0.7437
 5550SOL     OW28111   4.609   2.680   7.102  0.0794 -0.0800 -0.2249
 5550SOL    HW128112   4.538   2.741   7.079  0.9623  0.1083 -2.5015
 5550SOL    HW228113   4.570   2.604   7.144  3.2182 -1.5720 -0.0457
 5551SOL     OW28114   3.678   3.328   7.034 -0.1639 -0.1793  0.4088
 5551SOL    HW128115   3.638   3.273   7.100  4.1462 -0.6799  2.6473
 5551SOL    HW228116   3.600   3.340   6.979 -1.1280 -3.2933  1.1435
 5552SOL     OW28117   3.670   2.751   1.454  0.0199  0.1673 -0.5664
 5552SOL    HW128118   3.594   2.765   1.398  1.2076  2.6081 -1.5465
 5552SOL    HW228119   3.638   2.759   1.544 -3.0042 -0.8582 -1.5586
 5553SOL     OW28120   0.361   0.721   2.284 -0.4963 -0.0276  0.2021
 5553SOL    HW128121   0.425   0.690   2.348  1.2187  1.3625 -0.8463
 5553SOL    HW228122   0.404   0.679   2.210 -0.6938  0.8107 -0.3906
 5554SOL     OW28123   0.878   0.604   3.913  0.0377  0.3543 -0.0544
 5554SOL    HW128124   0.946   0.603   3.846  0.3718  1.4658  0.2746
 5554SOL    HW228125   0.816   0.676   3.902 -0.3048  0.4975  2.7394
 5555SOL     OW28126   3.594   2.812   6.227 -0.0036 -0.5724 -0.0174
 5555SOL    HW128127   3.523   2.753   6.253 -0.6501  1.3603  2.5745
 5555SOL    HW228128   3.556   2.897   6.208  0.7806 -0.1817  0.1768
 5556SOL     OW28129   2.860   2.142   4.167  0.0372  0.1753 -0.0597
 5556SOL    HW128130   2.767   2.122   4.175  0.9450 -4.2274 -0.7925
 5556SOL    HW228131   2.895   2.102   4.247  2.0267 -2.2808 -2.1570
 5557SOL     OW28132   3.495   0.478   6.613  0.0807  0.7145 -0.0552
 5557SOL    HW128133   3.501   0.541   6.684 -1.0558 -1.2425  1.7852
 5557SOL    HW228134   3.470   0.397   6.658 -0.3711  0.4684 -0.7385
 5558SOL     OW28135   4.530   0.373   2.796 -0.4230  0.7489  0.4280
 5558SOL    HW128136   4.604   0.313   2.800 -0.6873  0.4200  0.3559
 5558SOL    HW228137   4.574   0.457   2.787  1.1267 -0.1678 -0.4821
 5559SOL     OW28138   3.228   1.459  16.878 -0.6103  0.4339  0.0899
 5559SOL    HW128139   3.206   1.524  16.811 -0.5756 -0.1213 -0.4547
 5559SOL    HW228140   3.286   1.516  16.929 -0.5169  1.1311 -0.7950
 5560SOL     OW28141   2.900   2.948   8.651 -0.3297  0.6319  0.1847
 5560SOL    HW128142   2.883   2.891   8.577 -1.1919 -2.1466  2.4991
 5560SOL    HW228143   2.862   2.896   8.722 -0.6537 -0.3571 -0.7165
 5561SOL     OW28144   4.273   0.687  16.323  0.2569 -0.5402 -0.3767
 5561SOL    HW128145   4.231   0.677  16.408 -1.7958  2.8592 -0.9956
 5561SOL    HW228146   4.218   0.675  16.246 -0.3319  0.3604 -0.0958
 5562SOL     OW28147   3.868   4.312   6.636 -0.2801 -0.7827 -0.1139
 5562SOL    HW128148   3.788   4.301   6.687 -0.6108 -2.8673 -1.0975
 5562SOL    HW228149   3.872   4.225   6.597 -2.2623  0.1078 -2.2493
 5563SOL     OW28150   2.456   4.018  10.299 -0.1069  0.6679  0.4207
 5563SOL    HW128151   2.497   4.027  10.385  0.5479 -2.5865  0.4266
 5563SOL    HW228152   2.466   4.111  10.276 -1.5557  0.3235 -1.6384
 5564SOL     OW28153   3.300   2.539   3.290  0.8529  0.0766 -0.5421
 5564SOL    HW128154   3.351   2.541   3.209  0.5733  0.1139 -0.7186
 5564SOL    HW228155   3.311   2.626   3.328 -0.7064  0.3469 -0.7050
 5565SOL     OW28156   1.966   0.481   5.073 -0.3135 -0.2782 -0.5241
 5565SOL    HW128157   1.989   0.566   5.037 -1.8303  0.1137 -0.5634
 5565SOL    HW228158   1.871   0.481   5.063 -0.4876  0.6524  1.0620
 5566SOL     OW28159   2.848   3.008  13.834  0.8871 -0.5597  0.0036
 5566SOL    HW128160   2.871   3.097  13.860  0.3143 -0.7113  1.0220
 5566SOL    HW228161   2.866   3.014  13.740 -1.1065 -0.7540 -0.3829
 5567SOL     OW28162   4.352   2.712   3.801 -0.1143 -0.4050  0.0791
 5567SOL    HW128163   4.279   2.688   3.857 -0.6748 -1.0809 -0.9465
 5567SOL    HW228164   4.387   2.791   3.841  1.9071 -1.8307  1.1322
 5568SOL     OW28165   2.604   1.423   9.999 -0.9216 -0.0024 -0.4428
 5568SOL    HW128166   2.570   1.438   9.911  3.7168  0.4700 -2.1515
 5568SOL    HW228167   2.591   1.329  10.010  1.9434 -0.2263  1.1180
 5569SOL     OW28168   1.675   4.589   8.328 -0.0844  0.0283  0.7549
 5569SOL    HW128169   1.620   4.603   8.406 -1.9017  0.7506 -0.6707
 5569SOL    HW228170   1.657   4.495   8.320  1.5996 -0.0417 -1.9211
 5570SOL     OW28171   0.838   3.862   4.737  0.3216  0.8008  0.2154
 5570SOL    HW128172   0.775   3.797   4.767 -0.2219  2.5135  2.8070
 5570SOL    HW228173   0.917   3.811   4.726 -1.1607 -1.3269 -0.4815
 5571SOL     OW28174   3.718   0.798   4.989 -0.1984 -0.1841  0.2324
 5571SOL    HW128175   3.748   0.755   4.909  4.8412  2.5563  0.6774
 5571SOL    HW228176   3.712   0.720   5.046 -2.8032 -0.1895 -0.0488
 5572SOL     OW28177   2.687   2.335  13.871 -0.0301 -0.0854 -0.0931
 5572SOL    HW128178   2.762   2.275  13.881  0.4060  0.6535  1.0927
 5572SOL    HW228179   2.704   2.380  13.788  2.0481 -1.2435 -0.3083
 5573SOL     OW28180   1.954   0.686   0.686  0.6904  0.4203 -0.0179
 5573SOL    HW128181   1.956   0.771   0.642 -2.1456  0.3277 -0.3194
 5573SOL    HW228182   2.029   0.693   0.745  0.3941 -1.7996  0.5999
 5574SOL     OW28183   2.207   2.465   7.173 -0.9179 -0.5342 -0.3764
 5574SOL    HW128184   2.166   2.529   7.231  1.3990  0.2096  0.4270
 5574SOL    HW228185   2.295   2.501   7.179 -0.9580 -0.6347  0.7649
 5575SOL     OW28186   4.313   4.191   3.375  0.2686  0.3485  0.6482
 5575SOL    HW128187   4.384   4.134   3.345 -1.2745 -1.5958  0.6798
 5575SOL    HW228188   4.317   4.252   3.301  1.0256 -0.7221 -0.1997
 5576SOL     OW28189   2.266   0.994   3.793  1.2169  0.1230 -0.8334
 5576SOL    HW128190   2.332   0.964   3.730  0.9437  1.9483 -1.9931
 5576SOL    HW228191   2.228   1.079   3.770 -2.8656 -1.7782 -1.0868
 5577SOL     OW28192   4.108   4.504   6.242 -0.2191 -0.2703  0.1418
 5577SOL    HW128193   4.025   4.490   6.288 -0.7147  0.4776 -0.5229
 5577SOL    HW228194   4.142   4.415   6.231 -0.5338 -0.4744  0.7627
 5578SOL     OW28195   0.752   2.808   8.152 -0.2507 -0.1316  0.1212
 5578SOL    HW128196   0.661   2.824   8.127  0.7453  1.1840 -2.6870
 5578SOL    HW228197   0.745   2.736   8.215  1.2481 -0.5201 -0.1437
 5579SOL     OW28198   2.426   0.679  12.180 -0.2336  0.2087 -0.2734
 5579SOL    HW128199   2.360   0.743  12.155  0.3063  0.6496 -0.5854
 5579SOL    HW228200   2.498   0.692  12.118  0.2916 -0.7887  0.1293
 5580SOL     OW28201   3.074   4.236   6.682  0.2892  0.2443  0.0369
 5580SOL    HW128202   3.006   4.303   6.686 -1.4052 -1.5664  1.8522
 5580SOL    HW228203   3.112   4.247   6.769  3.2938 -1.7429 -1.0352
 5581SOL     OW28204   1.132   4.259  13.164 -0.1425  0.1249 -0.3160
 5581SOL    HW128205   1.156   4.176  13.122  0.1583  0.4808 -0.8502
 5581SOL    HW228206   1.073   4.234  13.235 -0.0781 -0.2266 -0.3847
 5582SOL     OW28207   0.643   2.957  12.819 -0.7500  0.4017  0.2938
 5582SOL    HW128208   0.682   2.985  12.736 -0.7995 -0.9925 -0.2037
 5582SOL    HW228209   0.724   2.933  12.866 -0.0703  1.1613 -0.4937
 5583SOL     OW28210   0.153   3.201  16.812  0.6474  0.3816 -0.4649
 5583SOL    HW128211   0.067   3.244  16.814  0.9003  0.7122  2.4136
 5583SOL    HW228212   0.154   3.155  16.895 -0.5928  0.6030 -0.3223
 5584SOL     OW28213   2.179   0.150   2.949 -0.5181 -0.0034  0.1335
 5584SOL    HW128214   2.139   0.236   2.939  1.5474  0.8542 -0.7293
 5584SOL    HW228215   2.228   0.159   3.030 -0.3587  1.1282 -0.0897
 5585SOL     OW28216   2.941   1.043  17.576  0.1808 -0.0484  0.3983
 5585SOL    HW128217   2.956   0.998  17.659 -1.4550  0.2351  0.8365
 5585SOL    HW228218   2.931   0.970  17.516  0.8681  1.8359 -2.0091
 5586SOL     OW28219   4.396   4.264   8.503 -0.0139  0.4892  0.0866
 5586SOL    HW128220   4.464   4.217   8.455  0.5565  2.0195 -0.6377
 5586SOL    HW228221   4.392   4.345   8.450  0.7057  0.8827  0.6361
 5587SOL     OW28222   0.726   0.188  16.426  0.3165  0.2691  0.2591
 5587SOL    HW128223   0.784   0.263  16.408 -0.3847  1.1602  1.7330
 5587SOL    HW228224   0.746   0.169  16.518  0.7534  0.9221  0.2963
 5588SOL     OW28225   4.589   4.459   8.249 -0.9756  0.1338 -0.1007
 5588SOL    HW128226   4.508   4.460   8.198 -1.7676 -1.3159  1.1217
 5588SOL    HW228227   4.601   4.364   8.259  2.7725  0.6254 -0.0763
 5589SOL     OW28228   4.116   0.505  13.687 -0.8179 -0.2032  0.1030
 5589SOL    HW128229   4.132   0.433  13.748  2.2104  0.3741 -0.0056
 5589SOL    HW228230   4.081   0.566  13.751 -0.7748  0.4877 -0.5276
 5590SOL     OW28231   1.597   1.071   2.124  0.9879  0.2899  0.8054
 5590SOL    HW128232   1.674   1.113   2.086 -0.7353  0.5223 -2.4402
 5590SOL    HW228233   1.568   1.139   2.185  0.9660  0.6548  0.3911
 5591SOL     OW28234   2.569   1.145  10.006 -0.3055 -0.1166  0.3514
 5591SOL    HW128235   2.645   1.095  10.036 -0.3929 -0.8878 -0.7262
 5591SOL    HW228236   2.498   1.094  10.045  0.5621 -0.5812  1.3108
 5592SOL     OW28237   0.414   0.315   3.310  0.0794 -0.2827 -0.0864
 5592SOL    HW128238   0.462   0.232   3.309 -0.3863 -0.5545  0.1364
 5592SOL    HW228239   0.417   0.345   3.401 -2.6705 -1.5635  0.4263
 5593SOL     OW28240   2.857   3.968   2.759 -0.3028 -0.1335  0.1180
 5593SOL    HW128241   2.879   3.886   2.715 -0.4741  0.3579 -0.8728
 5593SOL    HW228242   2.857   3.938   2.850 -0.6811 -0.5992 -0.0376
 5594SOL     OW28243   4.336   4.054   4.408 -0.1200 -0.1172  0.0956
 5594SOL    HW128244   4.349   4.128   4.349  0.4636 -1.2788 -1.2411
 5594SOL    HW228245   4.266   4.002   4.368  0.8337 -1.7194  0.4721
 5595SOL     OW28246   3.197   1.190  11.638 -0.9027  0.1320  0.2490
 5595SOL    HW128247   3.185   1.202  11.732  0.4979 -2.4533  0.7444
 5595SOL    HW228248   3.153   1.271  11.611 -2.0295 -0.5775 -0.0144
 5596SOL     OW28249   1.013   3.917   5.241 -0.4653 -0.1819  0.2735
 5596SOL    HW128250   0.925   3.891   5.214 -1.3340  2.5787  0.3874
 5596SOL    HW228251   1.011   4.002   5.197  0.7944 -0.1432  0.3063
 5597SOL     OW28252   1.730   4.470   2.375  0.3921 -0.5764  0.1728
 5597SOL    HW128253   1.717   4.564   2.371 -0.7442 -0.8348 -1.9166
 5597SOL    HW228254   1.805   4.463   2.316  0.5988  0.3652  0.3223
 5598SOL     OW28255   3.934   4.377  10.004  0.3762 -0.4394  0.1209
 5598SOL    HW128256   3.845   4.364  10.036  0.0169  0.0704 -0.6929
 5598SOL    HW228257   3.949   4.471  10.012  0.2336 -0.4778  0.8493
 5599SOL     OW28258   2.615   1.944   2.302  0.2004 -0.3529 -0.4973
 5599SOL    HW128259   2.623   1.988   2.217  0.0744 -0.3623 -0.5136
 5599SOL    HW228260   2.663   2.006   2.358 -2.5285 -0.5837  2.1129
 5600SOL     OW28261   3.371   4.698   7.375  0.2174 -0.1585 -0.1588
 5600SOL    HW128262   3.303   4.712   7.441 -0.0525  0.1199 -0.4983
 5600SOL    HW228263   3.428   4.639   7.425 -1.1009  0.2652  1.8528
 5601SOL     OW28264   3.977   0.658   3.635  0.1197  0.3819 -0.0104
 5601SOL    HW128265   4.068   0.648   3.662  0.3681 -1.2588 -1.4568
 5601SOL    HW228266   3.961   0.574   3.592  0.8660 -0.5999  1.6305
 5602SOL     OW28267   1.341   0.085  13.019  0.0790 -0.0520 -0.1592
 5602SOL    HW128268   1.324   0.142  13.094 -0.7672  1.7361 -1.7158
 5602SOL    HW228269   1.371   0.011  13.072 -1.3938 -1.4743 -1.3184
 5603SOL     OW28270   3.417   3.783   6.325  0.6809 -0.1470  0.1059
 5603SOL    HW128271   3.335   3.825   6.301  0.1822 -1.3039 -0.2341
 5603SOL    HW228272   3.455   3.863   6.362 -0.3721 -0.0384  0.9539
 5604SOL     OW28273   0.800   2.709   7.536 -0.2251 -0.0380 -0.1750
 5604SOL    HW128274   0.876   2.703   7.593 -0.9628  0.3176  0.8461
 5604SOL    HW228275   0.783   2.617   7.514 -2.5281  0.2209  0.4796
 5605SOL     OW28276   3.091   3.695   7.422  0.0420 -0.5964  0.3563
 5605SOL    HW128277   3.042   3.630   7.473 -0.3473 -1.0312 -0.5611
 5605SOL    HW228278   3.042   3.775   7.441 -0.3155 -0.5157 -0.9443
 5606SOL     OW28279   3.653   0.891   3.533  0.0978 -0.4282  0.3039
 5606SOL    HW128280   3.581   0.866   3.590  0.9051 -0.6500  1.2274
 5606SOL    HW228281   3.732   0.890   3.587  0.5361  2.2709 -0.2664
 5607SOL     OW28282   0.080   1.476   7.315 -0.1352  0.1822 -0.5011
 5607SOL    HW128283   0.090   1.430   7.231  2.3263  0.0785 -0.1403
 5607SOL    HW228284   0.058   1.403   7.374 -0.3435  2.0653  1.7424
 5608SOL     OW28285   4.537   2.527   3.697 -0.2320 -0.1516 -0.5234
 5608SOL    HW128286   4.508   2.436   3.692 -2.8380  0.6082  0.5987
 5608SOL    HW228287   4.459   2.565   3.738 -0.9829  0.6057 -2.6767
 5609SOL     OW28288   2.196   0.160   4.572  0.2199  0.0966 -0.0165
 5609SOL    HW128289   2.282   0.195   4.595  0.8619 -0.6016 -1.3735
 5609SOL    HW228290   2.139   0.235   4.561 -0.9869 -0.6852  0.8482
 5610SOL     OW28291   2.101   4.469   6.561  0.2824 -0.2699 -0.4299
 5610SOL    HW128292   2.150   4.517   6.494  2.2509 -1.2609  0.3249
 5610SOL    HW228293   2.067   4.397   6.508  0.2964 -0.6278  0.0567
 5611SOL     OW28294   3.897   3.081   9.133 -0.2657 -0.1002 -0.2655
 5611SOL    HW128295   3.861   3.169   9.146  0.6872  0.2217  0.2070
 5611SOL    HW228296   3.963   3.086   9.203 -1.0814  1.5840  0.3893
 5612SOL     OW28297   3.525   3.586   6.484 -0.2897 -0.2306 -0.3743
 5612SOL    HW128298   3.458   3.627   6.430  0.5719  1.2782 -0.2984
 5612SOL    HW228299   3.572   3.666   6.506 -1.2634 -0.0583  1.0384
 5613SOL     OW28300   1.515   1.213   6.928 -0.3850 -0.3212  0.3504
 5613SOL    HW128301   1.577   1.235   6.997  2.3908  1.4493 -2.6878
 5613SOL    HW228302   1.562   1.146   6.877 -1.6450 -1.6678  0.9769
 5614SOL     OW28303   1.337   1.593   2.367  0.0271  0.0951  0.2495
 5614SOL    HW128304   1.279   1.669   2.367 -0.3746 -0.2082  0.0283
 5614SOL    HW228305   1.272   1.523   2.358 -0.1780  0.3421 -0.1383
 5615SOL     OW28306   1.995   2.297   4.357 -0.3026  0.0775 -0.0907
 5615SOL    HW128307   1.936   2.300   4.281 -0.1217  1.1355 -0.1831
 5615SOL    HW228308   1.936   2.316   4.430  0.2122  2.8438 -0.4148
 5616SOL     OW28309   0.867   1.318  15.811  0.1967  0.4061  0.5957
 5616SOL    HW128310   0.836   1.401  15.774  1.6007  1.3456  1.5108
 5616SOL    HW228311   0.815   1.300  15.889  1.8999 -1.0521  1.3811
 5617SOL     OW28312   1.224   0.958   9.931  0.1813 -0.8793  0.2387
 5617SOL    HW128313   1.281   1.033   9.946 -2.1515  0.7376  1.1500
 5617SOL    HW228314   1.221   0.917  10.018 -0.4442  1.1256  1.1660
 5618SOL     OW28315   1.084   2.055   0.301 -0.0581 -0.5964 -0.3101
 5618SOL    HW128316   1.025   2.089   0.234  1.5421  1.4726 -0.6608
 5618SOL    HW228317   1.016   2.020   0.359 -0.3125  0.4284  0.0038
 5619SOL     OW28318   2.687   3.675   3.082 -0.1202  0.1073  0.9191
 5619SOL    HW128319   2.637   3.675   3.001  0.9590  4.2549  0.2560
 5619SOL    HW228320   2.674   3.590   3.126  3.3636 -1.2688 -0.7254
 5620SOL     OW28321   1.511   2.054   2.671 -0.2781 -0.3930 -0.5748
 5620SOL    HW128322   1.416   2.064   2.663 -0.0812  0.6102 -1.6267
 5620SOL    HW228323   1.524   1.972   2.624 -1.2117 -1.4090  0.9261
 5621SOL     OW28324   0.484   2.602   7.513 -0.0396 -0.4122 -0.0190
 5621SOL    HW128325   0.571   2.629   7.543  0.3505 -1.2804 -0.3572
 5621SOL    HW228326   0.504   2.559   7.429  0.2612 -0.5196  0.1073
 5622SOL     OW28327   3.952   0.810   8.962 -0.5409 -0.1236 -0.4290
 5622SOL    HW128328   3.954   0.737   9.024  0.5756  0.4636  0.2412
 5622SOL    HW228329   3.898   0.777   8.890  1.1423 -0.8205 -1.3953
 5623SOL     OW28330   0.108   1.780   7.131  0.1326  0.1206  0.1008
 5623SOL    HW128331   0.029   1.744   7.173  0.3768 -1.4468 -0.7640
 5623SOL    HW228332   0.144   1.829   7.204 -2.5478 -1.1434  2.2925
 5624SOL     OW28333   2.010   4.161   1.260 -0.1316 -0.2020  0.3175
 5624SOL    HW128334   1.934   4.214   1.237  0.6507  0.2697 -1.1735
 5624SOL    HW228335   1.979   4.115   1.337 -3.0770 -0.0851 -0.8323
 5625SOL     OW28336   2.744   0.211  17.688 -0.1628 -0.1116  0.5919
 5625SOL    HW128337   2.774   0.261   0.059  0.9023 -0.8853  0.6731
 5625SOL    HW228338   2.707   0.283  17.637  0.8279  0.5486  0.8029
 5626SOL     OW28339   4.621   4.052  13.062 -0.0375 -0.1038  0.0522
 5626SOL    HW128340   4.638   4.090  13.148  3.7298 -2.3108  0.2508
 5626SOL    HW228341   4.683   4.093  13.002 -0.3210  0.3609  0.0800
 5627SOL     OW28342   1.998   3.035   9.670  0.8177 -0.0678 -0.2461
 5627SOL    HW128343   1.929   3.010   9.609 -0.0938  0.2212  0.6508
 5627SOL    HW228344   1.982   2.968   9.737 -2.5782  0.6272 -0.3704
 5628SOL     OW28345   3.877   2.679   2.639  0.3565 -0.2741  0.0539
 5628SOL    HW128346   3.931   2.682   2.718 -2.7677  2.2002  2.0900
 5628SOL    HW228347   3.944   2.693   2.572 -0.6761  1.6507 -0.5802
 5629SOL     OW28348   2.193   4.524   4.059  0.2248  0.2724  0.5886
 5629SOL    HW128349   2.223   4.440   4.094  0.8992  0.0923 -0.4277
 5629SOL    HW228350   2.162   4.571   4.137 -1.3384 -1.4997  1.0414
 5630SOL     OW28351   3.963   3.885  12.236  0.1872 -0.0547 -0.1908
 5630SOL    HW128352   3.906   3.830  12.182 -0.4153  0.4101 -0.0228
 5630SOL    HW228353   3.921   3.866  12.319  0.9752 -0.1748  0.1759
 5631SOL     OW28354   3.479   1.141   4.632  0.4300  0.2550  0.1366
 5631SOL    HW128355   3.426   1.062   4.619 -1.1172  1.8740 -3.2053
 5631SOL    HW228356   3.554   1.093   4.668  0.2566  0.3633  0.6388
 5632SOL     OW28357   3.164   4.012   7.777  0.1965 -0.2349  0.4107
 5632SOL    HW128358   3.254   4.019   7.809  0.3361  2.8999 -0.6882
 5632SOL    HW228359   3.123   4.088   7.817 -2.2833 -0.8299 -0.9804
 5633SOL     OW28360   2.279   4.243   4.161  0.2978  0.2237 -0.2975
 5633SOL    HW128361   2.323   4.289   4.232 -3.7762  0.8224  1.8259
 5633SOL    HW228362   2.323   4.159   4.174 -2.7387 -1.4792 -1.0869
 5634SOL     OW28363   0.228   1.958   5.246  1.0636  0.2916  0.9501
 5634SOL    HW128364   0.172   1.921   5.314  0.5745 -0.5473  0.0826
 5634SOL    HW228365   0.311   1.943   5.292  0.8170  0.2792  1.3922
 5635SOL     OW28366   3.246   2.649   0.964 -0.4189 -0.2046 -0.3786
 5635SOL    HW128367   3.287   2.726   0.925 -1.0625 -0.1113 -0.8782
 5635SOL    HW228368   3.182   2.623   0.897  0.0780 -3.3743  0.3803
 5636SOL     OW28369   4.099   3.913   9.063  0.8576  0.1909 -0.1530
 5636SOL    HW128370   4.161   3.866   9.118 -1.1383 -0.2059  1.7573
 5636SOL    HW228371   4.141   3.934   8.980  0.8574 -1.5922 -0.6031
 5637SOL     OW28372   2.464   2.129   5.900  0.1662 -0.6461 -0.4496
 5637SOL    HW128373   2.386   2.078   5.878 -0.7198  0.0430  1.1000
 5637SOL    HW228374   2.538   2.079   5.865 -0.5760 -1.0289 -1.4822
 5638SOL     OW28375   0.578   1.603   6.704  0.3724 -0.2737 -0.1277
 5638SOL    HW128376   0.539   1.685   6.674 -1.3610 -1.5051 -1.2514
 5638SOL    HW228377   0.524   1.578   6.779 -0.4817  1.2823 -0.2232
 5639SOL     OW28378   0.733   4.298   9.125  0.9720 -0.2818 -0.5767
 5639SOL    HW128379   0.695   4.381   9.153 -0.9864 -2.0738  2.0513
 5639SOL    HW228380   0.782   4.285   9.207  1.4730 -1.6608 -1.0853
 5640SOL     OW28381   0.449   1.936   3.355 -0.3883 -0.6530 -0.1518
 5640SOL    HW128382   0.360   1.917   3.387 -0.5093  2.7498  1.5819
 5640SOL    HW228383   0.415   1.944   3.266 -2.0062 -0.8155  0.4381
 5641SOL     OW28384   2.502   4.212   7.858  0.1935 -0.0417 -0.6679
 5641SOL    HW128385   2.536   4.152   7.792  1.7925  2.0540 -1.7435
 5641SOL    HW228386   2.569   4.280   7.866 -0.2046  0.0783  1.5615
 5642SOL     OW28387   1.723   0.750   2.834 -0.4635 -0.5959  0.0768
 5642SOL    HW128388   1.665   0.684   2.796 -0.0172 -0.6493 -0.5210
 5642SOL    HW228389   1.722   0.817   2.765  0.2622  0.7664  1.3752
 5643SOL     OW28390   0.402   2.683   6.163 -0.3837  0.4543  0.1044
 5643SOL    HW128391   0.497   2.681   6.155 -0.2545  0.8184  1.4099
 5643SOL    HW228392   0.392   2.708   6.255 -0.0363 -2.1803  0.8614
 5644SOL     OW28393   0.762   3.668   0.031 -0.2367  0.0896  0.4207
 5644SOL    HW128394   0.838   3.674   0.088  0.2107 -0.3482 -0.1234
 5644SOL    HW228395   0.771   3.575   0.008  1.5039  0.7890 -1.7974
 5645SOL     OW28396   3.610   1.752   2.405  0.6738  0.6381  0.1576
 5645SOL    HW128397   3.668   1.825   2.380  0.3026  0.9916  0.3183
 5645SOL    HW228398   3.676   1.684   2.422  0.8887  0.4384 -1.5208
 5646SOL     OW28399   0.638   3.226   3.360 -0.3092 -0.0864 -0.5770
 5646SOL    HW128400   0.610   3.194   3.274 -0.3294 -1.7816  0.0608
 5646SOL    HW228401   0.703   3.159   3.381 -0.7291 -0.5573 -0.7863
 5647SOL     OW28402   3.729   2.540  16.881  0.0859  0.3748  0.0544
 5647SOL    HW128403   3.819   2.533  16.912 -0.1810 -0.5649  0.6339
 5647SOL    HW228404   3.684   2.521  16.964  0.5294  0.0504  0.2206
 5648SOL     OW28405   2.116   2.625   5.538 -0.5644 -0.3690 -0.2513
 5648SOL    HW128406   2.121   2.621   5.442 -1.4601  1.2514 -0.3792
 5648SOL    HW228407   2.143   2.716   5.554  0.7627 -0.4242 -2.1380
 5649SOL     OW28408   4.613   3.317   3.958 -0.0402 -0.5565 -0.4541
 5649SOL    HW128409   4.574   3.346   3.876 -1.0669 -0.6047  0.0118
 5649SOL    HW228410   4.703   3.350   3.952 -0.4468  0.6859  0.0745
 5650SOL     OW28411   1.190   1.875  10.942 -0.3849  0.1857  0.1105
 5650SOL    HW128412   1.188   1.889  11.037  1.6390  0.6189  0.0930
 5650SOL    HW228413   1.168   1.782  10.946 -1.3009  0.4071  0.2715
 5651SOL     OW28414   2.309   1.880  10.140  0.4443  0.2396  0.2206
 5651SOL    HW128415   2.354   1.915  10.063 -0.0351  0.8307  0.2022
 5651SOL    HW228416   2.344   1.792  10.126  0.3063  0.3072 -0.5818
 5652SOL     OW28417   2.696   3.281  15.409  0.4794  0.5066 -0.9016
 5652SOL    HW128418   2.689   3.363  15.456 -2.5209 -0.1659 -0.1272
 5652SOL    HW228419   2.682   3.222  15.483  0.3205  2.1523  0.3595
 5653SOL     OW28420   2.252   3.302   6.541 -0.6129  0.2805  0.2024
 5653SOL    HW128421   2.340   3.282   6.508  0.4229  1.2479  2.3972
 5653SOL    HW228422   2.200   3.258   6.474  0.4134 -1.0426  0.2672
 5654SOL     OW28423   1.718   0.507  13.355 -0.0270 -0.1349 -0.8493
 5654SOL    HW128424   1.735   0.476  13.266 -0.3590  0.3192 -1.0703
 5654SOL    HW228425   1.794   0.479  13.406  0.2330  0.1365 -1.0868
 5655SOL     OW28426   2.363   4.572   7.189 -0.3703 -0.7309 -0.3220
 5655SOL    HW128427   2.348   4.503   7.124 -2.6901  0.8057 -1.3838
 5655SOL    HW228428   2.391   4.522   7.266 -0.5939  1.5518  1.2574
 5656SOL     OW28429   3.157   0.105   5.915 -0.1069 -0.3064  0.2360
 5656SOL    HW128430   3.066   0.134   5.905  0.4178  1.2187 -0.0440
 5656SOL    HW228431   3.189   0.150   5.837 -1.2977  0.6273  0.2694
 5657SOL     OW28432   3.357   1.180   7.346  0.0597 -0.4267  0.1013
 5657SOL    HW128433   3.278   1.181   7.292  0.1276  0.0341  0.0082
 5657SOL    HW228434   3.391   1.093   7.327  1.8230 -0.2190  2.2638
 5658SOL     OW28435   3.389   2.420   0.008  0.2979  0.1433  0.6965
 5658SOL    HW128436   3.478   2.451  17.697  0.2031 -0.5666 -1.1850
 5658SOL    HW228437   3.398   2.326  17.695 -0.2778  0.2274 -0.0372
 5659SOL     OW28438   3.538   4.389   7.390  0.0415  0.3062  0.2851
 5659SOL    HW128439   3.452   4.348   7.396  0.7046 -1.3856 -1.5425
 5659SOL    HW228440   3.596   4.314   7.407 -1.9422 -0.7797  2.1995
 5660SOL     OW28441   3.761   0.392   9.214 -0.0730  0.7737  0.4709
 5660SOL    HW128442   3.713   0.355   9.139 -0.0428 -0.6910  1.1644
 5660SOL    HW228443   3.770   0.317   9.273 -1.2929  1.3524  1.3797
 5661SOL     OW28444   1.865   0.477   2.829  0.1699 -0.2925  0.1782
 5661SOL    HW128445   1.803   0.409   2.854 -0.3842 -0.0083 -0.4274
 5661SOL    HW228446   1.814   0.554   2.855  1.9845  1.6594 -2.0530
 5662SOL     OW28447   1.844   2.871   2.648 -0.0878 -0.1821 -0.0143
 5662SOL    HW128448   1.785   2.799   2.625 -0.2952  0.1700 -0.6025
 5662SOL    HW228449   1.885   2.901   2.566  0.8904 -0.5820  0.3332
 5663SOL     OW28450   4.396   3.622   4.294 -0.5704 -0.1751 -0.1239
 5663SOL    HW128451   4.434   3.539   4.265  0.5504  0.4897 -0.5593
 5663SOL    HW228452   4.304   3.605   4.275 -0.1651 -2.3958 -0.0734
 5664SOL     OW28453   0.065   1.799   8.197  0.0040  0.2317 -0.8315
 5664SOL    HW128454   0.143   1.804   8.252  0.3196 -1.6950 -1.1185
 5664SOL    HW228455   0.099   1.804   8.107  0.1739  0.6399 -0.7423
 5665SOL     OW28456   1.722   2.082   1.591  0.1003  0.1233  0.2401
 5665SOL    HW128457   1.681   1.997   1.571  0.5298  0.1124 -0.5855
 5665SOL    HW228458   1.737   2.084   1.685 -3.3156  1.9826  0.7252
 5666SOL     OW28459   3.761   4.610   6.106 -0.9636 -0.0810  0.7724
 5666SOL    HW128460   3.689   4.672   6.115  0.4427  1.4622  1.3518
 5666SOL    HW228461   3.756   4.578   6.196  1.1842 -0.1856  0.8483
 5667SOL     OW28462   1.283   3.285   8.197 -0.1242  0.1133  0.1181
 5667SOL    HW128463   1.259   3.332   8.117 -0.0158 -1.9384 -1.1187
 5667SOL    HW228464   1.377   3.271   8.185 -0.1454 -0.8661  1.1109
 5668SOL     OW28465   0.177   1.307   6.777  0.2031 -0.4428 -0.4085
 5668SOL    HW128466   0.088   1.339   6.765  0.7692  0.6465 -1.7253
 5668SOL    HW228467   0.185   1.324   6.871 -1.8168 -2.8399  0.1855
 5669SOL     OW28468   3.151   1.536  11.327  0.1001 -0.8206 -0.0350
 5669SOL    HW128469   3.164   1.629  11.346  0.4615 -1.5792  3.3727
 5669SOL    HW228470   3.225   1.505  11.379 -0.7910 -2.1432  0.4720
 5670SOL     OW28471   4.021   1.730  12.557  0.1590  0.5526 -0.4950
 5670SOL    HW128472   3.965   1.776  12.620  0.2600 -0.4762  0.3603
 5670SOL    HW228473   4.064   1.668  12.617  0.2040 -1.4755 -2.6121
 5671SOL     OW28474   0.718   4.315   6.713 -0.8087 -0.1536 -0.3003
 5671SOL    HW128475   0.710   4.395   6.764  1.4714  0.2066 -0.5294
 5671SOL    HW228476   0.709   4.253   6.786 -0.3013  0.3590  0.1916
 5672SOL     OW28477   0.817   3.605  11.631 -0.4057 -0.4406  0.3844
 5672SOL    HW128478   0.861   3.522  11.613  0.1042 -0.0429 -0.1677
 5672SOL    HW228479   0.752   3.596  11.561  0.2320 -2.6976  0.0710
 5673SOL     OW28480   2.502   2.691  14.005  0.4328  0.7498  0.3019
 5673SOL    HW128481   2.483   2.707  14.097  1.0200 -0.7383  0.6853
 5673SOL    HW228482   2.586   2.739  14.004  0.5895  0.4047 -2.8753
 5674SOL     OW28483   3.023   0.407   7.656 -0.2363  0.1019 -0.7501
 5674SOL    HW128484   3.038   0.369   7.569  0.4111 -0.4479 -0.3920
 5674SOL    HW228485   2.996   0.324   7.695 -0.5173  0.0234 -1.1115
 5675SOL     OW28486   3.439   2.486   2.629  0.8046  0.1282 -0.0542
 5675SOL    HW128487   3.375   2.514   2.563 -1.9106  1.4072  3.1278
 5675SOL    HW228488   3.516   2.535   2.600  0.9321 -0.2150 -0.2951
 5676SOL     OW28489   2.188   1.716  17.278  0.1611  0.8464 -0.2753
 5676SOL    HW128490   2.267   1.751  17.320  0.6817 -1.0503  0.3419
 5676SOL    HW228491   2.122   1.727  17.346 -0.5244 -0.0051 -0.7953
 5677SOL     OW28492   2.184   2.059   1.967 -0.6894 -0.7211  0.2264
 5677SOL    HW128493   2.118   1.995   1.994 -1.7319 -0.0048 -0.6413
 5677SOL    HW228494   2.130   2.129   1.931 -1.4045 -0.6148  1.4879
 5678SOL     OW28495   3.708   0.973  10.189 -0.2603 -0.1015  0.2057
 5678SOL    HW128496   3.625   1.007  10.220 -1.8606 -2.0151 -1.9655
 5678SOL    HW228497   3.775   1.037  10.216 -2.6956  2.6353 -0.2564
 5679SOL     OW28498   3.082   3.140  12.410  0.3573  0.1114 -0.1262
 5679SOL    HW128499   3.022   3.098  12.348  0.7938  0.0068 -0.4825
 5679SOL    HW228500   3.149   3.165  12.346  1.5247 -0.4175  0.8777
 5680SOL     OW28501   4.591   0.199   6.110  0.2104 -0.3738 -0.4454
 5680SOL    HW128502   4.566   0.288   6.085 -1.7209 -1.0186 -0.7366
 5680SOL    HW228503   4.558   0.190   6.200 -1.0257  0.9554 -0.7739
 5681SOL     OW28504   4.529   0.213   3.456  0.0309 -0.1959  0.2109
 5681SOL    HW128505   4.575   0.292   3.484  0.2382 -0.1602 -0.2272
 5681SOL    HW228506   4.445   0.227   3.500  1.3805  0.4837  2.5544
 5682SOL     OW28507   2.874   3.114   6.450  0.2485 -0.3080 -0.2666
 5682SOL    HW128508   2.818   3.188   6.472 -0.7314  0.0253 -3.9126
 5682SOL    HW228509   2.812   3.044   6.428 -0.7731  0.5585 -0.1224
 5683SOL     OW28510   3.037   2.919   5.118  0.0768  0.0383  0.0904
 5683SOL    HW128511   3.010   2.851   5.180  0.7092  1.0451  1.4548
 5683SOL    HW228512   3.077   2.986   5.173 -0.9164  2.4947 -2.1829
 5684SOL     OW28513   4.703   0.444   7.005  0.4760 -0.2706  0.1603
 5684SOL    HW128514   0.017   0.367   6.965  0.6490 -0.3249  0.4326
 5684SOL    HW228515   0.002   0.438   7.098  0.8982 -0.7017  0.0252
 5685SOL     OW28516   1.085   3.726   9.174 -0.1303 -0.1668  0.1910
 5685SOL    HW128517   1.085   3.722   9.078  2.5397  0.1609  0.1655
 5685SOL    HW228518   1.031   3.803   9.190  0.7824  0.3416  0.8182
 5686SOL     OW28519   3.325   0.396   0.310  0.3735  0.2589 -0.0722
 5686SOL    HW128520   3.380   0.341   0.366  1.9375  0.6112 -1.2644
 5686SOL    HW228521   3.266   0.329   0.275  0.7844 -0.3692  0.4336
 5687SOL     OW28522   1.052   2.665   7.655 -0.4283  0.5347  0.5202
 5687SOL    HW128523   1.146   2.651   7.643 -0.5763  0.4508 -0.4968
 5687SOL    HW228524   1.018   2.576   7.652 -0.8954  0.7373 -0.0279
 5688SOL     OW28525   0.827   3.608  15.327 -0.1156 -0.3220  0.5268
 5688SOL    HW128526   0.869   3.693  15.319  1.8082 -1.2479  0.5830
 5688SOL    HW228527   0.744   3.648  15.352  0.4038  1.2227 -0.2783
 5689SOL     OW28528   2.805   1.437   5.881  0.5641 -0.2249 -0.3665
 5689SOL    HW128529   2.824   1.501   5.950 -0.1296  0.6216 -0.9584
 5689SOL    HW228530   2.785   1.363   5.939 -1.5662  1.0899  0.5474
 5690SOL     OW28531   1.257   3.428   7.242 -0.0166 -0.0273 -0.2777
 5690SOL    HW128532   1.177   3.476   7.262  1.0341  2.1643 -1.3933
 5690SOL    HW228533   1.211   3.360   7.192  0.3372  1.4346 -2.5851
 5691SOL     OW28534   3.662   2.852   4.741  0.1123  0.0977 -0.2772
 5691SOL    HW128535   3.656   2.858   4.646  1.2401 -0.6196 -0.3993
 5691SOL    HW228536   3.757   2.841   4.753 -0.1044  0.9036  2.1065
 5692SOL     OW28537   2.901   4.128  11.824  0.2936  0.0020  0.1293
 5692SOL    HW128538   2.834   4.108  11.890 -0.7622 -1.7923 -1.4921
 5692SOL    HW228539   2.966   4.167  11.882 -0.7122 -0.0162  1.2654
 5693SOL     OW28540   1.277   0.957   2.835  0.2742  0.0798 -0.1091
 5693SOL    HW128541   1.287   0.864   2.813  1.6556  0.2247 -0.0905
 5693SOL    HW228542   1.195   0.961   2.885 -0.2744  2.1343 -1.2072
 5694SOL     OW28543   1.477   1.423  16.262 -0.3246  0.0933 -0.3541
 5694SOL    HW128544   1.463   1.329  16.250 -0.6055  0.0058  0.6437
 5694SOL    HW228545   1.543   1.423  16.331  0.3049 -1.7089 -0.9595
 5695SOL     OW28546   1.505   2.493   5.265  0.4141 -0.1400 -0.6498
 5695SOL    HW128547   1.549   2.541   5.195 -0.0877 -0.5702 -1.2602
 5695SOL    HW228548   1.578   2.480   5.325 -0.7443  1.4976  1.1393
 5696SOL     OW28549   4.412   4.682   3.436  0.3819  0.1124  0.5585
 5696SOL    HW128550   4.428   0.048   3.456 -2.0744  0.0630  2.7292
 5696SOL    HW228551   4.365   4.693   3.353 -0.1791 -1.0068  0.7378
 5697SOL     OW28552   2.573   2.667   8.113  0.0699 -0.1268  0.5303
 5697SOL    HW128553   2.563   2.590   8.169  2.2289 -1.7500 -1.3390
 5697SOL    HW228554   2.556   2.734   8.179  4.1967  2.0939 -0.6559
 5698SOL     OW28555   1.686   0.146   4.055 -0.4757  0.4342  0.3453
 5698SOL    HW128556   1.632   0.068   4.056 -0.2500  0.2826  1.0764
 5698SOL    HW228557   1.737   0.138   4.136  2.1831 -1.2461 -1.4782
 5699SOL     OW28558   4.219   4.206   4.845  0.2397  0.3115  0.0263
 5699SOL    HW128559   4.262   4.121   4.847 -2.4217 -1.0333 -0.3674
 5699SOL    HW228560   4.293   4.267   4.842 -0.7312  1.4944 -0.1520
 5700SOL     OW28561   2.854   4.552   9.847 -0.0201 -0.4734 -0.3936
 5700SOL    HW128562   2.866   4.481   9.784  1.9658 -2.2728  2.0381
 5700SOL    HW228563   2.786   4.598   9.798  0.2739 -1.5982 -1.8536
 5701SOL     OW28564   4.315   2.588   7.453 -0.1709 -0.1033 -0.0101
 5701SOL    HW128565   4.390   2.646   7.442  0.7545 -1.1617  0.6719
 5701SOL    HW228566   4.252   2.629   7.394  2.3316  1.5706 -1.5278
 5702SOL     OW28567   0.208   2.777  15.615  0.2494 -0.4896  0.2348
 5702SOL    HW128568   0.176   2.698  15.658 -0.8668 -0.6129 -0.8240
 5702SOL    HW228569   0.125   2.792  15.570  0.9725  0.4084 -0.8008
 5703SOL     OW28570   1.686   4.026   8.924 -0.0334  0.0448 -0.0953
 5703SOL    HW128571   1.701   4.115   8.891  0.5434  0.0694  0.2244
 5703SOL    HW228572   1.770   3.981   8.912  0.0346  0.4414 -1.1261
 5704SOL     OW28573   1.461   4.657   6.912 -0.2339  0.4658  0.4562
 5704SOL    HW128574   1.483   4.623   6.825 -1.7039 -1.9588  1.0300
 5704SOL    HW228575   1.547   4.637   6.951 -1.2332 -0.1152  2.3637
 5705SOL     OW28576   2.909   2.106  12.892  0.5055  0.2697 -0.2859
 5705SOL    HW128577   2.853   2.091  12.816 -0.2893  0.7366  0.2201
 5705SOL    HW228578   2.998   2.091  12.859 -0.3471  0.4654 -2.6779
 5706SOL     OW28579   3.298   0.869   4.510 -0.3400  0.2219 -0.6022
 5706SOL    HW128580   3.235   0.889   4.441 -1.7310 -0.3188  0.5084
 5706SOL    HW228581   3.251   0.813   4.572  1.4603 -3.2478 -2.3222
 5707SOL     OW28582   2.965   4.212   2.639 -1.0294 -0.4176  0.0137
 5707SOL    HW128583   3.060   4.214   2.649 -1.0117  1.0221 -0.5218
 5707SOL    HW228584   2.929   4.127   2.665  0.3697  0.3973  4.5413
 5708SOL     OW28585   2.796   3.560   9.402 -0.1380  0.1541 -0.9455
 5708SOL    HW128586   2.760   3.585   9.317 -1.6993 -2.0565 -0.9088
 5708SOL    HW228587   2.743   3.595   9.474  0.2922  0.0386 -0.5732
 5709SOL     OW28588   4.475   1.114   4.611 -0.6568 -0.1946 -0.1775
 5709SOL    HW128589   4.491   1.200   4.649 -2.3356  0.1960 -0.3613
 5709SOL    HW228590   4.564   1.086   4.592 -1.0958  0.7604 -3.6546
 5710SOL     OW28591   3.078   2.521   5.153 -0.2931 -0.1079  0.8416
 5710SOL    HW128592   3.121   2.606   5.145  1.3753 -0.9488  0.8391
 5710SOL    HW228593   3.150   2.463   5.178  0.6830  0.3236 -0.9723
 5711SOL     OW28594   0.191   3.888   5.188  0.0746  0.4040  0.1346
 5711SOL    HW128595   0.098   3.889   5.212  0.0465  0.5353  0.0235
 5711SOL    HW228596   0.223   3.967   5.232 -0.6777  1.2405 -0.7943
 5712SOL     OW28597   3.512   3.834   8.564  0.6343  0.1782 -0.7261
 5712SOL    HW128598   3.436   3.875   8.523  0.9049 -0.7245 -2.1238
 5712SOL    HW228599   3.537   3.769   8.498 -0.2552 -0.4983 -0.4004
 5713SOL     OW28600   3.661   2.300   0.978 -0.1698  0.0298 -0.1552
 5713SOL    HW128601   3.705   2.360   0.920 -1.4979  2.1894  1.0731
 5713SOL    HW228602   3.570   2.321   0.958 -0.0265  0.9660  0.1654
 5714SOL     OW28603   2.445   3.619  14.023 -0.1427 -0.8133 -0.4333
 5714SOL    HW128604   2.400   3.696  13.987  0.4563 -0.7603 -1.0744
 5714SOL    HW228605   2.371   3.587  14.074 -0.2344  1.0831  0.6172
 5715SOL     OW28606   4.362   0.539   5.104 -0.3963 -0.0253  0.2119
 5715SOL    HW128607   4.433   0.602   5.098 -2.5239  2.3643 -0.2121
 5715SOL    HW228608   4.398   0.488   5.176  0.9535 -1.5348 -1.5339
 5716SOL     OW28609   4.657   3.375  16.838 -0.2304  0.2016  0.1150
 5716SOL    HW128610   4.656   3.402  16.929  1.8916  1.8490 -0.3316
 5716SOL    HW228611   4.567   3.399  16.817 -0.6394 -1.5319 -0.1447
 5717SOL     OW28612   2.834   4.658   2.902 -0.0866 -0.0302 -0.2137
 5717SOL    HW128613   2.838   4.720   2.829  0.6332 -1.6205 -1.5218
 5717SOL    HW228614   2.841   4.572   2.862  2.2007  0.9878 -1.9900
 5718SOL     OW28615   3.917   4.405   5.992  0.2471  0.2531  0.1042
 5718SOL    HW128616   3.979   4.471   6.025 -0.3690 -0.3223  2.3975
 5718SOL    HW228617   3.828   4.434   6.009  0.7573  2.0371 -0.2272
 5719SOL     OW28618   3.300   3.058  14.824  0.0153 -0.1209  0.4040
 5719SOL    HW128619   3.288   3.092  14.913  0.3157  1.9089 -0.3328
 5719SOL    HW228620   3.279   3.144  14.788  1.3404  0.2428  0.4956
 5720SOL     OW28621   4.674   3.935   3.117 -0.2036  0.0921 -1.0713
 5720SOL    HW128622   4.630   3.972   3.040 -0.0455  1.1451 -0.6518
 5720SOL    HW228623   4.686   3.845   3.087  0.0129 -0.8243  1.7860
 5721SOL     OW28624   2.673   3.656   5.049  0.1605  0.1454 -0.1624
 5721SOL    HW128625   2.698   3.684   4.961  1.6831  0.2877  0.3136
 5721SOL    HW228626   2.757   3.633   5.088 -0.3482  0.9235  1.4071
 5722SOL     OW28627   0.666   0.971  12.214 -0.8078 -0.1938 -0.5309
 5722SOL    HW128628   0.758   0.977  12.237 -0.9519  1.9510 -0.5095
 5722SOL    HW228629   0.661   0.885  12.172 -0.8081  0.5145 -1.9901
 5723SOL     OW28630   1.100   1.072  13.811  0.1586  0.4128 -0.1618
 5723SOL    HW128631   1.033   1.041  13.872 -0.6581  2.7887  0.1754
 5723SOL    HW228632   1.059   1.049  13.728 -1.3592  1.0736  0.3882
 5724SOL     OW28633   0.768   3.706   2.235  0.0677  0.4836 -0.6981
 5724SOL    HW128634   0.696   3.728   2.176  1.2516  2.6403 -1.3449
 5724SOL    HW228635   0.836   3.748   2.182  0.8303 -0.9329 -0.8447
 5725SOL     OW28636   1.933   3.842  15.515  0.1295  0.3723  0.0952
 5725SOL    HW128637   1.965   3.886  15.593  1.2418  1.6466 -1.0881
 5725SOL    HW228638   1.862   3.793  15.557 -1.1078 -0.9206 -3.5246
 5726SOL     OW28639   2.798   3.181   7.149  0.0342  0.6486  0.3381
 5726SOL    HW128640   2.872   3.145   7.199  0.2401  0.6069 -0.0021
 5726SOL    HW228641   2.839   3.233   7.080 -1.1139 -0.9164 -1.4938
 5727SOL     OW28642   2.462   0.617   4.021  0.4493  0.5905 -0.5501
 5727SOL    HW128643   2.406   0.688   3.990 -1.0745 -0.9905 -1.3904
 5727SOL    HW228644   2.518   0.613   3.944 -0.5825 -0.3727 -1.2431
 5728SOL     OW28645   3.544   3.004   3.771 -0.0004 -0.5809  0.1249
 5728SOL    HW128646   3.573   3.057   3.845 -0.0486  0.2379 -0.4499
 5728SOL    HW228647   3.449   3.008   3.767  0.0755  1.1369  0.1579
 5729SOL     OW28648   3.274   3.181  12.232  0.4272 -0.0032 -0.1524
 5729SOL    HW128649   3.282   3.220  12.145  0.4523  0.1849 -0.0658
 5729SOL    HW228650   3.367   3.162  12.246 -0.1364 -2.6316  0.0792
 5730SOL     OW28651   0.588   2.160   5.836  0.1123  0.0142  0.5167
 5730SOL    HW128652   0.617   2.079   5.879  0.1172 -1.2560 -1.8823
 5730SOL    HW228653   0.498   2.167   5.869 -0.0397  2.2433 -0.4270
 5731SOL     OW28654   4.459   0.809  15.449  0.5114  0.2497 -0.2332
 5731SOL    HW128655   4.374   0.793  15.409  1.1147 -1.0770 -0.9895
 5731SOL    HW228656   4.495   0.722  15.468 -0.3823 -0.1414 -0.3312
 5732SOL     OW28657   1.811   3.688   8.859  0.0961 -0.2364  0.0652
 5732SOL    HW128658   1.794   3.595   8.842  1.6447 -0.2357 -1.5069
 5732SOL    HW228659   1.903   3.675   8.885  0.2865 -1.2079 -1.1166
 5733SOL     OW28660   3.888   0.988  15.864 -0.3014  0.2761 -0.3272
 5733SOL    HW128661   3.848   0.945  15.789 -3.3112 -0.0524  1.4775
 5733SOL    HW228662   3.830   1.064  15.869  1.7171  1.9585 -2.6813
 5734SOL     OW28663   4.649   0.909   4.987 -0.6526  0.0780 -0.0822
 5734SOL    HW128664   4.651   0.993   5.034 -1.0779 -0.3098  0.6248
 5734SOL    HW228665   4.565   0.877   5.019  1.3427 -0.8156  4.2917
 5735SOL     OW28666   1.094   3.719   8.919  0.2244  0.2920  0.2573
 5735SOL    HW128667   1.186   3.693   8.917  0.5102  1.1364  3.0776
 5735SOL    HW228668   1.077   3.684   8.832 -1.9485  2.9244 -0.3780
 5736SOL     OW28669   0.929   0.669   4.687  0.1806  0.1066  0.0712
 5736SOL    HW128670   0.942   0.763   4.673  0.0052 -0.0882 -1.4432
 5736SOL    HW228671   0.845   0.660   4.641  0.9381 -1.2112 -1.0233
 5737SOL     OW28672   4.279   0.677   3.929  0.2627  0.2281 -0.3427
 5737SOL    HW128673   4.285   0.749   3.866 -0.1908  0.5212 -0.0612
 5737SOL    HW228674   4.310   0.602   3.879 -2.0498 -1.4059  0.6393
 5738SOL     OW28675   1.527   1.580   1.341  0.5238 -0.6124 -0.3330
 5738SOL    HW128676   1.482   1.615   1.264  2.2370  2.7346  0.2231
 5738SOL    HW228677   1.555   1.493   1.314  0.0367 -1.1140  0.7686
 5739SOL     OW28678   3.020   2.762   2.517  0.4471  0.2111  0.1746
 5739SOL    HW128679   2.935   2.729   2.544  0.0751  0.2735 -0.9252
 5739SOL    HW228680   3.003   2.842   2.468 -0.0260  0.6645  1.0892
 5740SOL     OW28681   4.185   0.384   9.280 -0.1141  0.3584 -0.4130
 5740SOL    HW128682   4.157   0.294   9.297 -0.6271  0.8183  1.2739
 5740SOL    HW228683   4.132   0.391   9.201 -1.3426 -0.6022  0.3055
 5741SOL     OW28684   0.799   1.850   4.507  0.0977  0.9668 -0.2471
 5741SOL    HW128685   0.818   1.798   4.428 -0.4670  0.6710 -0.1907
 5741SOL    HW228686   0.873   1.910   4.508 -0.2075  1.3658 -1.0677
 5742SOL     OW28687   0.914   2.011   1.780  0.0034  0.4818  0.1689
 5742SOL    HW128688   0.985   2.075   1.770  0.6782  0.0359  1.9509
 5742SOL    HW228689   0.877   2.034   1.865  0.2586 -0.3527  0.5061
 5743SOL     OW28690   3.471   0.124  13.169  0.0628  0.8087  0.0360
 5743SOL    HW128691   3.472   0.104  13.076  1.0588  0.8343  0.0408
 5743SOL    HW228692   3.415   0.201  13.175 -0.4981  0.5299 -1.6748
 5744SOL     OW28693   1.612   0.375   4.887  0.1714 -0.2656 -0.2703
 5744SOL    HW128694   1.693   0.325   4.892  0.6497  0.6399  0.8328
 5744SOL    HW228695   1.616   0.383   4.791  1.1889 -1.9597 -0.3734
 5745SOL     OW28696   0.400   0.605   6.710  0.0350 -0.1030  0.5805
 5745SOL    HW128697   0.308   0.630   6.700  0.0779  0.6054  1.8962
 5745SOL    HW228698   0.434   0.687   6.745  1.9087 -1.8063  2.7310
 5746SOL     OW28699   2.557   3.167   3.738  0.9366 -0.3101  0.2094
 5746SOL    HW128700   2.555   3.239   3.676 -1.7538 -1.7766 -1.3832
 5746SOL    HW228701   2.626   3.193   3.799 -0.8388  0.7309  1.7795
 5747SOL     OW28702   4.211   3.675   5.438 -0.0283  0.3634  0.1444
 5747SOL    HW128703   4.231   3.678   5.345  0.6020 -1.2750  0.2287
 5747SOL    HW228704   4.252   3.752   5.476  1.8017 -1.0731  1.0938
 5748SOL     OW28705   1.879   0.717  13.610  0.5117  0.2703  0.9720
 5748SOL    HW128706   1.944   0.742  13.545 -2.0608 -0.3968 -1.9060
 5748SOL    HW228707   1.797   0.744  13.568 -0.0772 -2.2809  0.4764
 5749SOL     OW28708   0.562   0.790  16.430  0.0704  0.0818  0.0151
 5749SOL    HW128709   0.654   0.816  16.433  0.5354 -1.2633 -2.7813
 5749SOL    HW228710   0.553   0.792  16.525 -0.5424 -1.5695  0.0062
 5750SOL     OW28711   0.519   2.308  11.557 -0.2122  0.3205  0.0498
 5750SOL    HW128712   0.509   2.403  11.555  2.1398  0.5540 -1.1792
 5750SOL    HW228713   0.613   2.310  11.575 -0.2968 -0.5811  0.5966
 5751SOL     OW28714   4.084   4.006   8.214 -0.0624  0.5775 -0.2608
 5751SOL    HW128715   4.145   3.970   8.279 -0.4662  1.1714  0.4326
 5751SOL    HW228716   4.060   3.921   8.177  0.1526  0.0768  0.7394
 5752SOL     OW28717   1.460   0.889   7.107 -0.1394 -0.1832  0.0013
 5752SOL    HW128718   1.545   0.862   7.073  1.6157  2.0812  2.5959
 5752SOL    HW228719   1.480   0.867   7.198 -0.9233 -0.6479  0.0673
 5753SOL     OW28720   3.035   3.829  15.573  0.1522 -0.3056 -0.4617
 5753SOL    HW128721   3.085   3.910  15.557 -2.9203  1.2518 -2.1559
 5753SOL    HW228722   2.946   3.860  15.559 -0.1148 -0.3978  1.0568
 5754SOL     OW28723   0.508   3.308  16.821 -0.1705 -0.1913  0.5359
 5754SOL    HW128724   0.453   3.385  16.830 -1.3368 -0.5748 -3.3272
 5754SOL    HW228725   0.523   3.293  16.914 -0.2064  4.1852  1.2430
 5755SOL     OW28726   3.642   0.443   2.681 -0.3999  0.2380 -0.3493
 5755SOL    HW128727   3.667   0.352   2.695  0.6168  0.6924  0.7960
 5755SOL    HW228728   3.650   0.481   2.769  0.2724  0.8658 -0.6750
 5756SOL     OW28729   2.420   2.789   4.090 -0.0935  0.2382  0.2678
 5756SOL    HW128730   2.478   2.742   4.149 -3.0672 -2.2673  1.2058
 5756SOL    HW228731   2.478   2.855   4.050 -0.7065  1.8982  2.1194
 5757SOL     OW28732   2.545   2.847   7.670 -0.3529 -0.0003  0.1210
 5757SOL    HW128733   2.487   2.904   7.620 -0.5406  0.2740  0.6539
 5757SOL    HW228734   2.583   2.916   7.725  1.8145 -1.6074  0.6248
 5758SOL     OW28735   4.605   3.644   1.104  0.3331  0.4551  0.3908
 5758SOL    HW128736   4.678   3.699   1.134  2.0422 -1.1574 -0.7878
 5758SOL    HW228737   4.532   3.688   1.147 -0.1662 -0.9844  1.0252
 5759SOL     OW28738   1.400   3.652  14.095  0.1082  0.2149  0.5852
 5759SOL    HW128739   1.312   3.649  14.133 -0.6261  0.7951 -1.0805
 5759SOL    HW228740   1.374   3.684  14.009  1.4817 -3.1673 -1.1028
 5760SOL     OW28741   2.806   4.592   8.228  0.0457  0.3301 -0.1433
 5760SOL    HW128742   2.731   4.592   8.287  0.2841 -1.4556  0.1555
 5760SOL    HW228743   2.873   4.551   8.283  2.7729 -0.3447 -3.9591
 5761SOL     OW28744   3.715   0.311   4.407  0.1421 -0.4229  0.0166
 5761SOL    HW128745   3.695   0.231   4.456  1.6178 -1.2124 -0.6420
 5761SOL    HW228746   3.634   0.331   4.359  0.4085  1.6002  0.4319
 5762SOL     OW28747   3.416   2.239   2.745 -0.1729  0.1766 -0.6921
 5762SOL    HW128748   3.430   2.330   2.718  1.6678  0.2573  0.5182
 5762SOL    HW228749   3.338   2.223   2.692  0.3679  1.4606 -1.8714
 5763SOL     OW28750   4.440   0.423   7.932  0.2329  0.3336  0.6757
 5763SOL    HW128751   4.499   0.496   7.950  1.5438 -0.2856 -1.1041
 5763SOL    HW228752   4.422   0.391   8.020  3.1199 -2.2396  0.3108
 5764SOL     OW28753   0.688   3.432   7.388  0.1783 -0.9578 -0.0991
 5764SOL    HW128754   0.738   3.435   7.469 -0.6390  2.8132  0.2828
 5764SOL    HW228755   0.752   3.448   7.318  0.7407 -0.3510  0.5431
 5765SOL     OW28756   1.100   1.344   9.840  0.1405  0.1294 -0.1665
 5765SOL    HW128757   1.134   1.286   9.908  1.6119 -0.6990 -1.6107
 5765SOL    HW228758   1.042   1.405   9.886  0.0067  1.4839 -2.1097
 5766SOL     OW28759   4.128   2.721   2.502  0.0779  0.1192 -0.3169
 5766SOL    HW128760   4.138   2.681   2.416  3.1417  1.7978 -0.7246
 5766SOL    HW228761   4.220   2.710   2.525 -0.3573 -0.9349  0.9800
 5767SOL     OW28762   2.797   0.421   9.066  0.0311  0.7659  0.0194
 5767SOL    HW128763   2.782   0.354   9.132  0.9126  0.1331 -0.4318
 5767SOL    HW228764   2.891   0.419   9.050  0.4389 -0.0129  2.5391
 5768SOL     OW28765   2.358   2.143   3.955  0.1304  0.0205  0.0487
 5768SOL    HW128766   2.288   2.187   3.906  0.8423  0.2973 -0.7229
 5768SOL    HW228767   2.346   2.050   3.936  0.7487 -0.2655  1.0583
 5769SOL     OW28768   1.811   3.295   3.146  0.2692  0.5308 -0.0538
 5769SOL    HW128769   1.790   3.327   3.234  1.2668 -0.2316  0.4540
 5769SOL    HW228770   1.725   3.266   3.114 -0.1142  1.2778  0.2834
 5770SOL     OW28771   1.432   1.144   5.520  0.0757  0.7644 -0.5075
 5770SOL    HW128772   1.453   1.213   5.457 -2.4815  0.7571 -1.3354
 5770SOL    HW228773   1.342   1.126   5.492 -0.0636 -0.7585  0.9243
 5771SOL     OW28774   4.100   1.526  13.742 -0.0217  0.3324 -0.2032
 5771SOL    HW128775   4.079   1.587  13.671  1.5463  1.7654  0.5765
 5771SOL    HW228776   4.048   1.563  13.813  0.5121 -0.3716  0.5502
 5772SOL     OW28777   2.173   0.064   7.215  0.0616  0.0670  0.2475
 5772SOL    HW128778   2.106   0.003   7.245  0.1633 -0.2719 -0.2204
 5772SOL    HW228779   2.249   0.008   7.230 -1.2120 -1.9993 -1.0169
 5773SOL     OW28780   3.677   2.863   8.541 -0.7827 -0.6292 -0.2345
 5773SOL    HW128781   3.611   2.834   8.478 -1.3612 -1.7515  0.8908
 5773SOL    HW228782   3.696   2.786   8.594  3.0562  0.8905  0.6127
 5774SOL     OW28783   1.477   1.095  16.401  0.0959  1.1309 -0.1332
 5774SOL    HW128784   1.499   1.018  16.452 -0.6545 -0.4697 -2.2161
 5774SOL    HW228785   1.504   1.167  16.458 -1.2152  1.1095  0.4939
 5775SOL     OW28786   4.565   3.420   7.841 -0.0677  0.1147  0.1320
 5775SOL    HW128787   4.630   3.474   7.795  0.5346 -1.7607 -1.2210
 5775SOL    HW228788   4.564   3.335   7.798 -2.1689  0.5536 -0.6580
 5776SOL     OW28789   3.311   3.982   1.589  0.1821  0.1002  0.1938
 5776SOL    HW128790   3.277   3.962   1.676  1.7034 -2.3055  0.2505
 5776SOL    HW228791   3.366   4.055   1.617 -1.2472  0.3177  2.4802
 5777SOL     OW28792   0.748   3.066   6.339  0.1098  0.7173  0.4253
 5777SOL    HW128793   0.782   3.058   6.250 -1.0767 -1.3356  0.1698
 5777SOL    HW228794   0.775   3.156   6.357  1.2979  0.0420  1.9258
 5778SOL     OW28795   4.352   2.494  14.345  0.9274  0.5190 -0.4528
 5778SOL    HW128796   4.413   2.550  14.298 -0.0271 -0.9426 -3.4331
 5778SOL    HW228797   4.302   2.449  14.277  0.5708 -0.8103  0.6748
 5779SOL     OW28798   2.520   1.548  13.755 -0.3209 -0.0677 -0.1258
 5779SOL    HW128799   2.552   1.566  13.667 -0.5913 -1.4146 -0.4970
 5779SOL    HW228800   2.603   1.557  13.803 -0.3481 -1.6650  0.1958
 5780SOL     OW28801   3.165   4.254   0.645  0.1371  0.2840 -0.0975
 5780SOL    HW128802   3.208   4.177   0.682 -2.6026 -1.6047 -0.8716
 5780SOL    HW228803   3.178   4.236   0.552  0.8463 -2.1904  0.4676
 5781SOL     OW28804   2.623   1.584   7.727 -0.3666 -0.3541 -0.0118
 5781SOL    HW128805   2.530   1.603   7.712 -0.6490 -2.5301 -0.9891
 5781SOL    HW228806   2.651   1.588   7.636  0.5228  3.2009  0.4096
 5782SOL     OW28807   0.482   1.853   6.638 -0.6156  0.7219 -0.4188
 5782SOL    HW128808   0.439   1.893   6.714  0.9064 -0.4232  1.0477
 5782SOL    HW228809   0.416   1.850   6.569  0.4803  2.9220 -1.5643
 5783SOL     OW28810   2.023   1.888   3.378  0.2554  0.4792  0.1605
 5783SOL    HW128811   2.030   1.796   3.350  0.9341  1.1952 -2.0584
 5783SOL    HW228812   2.116   1.910   3.385  0.5810 -0.5479 -0.8211
 5784SOL     OW28813   2.767   0.790  17.129  0.2934  0.1243 -0.2497
 5784SOL    HW128814   2.790   0.697  17.117 -2.8492 -0.7440  0.2777
 5784SOL    HW228815   2.682   0.775  17.171 -0.3265  1.5950 -1.0080
 5785SOL     OW28816   4.458   0.741  16.612 -0.4710  0.6131 -0.0970
 5785SOL    HW128817   4.450   0.665  16.670 -0.1865 -0.1212 -1.0135
 5785SOL    HW228818   4.526   0.706  16.554  2.0492  1.8499  2.1693
 5786SOL     OW28819   2.000   0.497  13.765  0.0236 -0.0976 -0.3660
 5786SOL    HW128820   1.968   0.581  13.731  0.3655  0.7276  1.3551
 5786SOL    HW228821   1.934   0.477  13.832  0.2686  1.2389  0.2849
 5787SOL     OW28822   0.626   2.192   2.335 -0.1331  0.6803  0.3716
 5787SOL    HW128823   0.704   2.137   2.343 -1.2973 -1.0749 -0.3419
 5787SOL    HW228824   0.560   2.170   2.400  0.8158  1.9424  1.7781
 5788SOL     OW28825   1.688   1.424  14.117  0.4629 -0.3368  0.5415
 5788SOL    HW128826   1.598   1.408  14.146  0.3786 -3.3879 -1.3221
 5788SOL    HW228827   1.731   1.338  14.119  0.4762 -0.3123  1.1029
 5789SOL     OW28828   2.761   2.497   2.033 -0.8981  0.2762  0.6507
 5789SOL    HW128829   2.693   2.430   2.026 -1.6751  1.0925  0.4352
 5789SOL    HW228830   2.773   2.537   1.947  3.0280  1.2306  1.6343
 5790SOL     OW28831   4.579   0.050  15.816 -0.0233  0.0673  0.6150
 5790SOL    HW128832   4.485   0.066  15.805  0.0851 -0.7459 -1.4623
 5790SOL    HW228833   4.583   0.049  15.911  1.3508  2.0596  0.5685
 5791SOL     OW28834   1.337   0.531   4.706 -0.8887  0.1618  0.1124
 5791SOL    HW128835   1.247   0.501   4.699 -1.0610  1.3282 -2.8319
 5791SOL    HW228836   1.327   0.626   4.699 -0.2329  0.1676 -0.8644
 5792SOL     OW28837   1.983   1.613   2.495 -0.6227  0.0942  0.2943
 5792SOL    HW128838   2.050   1.601   2.562 -1.5590  0.9937  1.3752
 5792SOL    HW228839   2.012   1.690   2.446  2.4818  0.8994  3.4144
 5793SOL     OW28840   4.389   3.943   7.238  0.7279 -0.4139  0.1939
 5793SOL    HW128841   4.455   3.879   7.213  0.6146 -0.9026  1.1156
 5793SOL    HW228842   4.351   3.956   7.151 -1.1254  0.3310  1.1037
 5794SOL     OW28843   4.036   3.096  17.111 -0.0280  0.2462 -0.6611
 5794SOL    HW128844   3.995   3.064  17.030 -1.4699 -0.8477  0.4930
 5794SOL    HW228845   3.955   3.130  17.150 -0.9339 -0.8025 -1.5921
 5795SOL     OW28846   2.971   0.876   5.010  0.3697 -0.2157 -1.0741
 5795SOL    HW128847   2.895   0.932   4.993 -0.3203 -0.9707 -0.4615
 5795SOL    HW228848   3.020   0.899   4.931  2.4030 -3.5258 -0.7722
 5796SOL     OW28849   3.800   2.867   0.241 -0.1612  0.1134 -0.4450
 5796SOL    HW128850   3.749   2.842   0.165 -0.1416  1.6344 -0.9518
 5796SOL    HW228851   3.756   2.820   0.312 -0.4437  0.1614 -0.5914
 5797SOL     OW28852   3.427   1.830   4.885 -0.4504  0.1582 -0.2561
 5797SOL    HW128853   3.434   1.920   4.919  0.2166 -0.9507  2.5072
 5797SOL    HW228854   3.443   1.845   4.791 -1.7185 -0.7740 -0.6116
 5798SOL     OW28855   4.678   4.181   6.522  0.2558 -0.4152  0.0234
 5798SOL    HW128856   4.618   4.252   6.499  0.5113 -0.5877 -1.1465
 5798SOL    HW228857   0.034   4.221   6.494  0.7094 -2.3382 -1.3382
 5799SOL     OW28858   2.463   4.363   8.739  0.1812 -0.4554  0.2904
 5799SOL    HW128859   2.529   4.395   8.801  0.7454  0.7344 -0.9214
 5799SOL    HW228860   2.424   4.445   8.708  1.0017 -1.1352 -2.5014
 5800SOL     OW28861   0.255   0.343   9.611  0.1258 -0.2946 -0.2969
 5800SOL    HW128862   0.213   0.429   9.620 -1.1905 -1.1934  1.8955
 5800SOL    HW228863   0.302   0.339   9.694  0.0385 -0.5311 -0.2582
 5801SOL     OW28864   1.900   4.072   9.462 -0.0552  0.2023  0.4354
 5801SOL    HW128865   1.929   4.163   9.452  0.7620 -0.1641 -0.5403
 5801SOL    HW228866   1.948   4.042   9.385  1.5657  1.2105  1.0516
 5802SOL     OW28867   4.279   4.588   9.296 -0.1931 -0.3501 -0.4390
 5802SOL    HW128868   4.353   4.595   9.235 -1.0672  1.1409 -1.3127
 5802SOL    HW228869   4.220   4.544   9.235 -0.5769  0.4103 -0.6140
 5803SOL     OW28870   3.971   4.007   1.936 -0.3591  0.7099 -0.1419
 5803SOL    HW128871   4.048   4.027   1.882 -1.4310  0.7106 -1.6367
 5803SOL    HW228872   3.968   3.912   1.945 -0.5214  0.6377 -1.0092
 5804SOL     OW28873   1.303   1.241   6.632 -0.5522 -0.2455 -0.1537
 5804SOL    HW128874   1.225   1.265   6.581  0.0417 -0.4878 -1.1667
 5804SOL    HW228875   1.310   1.309   6.700 -2.3993 -0.8832  0.6980
 5805SOL     OW28876   1.362   3.128   1.472  0.0533 -0.5194  0.2783
 5805SOL    HW128877   1.356   3.215   1.431  1.5390 -1.1426 -1.2504
 5805SOL    HW228878   1.443   3.095   1.435 -0.6057  1.8096 -3.2947
 5806SOL     OW28879   0.387   4.296   4.410 -0.0076 -0.1680  0.1063
 5806SOL    HW128880   0.401   4.254   4.325 -0.8599 -1.7282  0.7264
 5806SOL    HW228881   0.297   4.270   4.429 -0.8019  0.6812 -2.5084
 5807SOL     OW28882   1.811   0.500   7.478  0.4186 -0.9524 -0.0521
 5807SOL    HW128883   1.750   0.430   7.500 -0.9006  0.0305 -0.5767
 5807SOL    HW228884   1.775   0.511   7.390 -0.6999 -1.6479  0.3166
 5808SOL     OW28885   3.091   2.793  15.356  0.1417 -0.5024  0.4689
 5808SOL    HW128886   3.098   2.839  15.273 -0.7385  0.7323  1.0793
 5808SOL    HW228887   3.096   2.701  15.329  2.1244 -0.6455  1.3099
 5809SOL     OW28888   3.451   1.795   4.387  0.6943  0.4514  0.1070
 5809SOL    HW128889   3.483   1.810   4.298 -1.2552  0.9643 -0.5077
 5809SOL    HW228890   3.359   1.768   4.378  0.5570  1.1458 -0.6090
 5810SOL     OW28891   3.233   3.306   4.962  0.4668 -0.1480  1.0141
 5810SOL    HW128892   3.312   3.327   5.012  0.5146 -0.0726  0.9058
 5810SOL    HW228893   3.186   3.261   5.032  0.1881  0.7844  1.4323
 5811SOL     OW28894   1.078   3.722   4.770  0.0123  0.1291  0.8058
 5811SOL    HW128895   1.050   3.696   4.858  1.7808  2.6982  2.1367
 5811SOL    HW228896   1.172   3.725   4.787 -0.0796  1.7764  1.0534
 5812SOL     OW28897   3.709   3.729   7.589 -0.0357  0.2432  0.1933
 5812SOL    HW128898   3.635   3.670   7.604 -0.1152  0.5685  1.0869
 5812SOL    HW228899   3.684   3.803   7.643 -1.2831 -0.6519  0.8527
 5813SOL     OW28900   0.617   1.523  14.244  0.3902  0.3099 -0.1241
 5813SOL    HW128901   0.700   1.535  14.290  0.6014  1.0286 -0.6994
 5813SOL    HW228902   0.634   1.590  14.178 -0.5147  1.2529  0.6027
 5814SOL     OW28903   2.930   4.545   7.990 -0.4157 -0.2960  0.3287
 5814SOL    HW128904   2.866   4.543   8.062  1.2959 -0.3240  1.8386
 5814SOL    HW228905   3.015   4.549   8.033 -0.5283 -0.9129  0.6114
 5815SOL     OW28906   0.941   3.622   5.007  0.6525 -0.5485  0.1871
 5815SOL    HW128907   0.903   3.700   5.047  1.1387  0.3787 -1.1608
 5815SOL    HW228908   0.868   3.581   4.960 -0.2426  2.3422 -0.9463
 5816SOL     OW28909   0.769   3.165  12.250  0.4979  0.3420  0.1194
 5816SOL    HW128910   0.773   3.211  12.334  2.0342 -0.7494  0.6484
 5816SOL    HW228911   0.792   3.240  12.195 -0.3582  0.7333  0.2889
 5817SOL     OW28912   3.221   1.595   3.732  0.0299 -0.3872 -0.0394
 5817SOL    HW128913   3.220   1.597   3.636 -0.8283  1.9208  0.0367
 5817SOL    HW228914   3.290   1.659   3.748  0.2796 -1.2140  2.1779
 5818SOL     OW28915   3.566   0.063   0.183 -0.1260  0.1578 -0.2841
 5818SOL    HW128916   3.559   0.107   0.267 -1.4613 -1.2760  0.3710
 5818SOL    HW228917   3.475   0.040   0.161 -0.3068  0.7158 -0.1241
 5819SOL     OW28918   0.408   4.596  12.562  0.4425 -0.1194  0.3147
 5819SOL    HW128919   0.353   4.613  12.485  2.2613  1.3909 -0.6609
 5819SOL    HW228920   0.496   4.610  12.527 -0.1054  0.4771 -0.8191
 5820SOL     OW28921   2.586   3.487   1.941  0.2702  0.2426  0.6819
 5820SOL    HW128922   2.636   3.518   1.866 -0.7305  2.4507  0.9436
 5820SOL    HW228923   2.528   3.424   1.899 -1.6813  1.6464  1.2848
 5821SOL     OW28924   1.496   2.583  17.304  0.2181 -0.6330 -0.3632
 5821SOL    HW128925   1.538   2.629  17.231  2.9544 -0.2891  1.3865
 5821SOL    HW228926   1.476   2.664  17.351  0.8048 -0.2013 -0.8538
 5822SOL     OW28927   4.223   4.183   9.280  0.5878  0.3392  0.0456
 5822SOL    HW128928   4.303   4.200   9.230  0.5167  0.7122  0.0630
 5822SOL    HW228929   4.197   4.093   9.260 -1.1680  0.2380  2.8666
 5823SOL     OW28930   4.140   0.177  10.778  0.1933 -0.4220  0.3089
 5823SOL    HW128931   4.221   0.136  10.807 -0.5986 -1.9481  0.3992
 5823SOL    HW228932   4.080   0.103  10.785  1.7647 -1.9403 -2.0852
 5824SOL     OW28933   3.229   2.592   3.898 -0.7522  0.4532  0.4303
 5824SOL    HW128934   3.174   2.514   3.901 -1.3342  0.7551 -2.8649
 5824SOL    HW228935   3.174   2.655   3.945  0.3341  2.0982 -0.5083
 5825SOL     OW28936   1.087   4.468   7.241 -0.4899 -0.2589  0.0754
 5825SOL    HW128937   1.163   4.485   7.186 -2.0697  2.0692 -1.3722
 5825SOL    HW228938   1.106   4.510   7.325  0.6551 -1.5139  0.4349
 5826SOL     OW28939   0.896   2.654   5.688  0.2701 -0.2488  0.4734
 5826SOL    HW128940   0.869   2.712   5.617 -1.0517  1.3064  2.2502
 5826SOL    HW228941   0.965   2.605   5.645  0.4819  1.5474 -1.2015
 5827SOL     OW28942   4.008   2.946   2.647 -0.2639  0.0291  0.3291
 5827SOL    HW128943   4.094   2.987   2.639 -0.4276  0.3450  0.1741
 5827SOL    HW228944   4.025   2.856   2.622  0.1947 -0.8363  3.7600
 5828SOL     OW28945   2.499   0.476   8.905 -0.1983  0.3259 -0.5168
 5828SOL    HW128946   2.454   0.404   8.861 -1.2151  0.7264 -0.1241
 5828SOL    HW228947   2.559   0.499   8.834  0.0392  3.5302  0.7090
 5829SOL     OW28948   4.527   2.474   6.103  0.1665  0.1048  0.0258
 5829SOL    HW128949   4.495   2.385   6.118  1.0660 -0.4399 -1.2923
 5829SOL    HW228950   4.459   2.503   6.041 -0.6734  0.7118  1.2258
 5830SOL     OW28951   4.259   2.975   9.217 -0.3346  0.7051 -0.4687
 5830SOL    HW128952   4.323   3.033   9.176  2.0747 -1.4872  0.1218
 5830SOL    HW228953   4.226   2.936   9.136  0.2902  0.9993 -0.8661
 5831SOL     OW28954   0.780   0.497  10.407  0.8573  0.1790  0.9309
 5831SOL    HW128955   0.795   0.403  10.397  0.7161  0.2677 -0.1367
 5831SOL    HW228956   0.740   0.483  10.493  0.4806  1.3997  0.9452
 5832SOL     OW28957   2.413   1.448  11.516  0.8845  0.2170  0.7376
 5832SOL    HW128958   2.329   1.402  11.521  0.8370  0.4291  1.8836
 5832SOL    HW228959   2.411   1.506  11.592  1.0948 -1.1102  1.7732
 5833SOL     OW28960   4.334   3.883   5.560 -0.1335 -0.0499 -0.1235
 5833SOL    HW128961   4.429   3.879   5.570 -0.0911 -1.6665 -1.0824
 5833SOL    HW228962   4.329   3.969   5.519 -0.6567  0.3107  0.7127
 5834SOL     OW28963   0.425   4.173  14.557 -0.5742  0.3903 -0.1088
 5834SOL    HW128964   0.454   4.129  14.638 -1.9423  1.4363  0.9543
 5834SOL    HW228965   0.498   4.216  14.513 -1.0253  1.3604  0.0759
 5835SOL     OW28966   1.913   2.526  15.996  0.1100  0.5368 -0.2229
 5835SOL    HW128967   1.902   2.612  16.037 -1.0577  0.6314 -0.7418
 5835SOL    HW228968   2.002   2.535  15.960  0.7366 -1.3765  0.8309
 5836SOL     OW28969   0.622   0.815   0.661 -0.2869 -0.6369 -0.5119
 5836SOL    HW128970   0.650   0.906   0.668  0.9421 -1.1364  1.1856
 5836SOL    HW228971   0.532   0.827   0.633 -0.1986  0.0198 -0.5050
 5837SOL     OW28972   3.453   0.477   5.958 -0.6120  0.1300  0.0923
 5837SOL    HW128973   3.472   0.545   5.893  2.3519 -2.5047 -1.8119
 5837SOL    HW228974   3.483   0.401   5.908  2.8651 -0.1552  2.6909
 5838SOL     OW28975   4.207   0.060   4.067 -0.2192  0.0628  0.1458
 5838SOL    HW128976   4.122   0.016   4.068 -0.2544  0.1009 -1.2554
 5838SOL    HW228977   4.253   4.721   4.119  0.6595 -0.6209 -1.4999
 5839SOL     OW28978   0.009   2.169   7.626 -0.2295  0.0414  0.2744
 5839SOL    HW128979   0.021   2.087   7.578 -0.0104 -0.6045  1.4390
 5839SOL    HW228980   4.726   2.232   7.554  0.7307  0.4126  0.4797
 5840SOL     OW28981   3.544   1.103   7.102  0.5099 -0.5581 -0.2612
 5840SOL    HW128982   3.502   1.039   7.159  0.6902 -0.6865 -0.2722
 5840SOL    HW228983   3.606   1.133   7.168 -0.3791  0.4986  0.0780
 5841SOL     OW28984   1.452   2.951  10.427  0.3272  0.0661 -0.3459
 5841SOL    HW128985   1.433   2.858  10.414  1.8768 -0.0672 -1.6951
 5841SOL    HW228986   1.463   2.974  10.335  1.9667 -1.2898 -0.4922
 5842SOL     OW28987   2.212   0.573   5.918 -0.0136  0.0606  0.3924
 5842SOL    HW128988   2.191   0.663   5.894  3.1460 -0.2113 -3.2327
 5842SOL    HW228989   2.306   0.584   5.914 -0.1931  1.5972  0.5738
 5843SOL     OW28990   1.369   1.748  10.241  0.6173 -0.8314  0.2678
 5843SOL    HW128991   1.330   1.714  10.161  1.3479 -2.2729  0.5375
 5843SOL    HW228992   1.378   1.839  10.213 -0.8461 -0.7752 -0.0393
 5844SOL     OW28993   2.369   3.720   7.642 -0.4420 -0.2549 -0.2661
 5844SOL    HW128994   2.285   3.719   7.689  0.0762 -0.1383  0.6488
 5844SOL    HW228995   2.336   3.679   7.562 -2.3956  1.4211 -0.3349
 5845SOL     OW28996   4.694   1.696   8.837 -0.1327  0.0236 -0.4054
 5845SOL    HW128997   4.615   1.718   8.786 -0.1002  0.5732 -0.2153
 5845SOL    HW228998   0.028   1.766   8.812  0.5731  0.0708  1.4827
 5846SOL     OW28999   4.122   3.006   8.990 -0.0619  0.0971  0.5152
 5846SOL    HW129000   4.033   3.035   9.010  0.4927  0.7865  1.9588
 5846SOL    HW229001   4.167   3.090   8.981  0.4947 -0.3891 -1.3091
 5847SOL     OW29002   2.076   0.634  14.409 -0.3238 -0.3428 -0.1349
 5847SOL    HW129003   2.047   0.716  14.371  1.8533  1.0545  1.2007
 5847SOL    HW229004   1.997   0.584  14.388 -0.4568  0.0298 -0.5235
 5848SOL     OW29005   3.724   3.735  12.145 -0.0286 -0.0175  0.0442
 5848SOL    HW129006   3.736   3.659  12.087 -2.4283 -1.8806  1.9808
 5848SOL    HW229007   3.682   3.800  12.089  0.6290 -0.8263 -1.3936
 5849SOL     OW29008   2.265   1.494   9.322 -0.1499 -0.2625 -0.7749
 5849SOL    HW129009   2.270   1.463   9.232 -1.1824  0.8939 -1.2269
 5849SOL    HW229010   2.177   1.463   9.345 -0.7622  0.1457 -2.6078
 5850SOL     OW29011   3.742   0.040   3.815 -0.2638  0.2632 -0.4740
 5850SOL    HW129012   3.719   4.677   3.786 -1.8216  0.7608 -0.7358
 5850SOL    HW229013   3.666   0.052   3.871  0.7950  0.9916  0.7935
 5851SOL     OW29014   3.079   2.034   9.665 -0.0191 -0.0617 -0.2557
 5851SOL    HW129015   2.992   2.051   9.701 -0.3308 -1.5388 -0.2862
 5851SOL    HW229016   3.131   2.002   9.739  0.0905  0.0919 -0.2669
 5852SOL     OW29017   0.951   2.828   9.301  0.5260 -0.1130  0.1254
 5852SOL    HW129018   0.989   2.741   9.313 -1.1506 -0.8610 -0.0446
 5852SOL    HW229019   0.989   2.849   9.216 -2.5804  1.2480 -0.8854
 5853SOL     OW29020   0.974   3.548   9.913  0.9939  0.0359 -0.1088
 5853SOL    HW129021   0.924   3.627   9.936  1.3187  0.2201 -0.0397
 5853SOL    HW229022   0.911   3.482   9.941  0.0817  1.6282  1.5916
 5854SOL     OW29023   3.488   2.777  13.311 -0.6088  0.0607 -0.4445
 5854SOL    HW129024   3.436   2.717  13.365 -1.8871 -0.2596 -2.0327
 5854SOL    HW229025   3.577   2.750  13.334 -0.8745 -0.2898  0.1829
 5855SOL     OW29026   1.070   4.157   3.516  0.1254 -0.0475 -0.1633
 5855SOL    HW129027   1.144   4.134   3.461  1.1054  0.3062  0.9924
 5855SOL    HW229028   0.997   4.109   3.478  0.9854 -0.6624 -1.0272
 5856SOL     OW29029   2.780   0.477  16.768 -0.3058 -0.5335  0.4406
 5856SOL    HW129030   2.795   0.570  16.788 -0.9889 -0.4391  0.5088
 5856SOL    HW229031   2.691   0.468  16.800 -0.6221  0.4542 -0.1549
 5857SOL     OW29032   3.658   3.236   3.392  0.2722  0.1089  0.1418
 5857SOL    HW129033   3.744   3.244   3.351  0.3858  2.0423  0.7623
 5857SOL    HW229034   3.636   3.144   3.374 -0.2487 -0.2300  2.5601
 5858SOL     OW29035   0.190   0.547   5.046  0.4504 -0.1295 -0.2103
 5858SOL    HW129036   0.162   0.459   5.072  0.3124  0.4386  1.5857
 5858SOL    HW229037   0.278   0.517   5.024  1.1062  1.3910  0.3793
 5859SOL     OW29038   1.291   2.200  15.355  0.1750 -0.7033 -1.0600
 5859SOL    HW129039   1.330   2.284  15.380 -3.4481  1.5194 -2.9097
 5859SOL    HW229040   1.246   2.166  15.433  1.7524 -1.6066 -0.5205
 5860SOL     OW29041   4.412   4.572   6.120 -0.5810 -0.0971  0.3046
 5860SOL    HW129042   4.369   4.494   6.154 -1.0402 -0.7247 -1.7110
 5860SOL    HW229043   4.360   4.633   6.172 -1.1602  2.0863 -2.8158
 5861SOL     OW29044   3.913   2.886  16.899 -0.6429 -0.1996  0.3071
 5861SOL    HW129045   3.822   2.898  16.927 -0.3357  1.1341  0.7544
 5861SOL    HW229046   3.915   2.951  16.829  0.3277 -0.5654  0.0024
 5862SOL     OW29047   4.376   2.098   5.379 -0.1448 -0.0619 -0.6783
 5862SOL    HW129048   4.325   2.047   5.316  0.4560  1.1934 -2.2035
 5862SOL    HW229049   4.457   2.047   5.387 -0.2084  0.0649  0.6551
 5863SOL     OW29050   4.054   1.484   6.127 -0.4140  0.4615  0.2800
 5863SOL    HW129051   4.105   1.407   6.101 -2.0943 -0.2213 -1.0037
 5863SOL    HW229052   3.977   1.471   6.072  0.2825  1.2898 -0.8934
 5864SOL     OW29053   2.268   0.602  11.695 -0.4365 -0.0251  0.6858
 5864SOL    HW129054   2.231   0.514  11.689 -1.0858  0.3984 -1.6995
 5864SOL    HW229055   2.352   0.586  11.738  0.0123  0.2231 -0.0976
 5865SOL     OW29056   1.530   3.744   5.712 -0.0487  0.4949 -0.1717
 5865SOL    HW129057   1.620   3.734   5.681  1.0603  3.0970  2.2167
 5865SOL    HW229058   1.538   3.804   5.786 -1.2933  0.4292  0.0177
 5866SOL     OW29059   1.107   3.337  14.739  0.2595  0.1180 -0.2350
 5866SOL    HW129060   1.025   3.338  14.789 -1.6126  2.2838 -3.3698
 5866SOL    HW229061   1.124   3.428  14.715 -0.4858  0.7472  1.5919
 5867SOL     OW29062   2.308   1.842   8.739 -0.0107 -0.3905  0.3076
 5867SOL    HW129063   2.266   1.779   8.681  3.1142 -1.8702 -0.3274
 5867SOL    HW229064   2.370   1.777   8.774 -0.9897 -2.2753 -1.4426
 5868SOL     OW29065   3.187   0.659   2.562  0.4852 -0.0754  0.1764
 5868SOL    HW129066   3.166   0.572   2.595  2.5113 -0.0255  1.6348
 5868SOL    HW229067   3.281   0.663   2.581  0.1635  1.1674  1.5116
 5869SOL     OW29068   0.137   1.458   8.804  0.1883 -0.0136  0.6800
 5869SOL    HW129069   0.098   1.407   8.733  1.0632 -0.0406  0.2227
 5869SOL    HW229070   0.103   1.546   8.788  0.4032 -0.0356  0.1071
 5870SOL     OW29071   0.403   1.482   8.905 -0.0353  0.7733 -0.4628
 5870SOL    HW129072   0.439   1.394   8.904 -0.7423  0.4940 -0.6325
 5870SOL    HW229073   0.317   1.473   8.865 -0.3185 -2.3128  0.8544
 5871SOL     OW29074   0.027   2.703   5.805  0.2343 -0.2394  0.0786
 5871SOL    HW129075   0.106   2.732   5.850 -2.1216  1.8025  2.9764
 5871SOL    HW229076   4.691   2.707   5.878  1.4955  1.5097  1.0402
 5872SOL     OW29077   1.198   3.515  10.049 -0.1277 -0.3670 -0.3752
 5872SOL    HW129078   1.133   3.464  10.098 -1.2523 -0.6685 -2.1820
 5872SOL    HW229079   1.139   3.557   9.987  0.3435 -0.6376 -1.0059
 5873SOL     OW29080   2.105   3.813   1.270  0.6543 -0.2430 -0.2832
 5873SOL    HW129081   2.191   3.783   1.300  1.8163  2.5998 -0.8260
 5873SOL    HW229082   2.062   3.727   1.278 -1.3325  0.7164 -0.7865
 5874SOL     OW29083   1.602   1.953   8.745 -0.1894 -0.3238 -0.3243
 5874SOL    HW129084   1.540   1.965   8.817  0.0690 -1.2449  0.0535
 5874SOL    HW229085   1.669   1.892   8.776  1.0150  0.0500 -2.2529
 5875SOL     OW29086   0.807   1.850  17.602 -0.0163  0.2174  0.1440
 5875SOL    HW129087   0.726   1.843  17.551  0.7061 -0.9014 -0.8683
 5875SOL    HW229088   0.846   1.932  17.573  2.3990 -0.3661  1.7631
 5876SOL     OW29089   0.648   0.425  17.614 -0.1088 -0.4303 -0.0473
 5876SOL    HW129090   0.566   0.441  17.661 -0.0812 -0.4969  0.0231
 5876SOL    HW229091   0.643   0.330  17.609  1.3879 -0.5116  0.1773
 5877SOL     OW29092   2.355   1.235  10.833 -0.1114 -0.0547  0.9473
 5877SOL    HW129093   2.363   1.204  10.923 -0.3899  0.0079  0.9950
 5877SOL    HW229094   2.279   1.294  10.838  0.1803  0.4030 -0.0997
 5878SOL     OW29095   1.863   0.052   5.742  0.4739  0.1171 -0.9181
 5878SOL    HW129096   1.781   0.058   5.694 -0.0782  2.1109  0.2606
 5878SOL    HW229097   1.901   0.131   5.704  0.8843  0.3851  0.0444
 5879SOL     OW29098   4.700   3.594   5.560 -0.4919  0.4459  0.6694
 5879SOL    HW129099   4.684   3.588   5.654  0.5342  2.2943  0.9633
 5879SOL    HW229100   0.069   3.579   5.556 -0.5309  0.1333  0.9068
 5880SOL     OW29101   0.178   4.517  10.064 -0.2346  0.6403 -0.0280
 5880SOL    HW129102   0.261   4.561  10.042  1.2924 -2.4403 -0.4884
 5880SOL    HW229103   0.217   4.450  10.120 -1.9992 -2.6340 -2.7094
 5881SOL     OW29104   0.019   4.222   0.197 -0.0183  0.0121  0.2598
 5881SOL    HW129105   0.037   4.292   0.260 -0.2666 -0.2678  0.6484
 5881SOL    HW229106   4.706   4.164   0.263  2.0585 -0.8702  0.7152
 5882SOL     OW29107   2.504   2.588   3.413  0.0344  0.6434  0.3410
 5882SOL    HW129108   2.578   2.591   3.473  1.0504  0.7317 -0.9163
 5882SOL    HW229109   2.434   2.555   3.469  1.8007 -1.8473  1.0822
 5883SOL     OW29110   0.817   1.023   6.505  0.1384 -0.6551  0.2612
 5883SOL    HW129111   0.729   0.997   6.532  0.4661 -3.0839 -1.0705
 5883SOL    HW229112   0.872   0.988   6.575 -0.4350  2.6513  2.3726
 5884SOL     OW29113   0.403   2.770  10.532 -0.1753  0.2250  0.3000
 5884SOL    HW129114   0.483   2.719  10.540  1.3662  2.3337 -1.6116
 5884SOL    HW229115   0.434   2.836  10.593  1.9746 -1.5446  1.0870
 5885SOL     OW29116   4.000   4.689   5.970  0.2095  0.0537  0.2094
 5885SOL    HW129117   3.920   4.673   6.019 -1.7602 -0.4255 -3.1435
 5885SOL    HW229118   3.973   4.663   5.882  0.1444 -0.5335  0.4024
 5886SOL     OW29119   0.896   3.482  11.023 -0.2007 -0.1565  0.6327
 5886SOL    HW129120   0.899   3.563  10.972  0.5265 -0.0814  0.7898
 5886SOL    HW229121   0.826   3.488  11.087 -0.3947 -0.4969  0.4517
 5887SOL     OW29122   1.210   0.050  12.216 -0.2241 -0.3159 -0.5041
 5887SOL    HW129123   1.207   0.122  12.152  0.7245  1.9882  2.0720
 5887SOL    HW229124   1.231   0.091  12.300 -0.7430 -1.5173  0.2098
 5888SOL     OW29125   1.283   1.177   7.048  0.4515 -0.3440  0.1095
 5888SOL    HW129126   1.361   1.207   7.001 -0.2129  0.9352 -0.1976
 5888SOL    HW229127   1.295   1.084   7.063 -0.2583 -0.5792 -0.8031
 5889SOL     OW29128   4.103   3.943   4.321 -0.5731 -0.0241  0.4641
 5889SOL    HW129129   4.092   3.853   4.290  2.3143 -0.1890 -0.0909
 5889SOL    HW229130   4.037   3.944   4.390 -0.4749 -1.4299  0.5764
 5890SOL     OW29131   3.476   4.685   7.775 -0.1179 -0.2618  0.3485
 5890SOL    HW129132   3.437   4.719   7.694 -0.7501  1.3621  1.3235
 5890SOL    HW229133   3.568   4.683   7.751 -0.5505  1.5785 -1.4655
 5891SOL     OW29134   0.594   4.387   4.853  0.0574 -0.5661 -0.4541
 5891SOL    HW129135   0.604   4.385   4.758 -1.0564 -1.6096 -0.5413
 5891SOL    HW229136   0.504   4.355   4.852  0.0642 -0.6089  0.1131
 5892SOL     OW29137   0.781   0.227  17.345 -0.2473 -0.0821 -0.6481
 5892SOL    HW129138   0.836   0.298  17.311  0.5880  0.8390  2.6378
 5892SOL    HW229139   0.834   0.148  17.334 -0.4696 -0.2023 -0.8506
 5893SOL     OW29140   1.193   2.310  11.525  0.1709 -0.1233 -0.0195
 5893SOL    HW129141   1.267   2.361  11.491  1.5540 -1.8846  0.3587
 5893SOL    HW229142   1.126   2.378  11.522  0.1330 -0.1846 -0.6202
 5894SOL     OW29143   2.661   4.256   6.114 -0.2354 -0.1889  0.4346
 5894SOL    HW129144   2.572   4.222   6.122 -0.5902  0.7534  0.4997
 5894SOL    HW229145   2.669   4.283   6.205 -0.2153  1.0775  0.0570
 5895SOL     OW29146   1.911   3.408   5.349 -0.0893 -0.4147  0.1366
 5895SOL    HW129147   1.883   3.387   5.438 -0.3390  0.7916  0.3430
 5895SOL    HW229148   1.996   3.364   5.346 -0.0591 -0.2905 -0.6688
 5896SOL     OW29149   2.560   4.205   2.687 -0.0517 -0.5743 -0.6114
 5896SOL    HW129150   2.478   4.208   2.637 -2.1312 -0.0620  2.8609
 5896SOL    HW229151   2.622   4.236   2.621  0.2918 -2.1403 -1.0390
 5897SOL     OW29152   1.804   4.098   8.644 -0.2418 -0.2966  0.6415
 5897SOL    HW129153   1.876   4.129   8.699  1.0021 -0.0338 -1.1435
 5897SOL    HW229154   1.763   4.184   8.642  0.6156  0.0885 -1.1464
 5898SOL     OW29155   4.066   4.551   8.332 -0.1197 -0.5002 -0.6332
 5898SOL    HW129156   4.021   4.634   8.316 -1.6224 -0.9157  1.4657
 5898SOL    HW229157   3.993   4.489   8.333 -1.6260  1.2880 -1.2234
 5899SOL     OW29158   3.406   3.385   4.739 -0.6432 -0.4130  0.2374
 5899SOL    HW129159   3.329   3.409   4.792 -1.2827  0.9864 -1.3231
 5899SOL    HW229160   3.435   3.308   4.788 -1.6878  0.0914  1.6462
 5900SOL     OW29161   2.034   1.703   4.031 -0.6585  0.4479 -0.1134
 5900SOL    HW129162   1.976   1.735   3.962  0.7064 -0.9676 -1.9131
 5900SOL    HW229163   2.013   1.767   4.099 -1.2425  1.4401 -1.2191
 5901SOL     OW29164   4.041   1.153  12.102  0.2207  0.0835 -0.1127
 5901SOL    HW129165   4.085   1.188  12.025 -0.5248 -0.1389 -0.6325
 5901SOL    HW229166   4.046   1.238  12.147  0.2883 -0.1984  0.4172
 5902SOL     OW29167   1.955   0.779   9.971  0.7013  0.2752 -0.1868
 5902SOL    HW129168   1.968   0.815  10.058 -2.6076 -1.8021  1.1989
 5902SOL    HW229169   2.037   0.782   9.921 -0.8320  0.4929 -2.7206
 5903SOL     OW29170   4.054   3.706  11.946 -0.2478 -0.1678  0.1124
 5903SOL    HW129171   4.119   3.760  11.990 -0.1018  1.3173 -1.9374
 5903SOL    HW229172   3.974   3.758  11.948  0.6702  1.2767 -0.6639
 5904SOL     OW29173   1.506   4.371   4.016 -0.0028  0.4690  0.3901
 5904SOL    HW129174   1.430   4.315   4.000  1.1077 -0.5145 -1.4807
 5904SOL    HW229175   1.553   4.374   3.932 -2.9830 -3.1675 -1.4180
 5905SOL     OW29176   2.854   0.127   5.997  0.2082 -0.4442  0.3339
 5905SOL    HW129177   2.815   0.119   5.910  0.8734  0.3847 -0.0419
 5905SOL    HW229178   2.904   0.208   5.994 -0.3735 -0.1739 -2.1714
 5906SOL     OW29179   0.803   1.958   2.770  0.5185  0.3627  0.3832
 5906SOL    HW129180   0.806   2.006   2.688  2.5071  0.8052  0.7274
 5906SOL    HW229181   0.880   1.902   2.757 -0.7731 -0.9073 -1.7259
 5907SOL     OW29182   3.692   1.987   3.257  0.1346  0.3135 -0.9542
 5907SOL    HW129183   3.739   2.051   3.204 -0.2081  0.3096 -1.2598
 5907SOL    HW229184   3.719   1.905   3.216 -0.1626 -0.3365  0.1470
 5908SOL     OW29185   0.600   3.132   2.670 -0.6307 -0.2141 -0.1326
 5908SOL    HW129186   0.518   3.149   2.622 -0.7509 -0.4212  0.0041
 5908SOL    HW229187   0.665   3.162   2.606 -0.8342  1.8370  0.6046
 5909SOL     OW29188   0.954   4.076   8.824  0.6348 -0.3572  0.3899
 5909SOL    HW129189   0.990   4.074   8.913 -1.9490  4.5968  1.5224
 5909SOL    HW229190   1.036   4.063   8.775  0.2530 -1.2154 -0.0100
 5910SOL     OW29191   2.668   4.427  16.676 -0.7224  0.6683  0.2026
 5910SOL    HW129192   2.594   4.370  16.697 -0.1707  0.2430  0.9860
 5910SOL    HW229193   2.648   4.446  16.585  0.5457 -2.4182 -0.7216
 5911SOL     OW29194   2.994   1.298  16.924 -0.2492  0.2012  0.4417
 5911SOL    HW129195   2.997   1.347  17.006  2.9645 -0.8388  0.9245
 5911SOL    HW229196   3.054   1.357  16.878 -3.1216  0.0207 -3.6173
 5912SOL     OW29197   2.496   1.686   3.314 -0.0149 -0.2495  0.2804
 5912SOL    HW129198   2.560   1.632   3.361  1.8894  1.7737  0.0013
 5912SOL    HW229199   2.426   1.621   3.305 -0.4267  0.5605 -2.4895
 5913SOL     OW29200   2.948   4.059   9.455 -0.1513  0.5671 -0.2546
 5913SOL    HW129201   2.925   4.077   9.546 -1.1035 -0.9255 -0.1950
 5913SOL    HW229202   3.042   4.076   9.459  0.2095 -1.1815 -1.0071
 5914SOL     OW29203   1.420   4.370   2.722  0.2313 -0.7213  0.0944
 5914SOL    HW129204   1.482   4.316   2.673 -0.6071 -0.1227 -1.6203
 5914SOL    HW229205   1.396   4.433   2.655 -1.7455  0.5733  2.0273
 5915SOL     OW29206   0.587   2.500   2.209 -0.2528 -0.0507  0.0436
 5915SOL    HW129207   0.580   2.421   2.262 -0.3390 -0.5485 -0.7106
 5915SOL    HW229208   0.496   2.519   2.185 -0.6682 -0.2832  1.4283
 5916SOL     OW29209   4.429   2.314   8.877  0.2321 -0.4108  0.3251
 5916SOL    HW129210   4.410   2.317   8.971  0.0692 -0.6664  0.3018
 5916SOL    HW229211   4.461   2.399   8.848 -0.7862 -0.2258 -0.2336
 5917SOL     OW29212   2.870   4.121   9.705  0.3461  0.3581 -0.1688
 5917SOL    HW129213   2.929   4.170   9.763 -1.5638 -0.3938  2.4120
 5917SOL    HW229214   2.827   4.065   9.769 -0.2173  1.6979  0.6242
 5918SOL     OW29215   1.327   0.995  13.962 -0.1142 -0.2061  0.2539
 5918SOL    HW129216   1.288   0.960  14.042  1.8823  0.4374  1.5320
 5918SOL    HW229217   1.252   1.028  13.912 -1.1794 -2.2974  0.4580
 5919SOL     OW29218   0.507   2.809   4.365 -0.1570 -0.4228  0.4988
 5919SOL    HW129219   0.573   2.760   4.414 -0.5518 -1.4509  0.0137
 5919SOL    HW229220   0.435   2.752   4.390  2.0622 -2.4936  2.1917
 5920SOL     OW29221   0.899   2.485  14.648  0.1249 -0.1969  0.6027
 5920SOL    HW129222   0.869   2.418  14.709  0.1900 -0.2198  0.6088
 5920SOL    HW229223   0.994   2.480  14.657  0.1779 -1.2480 -0.5600
 5921SOL     OW29224   2.504   0.759   0.369  0.0196  0.3988  0.1853
 5921SOL    HW129225   2.503   0.836   0.425  0.7501  0.3833  0.2291
 5921SOL    HW229226   2.414   0.728   0.377  0.0145 -0.4585 -3.1740
 5922SOL     OW29227   1.068   1.312   4.135  0.3978 -0.0145 -0.4988
 5922SOL    HW129228   1.047   1.397   4.097 -0.4028  0.0315  0.0454
 5922SOL    HW229229   1.163   1.322   4.142  0.0096  2.5295  1.3788
 5923SOL     OW29230   3.025   2.770   1.868  0.1870 -0.2179 -0.1115
 5923SOL    HW129231   3.045   2.751   1.960  0.8559  2.4891  0.3309
 5923SOL    HW229232   2.946   2.719   1.852  0.8048 -0.0186 -3.7443
 5924SOL     OW29233   3.233   1.738   6.262 -0.2157 -0.1522  0.0614
 5924SOL    HW129234   3.275   1.768   6.343  0.4248 -1.0853  0.0835
 5924SOL    HW229235   3.303   1.748   6.197  0.4642 -0.3671  0.7511
 5925SOL     OW29236   4.221   2.526   4.183 -0.3906  0.5293 -0.0087
 5925SOL    HW129237   4.198   2.434   4.198  1.3848 -0.3716 -2.8733
 5925SOL    HW229238   4.192   2.556   4.097  2.5443 -2.2113 -1.9415
 5926SOL     OW29239   1.750   1.776   4.319  0.0115  0.0747  0.4378
 5926SOL    HW129240   1.830   1.725   4.327 -0.8564 -1.1512  1.1287
 5926SOL    HW229241   1.701   1.710   4.270  0.1778  1.9419 -2.2663
 5927SOL     OW29242   2.287   1.642  17.582  0.1005 -0.1331  0.1067
 5927SOL    HW129243   2.277   1.556  17.541 -0.2614 -0.4448  0.8417
 5927SOL    HW229244   2.375   1.639  17.620  0.4725  0.2871 -0.7367
 5928SOL     OW29245   4.346   1.066   2.539  0.2860 -0.1444 -0.4463
 5928SOL    HW129246   4.252   1.054   2.550  0.3498 -0.7645 -0.5921
 5928SOL    HW229247   4.378   0.979   2.562  0.6518  0.7708  2.6302
 5929SOL     OW29248   3.646   0.870   8.561 -0.3491 -0.0526  0.4068
 5929SOL    HW129249   3.601   0.948   8.529 -0.6394  0.5470  2.2673
 5929SOL    HW229250   3.603   0.854   8.645  2.4506 -3.5628  1.1630
 5930SOL     OW29251   2.445   3.816   2.096 -0.3583  1.2556  0.8012
 5930SOL    HW129252   2.458   3.821   2.002  0.1577  4.1868  1.0357
 5930SOL    HW229253   2.493   3.737   2.121 -1.2267 -0.0678 -1.7412
 5931SOL     OW29254   1.448   0.837   9.028 -0.2205 -0.2190 -0.3966
 5931SOL    HW129255   1.398   0.916   9.004 -1.9962 -1.6772 -1.4762
 5931SOL    HW229256   1.424   0.763   8.972 -0.9274  0.7923 -1.4405
 5932SOL     OW29257   0.551   0.283  16.257  0.2111 -0.2603  0.1090
 5932SOL    HW129258   0.614   0.248  16.319 -1.4523 -0.7486  1.5117
 5932SOL    HW229259   0.492   0.209  16.242  1.1719 -0.5539 -2.3298
 5933SOL     OW29260   3.195   1.926  15.939  0.1666  0.3118  0.0673
 5933SOL    HW129261   3.187   2.004  15.885 -0.7104  1.1377  1.3870
 5933SOL    HW229262   3.281   1.907  15.903 -0.5238 -2.0321 -0.3195
 5934SOL     OW29263   0.572   1.548   7.183  0.3573 -1.0124 -0.0599
 5934SOL    HW129264   0.502   1.544   7.248 -1.6997 -1.6663 -2.3333
 5934SOL    HW229265   0.579   1.643   7.170  0.1168 -0.7552  1.6233
 5935SOL     OW29266   1.487   3.964   9.138  0.3823 -0.1605  0.5745
 5935SOL    HW129267   1.558   3.997   9.082 -2.0842  3.1172 -0.5656
 5935SOL    HW229268   1.521   3.995   9.222  0.9027  0.9110 -0.0323
 5936SOL     OW29269   3.503   1.031   1.898 -0.4984  0.2555  0.1587
 5936SOL    HW129270   3.538   0.973   1.965 -1.3723  0.1433  0.5155
 5936SOL    HW229271   3.554   1.106   1.928 -0.2052 -0.6481  1.9519
 5937SOL     OW29272   1.292   4.659  12.497  0.0229 -0.0751 -0.4025
 5937SOL    HW129273   1.311   4.578  12.450  0.1972 -0.1555 -0.1919
 5937SOL    HW229274   1.315   4.624  12.583 -1.7340  1.4383  0.6888
 5938SOL     OW29275   1.253   2.371   4.889 -0.5250  0.1242 -0.3557
 5938SOL    HW129276   1.203   2.326   4.957  0.2099  1.8413  1.3121
 5938SOL    HW229277   1.184   2.389   4.824 -1.3989  1.0073  0.8211
 5939SOL     OW29278   1.492   2.753   7.303 -0.0507 -0.1954  0.6184
 5939SOL    HW129279   1.431   2.817   7.267 -0.0529  0.0256  1.0172
 5939SOL    HW229280   1.462   2.679   7.251  0.7305  0.1291 -0.2958
 5940SOL     OW29281   3.871   3.940  13.615  0.2142 -0.0456 -0.1516
 5940SOL    HW129282   3.815   3.965  13.542  0.7856 -0.5603 -0.7653
 5940SOL    HW229283   3.947   3.998  13.604 -1.0382  1.2949 -1.7595
 5941SOL     OW29284   0.137   0.884  11.346 -0.0265  0.0948 -0.2979
 5941SOL    HW129285   0.130   0.840  11.261  2.1669  1.1629 -1.0402
 5941SOL    HW229286   0.079   0.958  11.331 -1.0170 -0.5980  0.0890
 5942SOL     OW29287   2.733   4.202   5.473  0.0034 -0.0613  0.2133
 5942SOL    HW129288   2.662   4.267   5.469 -0.2268 -0.3265 -0.0147
 5942SOL    HW229289   2.807   4.258   5.450  0.4339 -1.9411 -2.8817
 5943SOL     OW29290   3.168   0.205   8.326 -0.2625  0.1412 -0.6314
 5943SOL    HW129291   3.159   0.150   8.404  1.3681 -0.1171 -0.6399
 5943SOL    HW229292   3.229   0.153   8.274 -0.5380 -3.8660  2.9910
 5944SOL     OW29293   4.456   3.676   3.983 -0.3093  0.0903  0.2963
 5944SOL    HW129294   4.494   3.763   3.974 -1.3878  0.6990  1.5655
 5944SOL    HW229295   4.484   3.656   4.073 -1.3955  1.0320  0.8401
 5945SOL     OW29296   1.489   0.227   5.966  0.2572 -0.3339 -0.0973
 5945SOL    HW129297   1.573   0.274   5.971 -0.1063  0.1803  1.0327
 5945SOL    HW229298   1.504   0.190   5.879 -0.0850  0.4381 -0.4833
 5946SOL     OW29299   2.211   1.187   0.353 -0.0012  0.6368  0.1725
 5946SOL    HW129300   2.138   1.127   0.339  1.5387 -1.0071 -0.8934
 5946SOL    HW229301   2.164   1.258   0.395  0.2109  1.0365 -0.2678
 5947SOL     OW29302   0.031   2.125  11.267  0.3893  0.6075 -0.6203
 5947SOL    HW129303   0.032   2.108  11.173  1.3191 -0.8799 -0.3396
 5947SOL    HW229304   0.085   2.202  11.288 -0.3724  0.7766  0.6968
 5948SOL     OW29305   0.335   3.875  16.260 -1.2017  0.1455  0.2594
 5948SOL    HW129306   0.349   3.948  16.321  0.3454  1.1271 -1.2572
 5948SOL    HW229307   0.261   3.839  16.309  0.3639 -1.4817  1.4368
 5949SOL     OW29308   1.781   3.423   2.330  0.1335  0.0506 -0.0987
 5949SOL    HW129309   1.712   3.391   2.387 -0.8707 -1.8938 -2.4018
 5949SOL    HW229310   1.798   3.341   2.283  1.7909  0.1403  0.3512
 5950SOL     OW29311   3.106   3.621   9.370  0.0288 -0.1528 -0.3093
 5950SOL    HW129312   3.151   3.545   9.334  0.3331  0.9687 -2.3503
 5950SOL    HW229313   3.014   3.600   9.381  0.0193 -0.6052 -1.2706
 5951SOL     OW29314   0.153   4.572   2.840 -0.3766 -0.0329  0.2296
 5951SOL    HW129315   0.072   4.619   2.818 -1.0287 -0.9502  0.6768
 5951SOL    HW229316   0.152   4.513   2.765  0.1134  1.7024 -1.1427
 5952SOL     OW29317   3.959   4.583   2.541 -0.2613  0.1485 -0.2270
 5952SOL    HW129318   3.895   4.516   2.563 -1.2754  1.6412  1.3640
 5952SOL    HW229319   3.963   4.580   2.445  1.7419 -0.7781 -0.1114
 5953SOL     OW29320   4.497   2.445   7.236 -0.0507 -0.2426  0.4524
 5953SOL    HW129321   4.536   2.380   7.295 -2.6571 -1.4476  0.8468
 5953SOL    HW229322   4.432   2.479   7.297  0.3988  0.2661  0.6480
 5954SOL     OW29323   1.042   3.087   2.664 -0.3679 -0.7488 -0.0305
 5954SOL    HW129324   1.009   3.008   2.707  1.5977 -1.4570  0.1778
 5954SOL    HW229325   1.008   3.074   2.575 -0.3635  0.7536 -0.2432
 5955SOL     OW29326   4.046   2.851   8.770  0.2614 -0.4216  0.4158
 5955SOL    HW129327   4.080   2.871   8.857  0.5764  1.0654 -0.0465
 5955SOL    HW229328   4.063   2.931   8.719  0.7004  0.1716  1.4854
 5956SOL     OW29329   3.598   2.697  13.689 -0.3388  0.6651  0.0650
 5956SOL    HW129330   3.638   2.657  13.766  0.0583  0.3212 -0.3136
 5956SOL    HW229331   3.635   2.784  13.704 -0.6675  0.5684  1.3992
 5957SOL     OW29332   0.141   0.928   1.237 -0.6942 -0.0969  0.5048
 5957SOL    HW129333   0.228   0.898   1.209 -0.8813 -0.9488  0.8410
 5957SOL    HW229334   0.155   0.897   1.326 -0.5980 -0.1203  0.4817
 5958SOL     OW29335   2.431   0.184   6.425  0.2860  0.6386  0.6536
 5958SOL    HW129336   2.450   0.220   6.339  0.1887  1.1712  0.8571
 5958SOL    HW229337   2.367   0.253   6.441  0.0293  0.7000 -0.6245
 5959SOL     OW29338   0.196   3.784   6.041 -0.5678  0.0393  0.3640
 5959SOL    HW129339   0.249   3.811   6.116 -1.9418  1.5959  0.8004
 5959SOL    HW229340   0.261   3.727   6.001  0.3292  1.4914 -0.2848
 5960SOL     OW29341   1.316   3.606   6.505  0.3511 -0.1100 -0.4542
 5960SOL    HW129342   1.234   3.579   6.547  0.2332  0.1535 -0.5151
 5960SOL    HW229343   1.376   3.558   6.562  1.2235  0.8680 -0.5418
 5961SOL     OW29344   0.724   1.851  13.558  0.5281  0.1530 -0.3399
 5961SOL    HW129345   0.665   1.902  13.502  0.8549 -0.6669 -1.4288
 5961SOL    HW229346   0.721   1.897  13.642 -1.0756  0.2906 -0.4702
 5962SOL     OW29347   3.215   2.278   0.209  0.1616  0.1005  0.0942
 5962SOL    HW129348   3.311   2.280   0.203  0.0586  0.6792 -1.2967
 5962SOL    HW229349   3.190   2.302   0.120  2.5860 -1.6871 -1.0709
 5963SOL     OW29350   0.709   0.443   4.722 -0.3483  0.6609  0.3088
 5963SOL    HW129351   0.760   0.395   4.657  0.2996  1.9239 -0.1204
 5963SOL    HW229352   0.726   0.397   4.804  1.6081 -1.6032 -1.3646
 5964SOL     OW29353   4.012   1.104   7.510  1.0783 -0.1582 -0.6901
 5964SOL    HW129354   3.920   1.078   7.508  0.8055  0.8808 -1.8641
 5964SOL    HW229355   4.027   1.113   7.604 -1.7958  0.4656 -0.2894
 5965SOL     OW29356   4.680   0.566   9.394 -0.3597 -0.2623 -0.0950
 5965SOL    HW129357   4.607   0.528   9.345 -1.4715 -1.1593  2.3013
 5965SOL    HW229358   0.002   0.610   9.323 -0.1861  1.9266  1.3815
 5966SOL     OW29359   1.716   3.830  12.102 -0.0218  0.3433 -0.0235
 5966SOL    HW129360   1.705   3.924  12.087  4.0208  0.7380 -0.6772
 5966SOL    HW229361   1.692   3.795  12.016 -0.7335  1.8296 -0.4431
 5967SOL     OW29362   3.445   0.062   3.601  0.7051 -0.4231 -0.1361
 5967SOL    HW129363   3.502   0.133   3.572 -0.8628  0.4082 -1.1507
 5967SOL    HW229364   3.364   0.106   3.625  1.4331  0.4022  0.7812
 5968SOL     OW29365   3.750   2.143   7.179  0.1984  0.1727  0.2345
 5968SOL    HW129366   3.692   2.079   7.139 -1.8331  1.3221  1.3231
 5968SOL    HW229367   3.703   2.226   7.167 -1.0809 -0.9976 -2.7711
 5969SOL     OW29368   1.944   2.171  12.057 -0.0183  0.0351 -0.0706
 5969SOL    HW129369   2.027   2.126  12.076 -0.4627 -1.8961 -2.5829
 5969SOL    HW229370   1.925   2.187  12.149  0.9959 -1.2418  0.3640
 5970SOL     OW29371   1.068   1.225   6.437 -0.1669 -0.0374  0.2570
 5970SOL    HW129372   1.025   1.308   6.418 -0.8792 -0.4150  0.2113
 5970SOL    HW229373   0.989   1.176   6.462 -0.2838 -0.7414 -1.5027
 5971SOL     OW29374   0.225   0.456   3.713 -0.1639 -0.1467 -0.0118
 5971SOL    HW129375   0.303   0.405   3.692  0.5212 -0.6513  3.6777
 5971SOL    HW229376   0.246   0.471   3.805 -1.1582  1.2807 -0.0211
 5972SOL     OW29377   1.159   2.316  14.637 -0.3420  0.1805 -0.5009
 5972SOL    HW129378   1.180   2.405  14.664 -1.5096  1.1858 -2.8997
 5972SOL    HW229379   1.152   2.284  14.727  0.2361  1.4671 -0.0136
 5973SOL     OW29380   3.711   1.427   8.961  0.0097  0.0425 -0.2121
 5973SOL    HW129381   3.687   1.509   9.005  0.0750  1.3027 -2.5779
 5973SOL    HW229382   3.625   1.390   8.943  0.7220 -0.8620 -1.7026
 5974SOL     OW29383   0.562   4.300   3.152 -0.6357 -0.2787  0.1413
 5974SOL    HW129384   0.547   4.281   3.059 -1.6444  1.1543  0.0149
 5974SOL    HW229385   0.590   4.213   3.182  0.3765 -0.4489 -1.3143
 5975SOL     OW29386   0.758   3.463   5.253  0.3020 -0.3223  0.3735
 5975SOL    HW129387   0.798   3.459   5.167  0.2188 -1.0552  0.3678
 5975SOL    HW229388   0.824   3.411   5.300 -0.5966 -0.9669  0.9240
 5976SOL     OW29389   3.682   4.338   9.821  0.4148  0.6097  0.1267
 5976SOL    HW129390   3.664   4.321   9.728 -0.6766  0.9441  0.2812
 5976SOL    HW229391   3.751   4.271   9.829 -1.2446 -1.0925  0.2113
 5977SOL     OW29392   3.793   1.791   1.176 -0.2088  0.1416  0.2021
 5977SOL    HW129393   3.791   1.790   1.271  1.5665 -1.5356  0.2158
 5977SOL    HW229394   3.725   1.857   1.163 -0.4365 -1.0519 -4.8107
 5978SOL     OW29395   4.008   3.946   4.765 -0.4781  0.2524  0.3568
 5978SOL    HW129396   4.100   3.955   4.740 -0.3991  0.5966  0.7595
 5978SOL    HW229397   4.002   3.934   4.860 -0.4236 -2.8522 -0.0362
 5979SOL     OW29398   1.724   0.495   6.348 -0.0933  0.2930 -0.4794
 5979SOL    HW129399   1.650   0.433   6.351 -0.2756  0.5228 -0.2901
 5979SOL    HW229400   1.802   0.445   6.371 -0.9409 -1.5073 -1.4379
 5980SOL     OW29401   0.570   0.914   8.181 -0.3895  0.2394 -0.6493
 5980SOL    HW129402   0.605   0.870   8.104 -3.1443 -0.6548 -1.3748
 5980SOL    HW229403   0.617   0.868   8.250 -1.6713 -0.1678 -0.0648
 5981SOL     OW29404   1.220   3.686  14.987 -0.7703  0.0831  0.5830
 5981SOL    HW129405   1.222   3.623  15.059  0.0888  1.5899  1.8761
 5981SOL    HW229406   1.262   3.764  15.024  1.5160 -0.2802 -1.2569
 5982SOL     OW29407   4.698   3.162   5.404  0.1362  0.5027  1.3097
 5982SOL    HW129408   0.027   3.109   5.346  0.6924  0.9618  1.4131
 5982SOL    HW229409   0.024   3.194   5.478  1.1392 -1.1035  1.2961
 5983SOL     OW29410   0.711   1.696   2.005  0.1563  0.4828 -0.3040
 5983SOL    HW129411   0.788   1.740   2.039  0.4144  1.0146 -1.5937
 5983SOL    HW229412   0.725   1.682   1.911  0.5979  0.2260 -0.1973
 5984SOL     OW29413   2.273   3.201   6.792  0.0909 -0.1817  0.2449
 5984SOL    HW129414   2.253   3.253   6.714 -0.1579  1.0442  1.1228
 5984SOL    HW229415   2.357   3.239   6.820  0.0298  1.1204 -1.3639
 5985SOL     OW29416   1.438   4.231   3.654 -0.0265 -0.9780 -0.2071
 5985SOL    HW129417   1.451   4.143   3.688 -1.1446 -0.8122  0.6394
 5985SOL    HW229418   1.363   4.266   3.701  0.7610  0.3993  0.0094
 5986SOL     OW29419   2.917   1.635   7.271 -0.1500  0.0908 -0.0488
 5986SOL    HW129420   2.963   1.707   7.227  2.8266 -2.1698 -0.6673
 5986SOL    HW229421   2.976   1.625   7.346 -0.1515  1.2648  0.1052
 5987SOL     OW29422   1.024   3.403   4.446  0.1004 -0.4807 -0.5666
 5987SOL    HW129423   1.019   3.309   4.428  0.4289 -0.6729  0.3722
 5987SOL    HW229424   1.112   3.428   4.419 -0.0647  1.1486  0.4415
 5988SOL     OW29425   0.512   0.978   2.516 -0.2915  0.8165  0.6115
 5988SOL    HW129426   0.496   1.020   2.431  0.6858 -2.0796 -1.0457
 5988SOL    HW229427   0.497   0.885   2.498  2.5884  0.4040  0.3056
 5989SOL     OW29428   1.914   3.733   0.425 -0.4843  0.4994 -0.3440
 5989SOL    HW129429   1.841   3.786   0.394 -0.5849  1.0306  0.7777
 5989SOL    HW229430   1.983   3.797   0.441 -1.0601  0.8732  0.6990
 5990SOL     OW29431   1.720   0.354   2.138  0.3762  0.6754  0.1872
 5990SOL    HW129432   1.678   0.276   2.102 -0.9040  1.3429  0.2399
 5990SOL    HW229433   1.663   0.419   2.097 -0.4578  0.7841  1.4886
 5991SOL     OW29434   0.238   0.359   1.006 -0.4500 -0.3188 -0.1880
 5991SOL    HW129435   0.260   0.271   0.975 -0.1950  0.0238 -0.9881
 5991SOL    HW229436   0.311   0.396   1.057 -0.3290 -0.2363 -0.4198
 5992SOL     OW29437   1.146   2.702   4.240 -0.2241  0.0975  0.2964
 5992SOL    HW129438   1.202   2.657   4.176  1.0108  1.4544  0.3955
 5992SOL    HW229439   1.080   2.638   4.264 -1.4985  0.5171 -2.0304
 5993SOL     OW29440   2.126   0.001   1.178 -0.5399  0.2563 -0.3332
 5993SOL    HW129441   2.082   0.060   1.117 -1.2618  1.5607  1.4622
 5993SOL    HW229442   2.131   4.657   1.113  1.5329  1.6921 -1.6882
 5994SOL     OW29443   4.291   3.375   2.244 -0.8217 -0.4187  0.4603
 5994SOL    HW129444   4.264   3.464   2.224  1.6851  0.7793  2.3928
 5994SOL    HW229445   4.365   3.401   2.298  0.1359 -0.7233 -0.7122
 5995SOL     OW29446   4.519   3.689   1.669 -0.4825 -0.0770 -0.1057
 5995SOL    HW129447   4.537   3.608   1.716  0.9737  1.1505  1.4569
 5995SOL    HW229448   4.609   3.723   1.661 -0.8620  0.5318 -1.8776
 5996SOL     OW29449   1.212   3.233   8.961 -0.0657  0.5330 -0.5533
 5996SOL    HW129450   1.126   3.226   8.920 -0.6304 -1.3521  0.9550
 5996SOL    HW229451   1.243   3.298   8.898 -0.7945  2.6961  1.3542
 5997SOL     OW29452   3.584   3.106   6.633  0.2822 -0.1315 -0.1019
 5997SOL    HW129453   3.646   3.170   6.598 -0.3693 -0.1806 -1.3587
 5997SOL    HW229454   3.526   3.087   6.558  0.5514  1.2185 -0.6464
 5998SOL     OW29455   4.672   1.335   6.647  0.4581  0.0180 -0.2278
 5998SOL    HW129456   4.705   1.399   6.584 -0.9386 -0.9266 -1.9065
 5998SOL    HW229457   4.666   1.262   6.586  1.7779 -1.9815  2.0187
 5999SOL     OW29458   3.142   3.197   5.226  0.5741  0.9441  0.2621
 5999SOL    HW129459   3.208   3.160   5.284 -0.0950 -0.1167  0.3521
 5999SOL    HW229460   3.085   3.251   5.281 -1.5101 -0.2518 -0.7272
 6000SOL     OW29461   3.460   0.509   8.494  0.0463  0.1632 -0.2795
 6000SOL    HW129462   3.457   0.414   8.495  1.3630  0.1377  1.4584
 6000SOL    HW229463   3.486   0.522   8.585 -0.0548  2.8345 -0.6063
 6001SOL     OW29464   0.086   3.963   8.220 -0.4553 -0.1098  0.1623
 6001SOL    HW129465   0.067   3.980   8.127 -1.2152  1.1954  0.5502
 6001SOL    HW229466   0.172   3.922   8.224 -0.4365  0.2633  3.5598
 6002SOL     OW29467   0.644   0.462  10.647  0.0315 -0.0215  0.1577
 6002SOL    HW129468   0.597   0.384  10.617 -0.4068 -0.1111  1.0769
 6002SOL    HW229469   0.569   0.518  10.665  0.0044 -0.1451  0.4272
 6003SOL     OW29470   3.799   4.535   8.930  0.2241 -0.4193  0.0118
 6003SOL    HW129471   3.720   4.575   8.966 -0.7159 -3.3172  1.1643
 6003SOL    HW229472   3.857   4.514   9.003  0.8690  1.5918  0.0854
 6004SOL     OW29473   2.089   4.494   1.321 -0.0429 -0.1860 -0.0978
 6004SOL    HW129474   1.998   4.465   1.318  0.5216 -1.9615 -0.5437
 6004SOL    HW229475   2.092   4.578   1.275  2.2735  0.3015  0.9518
 6005SOL     OW29476   4.503   0.774   0.995  0.1654  0.1346 -0.0238
 6005SOL    HW129477   4.489   0.822   0.913  0.7501  3.3259  1.7443
 6005SOL    HW229478   4.555   0.839   1.042 -0.3550  0.3692  0.2305
 6006SOL     OW29479   4.049   2.863   7.586 -0.8972  0.1469 -0.5916
 6006SOL    HW129480   4.001   2.792   7.544 -1.0680  0.9944 -1.8239
 6006SOL    HW229481   4.092   2.887   7.504 -1.7837  0.7607 -0.8756
 6007SOL     OW29482   0.032   1.179   1.387  0.0281 -0.2966 -0.0329
 6007SOL    HW129483   0.046   1.104   1.330 -1.3675 -1.4010  1.0670
 6007SOL    HW229484   4.663   1.175   1.398 -0.2783  1.3364 -2.0584
 6008SOL     OW29485   2.430   1.097   5.347  0.0459 -0.4948  0.2541
 6008SOL    HW129486   2.435   1.006   5.376 -1.3450 -0.6798 -0.1329
 6008SOL    HW229487   2.514   1.114   5.303 -0.2634  2.4874  0.8142
 6009SOL     OW29488   3.078   2.183   8.359  0.3520 -0.5116  0.3709
 6009SOL    HW129489   3.160   2.196   8.406  0.4960 -2.8372  0.7867
 6009SOL    HW229490   3.083   2.091   8.333  1.8306  0.6930 -3.6834
 6010SOL     OW29491   1.806   4.635  13.696  0.0941  0.0441 -0.1425
 6010SOL    HW129492   1.850   4.703  13.748  1.5447 -1.2193  0.2740
 6010SOL    HW229493   1.846   4.549  13.710 -1.3583 -0.6681 -0.3375
 6011SOL     OW29494   1.092   3.640   7.887 -0.4149 -0.4814  0.0042
 6011SOL    HW129495   1.126   3.644   7.798  0.8366 -3.7587  0.3274
 6011SOL    HW229496   0.998   3.624   7.877 -0.5152  0.6014 -0.7298
 6012SOL     OW29497   1.822   4.151   4.970  0.0851  0.3945 -0.0410
 6012SOL    HW129498   1.915   4.175   4.967 -0.1221  1.2938  0.6589
 6012SOL    HW229499   1.789   4.161   4.881 -0.2385  1.7911  0.2253
 6013SOL     OW29500   0.878   2.510   3.384 -0.6679 -0.6385 -0.1974
 6013SOL    HW129501   0.942   2.472   3.444  0.8917  0.1610 -1.3655
 6013SOL    HW229502   0.795   2.474   3.415 -1.8665  2.5480  0.3348
 6014SOL     OW29503   2.697   1.633   4.443 -0.2388  0.7669 -0.5969
 6014SOL    HW129504   2.786   1.643   4.411 -0.2003  2.0935 -0.0712
 6014SOL    HW229505   2.698   1.660   4.535  2.1921 -0.8193 -0.1805
 6015SOL     OW29506   0.406   4.395   9.301 -0.0046 -0.2681 -0.0168
 6015SOL    HW129507   0.466   4.466   9.324 -1.0399  0.7792 -0.5658
 6015SOL    HW229508   0.363   4.381   9.385 -0.4418 -1.3922 -0.4271
 6016SOL     OW29509   1.810   3.233   7.725  0.0621  0.1434 -0.2894
 6016SOL    HW129510   1.763   3.212   7.644  0.1784 -0.6851 -0.1451
 6016SOL    HW229511   1.796   3.328   7.720  3.8706  0.8077  2.1011
 6017SOL     OW29512   0.737   3.257  10.820 -0.3025  0.2162  0.1420
 6017SOL    HW129513   0.753   3.245  10.914 -0.2298 -2.1060 -0.1783
 6017SOL    HW229514   0.798   3.191  10.788  0.0391 -2.3272  5.8572
 6018SOL     OW29515   3.078   1.074  14.978  0.3830  0.7362  0.1908
 6018SOL    HW129516   3.121   0.989  14.983 -0.7386  0.1802  0.2119
 6018SOL    HW229517   3.160   1.120  14.958 -0.6342  1.7188 -1.6690
 6019SOL     OW29518   3.395   3.078   5.111  0.1213  0.0000 -0.1476
 6019SOL    HW129519   3.367   3.091   5.202 -1.5540 -1.2536 -0.4729
 6019SOL    HW229520   3.347   2.997   5.090 -1.7875  1.4142 -1.2614
 6020SOL     OW29521   2.652   4.502   3.232 -0.6442 -0.3765  0.4346
 6020SOL    HW129522   2.673   4.410   3.218  1.0210  0.5024 -2.8063
 6020SOL    HW229523   2.654   4.543   3.145  0.0082  2.2386  1.6930
 6021SOL     OW29524   0.850   3.597   3.983  0.4647  0.0386  0.1706
 6021SOL    HW129525   0.873   3.579   3.892 -0.0044  1.1829 -0.1808
 6021SOL    HW229526   0.759   3.567   3.986  1.1137 -1.6079  3.2261
 6022SOL     OW29527   1.769   3.507  14.433  1.4030 -0.0306 -0.0492
 6022SOL    HW129528   1.759   3.425  14.482  1.0234  0.8427  1.3361
 6022SOL    HW229529   1.789   3.464  14.350 -3.2310 -1.2953 -0.5100
 6023SOL     OW29530   3.378   1.170  16.066  0.3692 -0.2124 -0.3211
 6023SOL    HW129531   3.445   1.131  16.011  0.6415  1.8104 -1.4236
 6023SOL    HW229532   3.411   1.157  16.155 -1.2781 -1.2189  0.1372
 6024SOL     OW29533   3.365   0.126  13.438  0.0227  0.6253  0.6116
 6024SOL    HW129534   3.347   0.035  13.461 -2.4637  1.0880  0.4628
 6024SOL    HW229535   3.353   0.117  13.343  1.9567  1.3074  0.2983
 6025SOL     OW29536   3.599   1.590   6.763 -0.2966  0.1543 -0.0628
 6025SOL    HW129537   3.689   1.560   6.754 -0.0631  0.6431  0.5999
 6025SOL    HW229538   3.551   1.510   6.742  2.2882 -0.8003 -2.2286
 6026SOL     OW29539   0.461   0.288   5.989  0.1101 -0.3485 -0.2311
 6026SOL    HW129540   0.477   0.206   5.942 -0.6464 -0.7930  0.2937
 6026SOL    HW229541   0.546   0.307   6.029  0.1899  1.1229 -1.0673
 6027SOL     OW29542   0.523   3.077  16.676  0.4651 -0.6658 -0.2217
 6027SOL    HW129543   0.439   3.102  16.639 -0.3624 -2.5495  0.3749
 6027SOL    HW229544   0.530   3.149  16.739 -1.0451 -1.2382  0.6035
 6028SOL     OW29545   3.930   4.689  15.872  0.5384  0.6223  0.2458
 6028SOL    HW129546   3.844   4.713  15.839  0.3624  1.0352  0.9984
 6028SOL    HW229547   3.971   0.050  15.866 -0.0551  0.8155 -1.0111
 6029SOL     OW29548   3.399   2.368   0.905 -0.7328 -0.3945  0.6384
 6029SOL    HW129549   3.303   2.367   0.907 -0.7299  0.6256  1.1061
 6029SOL    HW229550   3.415   2.431   0.835 -0.2774 -2.9676 -1.5732
 6030SOL     OW29551   2.550   2.504  10.941 -0.0416 -0.0254 -0.3064
 6030SOL    HW129552   2.610   2.430  10.945 -0.7546 -0.5271  1.1284
 6030SOL    HW229553   2.481   2.452  10.983 -0.1046  0.4813  0.2229
 6031SOL     OW29554   3.193   3.476   4.461 -0.6357 -0.4609 -0.0155
 6031SOL    HW129555   3.228   3.535   4.528 -1.0574 -0.0470 -0.1564
 6031SOL    HW229556   3.130   3.537   4.424 -0.2470 -1.0519 -1.6318
 6032SOL     OW29557   0.963   4.620   8.182 -0.0665 -0.1766 -0.3637
 6032SOL    HW129558   1.009   4.563   8.121  1.1758 -0.5493  0.9237
 6032SOL    HW229559   0.878   4.576   8.185  0.7287 -1.6391  1.0133
 6033SOL     OW29560   0.127   0.801   7.822 -0.0983 -0.5880 -0.2141
 6033SOL    HW129561   0.037   0.768   7.820  0.2903 -1.7263  0.8483
 6033SOL    HW229562   0.174   0.724   7.853 -0.5888 -1.5985 -1.9509
 6034SOL     OW29563   0.988   0.951   7.901  0.4104  0.1393 -0.0468
 6034SOL    HW129564   1.003   1.021   7.837  0.0637  0.8138  0.6050
 6034SOL    HW229565   0.936   0.895   7.843  0.5359 -0.4256  0.3877
 6035SOL     OW29566   3.640   2.051  15.529  0.3291 -0.3006  0.3478
 6035SOL    HW129567   3.707   2.014  15.471  0.0523  1.4498 -1.0841
 6035SOL    HW229568   3.572   2.077  15.467 -1.1376 -2.4347  1.0689
 6036SOL     OW29569   1.173   4.714   9.934 -0.4149  0.2870 -0.1128
 6036SOL    HW129570   1.156   0.024  10.021 -2.4173  0.8622 -0.7441
 6036SOL    HW229571   1.125   4.631   9.941  0.5665 -0.4050 -1.5550
 6037SOL     OW29572   2.180   4.308  11.296  0.0205 -0.4989 -0.7405
 6037SOL    HW129573   2.099   4.354  11.277  1.6353  1.8593 -1.8600
 6037SOL    HW229574   2.248   4.358  11.251  1.5570 -0.6010  1.4585
 6038SOL     OW29575   4.268   1.544   3.224 -0.2170 -0.3165  0.0213
 6038SOL    HW129576   4.359   1.516   3.213 -0.2740 -0.0387 -1.1273
 6038SOL    HW229577   4.242   1.519   3.136  1.4087  2.0886 -1.1336
 6039SOL     OW29578   3.403   0.936   8.754  0.2181 -0.3358 -0.2353
 6039SOL    HW129579   3.322   0.963   8.710  1.5607  2.4993 -1.0249
 6039SOL    HW229580   3.459   1.013   8.738  2.0883 -2.1958 -2.7099
 6040SOL     OW29581   4.355   3.352   7.038  1.1875 -0.8032 -0.4554
 6040SOL    HW129582   4.355   3.343   6.943 -0.2995 -1.0891 -0.4305
 6040SOL    HW229583   4.445   3.374   7.063  1.0106 -0.3561 -0.2245
 6041SOL     OW29584   3.473   1.715   9.356  0.0181  0.6581 -0.6558
 6041SOL    HW129585   3.409   1.745   9.291  0.4114  2.2850 -0.2788
 6041SOL    HW229586   3.445   1.777   9.423  1.0186 -1.9814  2.1679
 6042SOL     OW29587   0.654   1.214   4.883  0.2816  0.0223  0.0208
 6042SOL    HW129588   0.689   1.125   4.882  0.5851  0.1253  1.4460
 6042SOL    HW229589   0.609   1.220   4.967  1.8219 -0.5953  0.8900
 6043SOL     OW29590   4.180   4.326   5.631 -0.1016 -0.5233 -0.2381
 6043SOL    HW129591   4.248   4.260   5.618 -2.3697 -2.6082 -1.5809
 6043SOL    HW229592   4.165   4.309   5.724  0.3561  1.6447  0.2177
 6044SOL     OW29593   2.617   0.498   8.675 -0.7784  0.4408  0.2133
 6044SOL    HW129594   2.705   0.531   8.692 -1.0427  1.5806 -0.6785
 6044SOL    HW229595   2.624   0.447   8.595  3.1412 -1.6295  1.8329
 6045SOL     OW29596   4.560   1.039  15.307  0.0353  0.3693  0.0069
 6045SOL    HW129597   4.560   0.948  15.338 -0.5970  0.1808 -0.5685
 6045SOL    HW229598   4.585   1.029  15.216 -0.9639  0.7928 -0.3064
 6046SOL     OW29599   0.982   2.942   3.639  0.7747 -0.1266 -0.3156
 6046SOL    HW129600   1.008   2.861   3.595  2.2171  0.3675 -0.3706
 6046SOL    HW229601   1.068   2.959   3.677 -0.1183 -0.2228  1.7867
 6047SOL     OW29602   4.617   0.208   4.216 -0.2435  0.2419  0.4566
 6047SOL    HW129603   4.611   0.267   4.291 -0.7149 -2.4830  2.5839
 6047SOL    HW229604   4.673   0.263   4.162 -0.9576  0.7818  0.2623
 6048SOL     OW29605   4.510   1.275  16.793 -0.0662  0.2541  0.2044
 6048SOL    HW129606   4.436   1.279  16.732  0.7706  0.6976 -0.7656
 6048SOL    HW229607   4.465   1.223  16.859 -0.2685 -1.1742 -1.0545
 6049SOL     OW29608   0.473   3.491   9.610  0.5993 -0.1755 -0.0480
 6049SOL    HW129609   0.544   3.530   9.559  0.3183  0.3694 -0.0114
 6049SOL    HW229610   0.433   3.571   9.643  0.8770 -0.0691  0.0294
 6050SOL     OW29611   0.176   0.091   1.642  0.3461  0.1013 -0.2483
 6050SOL    HW129612   0.109   0.023   1.653  2.1066 -1.7371 -1.0328
 6050SOL    HW229613   0.133   0.163   1.688 -1.4628 -0.6380 -0.7654
 6051SOL     OW29614   4.126   3.178   2.784  0.4522  0.4606  0.3924
 6051SOL    HW129615   4.142   3.224   2.701 -2.5852  0.4049 -0.1891
 6051SOL    HW229616   4.192   3.110   2.772 -1.9074 -1.9761  1.4295
 6052SOL     OW29617   2.669   4.014   5.649  0.2990  0.0998  0.0017
 6052SOL    HW129618   2.730   3.945   5.623  0.1625 -0.0429  0.0632
 6052SOL    HW229619   2.709   4.085   5.598 -0.5010  0.4733 -0.1014
 6053SOL     OW29620   1.939   0.409   6.766 -0.3826 -0.6567  0.1257
 6053SOL    HW129621   1.917   0.319   6.739  0.2319 -0.9209  0.4989
 6053SOL    HW229622   1.869   0.465   6.732  0.8466  1.3578  0.9325
 6054SOL     OW29623   0.746   4.015   5.422  0.1217 -0.6188  0.0539
 6054SOL    HW129624   0.695   3.982   5.497  1.8803  1.1006  2.0201
 6054SOL    HW229625   0.674   4.025   5.360  0.9926 -1.0425 -1.0074
 6055SOL     OW29626   1.347   0.832   1.542 -0.0998  0.2727  0.1143
 6055SOL    HW129627   1.294   0.898   1.497  0.1845  1.3850  1.4271
 6055SOL    HW229628   1.420   0.878   1.582 -1.5048  1.6512  1.1103
 6056SOL     OW29629   3.865   1.251   4.774  0.5302 -0.0375 -0.1400
 6056SOL    HW129630   3.823   1.185   4.720  1.4269  0.5664 -1.5652
 6056SOL    HW229631   3.906   1.313   4.714  0.0170  1.2056  0.7901
 6057SOL     OW29632   4.042   0.998   4.689 -0.2437  0.4957 -0.4421
 6057SOL    HW129633   4.013   0.914   4.653 -1.1117  0.8532 -0.5829
 6057SOL    HW229634   3.976   1.058   4.654  0.1388  1.0336 -0.2307
 6058SOL     OW29635   1.896   1.705   7.598  0.0650 -0.4224 -0.6852
 6058SOL    HW129636   1.964   1.722   7.664  0.1336 -0.0398 -0.8548
 6058SOL    HW229637   1.841   1.783   7.603 -0.2084 -0.7012  0.5369
 6059SOL     OW29638   0.374   1.310   4.229 -0.2339  0.2097 -0.5613
 6059SOL    HW129639   0.402   1.331   4.318  0.7043 -0.0209 -0.8117
 6059SOL    HW229640   0.453   1.309   4.176 -1.0736  0.2340 -1.8309
 6060SOL     OW29641   1.796   2.588   9.052 -0.1733 -0.0069 -0.1343
 6060SOL    HW129642   1.770   2.567   9.141  0.9019 -2.3411 -0.3539
 6060SOL    HW229643   1.808   2.682   9.061  1.9882 -0.3329  0.3165
 6061SOL     OW29644   3.114   2.077   5.318  0.1307 -0.0991 -0.0750
 6061SOL    HW129645   3.185   2.043   5.263  1.0908  1.3096  0.2833
 6061SOL    HW229646   3.070   2.132   5.253  0.9246  0.1767 -0.3844
 6062SOL     OW29647   2.030   3.215   6.329  0.8884 -0.1894  0.5609
 6062SOL    HW129648   1.988   3.297   6.354  1.1047 -0.0315  0.4129
 6062SOL    HW229649   2.048   3.232   6.236 -1.2462 -0.8325  0.0467
 6063SOL     OW29650   0.626   0.294   1.195  0.2522 -0.1230 -0.2824
 6063SOL    HW129651   0.684   0.219   1.184 -0.8781 -0.8815 -1.1077
 6063SOL    HW229652   0.567   0.295   1.120  0.0987  1.0755 -0.1477
 6064SOL     OW29653   3.062   1.268   5.819  0.7074  0.0620 -0.5207
 6064SOL    HW129654   3.121   1.238   5.750  1.1875 -2.3294  0.9355
 6064SOL    HW229655   3.029   1.183   5.847  3.3990 -0.7126  0.3080
 6065SOL     OW29656   3.869   3.923  11.880 -0.5822  0.4538 -0.3828
 6065SOL    HW129657   3.796   3.885  11.832  0.4864 -1.7828 -0.2442
 6065SOL    HW229658   3.819   3.977  11.941  0.1250 -0.6372  1.1616
 6066SOL     OW29659   1.795   4.044   3.953 -0.5086  0.2893  0.4454
 6066SOL    HW129660   1.828   4.112   3.896  1.6852 -0.0250  1.3510
 6066SOL    HW229661   1.858   4.056   4.024  0.5329  1.2676 -0.6542
 6067SOL     OW29662   4.542   0.594   0.685  0.2724 -0.1175  0.1701
 6067SOL    HW129663   4.460   0.588   0.635  1.4090  0.0778 -1.7196
 6067SOL    HW229664   4.568   0.686   0.674 -0.1069  0.0593  0.7380
 6068SOL     OW29665   0.183   0.976   2.657  0.1492  0.4012  0.0007
 6068SOL    HW129666   0.203   0.949   2.747 -1.9320  0.4802  0.4866
 6068SOL    HW229667   0.241   1.052   2.666 -1.1303  1.6778 -2.7801
 6069SOL     OW29668   0.354   1.980   3.094  0.2727  0.0973  0.2152
 6069SOL    HW129669   0.406   2.028   3.030 -0.8075 -0.9011 -1.3962
 6069SOL    HW229670   0.284   1.971   3.031  1.1329 -0.6405 -0.6337
 6070SOL     OW29671   1.674   1.386   1.200  0.7009 -0.0240 -0.2521
 6070SOL    HW129672   1.624   1.313   1.237  0.0820 -0.6621 -2.4003
 6070SOL    HW229673   1.680   1.358   1.109  2.2866  0.1060 -0.1892
 6071SOL     OW29674   4.004   0.072   3.297  0.4507 -0.1361  0.1207
 6071SOL    HW129675   4.030   0.026   3.218  0.6606  0.4284 -0.1413
 6071SOL    HW229676   3.956   4.725   3.335 -1.5704  1.8055  1.3208
 6072SOL     OW29677   2.663   0.285   2.705  0.0926  0.3966 -0.5362
 6072SOL    HW129678   2.691   0.360   2.758  1.5372  0.2923 -1.1483
 6072SOL    HW229679   2.738   0.225   2.702  0.4812  0.8883 -0.6354
 6073SOL     OW29680   0.721   1.657   2.400 -0.0002  0.0856  0.2960
 6073SOL    HW129681   0.627   1.660   2.380  0.4999  1.8543 -1.7458
 6073SOL    HW229682   0.750   1.615   2.319 -1.2905 -1.0187  0.3996
 6074SOL     OW29683   2.917   2.606   7.169  0.3494 -0.0438 -0.0303
 6074SOL    HW129684   2.979   2.639   7.104 -0.1123  1.6093  0.3730
 6074SOL    HW229685   2.859   2.554   7.113 -0.0902 -1.7531  1.9809
 6075SOL     OW29686   4.182   3.703  16.709  0.0289 -0.1692  0.0001
 6075SOL    HW129687   4.142   3.779  16.751 -0.4530 -0.4784  0.1063
 6075SOL    HW229688   4.212   3.652  16.785 -0.1263 -0.8752 -0.4133
 6076SOL     OW29689   0.838   2.389   4.526  0.2449 -0.1528  0.0908
 6076SOL    HW129690   0.795   2.324   4.470 -2.8184  1.4565  0.5864
 6076SOL    HW229691   0.889   2.333   4.585 -1.8162  0.6670  2.6432
 6077SOL     OW29692   1.989   2.019  17.497  0.6789  0.0607 -0.3366
 6077SOL    HW129693   1.909   1.985  17.457  0.1833  0.8540 -0.0138
 6077SOL    HW229694   1.947   2.080  17.558 -0.4754  0.3807 -1.4340
 6078SOL     OW29695   0.833   0.518  12.961 -0.2039  0.2624  0.0472
 6078SOL    HW129696   0.887   0.591  12.930 -0.3949 -0.0541 -1.0493
 6078SOL    HW229697   0.858   0.515  13.053 -1.7525  1.2705  0.4839
 6079SOL     OW29698   1.153   2.605   0.981  0.0997  0.3012  0.4936
 6079SOL    HW129699   1.106   2.595   1.064  2.9593  0.6974  2.1737
 6079SOL    HW229700   1.087   2.656   0.934 -1.3901 -2.5733 -0.4747
 6080SOL     OW29701   4.357   0.004   3.177  0.2275 -0.3403 -0.3076
 6080SOL    HW129702   4.409   0.051   3.112 -1.0674  1.4580 -0.0389
 6080SOL    HW229703   4.282   4.703   3.124 -0.3483 -0.2943  0.4780
 6081SOL     OW29704   2.576   4.369  13.429  0.7823  0.0073 -0.6391
 6081SOL    HW129705   2.671   4.374  13.445  0.3782 -1.0953  2.0443
 6081SOL    HW229706   2.556   4.276  13.414 -2.2084  0.7042 -0.9053
 6082SOL     OW29707   3.415   2.662   7.654  0.1929 -0.4581  0.0594
 6082SOL    HW129708   3.505   2.670   7.686  0.1327 -0.8874  0.3417
 6082SOL    HW229709   3.421   2.587   7.594 -0.3282  1.4858 -2.4185
 6083SOL     OW29710   1.086   1.510   2.927 -0.6559 -0.4431 -0.0155
 6083SOL    HW129711   1.010   1.564   2.947 -0.3039  0.2396 -0.5206
 6083SOL    HW229712   1.140   1.548   2.997 -1.4381  0.4880  0.0941
 6084SOL     OW29713   2.461   0.514  13.966  0.0783  0.6063 -0.5537
 6084SOL    HW129714   2.471   0.437  13.910  0.5538 -0.9878  1.7100
 6084SOL    HW229715   2.375   0.548  13.941  0.3096  0.3375 -1.7099
 6085SOL     OW29716   0.157   1.022   7.558  0.5017 -0.1780  0.2761
 6085SOL    HW129717   0.202   0.948   7.597 -0.1842  0.4269  2.1945
 6085SOL    HW229718   0.112   1.055   7.636 -0.2104 -0.1940 -0.1243
 6086SOL     OW29719   2.852   1.671  13.880  0.6783 -0.3893  0.1102
 6086SOL    HW129720   2.923   1.734  13.866 -0.0569  1.0111  2.7231
 6086SOL    HW229721   2.861   1.628  13.795  1.4851 -0.1069  0.0490
 6087SOL     OW29722   1.769   1.388   2.867 -0.2119  0.4608  0.1577
 6087SOL    HW129723   1.734   1.329   2.934  0.3828  0.2374  0.2754
 6087SOL    HW229724   1.785   1.324   2.797 -2.0802  1.4235 -1.1549
 6088SOL     OW29725   4.023   1.558   4.938  0.0750  0.0895 -0.7810
 6088SOL    HW129726   4.098   1.500   4.927 -0.3150 -1.0596  2.5006
 6088SOL    HW229727   4.050   1.636   4.987 -0.9657 -0.1744  0.2212
 6089SOL     OW29728   0.602   3.757   8.257  0.2138  0.2105 -0.0830
 6089SOL    HW129729   0.688   3.799   8.262 -1.0972  2.7791  1.1229
 6089SOL    HW229730   0.629   3.666   8.267  2.3545  1.0394  1.9246
 6090SOL     OW29731   2.222   0.977   2.991  0.7317  0.2087 -0.0491
 6090SOL    HW129732   2.282   1.007   3.059  1.7884  0.8056 -1.2440
 6090SOL    HW229733   2.143   0.950   3.037  0.9447  0.4161  0.4311
 6091SOL     OW29734   1.681   0.693   0.706  0.6355 -0.3891 -0.5036
 6091SOL    HW129735   1.643   0.741   0.633 -0.4874 -1.5524 -0.6683
 6091SOL    HW229736   1.775   0.711   0.692  0.7310 -1.1027 -0.7884
 6092SOL     OW29737   3.954   0.336  10.908  0.1447 -0.5368  0.4395
 6092SOL    HW129738   4.043   0.338  10.873  0.1057  0.5433  0.3997
 6092SOL    HW229739   3.974   0.295  10.992 -0.7178 -1.4545  0.2000
 6093SOL     OW29740   2.107   2.051   4.281  1.0441 -0.4153 -0.6285
 6093SOL    HW129741   2.067   1.989   4.343  1.8769  0.9163  1.2659
 6093SOL    HW229742   2.075   2.134   4.316  1.4806 -0.5478  0.0993
 6094SOL     OW29743   3.316   0.915   2.473 -0.4051 -0.5497  0.6406
 6094SOL    HW129744   3.388   0.913   2.536 -0.3137  1.6202  0.5988
 6094SOL    HW229745   3.257   0.846   2.503 -1.2942 -0.4467 -0.8547
 6095SOL     OW29746   2.945   4.542   2.213 -0.2777 -0.2984 -0.8133
 6095SOL    HW129747   3.003   4.489   2.268 -0.8642  0.9162  0.9981
 6095SOL    HW229748   2.997   4.623   2.213  1.1662 -1.2252 -0.7107
 6096SOL     OW29749   0.358   3.506   0.840  0.1588 -0.4432  0.2428
 6096SOL    HW129750   0.310   3.498   0.922 -1.9197  1.7369 -0.7596
 6096SOL    HW229751   0.449   3.501   0.870  0.3791  2.7729  0.1084
 6097SOL     OW29752   1.225   2.601   6.408  0.6520 -0.0596 -1.4010
 6097SOL    HW129753   1.151   2.620   6.350 -0.1177  2.4322  0.3942
 6097SOL    HW229754   1.281   2.675   6.385 -0.4734  0.3193 -2.9789
 6098SOL     OW29755   2.330   0.378  15.544 -0.1622 -0.4203  0.1579
 6098SOL    HW129756   2.279   0.459  15.538  1.7008  0.6594 -0.9844
 6098SOL    HW229757   2.419   0.410  15.530 -0.9056  1.1779 -1.0073
 6099SOL     OW29758   1.965   3.490   2.805  0.4122  0.2617 -0.1782
 6099SOL    HW129759   1.891   3.442   2.767  1.5045 -1.8994  0.3926
 6099SOL    HW229760   1.989   3.535   2.724 -1.1045  0.3006 -0.6070
 6100SOL     OW29761   0.742   4.151   6.963 -0.3337 -0.2774 -0.6348
 6100SOL    HW129762   0.698   4.116   7.040  3.3545 -0.0378  1.5614
 6100SOL    HW229763   0.830   4.144   7.000 -0.6253 -2.4066 -0.3098
 6101SOL     OW29764   2.510   1.060   4.558 -0.0591 -0.1231 -0.4507
 6101SOL    HW129765   2.460   1.117   4.616 -2.3159 -0.3375 -2.1645
 6101SOL    HW229766   2.494   1.102   4.473  0.9312  1.4038  0.1166
 6102SOL     OW29767   0.041   0.357  15.887  0.5332 -0.2155 -0.1741
 6102SOL    HW129768   0.135   0.372  15.887  0.6993 -1.2260  1.9256
 6102SOL    HW229769   0.008   0.437  15.929  0.6301  0.4802 -1.4194
 6103SOL     OW29770   1.669   1.152  11.324  0.0601  0.2594  0.0807
 6103SOL    HW129771   1.584   1.178  11.289  0.8060 -0.8731 -2.5834
 6103SOL    HW229772   1.671   1.202  11.405  0.9952 -1.0183  0.8391
 6104SOL     OW29773   1.737   4.652  13.999 -0.0301 -0.0292  0.2059
 6104SOL    HW129774   1.799   4.595  14.044  0.5043 -0.7679 -1.4680
 6104SOL    HW229775   1.783   4.708  13.936 -0.0527  0.5667  0.7239
 6105SOL     OW29776   4.503   1.127  11.382 -0.4465 -0.1532 -0.3402
 6105SOL    HW129777   4.516   1.087  11.468  1.8222 -0.8368 -0.9959
 6105SOL    HW229778   4.595   1.141  11.363 -0.8819  0.8828 -1.6714
 6106SOL     OW29779   4.147   3.386   3.168  0.3366 -0.1441  0.4420
 6106SOL    HW129780   4.100   3.303   3.155  0.6309 -0.2671  0.1417
 6106SOL    HW229781   4.211   3.353   3.231  0.1798 -1.8658 -0.2842
 6107SOL     OW29782   2.320   0.342  12.511 -0.2370 -0.0933 -0.0808
 6107SOL    HW129783   2.322   0.259  12.462 -0.7077  1.1880 -2.2960
 6107SOL    HW229784   2.314   0.400  12.435  0.7667 -0.7404 -0.6601
 6108SOL     OW29785   4.044   2.916   5.063  0.6879 -0.0849  0.0607
 6108SOL    HW129786   4.041   2.824   5.090 -1.0407 -0.2432 -0.6623
 6108SOL    HW229787   4.095   2.970   5.123  1.1088  0.9259 -1.2153
 6109SOL     OW29788   4.539   3.119   0.970 -0.4044 -0.2138  0.2176
 6109SOL    HW129789   4.510   3.081   1.053 -0.7105 -1.1065 -0.3016
 6109SOL    HW229790   4.521   3.213   0.983 -1.1338 -0.2047 -0.9003
 6110SOL     OW29791   1.318   2.928   3.296  0.2870 -0.3552  0.1226
 6110SOL    HW129792   1.371   3.007   3.302  1.0589 -0.8283 -0.5184
 6110SOL    HW229793   1.348   2.873   3.368 -1.4969 -0.2853  0.9195
 6111SOL     OW29794   0.789   1.726   7.725  0.1092  0.1802  0.3325
 6111SOL    HW129795   0.842   1.657   7.687  0.2373  1.8824 -2.5354
 6111SOL    HW229796   0.713   1.727   7.667 -1.4866 -0.6677  2.3854
 6112SOL     OW29797   4.321   2.470  13.736 -0.0644 -0.2373  0.3009
 6112SOL    HW129798   4.392   2.412  13.710  1.1458  1.0764  0.6564
 6112SOL    HW229799   4.255   2.412  13.773 -0.6193  1.2102  1.6137
 6113SOL     OW29800   1.451   1.211  12.143  0.1715 -0.1123 -0.0216
 6113SOL    HW129801   1.434   1.226  12.050  2.1106 -0.8111 -0.4960
 6113SOL    HW229802   1.374   1.257  12.177  0.2789  0.1164 -0.0822
 6114SOL     OW29803   4.527   4.169   1.761  0.1943 -0.7653 -0.1949
 6114SOL    HW129804   4.578   4.235   1.808  0.7096 -0.9515 -0.4914
 6114SOL    HW229805   4.545   4.091   1.813 -0.1834  1.0637  2.6654
 6115SOL     OW29806   4.714   2.597   7.470  0.5343  0.2019 -0.3960
 6115SOL    HW129807   0.078   2.574   7.495  0.2605 -1.4307 -0.9020
 6115SOL    HW229808   4.657   2.544   7.526 -1.3212 -0.2569 -2.6995
 6116SOL     OW29809   3.237   4.075  11.424  0.3110  0.0068  0.4528
 6116SOL    HW129810   3.184   3.995  11.420  0.6504 -0.1252 -1.3704
 6116SOL    HW229811   3.316   4.030  11.455 -0.1917 -1.9092 -1.0056
 6117SOL     OW29812   4.406   4.279  13.284  0.0087 -0.0949  0.1014
 6117SOL    HW129813   4.497   4.252  13.273  0.1104 -0.7761  2.5870
 6117SOL    HW229814   4.366   4.214  13.342  0.4445 -0.2034  0.2780
 6118SOL     OW29815   4.180   1.287  13.953 -0.1038  0.2105  0.0273
 6118SOL    HW129816   4.149   1.241  13.874 -1.7793 -2.3085  2.1392
 6118SOL    HW229817   4.205   1.371  13.915 -0.2799  0.4726  0.4907
 6119SOL     OW29818   2.280   2.739   7.619 -0.4112 -0.1226  0.4890
 6119SOL    HW129819   2.373   2.756   7.629 -0.2859 -1.8660  2.2692
 6119SOL    HW229820   2.256   2.813   7.562  2.2174  0.6789  0.4478
 6120SOL     OW29821   4.439   0.659   0.434 -0.2455  0.4950  0.0833
 6120SOL    HW129822   4.408   0.569   0.420 -2.6721  1.4716 -0.8522
 6120SOL    HW229823   4.355   0.696   0.463 -0.6811  0.9520 -1.8074
 6121SOL     OW29824   3.660   0.330   3.041 -0.2119  0.3776 -0.2861
 6121SOL    HW129825   3.721   0.330   3.115 -1.0804 -3.5281  0.4616
 6121SOL    HW229826   3.678   0.406   2.986 -1.1188 -1.2742 -2.8332
 6122SOL     OW29827   3.703   3.371  10.027  0.4841  0.1927  0.1568
 6122SOL    HW129828   3.739   3.385  10.115  2.7519 -2.6457 -0.3038
 6122SOL    HW229829   3.682   3.462  10.010  0.5888 -0.1572 -1.7845
 6123SOL     OW29830   2.513   0.151   7.396  0.3176  0.1371  0.0298
 6123SOL    HW129831   2.528   0.119   7.307 -1.8980 -0.5270 -0.0942
 6123SOL    HW229832   2.477   0.239   7.388 -1.0188 -0.2946  1.4252
 6124SOL     OW29833   2.051   1.710   9.343  0.1068  0.0880  0.0947
 6124SOL    HW129834   2.097   1.688   9.262  0.4596  1.3175 -0.0282
 6124SOL    HW229835   1.973   1.656   9.334 -0.7005  1.4903 -1.1999
 6125SOL     OW29836   3.281   2.677   4.936  0.1003 -0.0845 -0.1680
 6125SOL    HW129837   3.276   2.583   4.922  3.0874 -0.1249 -1.1365
 6125SOL    HW229838   3.375   2.694   4.943  0.0950  0.3376 -1.0923
 6126SOL     OW29839   0.653   2.682  10.608 -0.5922  0.1250  0.1542
 6126SOL    HW129840   0.688   2.758  10.654  0.1603 -1.0293  1.5069
 6126SOL    HW229841   0.729   2.627  10.629 -0.0736  0.2985 -1.2717
 6127SOL     OW29842   0.914   1.861   6.792 -0.2598 -0.0584 -0.6420
 6127SOL    HW129843   0.914   1.954   6.771  2.8450  0.2334  0.5844
 6127SOL    HW229844   0.975   1.816   6.734  1.1227 -0.2695  0.9619
 6128SOL     OW29845   4.214   0.678   8.130 -0.2107 -0.2004 -0.5176
 6128SOL    HW129846   4.193   0.678   8.037 -0.1897  0.2938 -0.5237
 6128SOL    HW229847   4.202   0.586   8.152 -1.0174  0.0019 -0.1383
 6129SOL     OW29848   2.051   0.487   8.347  0.9807 -0.3654 -0.2038
 6129SOL    HW129849   2.018   0.547   8.413  1.7962 -1.3870  1.1183
 6129SOL    HW229850   2.001   0.412   8.378 -1.6172  1.2343 -0.4742
 6130SOL     OW29851   1.990   3.060   4.101  0.3160 -0.4809  0.7122
 6130SOL    HW129852   2.007   3.116   4.176 -1.5202 -0.8064  1.3504
 6130SOL    HW229853   2.067   3.086   4.049 -1.0809  1.6296 -0.3097
 6131SOL     OW29854   3.054   1.873  13.075  0.7190  0.2099  0.3198
 6131SOL    HW129855   3.129   1.852  13.130  1.4786  0.0071 -0.7922
 6131SOL    HW229856   2.999   1.936  13.122  1.2306  1.6021 -0.9735
 6132SOL     OW29857   3.349   3.409   7.738 -0.0960 -0.3505  0.0909
 6132SOL    HW129858   3.348   3.329   7.686 -0.3866 -1.2730  1.5268
 6132SOL    HW229859   3.273   3.389   7.792 -1.1564 -0.9915 -1.6157
 6133SOL     OW29860   0.974   0.530   0.212  0.2144 -0.4112  0.7530
 6133SOL    HW129861   1.057   0.482   0.214  1.1258  1.0836 -1.1461
 6133SOL    HW229862   0.982   0.594   0.282  2.3597  0.3678 -0.1853
 6134SOL     OW29863   0.332   1.005   8.457  0.5413  0.4145  0.1684
 6134SOL    HW129864   0.309   0.923   8.415  1.9903  0.1580 -0.1218
 6134SOL    HW229865   0.348   1.068   8.386  2.0792  0.1850  0.3092
 6135SOL     OW29866   1.691   0.338  10.309 -0.8098  0.1617 -0.3778
 6135SOL    HW129867   1.713   0.431  10.296  0.5495  0.0479  1.1448
 6135SOL    HW229868   1.743   0.321  10.388 -2.6049 -1.6810  0.3862
 6136SOL     OW29869   3.255   1.317   3.821 -0.1707  0.1960 -0.3604
 6136SOL    HW129870   3.329   1.307   3.761  1.3924 -2.4175  1.9790
 6136SOL    HW229871   3.234   1.407   3.799  1.0049 -0.0854 -2.6329
 6137SOL     OW29872   4.526   1.956   3.814 -0.2499 -0.6945  0.1339
 6137SOL    HW129873   4.577   1.941   3.734 -0.6006  0.7285 -0.3684
 6137SOL    HW229874   4.576   1.892   3.864  2.0691 -0.9090 -2.4656
 6138SOL     OW29875   0.187   4.330  12.799 -0.0772  0.4222 -0.2460
 6138SOL    HW129876   0.184   4.425  12.806 -3.2895  0.0171  3.5345
 6138SOL    HW229877   0.282   4.319  12.793 -0.4367 -2.9788  0.0530
 6139SOL     OW29878   0.204   0.975   6.156  0.0867  0.0397 -0.3298
 6139SOL    HW129879   0.213   0.955   6.250 -0.6370  1.0927 -0.0343
 6139SOL    HW229880   0.207   0.887   6.117 -2.1258 -0.8132  1.4045
 6140SOL     OW29881   2.940   1.579  15.752  0.3228  0.2692  0.1860
 6140SOL    HW129882   2.985   1.606  15.672  1.5475 -1.4831  0.2677
 6140SOL    HW229883   3.010   1.578  15.818  0.8859  2.6306 -0.3808
 6141SOL     OW29884   3.783   1.732   3.243  1.0973  0.0033 -0.2282
 6141SOL    HW129885   3.793   1.655   3.299  0.1341 -0.8414 -1.2266
 6141SOL    HW229886   3.848   1.707   3.177 -0.1812 -2.4718 -0.5187
 6142SOL     OW29887   4.422   0.118   6.861 -0.1553 -0.3561  0.2094
 6142SOL    HW129888   4.358   0.048   6.871  0.8455 -1.7384 -2.9943
 6142SOL    HW229889   4.478   0.096   6.935  0.3353  2.0827  0.5749
 6143SOL     OW29890   3.169   0.335   5.294 -0.4041  0.2739  0.4767
 6143SOL    HW129891   3.086   0.296   5.323 -1.4664  0.8457 -1.8001
 6143SOL    HW229892   3.186   0.273   5.224 -0.2781 -2.1977  2.6959
 6144SOL     OW29893   1.352   1.960   5.457  0.7208  0.4721 -0.5044
 6144SOL    HW129894   1.292   2.010   5.403 -0.1212 -0.3546 -0.3230
 6144SOL    HW229895   1.325   1.994   5.542  0.6582 -2.3232  0.6054
 6145SOL     OW29896   1.163   0.415   5.652 -0.1155 -0.1975 -0.2105
 6145SOL    HW129897   1.138   0.355   5.582 -0.7941  0.5263 -0.5937
 6145SOL    HW229898   1.130   0.370   5.730 -0.2521 -2.7223 -1.7558
 6146SOL     OW29899   2.157   0.397   6.149  0.0795  0.2178 -0.1735
 6146SOL    HW129900   2.188   0.317   6.108 -0.5404  0.0342 -0.2946
 6146SOL    HW229901   2.184   0.459   6.081 -1.3112  1.7350  0.6209
 6147SOL     OW29902   0.139   3.000   8.639 -0.2092  0.0517 -0.0857
 6147SOL    HW129903   0.196   2.949   8.696  1.7320  2.9005  0.4766
 6147SOL    HW229904   0.053   2.963   8.657  0.1198 -0.3405  0.6512
 6148SOL     OW29905   0.132   1.823   5.003  0.6179 -0.3926 -0.0815
 6148SOL    HW129906   0.084   1.892   5.048 -0.1144 -0.2617 -1.0640
 6148SOL    HW229907   0.215   1.814   5.049  0.4824  0.0908  0.2581
 6149SOL     OW29908   1.635   2.613   0.956  0.0343  0.4484 -0.2638
 6149SOL    HW129909   1.547   2.607   0.992  0.2884  1.5361  0.5674
 6149SOL    HW229910   1.653   2.524   0.927 -0.6851 -0.0853  0.9156
 6150SOL     OW29911   4.543   2.931   1.220  0.2881  0.3756 -0.1765
 6150SOL    HW129912   4.628   2.945   1.178  1.0545  0.9326  1.5920
 6150SOL    HW229913   4.552   2.836   1.226 -0.1774  0.4333  1.1995
 6151SOL     OW29914   2.731   0.388  13.107  0.4369 -0.0585  0.0151
 6151SOL    HW129915   2.647   0.357  13.072 -0.0763 -0.2325  1.4334
 6151SOL    HW229916   2.706   0.454  13.172  1.7461 -0.3459  0.7916
 6152SOL     OW29917   3.190   3.658   3.474  0.2988  0.1355  0.1369
 6152SOL    HW129918   3.227   3.666   3.562 -0.6899 -0.4353  0.6071
 6152SOL    HW229919   3.181   3.753   3.467  1.7727  0.0671 -2.4513
 6153SOL     OW29920   1.380   2.526   7.149 -0.3546  0.1721  0.0609
 6153SOL    HW129921   1.449   2.470   7.113  1.7105  2.7076  0.0723
 6153SOL    HW229922   1.304   2.506   7.094 -0.8952 -1.7531  1.4973
 6154SOL     OW29923   4.698   3.427   6.577 -0.7067 -0.2404  0.6422
 6154SOL    HW129924   4.717   3.360   6.512 -3.7679 -0.4970 -0.0144
 6154SOL    HW229925   4.603   3.415   6.585 -0.8375 -1.1262 -2.3667
 6155SOL     OW29926   0.767   0.096   0.237 -0.6009  0.3112  0.4344
 6155SOL    HW129927   0.809   0.038   0.174 -3.2787 -0.4089 -0.7077
 6155SOL    HW229928   0.810   0.056   0.312  1.8187  2.0619 -0.0361
 6156SOL     OW29929   2.386   2.292  15.000 -0.7707 -0.2684 -0.0390
 6156SOL    HW129930   2.480   2.289  15.018 -0.9722  0.7657  1.2353
 6156SOL    HW229931   2.351   2.259  15.082 -1.5902 -4.7290 -2.2155
 6157SOL     OW29932   3.225   4.221  12.238  0.2471  0.1344  0.3232
 6157SOL    HW129933   3.219   4.289  12.304  0.5073 -0.3628  0.8662
 6157SOL    HW229934   3.183   4.140  12.266 -3.1443  2.3574  1.6041
 6158SOL     OW29935   0.809   0.381   4.078 -0.0076 -0.2889  0.1987
 6158SOL    HW129936   0.870   0.323   4.032 -1.6509 -2.3682  0.6233
 6158SOL    HW229937   0.819   0.468   4.039 -2.5261 -0.7339 -1.4305
 6159SOL     OW29938   4.592   3.907   3.813 -0.2738  0.4576 -0.2123
 6159SOL    HW129939   4.643   3.945   3.741  0.0550 -1.8336 -1.2004
 6159SOL    HW229940   4.599   3.817   3.781  1.3736  0.2743  0.6412
 6160SOL     OW29941   4.214   1.911   6.764 -0.2768  0.5434  0.1124
 6160SOL    HW129942   4.158   1.934   6.839 -0.2736  0.5956  0.0987
 6160SOL    HW229943   4.202   1.985   6.706 -0.8712 -1.5820 -2.4836
 6161SOL     OW29944   1.953   0.091  13.891  0.0990  0.0546 -0.1115
 6161SOL    HW129945   2.034   0.118  13.848 -0.0405 -0.8304 -0.9265
 6161SOL    HW229946   1.944   0.149  13.967  2.0549 -2.6608  2.1550
 6162SOL     OW29947   3.632   2.743   1.886  0.1064 -0.2655 -0.1926
 6162SOL    HW129948   3.620   2.813   1.951 -0.9493 -0.8363  0.2213
 6162SOL    HW229949   3.576   2.759   1.810  0.2622 -2.5394 -0.7792
 6163SOL     OW29950   2.964   2.641   6.449 -0.0061  0.0940 -0.1410
 6163SOL    HW129951   2.874   2.608   6.446  0.1976 -0.4170 -0.6256
 6163SOL    HW229952   3.004   2.574   6.505 -0.5847  0.8332  1.1357
 6164SOL     OW29953   4.672   2.831  12.234 -0.9220  0.4173  0.0477
 6164SOL    HW129954   4.622   2.874  12.303 -1.2886 -2.2858  1.4470
 6164SOL    HW229955   4.614   2.849  12.159  0.9560 -2.8159 -2.1796
 6165SOL     OW29956   4.589   2.545   6.679  0.8788 -0.0590 -0.4668
 6165SOL    HW129957   4.514   2.507   6.634 -0.3207  3.1816 -1.2135
 6165SOL    HW229958   4.655   2.494   6.632  2.8290  2.5335 -0.4955
 6166SOL     OW29959   1.370   0.195   5.156 -0.0734  0.0938 -0.8143
 6166SOL    HW129960   1.338   0.175   5.069  0.5754  0.0383 -1.0393
 6166SOL    HW229961   1.399   0.284   5.136 -0.7936  0.8425  1.4461
 6167SOL     OW29962   3.062   1.059   8.435  0.1835  0.1397  0.5048
 6167SOL    HW129963   3.014   1.142   8.437 -2.5375 -1.4146 -0.4330
 6167SOL    HW229964   3.147   1.100   8.449 -0.6693  2.6554 -1.8318
 6168SOL     OW29965   3.825   3.570   7.026 -0.0739 -0.3923 -0.4510
 6168SOL    HW129966   3.783   3.596   7.108 -0.8890  2.7995 -1.8723
 6168SOL    HW229967   3.804   3.477   7.021 -0.7919 -0.2319 -0.4159
 6169SOL     OW29968   0.717   3.773   6.329 -0.3251  0.5751 -0.2348
 6169SOL    HW129969   0.801   3.784   6.373  1.0709 -0.0357 -2.7596
 6169SOL    HW229970   0.649   3.805   6.389 -0.3045 -0.2729  0.2521
 6170SOL     OW29971   0.940   3.289  15.777 -0.2321 -0.4110  0.4302
 6170SOL    HW129972   0.990   3.326  15.705 -0.4715  0.6303  0.7946
 6170SOL    HW229973   0.918   3.198  15.761  0.8486 -0.4037 -1.0460
 6171SOL     OW29974   2.964   4.596  17.439  0.6883 -0.0233 -0.6030
 6171SOL    HW129975   2.977   4.526  17.503 -2.4780  0.0234  0.0965
 6171SOL    HW229976   3.000   4.555  17.360  2.6435  2.5923 -1.0996
 6172SOL     OW29977   4.463   0.196   7.758 -0.3892  0.0091  0.3611
 6172SOL    HW129978   4.404   0.129   7.790 -0.1111 -0.5757 -0.3515
 6172SOL    HW229979   4.445   0.272   7.813 -0.2189 -1.6120  2.6301
 6173SOL     OW29980   4.327   3.508  12.252 -0.4301 -0.1481 -0.1495
 6173SOL    HW129981   4.276   3.513  12.171 -0.1976  1.8806 -0.1652
 6173SOL    HW229982   4.256   3.512  12.316 -0.2747  1.2380 -0.0592
 6174SOL     OW29983   1.445   1.583  16.882 -0.0093 -0.4280  0.5475
 6174SOL    HW129984   1.377   1.516  16.880  0.1208 -0.4928 -1.5497
 6174SOL    HW229985   1.462   1.606  16.791 -1.3409  0.9147  0.6151
 6175SOL     OW29986   1.164   2.166   1.773 -0.4670 -0.1711  0.2714
 6175SOL    HW129987   1.202   2.078   1.768  2.4257  1.0841  0.5160
 6175SOL    HW229988   1.239   2.223   1.760  0.0208 -1.0677 -0.7568
 6176SOL     OW29989   2.224   0.797  11.522  0.6837  0.2413  0.2265
 6176SOL    HW129990   2.236   0.733  11.592 -1.7594  1.7448  2.0271
 6176SOL    HW229991   2.248   0.878  11.567 -0.1977 -0.8799  2.7217
 6177SOL     OW29992   1.996   1.653   8.187  0.1556  0.6016  0.3825
 6177SOL    HW129993   1.965   1.738   8.219  0.9454  0.8971  0.3664
 6177SOL    HW229994   1.976   1.662   8.094 -0.6230  1.0054  0.5895
 6178SOL     OW29995   4.324   0.421   0.353 -0.3386  0.0041 -0.3163
 6178SOL    HW129996   4.240   0.465   0.363  0.9005  2.3655 -0.1993
 6178SOL    HW229997   4.306   0.328   0.365  0.6687 -0.3074 -1.1926
 6179SOL     OW29998   4.040   3.473   5.919  0.5772 -0.2777  0.3150
 6179SOL    HW129999   4.083   3.392   5.894  0.8704 -0.7329  2.2709
 6179SOL    HW230000   4.032   3.515   5.833 -0.3488  1.7623  1.3981
 6180SOL     OW30001   4.043   1.802   5.013 -0.2956 -0.5402 -0.1867
 6180SOL    HW130002   3.951   1.827   5.027 -0.7292 -1.8876 -0.7116
 6180SOL    HW230003   4.079   1.871   4.958  0.2092  1.2018  2.3031
 6181SOL     OW30004   2.955   1.969   3.236  0.5375  0.3541  0.2748
 6181SOL    HW130005   3.007   2.033   3.285  1.5575  2.0249 -2.9697
 6181SOL    HW230006   2.886   2.027   3.205 -0.2979 -0.9808 -0.3542
 6182SOL     OW30007   3.777   0.410   6.152 -0.0340  0.0948  0.7632
 6182SOL    HW130008   3.806   0.486   6.100 -0.0182 -1.3362 -1.3119
 6182SOL    HW230009   3.742   0.445   6.234  0.5198  2.7493 -0.1030
 6183SOL     OW30010   2.779   4.217   1.518 -0.5723  0.1023  0.5332
 6183SOL    HW130011   2.833   4.277   1.569 -0.3343  0.5498 -0.2481
 6183SOL    HW230012   2.752   4.276   1.448  2.2868 -0.8218 -1.2984
 6184SOL     OW30013   2.514   2.054  11.018 -0.0569 -0.2857  0.3677
 6184SOL    HW130014   2.457   1.984  11.048 -1.1220  0.2611 -0.3957
 6184SOL    HW230015   2.509   2.043  10.923  2.3776 -0.7031  0.2921
 6185SOL     OW30016   1.081   4.571   1.413  0.5488  0.1333 -0.3812
 6185SOL    HW130017   0.999   4.612   1.386 -0.9194 -2.0749  0.7375
 6185SOL    HW230018   1.048   4.521   1.487 -0.5506  1.6457  0.1572
 6186SOL     OW30019   2.000   2.865   2.425  0.2300 -0.0137  0.5600
 6186SOL    HW130020   2.025   2.772   2.431  1.3023  0.2242 -0.1869
 6186SOL    HW230021   2.079   2.912   2.452 -1.8152  2.3794  2.3273
 6187SOL     OW30022   0.564   3.900   9.585 -0.5099  0.6688  0.5995
 6187SOL    HW130023   0.562   3.896   9.681 -0.0474 -1.7003  0.5001
 6187SOL    HW230024   0.472   3.885   9.564  0.0683 -0.9932 -0.7177
 6188SOL     OW30025   0.635   2.270   4.002 -0.9178 -0.1503 -0.2386
 6188SOL    HW130026   0.664   2.179   3.999  0.8241  0.4647 -2.2274
 6188SOL    HW230027   0.541   2.258   3.984 -0.9483 -1.7530  0.9672
 6189SOL     OW30028   3.510   3.362   0.993 -0.4992  1.0380 -1.0320
 6189SOL    HW130029   3.439   3.406   1.040  0.4369  0.4175  0.9290
 6189SOL    HW230030   3.583   3.357   1.055 -1.8291 -0.4293  0.4160
 6190SOL     OW30031   0.900   1.358   5.323  0.2513 -0.5270  0.2735
 6190SOL    HW130032   0.967   1.390   5.384  0.4497 -0.4499  0.0193
 6190SOL    HW230033   0.884   1.266   5.342 -1.6081 -0.6003 -1.6197
 6191SOL     OW30034   1.266   3.478   3.376  0.2315  0.8450 -0.3628
 6191SOL    HW130035   1.255   3.414   3.447  0.7482 -1.1976 -2.1097
 6191SOL    HW230036   1.301   3.551   3.426 -2.3260  1.8530 -0.0084
 6192SOL     OW30037   4.682   4.604   8.478 -0.0525 -0.6818 -0.3059
 6192SOL    HW130038   0.014   4.559   8.539  0.3631  3.3313  2.2772
 6192SOL    HW230039   4.691   4.552   8.398  0.1112 -1.0998 -0.0152
 6193SOL     OW30040   2.106   3.680   9.518 -0.0912  0.3975  0.1870
 6193SOL    HW130041   2.113   3.591   9.553  1.5604  0.5103  0.1213
 6193SOL    HW230042   2.049   3.666   9.442 -1.0962 -1.4736  1.2814
 6194SOL     OW30043   3.041   2.258  12.321  0.4583 -0.9048 -0.7458
 6194SOL    HW130044   3.019   2.203  12.396 -1.2235  0.6148 -0.1190
 6194SOL    HW230045   3.126   2.222  12.294  1.3649  0.9799 -0.4150
 6195SOL     OW30046   2.074   0.231  17.027 -0.3297  0.3684  0.1528
 6195SOL    HW130047   2.142   0.218  17.094  0.8868  0.8842 -0.9800
 6195SOL    HW230048   2.007   0.184  17.077  0.6530  0.9542  2.0503
 6196SOL     OW30049   2.520   1.366   4.374 -0.0024 -0.0245 -0.5467
 6196SOL    HW130050   2.568   1.448   4.363 -1.1809  0.6452 -0.6408
 6196SOL    HW230051   2.433   1.401   4.392  0.4958  1.4512 -1.0501
 6197SOL     OW30052   0.783   3.164  14.956  0.0870 -0.6965 -0.0996
 6197SOL    HW130053   0.734   3.086  14.926  0.0188 -0.4459 -0.6530
 6197SOL    HW230054   0.744   3.161  15.043  0.9059  1.0212  0.3147
 6198SOL     OW30055   4.550   0.315   3.864  0.8384  0.3358  0.1311
 6198SOL    HW130056   4.536   0.320   3.959 -1.6359  1.5960 -0.2904
 6198SOL    HW230057   4.561   0.221   3.853 -1.6748 -0.0611  1.0341
 6199SOL     OW30058   0.485   4.613   0.153 -0.3347 -0.0906  0.3562
 6199SOL    HW130059   0.513   4.530   0.192 -0.8625 -0.5726 -0.2881
 6199SOL    HW230060   0.498   4.674   0.225  1.2683  0.3927 -0.3465
 6200SOL     OW30061   3.778   4.639   7.850 -0.2617  0.5785 -0.1762
 6200SOL    HW130062   3.781   4.558   7.798  0.4296  1.1449 -1.0085
 6200SOL    HW230063   3.873   4.651   7.846  0.1439 -0.9431  5.3003
 6201SOL     OW30064   3.309   4.704   9.283 -0.1354  0.8461  0.1509
 6201SOL    HW130065   3.237   4.666   9.335 -0.1425  2.6352  1.4548
 6201SOL    HW230066   3.319   4.631   9.222 -0.6667 -0.3137  1.4454
 6202SOL     OW30067   2.676   2.854   1.843  0.1952 -0.4429 -0.0112
 6202SOL    HW130068   2.634   2.915   1.782 -0.8852  0.2942  1.4723
 6202SOL    HW230069   2.602   2.834   1.900 -0.9036  1.5686 -0.6942
 6203SOL     OW30070   1.757   0.906   3.496  0.0724 -0.0051 -0.3996
 6203SOL    HW130071   1.735   0.865   3.579 -1.0584 -0.1353 -0.7546
 6203SOL    HW230072   1.783   0.993   3.526  0.2095 -0.5198  0.9696
 6204SOL     OW30073   3.588   2.037   5.312 -0.4329  0.2052  0.1780
 6204SOL    HW130074   3.590   1.947   5.346  1.6679  0.5320  0.9169
 6204SOL    HW230075   3.683   2.048   5.315 -0.2172 -1.3720 -1.0872
 6205SOL     OW30076   2.014   0.324   3.192 -0.6878  0.3367 -0.6062
 6205SOL    HW130077   2.000   0.389   3.262 -0.7659 -1.2463  0.8462
 6205SOL    HW230078   1.939   0.267   3.207 -0.5263  0.4370  0.6297
 6206SOL     OW30079   3.274   0.988  10.985 -0.0096  0.1874  0.1830
 6206SOL    HW130080   3.289   0.963  11.076 -0.5241 -1.9880 -0.3308
 6206SOL    HW230081   3.180   0.998  10.998  0.2471  2.0745  0.5612
 6207SOL     OW30082   1.111   2.029   4.124  0.1670 -0.5089 -0.7712
 6207SOL    HW130083   1.111   2.098   4.058 -2.3078 -0.9511 -1.2455
 6207SOL    HW230084   1.184   2.052   4.181 -0.9525 -0.6274  0.7187
 6208SOL     OW30085   1.808   0.334  16.749  0.3025 -0.4827  0.1881
 6208SOL    HW130086   1.817   0.239  16.746  0.1617 -0.4551 -0.8776
 6208SOL    HW230087   1.732   0.340  16.807  0.2239 -0.0461  0.0384
 6209SOL     OW30088   2.913   3.481   8.250  0.9289  0.1637  0.2761
 6209SOL    HW130089   2.882   3.394   8.224  0.7538  0.4312 -0.4058
 6209SOL    HW230090   2.919   3.482   8.346  3.2617  0.7854  0.1056
 6210SOL     OW30091   1.339   2.543   4.132 -0.1446  0.4937 -0.1058
 6210SOL    HW130092   1.372   2.518   4.219 -2.1033 -0.4105  0.3766
 6210SOL    HW230093   1.405   2.511   4.071  0.9361 -0.1070  1.3741
 6211SOL     OW30094   4.518   1.393   5.484 -0.0988  0.1239  0.1949
 6211SOL    HW130095   4.501   1.480   5.449 -0.1050 -0.0531 -0.2512
 6211SOL    HW230096   4.612   1.402   5.501 -0.0232 -0.5713  0.1689
 6212SOL     OW30097   4.600   0.605   5.877 -0.2096  0.2178 -0.4259
 6212SOL    HW130098   4.543   0.682   5.875  0.4790  0.7132 -1.0132
 6212SOL    HW230099   4.545   0.555   5.936  1.5589  1.2410  2.0863
 6213SOL     OW30100   2.688   1.492   0.944 -0.1678 -0.0594  0.1347
 6213SOL    HW130101   2.607   1.501   0.996 -0.5261  0.1732 -0.4652
 6213SOL    HW230102   2.668   1.554   0.874 -0.6159 -1.2785 -0.8111
 6214SOL     OW30103   1.546   1.011   1.660  0.5051  0.4337  0.2449
 6214SOL    HW130104   1.606   1.024   1.733  2.1612  3.1587 -1.5797
 6214SOL    HW230105   1.515   1.101   1.648  2.0712  1.1846  1.9126
 6215SOL     OW30106   4.079   4.639   7.807  0.0972  0.2779 -0.1521
 6215SOL    HW130107   4.119   4.718   7.844 -0.7211  0.7212 -0.2089
 6215SOL    HW230108   4.130   4.566   7.844 -0.1575 -0.4114 -1.1735
 6216SOL     OW30109   4.176   1.039  16.634  0.2439 -0.5254 -0.0221
 6216SOL    HW130110   4.231   1.057  16.558  0.6454  5.1222  1.6277
 6216SOL    HW230111   4.091   1.060  16.596  0.4802 -0.7931 -0.7052
 6217SOL     OW30112   1.512   0.089  13.939  0.1241  0.0991  0.6507
 6217SOL    HW130113   1.440   0.051  13.888  2.3584 -1.6811 -1.1138
 6217SOL    HW230114   1.551   0.007  13.969  1.5347 -0.5197 -2.9418
 6218SOL     OW30115   0.234   0.987   0.733 -0.1809  0.1639  0.0597
 6218SOL    HW130116   0.165   1.006   0.796  0.5570  3.0537  0.0022
 6218SOL    HW230117   0.266   1.074   0.709  1.4446 -0.9110 -1.7196
 6219SOL     OW30118   4.467   3.506   2.416  0.2470  0.2071  0.3519
 6219SOL    HW130119   4.390   3.538   2.463  0.7115  1.0208  0.5428
 6219SOL    HW230120   4.536   3.552   2.463  0.2214 -0.7313  1.3148
 6220SOL     OW30121   4.103   1.421  15.144  0.6723 -0.3039  0.2061
 6220SOL    HW130122   4.051   1.384  15.073 -1.6871  1.0648  1.2430
 6220SOL    HW230123   4.113   1.510  15.110 -3.1107  0.6594  1.6270
 6221SOL     OW30124   0.129   4.032  11.457  0.4323  0.0969  0.0699
 6221SOL    HW130125   0.199   4.092  11.431 -0.6616  0.4271 -2.1546
 6221SOL    HW230126   0.143   3.966  11.388  2.1153  0.3602  0.1526
 6222SOL     OW30127   2.609   0.349   4.431 -0.1708 -0.4575  0.5081
 6222SOL    HW130128   2.644   0.437   4.444  2.6455 -1.3121 -1.2770
 6222SOL    HW230129   2.686   0.298   4.455  0.1821 -0.9636 -1.6716
 6223SOL     OW30130   2.305   1.880   3.913  0.3571  0.3225  0.4446
 6223SOL    HW130131   2.356   1.810   3.872  0.1894 -0.2586  1.2231
 6223SOL    HW230132   2.233   1.885   3.849  1.4832  0.0683 -0.8478
 6224SOL     OW30133   1.456   2.157   4.527  0.5223 -0.2834  0.1712
 6224SOL    HW130134   1.512   2.080   4.524  0.7279 -0.2196  2.3552
 6224SOL    HW230135   1.447   2.177   4.620 -1.8961 -1.0320  0.1152
 6225SOL     OW30136   1.682   2.284   6.148 -0.0334 -0.3338 -0.1393
 6225SOL    HW130137   1.733   2.365   6.147 -1.9048  0.8506  3.3791
 6225SOL    HW230138   1.619   2.315   6.083  0.6681  1.4773  0.0636
 6226SOL     OW30139   2.151   1.621  10.442  0.1719  0.0531  0.3452
 6226SOL    HW130140   2.067   1.636  10.486  1.3724  0.2036  2.5908
 6226SOL    HW230141   2.139   1.527  10.430 -1.0666  0.1785  0.6598
 6227SOL     OW30142   4.692   1.503   1.809  0.1338  0.6610  0.1435
 6227SOL    HW130143   4.726   1.533   1.725  0.0601 -0.4549 -0.2900
 6227SOL    HW230144   4.659   1.417   1.784  0.9046  0.1020  1.0615
 6228SOL     OW30145   0.298   2.212   5.913  0.2388 -0.0718 -0.0001
 6228SOL    HW130146   0.255   2.265   5.846 -1.4038 -1.9772 -0.4551
 6228SOL    HW230147   0.343   2.277   5.967 -1.6929 -0.6751  2.3332
 6229SOL     OW30148   4.653   4.301   2.781 -0.3335 -0.2718 -0.0035
 6229SOL    HW130149   4.558   4.295   2.769  0.0350 -1.6985 -2.2668
 6229SOL    HW230150   4.680   4.372   2.722  1.1763  0.5324  1.6617
 6230SOL     OW30151   2.163   0.843   9.308 -0.1123  0.0864  0.2664
 6230SOL    HW130152   2.214   0.922   9.289  1.7464 -0.9672  0.9264
 6230SOL    HW230153   2.079   0.854   9.263  0.3899  1.7244 -0.2710
 6231SOL     OW30154   1.115   2.734   3.548 -0.2650 -0.1091  1.4845
 6231SOL    HW130155   1.211   2.742   3.542 -0.2893 -1.4552 -0.7912
 6231SOL    HW230156   1.107   2.640   3.534  0.0445  0.0981 -0.1117
 6232SOL     OW30157   2.820   1.519   5.504 -0.6771 -0.0193  0.5128
 6232SOL    HW130158   2.730   1.549   5.489 -1.1312 -0.4132  2.5197
 6232SOL    HW230159   2.812   1.424   5.488 -1.8592  0.2676 -0.6915
 6233SOL     OW30160   2.415   0.023   8.536  0.3218  0.0824  0.3685
 6233SOL    HW130161   2.398   0.071   8.454  0.5343  0.7716  0.7263
 6233SOL    HW230162   2.433   0.098   8.593  4.7980 -1.0342  0.4226
 6234SOL     OW30163   3.614   1.423  16.031 -0.4283  0.4554  0.1158
 6234SOL    HW130164   3.679   1.430  15.961 -0.4092 -1.7798 -0.1015
 6234SOL    HW230165   3.577   1.511  16.035 -1.4139  0.0432  0.0175
 6235SOL     OW30166   1.386   3.764  11.034 -0.4590 -0.6555 -0.4164
 6235SOL    HW130167   1.478   3.741  11.029  0.1925  1.8653  0.0760
 6235SOL    HW230168   1.370   3.811  10.952 -3.2150 -0.7350  0.0653
 6236SOL     OW30169   1.308   2.022   9.138  0.1571  0.6798 -0.2731
 6236SOL    HW130170   1.338   1.955   9.199 -1.1441 -0.9393 -1.4023
 6236SOL    HW230171   1.309   2.100   9.193  0.3318  0.7380 -0.3596
 6237SOL     OW30172   3.301   2.752   3.576  0.7096  0.6396  0.9041
 6237SOL    HW130173   3.362   2.785   3.511 -1.8421  0.2327 -1.6830
 6237SOL    HW230174   3.357   2.686   3.617 -0.2401  0.7271  2.3485
 6238SOL     OW30175   0.940   3.396  14.964  0.1686  0.4474  0.3359
 6238SOL    HW130176   0.954   3.383  15.058 -1.8519 -0.0036  0.5744
 6238SOL    HW230177   0.866   3.338  14.947 -0.5348  0.1454  4.5103
 6239SOL     OW30178   0.945   1.902   5.056 -0.5430 -0.3458 -0.0628
 6239SOL    HW130179   0.898   1.985   5.068 -0.4517 -0.0552 -1.7572
 6239SOL    HW230180   0.882   1.837   5.024  0.1687 -0.3264 -1.4817
 6240SOL     OW30181   0.172   4.446   2.600  0.0898  0.5318 -0.1902
 6240SOL    HW130182   0.171   4.439   2.504 -1.3212  1.2551 -0.2391
 6240SOL    HW230183   0.266   4.430   2.605  0.2703  0.7611 -2.8938
 6241SOL     OW30184   3.752   1.611  12.149 -0.5234  0.0546  0.0035
 6241SOL    HW130185   3.795   1.635  12.231  1.5610 -2.4067 -0.3863
 6241SOL    HW230186   3.668   1.590  12.191 -0.7987 -2.7627 -1.9826
 6242SOL     OW30187   2.191   3.930   2.097  0.3445  0.1457  0.1288
 6242SOL    HW130188   2.221   3.981   2.172  0.2971  0.6594 -0.1997
 6242SOL    HW230189   2.261   3.866   2.084 -0.8154 -1.5989  2.4936
 6243SOL     OW30190   2.334   0.468   5.675  0.0984 -0.4241 -0.0081
 6243SOL    HW130191   2.295   0.383   5.657  0.1401 -0.3490 -0.4434
 6243SOL    HW230192   2.268   0.510   5.730 -0.7416 -1.0275 -0.5635
 6244SOL     OW30193   3.258   4.232  10.219 -0.4255  0.7091 -0.2439
 6244SOL    HW130194   3.255   4.320  10.258  1.8987 -0.0197  1.5447
 6244SOL    HW230195   3.292   4.183  10.293 -0.1042  0.4766 -0.5458
 6245SOL     OW30196   3.452   1.903  11.784  0.0140  0.3388  0.1298
 6245SOL    HW130197   3.485   1.921  11.873  2.4796  1.7178 -1.0666
 6245SOL    HW230198   3.529   1.865  11.741 -1.2204 -0.1608 -1.5865
 6246SOL     OW30199   1.981   3.603   4.381 -0.3599 -0.5891 -0.9504
 6246SOL    HW130200   2.002   3.693   4.407  0.8388 -1.0889 -0.1401
 6246SOL    HW230201   1.940   3.562   4.457 -2.0282  2.7367 -0.0438
 6247SOL     OW30202   4.530   0.793   9.025  0.8405  0.3625  0.0713
 6247SOL    HW130203   4.586   0.740   9.082  2.7200  0.8704 -1.3276
 6247SOL    HW230204   4.522   0.882   9.060  2.6596  0.7392 -0.4502
 6248SOL     OW30205   1.145   0.298  12.620 -0.4699 -0.0252 -0.2559
 6248SOL    HW130206   1.145   0.351  12.699  0.5363 -0.5316  0.0712
 6248SOL    HW230207   1.059   0.256  12.619 -0.8016  0.6341  0.4499
 6249SOL     OW30208   2.440   0.087   8.225 -0.6398 -0.2927  0.2730
 6249SOL    HW130209   2.402   0.155   8.170  1.0749  0.9845  0.6453
 6249SOL    HW230210   2.535   0.102   8.219 -0.8860  1.6229  1.1362
 6250SOL     OW30211   1.997   2.901   6.667  0.6541  0.1343 -0.0580
 6250SOL    HW130212   2.082   2.889   6.710  0.5648 -1.3575 -0.2876
 6250SOL    HW230213   2.022   2.911   6.575 -1.6884  3.1140 -0.3839
 6251SOL     OW30214   3.090   3.795   2.226 -0.0062  0.0529  0.5379
 6251SOL    HW130215   3.072   3.833   2.312 -0.7019  0.0010  0.4154
 6251SOL    HW230216   3.054   3.709   2.245 -1.5805  0.4624 -0.5316
 6252SOL     OW30217   2.804   0.544  17.360  0.3027  0.2668  0.3699
 6252SOL    HW130218   2.761   0.510  17.282  0.7495 -2.8853  1.4879
 6252SOL    HW230219   2.734   0.558  17.424 -0.8820  0.0700 -0.9032
 6253SOL     OW30220   1.735   4.106   2.573 -0.3785  0.3694  0.0766
 6253SOL    HW130221   1.678   4.065   2.508  2.6213 -1.5492 -1.2952
 6253SOL    HW230222   1.817   4.088   2.528  1.2389  0.7798  2.8631
 6254SOL     OW30223   2.090   1.670  10.156 -0.4483  0.2312  0.3625
 6254SOL    HW130224   2.119   1.580  10.140  1.2071  0.5959  1.2979
 6254SOL    HW230225   1.997   1.665  10.134  0.3203 -0.2324 -2.8275
 6255SOL     OW30226   0.407   0.944  16.218 -0.5712  0.0160  0.0866
 6255SOL    HW130227   0.434   0.997  16.293  1.6675 -0.4990 -0.3592
 6255SOL    HW230228   0.492   0.915  16.186 -0.1384  1.9031 -0.4593
 6256SOL     OW30229   0.615   2.606   5.805 -0.7117 -0.4027  0.1802
 6256SOL    HW130230   0.709   2.609   5.825 -0.1470  1.9158 -2.8320
 6256SOL    HW230231   0.588   2.697   5.794  0.5153 -0.1704 -1.0182
 6257SOL     OW30232   4.046   2.185   2.880 -0.2693  0.1105  0.7281
 6257SOL    HW130233   3.992   2.177   2.802  1.8651  1.2900 -0.8400
 6257SOL    HW230234   4.123   2.130   2.866  0.0193  0.7592 -0.2029
 6258SOL     OW30235   3.218   2.261   2.122  0.4629 -0.1493 -0.0766
 6258SOL    HW130236   3.127   2.291   2.114  0.1196 -1.3296 -0.6493
 6258SOL    HW230237   3.230   2.295   2.211  0.8490  0.1013 -0.2269
 6259SOL     OW30238   1.367   0.522   8.999  0.0523 -0.1129  0.5285
 6259SOL    HW130239   1.336   0.587   8.936  2.5585  1.4519  0.8948
 6259SOL    HW230240   1.329   0.444   8.961  0.5736  0.3949 -1.0449
 6260SOL     OW30241   4.204   0.080   7.335  0.5835 -0.2992 -0.0475
 6260SOL    HW130242   4.255   0.003   7.309  1.5680  0.2744  0.1903
 6260SOL    HW230243   4.187   0.110   7.246  3.5533 -1.5653 -1.0487
 6261SOL     OW30244   4.648   2.425   5.186  0.2014  0.5030 -0.1182
 6261SOL    HW130245   4.715   2.371   5.144 -2.0664 -1.9120 -0.6117
 6261SOL    HW230246   4.706   2.467   5.249 -0.0360  0.2737  0.2517
 6262SOL     OW30247   0.567   1.569  11.611  0.0278  0.3756 -0.1942
 6262SOL    HW130248   0.620   1.645  11.633 -1.0579  1.2270 -0.4989
 6262SOL    HW230249   0.480   1.600  11.639 -0.7457 -1.2696 -0.7661
 6263SOL     OW30250   1.170   4.048  10.869 -0.0346 -0.0254  0.0763
 6263SOL    HW130251   1.252   4.024  10.913 -0.2760 -0.5184  0.2667
 6263SOL    HW230252   1.153   4.135  10.905 -1.2663 -1.4875  3.1190
 6264SOL     OW30253   3.493   4.192   9.391  0.1244 -0.3821  0.0983
 6264SOL    HW130254   3.555   4.251   9.434 -1.1828 -1.2145  3.1541
 6264SOL    HW230255   3.433   4.252   9.346 -2.1915 -0.9355  2.4056
 6265SOL     OW30256   1.228   2.006   2.137 -0.1288  0.5295 -0.3454
 6265SOL    HW130257   1.251   1.918   2.168 -2.9719 -0.5041 -1.2132
 6265SOL    HW230258   1.315   2.042   2.121  0.5394 -0.7510  0.4010
 6266SOL     OW30259   0.702   0.302   9.653  0.2577  0.4924  0.2182
 6266SOL    HW130260   0.766   0.352   9.704  2.3867 -1.8125 -0.1913
 6266SOL    HW230261   0.746   0.291   9.569  0.1349  1.2797  0.0512
 6267SOL     OW30262   0.070   0.575   0.777  0.0660  0.4812  0.5823
 6267SOL    HW130263   4.702   0.592   0.769 -0.0757 -0.8619 -0.5510
 6267SOL    HW230264   0.099   0.557   0.688 -3.5586 -0.6908 -0.3334
 6268SOL     OW30265   0.474   1.640   8.684  0.8312 -0.2806  0.0605
 6268SOL    HW130266   0.560   1.609   8.656  0.5952 -1.7996  1.0245
 6268SOL    HW230267   0.481   1.613   8.775  1.7129  0.4414  0.2137
 6269SOL     OW30268   0.172   4.273   9.099 -0.0786  0.4495 -0.2822
 6269SOL    HW130269   0.236   4.242   9.164 -1.8311  0.3020  1.3674
 6269SOL    HW230270   0.226   4.312   9.030 -0.3820  0.3578 -0.5697
 6270SOL     OW30271   4.032   0.019   1.491 -0.2369 -0.0147 -0.2398
 6270SOL    HW130272   3.950   4.696   1.488 -2.3715  3.4631  1.1910
 6270SOL    HW230273   4.003   0.096   1.540  1.5142 -0.1929  1.0773
 6271SOL     OW30274   4.303   1.318  12.936 -0.2250 -0.0619  0.0502
 6271SOL    HW130275   4.337   1.330  13.025 -0.3835  0.9883 -0.0279
 6271SOL    HW230276   4.296   1.412  12.916 -0.6755  0.5663  3.1356
 6272SOL     OW30277   4.422   0.516  10.515  0.0614  0.3755 -0.0590
 6272SOL    HW130278   4.452   0.558  10.435 -1.5645 -0.5267 -1.1338
 6272SOL    HW230279   4.405   0.427  10.485  0.3946 -0.0091  0.8888
 6273SOL     OW30280   2.302   4.185   9.398  0.5246  0.3082  0.4238
 6273SOL    HW130281   2.349   4.179   9.481 -0.5836 -0.4072  1.0142
 6273SOL    HW230282   2.350   4.112   9.359 -0.3740 -0.7198  1.2052
 6274SOL     OW30283   4.648   2.669   5.523 -0.0238  0.3656  0.4663
 6274SOL    HW130284   4.704   2.705   5.592  0.9210 -1.0989  0.4833
 6274SOL    HW230285   4.578   2.733   5.534  1.2839  1.8081  0.4124
 6275SOL     OW30286   0.361   0.060   5.716 -0.0494  0.0397 -0.3569
 6275SOL    HW130287   0.371   4.691   5.729 -0.3074 -0.0593 -0.8729
 6275SOL    HW230288   0.268   0.081   5.711 -0.0394 -0.2540 -1.7851
 6276SOL     OW30289   1.261   4.331   7.738 -0.0731 -0.5140 -0.8312
 6276SOL    HW130290   1.284   4.321   7.645  2.2588  0.8281 -0.4112
 6276SOL    HW230291   1.338   4.283   7.769 -0.4103  0.5725  1.6609
 6277SOL     OW30292   4.317   1.383  13.708 -0.6740 -0.3276  0.0329
 6277SOL    HW130293   4.238   1.437  13.710 -0.3564  0.1706 -0.9089
 6277SOL    HW230294   4.355   1.422  13.629  0.2563 -2.3299 -0.5123
 6278SOL     OW30295   1.189   4.597   4.734  0.1636 -0.1195  0.0422
 6278SOL    HW130296   1.191   4.688   4.703  0.8046  0.4180  1.6495
 6278SOL    HW230297   1.271   4.584   4.783 -1.0354 -2.8715  1.3145
 6279SOL     OW30298   0.696   2.256  11.221  0.1459  0.3847  0.0252
 6279SOL    HW130299   0.610   2.253  11.262  0.4981  0.6670  0.7750
 6279SOL    HW230300   0.677   2.321  11.153 -3.0657  1.5894  2.1245
 6280SOL     OW30301   3.156   0.535   5.835  0.0730  0.3532  0.4647
 6280SOL    HW130302   3.216   0.563   5.904  1.1897  0.8662 -0.7068
 6280SOL    HW230303   3.077   0.519   5.885 -0.7594 -2.2016 -1.6192
 6281SOL     OW30304   2.402   4.218   6.187  0.2185 -0.4262  0.6579
 6281SOL    HW130305   2.307   4.212   6.195  0.1526  0.3470  0.4998
 6281SOL    HW230306   2.426   4.133   6.223 -0.1203 -0.2757  1.2344
 6282SOL     OW30307   2.582   3.866  16.112 -0.1106  0.0963  0.0163
 6282SOL    HW130308   2.601   3.954  16.144 -0.5392 -0.4986  1.9204
 6282SOL    HW230309   2.665   3.837  16.075  0.2914 -0.0467  1.0215
 6283SOL     OW30310   2.179   3.116   7.808 -0.2731 -0.0824  0.0661
 6283SOL    HW130311   2.136   3.186   7.858  0.5734 -0.2910  1.0703
 6283SOL    HW230312   2.198   3.047   7.871  3.9199  1.0013 -0.0013
 6284SOL     OW30313   3.766   2.699   5.530  0.3190  0.0086  0.1841
 6284SOL    HW130314   3.854   2.692   5.493  0.2550 -1.0243  0.2477
 6284SOL    HW230315   3.758   2.793   5.548 -2.9558 -0.2771  0.2455
 6285SOL     OW30316   0.604   1.770   2.850 -0.4204 -0.2766 -0.0289
 6285SOL    HW130317   0.654   1.842   2.812 -0.5883  0.9101  2.0105
 6285SOL    HW230318   0.615   1.777   2.945  2.1623 -1.2417 -0.2453
 6286SOL     OW30319   3.935   3.815   5.288  0.1194  0.2274 -0.4139
 6286SOL    HW130320   4.021   3.857   5.293  0.3477 -0.1879 -0.8240
 6286SOL    HW230321   3.948   3.736   5.341 -1.5255 -0.3959 -0.9445
 6287SOL     OW30322   1.865   2.087   6.549 -0.4375  0.2325  0.5134
 6287SOL    HW130323   1.926   2.085   6.476 -0.4736 -2.0070  0.5438
 6287SOL    HW230324   1.789   2.122   6.501 -1.9269 -3.9645 -0.2092
 6288SOL     OW30325   2.249   1.150   7.038  0.7275 -0.3138  0.0852
 6288SOL    HW130326   2.202   1.145   7.121  2.2745  0.5768  1.0005
 6288SOL    HW230327   2.299   1.069   7.045  0.7376 -0.4991 -2.1239
 6289SOL     OW30328   0.238   2.599  15.900  0.4504 -0.2534 -0.1682
 6289SOL    HW130329   0.251   2.557  15.986 -0.5192 -1.7973 -0.7725
 6289SOL    HW230330   0.289   2.679  15.910  2.8478 -1.3214 -4.1185
 6290SOL     OW30331   3.178   4.583   9.499 -0.2651  0.8418 -0.5182
 6290SOL    HW130332   3.178   4.645   9.572  0.5995 -0.2615  0.4041
 6290SOL    HW230333   3.083   4.575   9.486 -0.1285 -0.8614 -0.4727
 6291SOL     OW30334   4.351   4.346   3.155  0.0950 -0.1993  0.0010
 6291SOL    HW130335   4.428   4.394   3.123 -1.1401  2.5858  1.2425
 6291SOL    HW230336   4.296   4.339   3.077 -0.8113  0.2238  0.6039
 6292SOL     OW30337   3.683   2.072   3.521  0.2645  0.0751  0.1684
 6292SOL    HW130338   3.778   2.060   3.515  0.3294  0.5793  0.1076
 6292SOL    HW230339   3.658   2.055   3.430  0.5426  1.7579 -0.2219
 6293SOL     OW30340   2.478   4.059  15.140  0.7183  0.0980 -0.3037
 6293SOL    HW130341   2.551   4.120  15.131  0.2640  0.7283  0.2714
 6293SOL    HW230342   2.491   4.016  15.056 -1.3482 -0.5099 -0.3271
 6294SOL     OW30343   2.590   2.577   7.731  0.3375 -0.2871 -0.1097
 6294SOL    HW130344   2.662   2.614   7.781 -0.9547 -0.0486  1.5738
 6294SOL    HW230345   2.548   2.661   7.715 -2.5877 -1.6574  0.3823
 6295SOL     OW30346   0.463   2.220  12.063  0.1413  0.0936  0.6599
 6295SOL    HW130347   0.398   2.216  12.133 -0.5637  2.1800  0.1367
 6295SOL    HW230348   0.405   2.200  11.989  0.0220  1.5938  0.3451
 6296SOL     OW30349   3.659   1.739   7.586  0.2606  0.0863 -0.0580
 6296SOL    HW130350   3.730   1.698   7.636  1.8141 -0.4685 -2.7394
 6296SOL    HW230351   3.711   1.770   7.512  0.3990 -0.6024 -0.2434
 6297SOL     OW30352   0.616   1.209   8.182 -0.0804  0.3949 -0.0008
 6297SOL    HW130353   0.566   1.134   8.214  0.3376  0.5284  0.9819
 6297SOL    HW230354   0.614   1.212   8.087  0.8895  1.2662  0.0024
 6298SOL     OW30355   1.184   0.747   5.924  0.3688 -0.5139 -0.3914
 6298SOL    HW130356   1.099   0.711   5.900  0.3669  0.5097 -1.9170
 6298SOL    HW230357   1.162   0.825   5.975 -0.9652  0.2713 -2.1773
 6299SOL     OW30358   2.968   2.675  15.003 -0.7134  0.1384 -0.4943
 6299SOL    HW130359   2.944   2.639  14.917  2.2599 -0.3828 -1.1062
 6299SOL    HW230360   2.973   2.769  14.986 -1.6280  0.3846  0.5663
 6300SOL     OW30361   3.892   1.083   6.869  0.2261 -0.8780  0.4869
 6300SOL    HW130362   3.796   1.083   6.879  0.1730  2.3373 -0.0052
 6300SOL    HW230363   3.915   1.155   6.928 -0.3363  0.3072 -0.7417
 6301SOL     OW30364   1.212   4.089  16.141  0.3848  0.0252 -0.0738
 6301SOL    HW130365   1.137   4.074  16.199  2.5054 -3.0688  1.8333
 6301SOL    HW230366   1.168   4.134  16.068  1.6125  1.0919 -0.1482
 6302SOL     OW30367   4.256   0.140   8.927 -0.4323  0.1299  0.4452
 6302SOL    HW130368   4.308   0.162   9.004  0.3340  1.2618 -0.3968
 6302SOL    HW230369   4.170   0.159   8.966  0.1098  0.9789  1.2355
 6303SOL     OW30370   2.836   2.584   5.422 -0.1454  0.3549 -0.2269
 6303SOL    HW130371   2.886   2.637   5.360  1.5325  0.5647  1.3221
 6303SOL    HW230372   2.857   2.495   5.393  1.3601  1.0850 -1.4105
 6304SOL     OW30373   3.335   0.339   6.770  0.2929 -0.1492 -0.2021
 6304SOL    HW130374   3.336   0.252   6.811 -2.1094 -0.1275 -0.1304
 6304SOL    HW230375   3.296   0.393   6.839  2.3566  0.5622  0.4096
 6305SOL     OW30376   1.689   4.020   6.419 -0.0691  0.0618  0.1663
 6305SOL    HW130377   1.705   4.014   6.514  0.4407  1.3752  0.1588
 6305SOL    HW230378   1.604   3.975   6.413  0.0181  0.1500 -1.5920
 6306SOL     OW30379   4.581   1.255  14.896 -0.0136 -0.3037 -0.4501
 6306SOL    HW130380   4.603   1.175  14.944  1.3440  0.8161  0.7823
 6306SOL    HW230381   4.592   1.323  14.963 -0.1753 -1.6107  0.9181
 6307SOL     OW30382   1.740   3.975  13.695  0.1601 -0.2237 -0.1712
 6307SOL    HW130383   1.828   3.969  13.732  1.3052  2.5897 -2.4915
 6307SOL    HW230384   1.693   3.901  13.734 -0.1992 -0.2645 -0.6865
 6308SOL     OW30385   1.499   2.677   4.515  0.3991  0.0985  0.4392
 6308SOL    HW130386   1.420   2.689   4.568  1.9138 -0.1496  2.7297
 6308SOL    HW230387   1.564   2.680   4.585  0.6094 -0.7371  0.2894
 6309SOL     OW30388   0.798   1.103   0.540 -0.4811  0.1037  0.1835
 6309SOL    HW130389   0.773   1.174   0.480  0.2691  0.5518  0.4077
 6309SOL    HW230390   0.774   1.034   0.478 -0.9954 -0.5424  1.1068
 6310SOL     OW30391   3.428   4.066   6.785 -0.3565  0.1073  0.0671
 6310SOL    HW130392   3.430   3.999   6.717 -1.3914  0.8290 -0.6640
 6310SOL    HW230393   3.347   4.044   6.830 -0.9776 -2.4818 -2.3725
 6311SOL     OW30394   2.878   0.861  17.370 -0.1343  0.2999 -0.1508
 6311SOL    HW130395   2.827   0.848  17.450  0.2581  0.4139  0.1178
 6311SOL    HW230396   2.840   0.821  17.292 -0.3798 -0.8322  0.5392
 6312SOL     OW30397   3.958   3.727  14.848  0.1928 -0.0876  0.0768
 6312SOL    HW130398   3.976   3.771  14.765  0.8847  1.9536  1.3034
 6312SOL    HW230399   3.924   3.803  14.897  0.3118 -0.7858  1.2398
 6313SOL     OW30400   2.642   3.336  13.567 -0.2442 -0.6619  0.6194
 6313SOL    HW130401   2.559   3.299  13.537 -0.8144  1.4368 -0.4220
 6313SOL    HW230402   2.648   3.411  13.508  0.0460 -1.2449 -0.1011
 6314SOL     OW30403   4.071   4.400   4.414 -0.2317 -0.0405 -0.1032
 6314SOL    HW130404   4.077   4.322   4.470  0.4304  0.5074  0.5845
 6314SOL    HW230405   3.992   4.382   4.363  0.4001  1.3939 -1.5712
 6315SOL     OW30406   4.104   3.319   2.522  0.2684 -0.5065 -0.0167
 6315SOL    HW130407   4.029   3.350   2.471  1.0863  3.4307  1.2594
 6315SOL    HW230408   4.152   3.396   2.550  1.2002 -1.6509  1.4754
 6316SOL     OW30409   3.630   3.725   4.229 -0.2090  0.7865 -0.1112
 6316SOL    HW130410   3.698   3.677   4.183  0.7668  2.8116 -0.8025
 6316SOL    HW230411   3.573   3.740   4.153 -1.9113 -2.1827  0.5489
 6317SOL     OW30412   2.529   2.311   4.506 -0.4982 -0.6301  0.7188
 6317SOL    HW130413   2.436   2.319   4.487  0.1862 -0.5214 -2.5298
 6317SOL    HW230414   2.573   2.364   4.440 -3.0030  1.0601  0.4309
 6318SOL     OW30415   1.173   0.304  11.645  0.3688  0.5144  0.6824
 6318SOL    HW130416   1.091   0.337  11.607 -0.5787 -1.1402  1.2713
 6318SOL    HW230417   1.144   0.213  11.653  0.3339  0.2308 -2.6407
 6319SOL     OW30418   0.688   2.862  11.076  0.1305 -0.3209  0.0367
 6319SOL    HW130419   0.769   2.822  11.043  1.3443  1.2977  1.0717
 6319SOL    HW230420   0.620   2.830  11.016 -1.6324  0.5921  1.5444
 6320SOL     OW30421   3.231   1.722   2.754  0.1887 -0.0412 -0.3968
 6320SOL    HW130422   3.316   1.740   2.793  0.6566 -1.5680 -0.7206
 6320SOL    HW230423   3.192   1.803   2.787 -0.5496 -0.9773  1.0297
 6321SOL     OW30424   1.806   2.540   5.262 -0.0743  0.2676  0.2248
 6321SOL    HW130425   1.869   2.477   5.297  0.3311  0.5785  0.0607
 6321SOL    HW230426   1.859   2.619   5.276 -0.4167  0.6224 -0.4515
 6322SOL     OW30427   1.627   4.590   1.510  0.0813 -0.6061 -0.8803
 6322SOL    HW130428   1.615   4.680   1.539  0.7561 -0.7937 -0.0179
 6322SOL    HW230429   1.705   4.562   1.557 -0.2149 -1.2039 -0.7306
 6323SOL     OW30430   0.547   1.112   6.247 -0.6484  0.5344  0.0236
 6323SOL    HW130431   0.634   1.146   6.229  0.0740 -1.2711  0.0325
 6323SOL    HW230432   0.491   1.166   6.191 -0.5387  0.4252 -0.1904
 6324SOL     OW30433   0.216   3.581   7.307 -0.6070 -0.2451  0.0222
 6324SOL    HW130434   0.251   3.615   7.389 -2.6570 -1.4567  1.3967
 6324SOL    HW230435   0.294   3.573   7.253 -0.1346 -2.5111  1.0101
 6325SOL     OW30436   3.715   2.964   0.756  0.3485  0.2929  0.1495
 6325SOL    HW130437   3.634   3.015   0.752  0.4894  0.2850 -2.2495
 6325SOL    HW230438   3.687   2.895   0.817  0.1658 -0.5118 -0.8604
 6326SOL     OW30439   1.637   3.643   3.874  0.7265  0.0069  0.1864
 6326SOL    HW130440   1.691   3.680   3.804  0.7032 -0.8696 -0.2948
 6326SOL    HW230441   1.700   3.619   3.942 -0.3022  1.0043  1.5010
 6327SOL     OW30442   1.900   4.266   3.743 -0.6301 -0.2026  0.1473
 6327SOL    HW130443   1.954   4.226   3.675 -2.0095 -1.5778 -0.1293
 6327SOL    HW230444   1.964   4.336   3.760  0.0087 -0.3341 -1.7158
 6328SOL     OW30445   2.250   1.580  11.004 -0.1912 -0.6230  0.1684
 6328SOL    HW130446   2.326   1.626  10.969 -0.5197 -0.6139 -0.5362
 6328SOL    HW230447   2.205   1.648  11.055  3.1387  2.0408 -0.4227
 6329SOL     OW30448   0.466   1.469   6.909  0.2524  0.0145 -0.8026
 6329SOL    HW130449   0.405   1.397   6.928 -0.5975  0.7591 -0.6984
 6329SOL    HW230450   0.514   1.493   6.987  0.5964  1.3953 -1.4450
 6330SOL     OW30451   0.468   2.975  10.706  0.0931  0.3700 -0.3626
 6330SOL    HW130452   0.550   2.933  10.732  0.4975  0.7745 -0.9943
 6330SOL    HW230453   0.502   3.043  10.649  0.0609 -0.9848 -1.9976
 6331SOL     OW30454   4.407   4.286   9.113 -0.5567  0.3973 -0.3468
 6331SOL    HW130455   4.490   4.331   9.097 -0.7980  0.9086 -0.1408
 6331SOL    HW230456   4.415   4.216   9.048 -0.0022  0.4987 -0.3892
 6332SOL     OW30457   2.242   0.577   1.300  0.1255  0.2597  0.0719
 6332SOL    HW130458   2.319   0.553   1.351  0.2770  0.6566  0.0370
 6332SOL    HW230459   2.222   0.487   1.276 -1.2069  0.1495  1.5851
 6333SOL     OW30460   1.624   4.214  11.441  0.1970  0.4360 -0.5900
 6333SOL    HW130461   1.661   4.249  11.359  2.9852 -1.5013 -0.1682
 6333SOL    HW230462   1.675   4.270  11.499 -0.3135 -1.9783  2.1868
 6334SOL     OW30463   4.168   4.588   0.838 -0.1314  0.9528 -0.6496
 6334SOL    HW130464   4.103   4.648   0.802 -1.0687 -0.2283 -0.9408
 6334SOL    HW230465   4.117   4.510   0.860  0.9960 -0.4558 -3.1595
 6335SOL     OW30466   4.350   4.341   9.456  0.3453  0.1296  0.2412
 6335SOL    HW130467   4.352   4.431   9.425 -0.6376  0.5089  1.3114
 6335SOL    HW230468   4.296   4.291   9.395  1.0515  0.1928 -0.4420
 6336SOL     OW30469   1.750   1.398  13.683 -0.1722 -0.3192 -0.6233
 6336SOL    HW130470   1.742   1.303  13.696  1.2961 -0.1259  1.6262
 6336SOL    HW230471   1.658   1.425  13.684 -0.0263  0.1537  0.1020
 6337SOL     OW30472   0.517   0.668   2.775 -0.0526  0.7263 -0.1244
 6337SOL    HW130473   0.609   0.659   2.797 -0.4901  1.4742  1.9948
 6337SOL    HW230474   0.469   0.691   2.855 -1.9491 -1.7172 -0.5189
 6338SOL     OW30475   4.671   2.699   3.545  0.2165 -0.5470  0.3557
 6338SOL    HW130476   4.610   2.646   3.596 -1.9928 -0.3753 -2.1131
 6338SOL    HW230477   0.019   2.637   3.540  1.2404  0.8128 -1.2479
 6339SOL     OW30478   3.121   0.189   0.491  0.0676 -0.0910 -0.0233
 6339SOL    HW130479   3.177   0.129   0.539  1.4547  0.3475 -1.1150
 6339SOL    HW230480   3.141   0.166   0.400  2.4274  2.4422 -0.1674
 6340SOL     OW30481   4.572   3.585   2.806 -0.4156 -0.0607 -0.4620
 6340SOL    HW130482   4.587   3.673   2.772  0.9097  0.5049  1.6061
 6340SOL    HW230483   4.631   3.541   2.745  0.0925  0.6201 -0.4564
 6341SOL     OW30484   2.191   1.865   7.636  0.6653 -0.0404  0.0066
 6341SOL    HW130485   2.285   1.845   7.631  1.0055  1.3644  0.8803
 6341SOL    HW230486   2.155   1.787   7.678 -1.2658  1.7181  1.5826
 6342SOL     OW30487   1.607   2.353   3.288 -0.3872 -0.5957 -0.3198
 6342SOL    HW130488   1.666   2.355   3.213 -0.8638  1.6130 -0.6492
 6342SOL    HW230489   1.614   2.260   3.307  1.5206 -1.1666 -3.8472
 6343SOL     OW30490   0.909   2.721   7.949 -0.1489 -0.6725 -0.1668
 6343SOL    HW130491   0.870   2.753   8.030  0.9715  0.9594 -0.2791
 6343SOL    HW230492   0.860   2.771   7.884 -2.2981  0.0628  2.0107
 6344SOL     OW30493   0.538   4.227   3.947 -0.1262 -0.0621  0.0301
 6344SOL    HW130494   0.502   4.154   3.897 -1.4465  0.7251 -0.1522
 6344SOL    HW230495   0.599   4.175   3.999 -2.4330 -0.2945  2.4672
 6345SOL     OW30496   3.826   0.633   8.065 -0.2432  0.5472  0.4122
 6345SOL    HW130497   3.788   0.638   8.153  2.2542  0.4299  1.5079
 6345SOL    HW230498   3.838   0.721   8.030 -2.7093  0.9919  0.7440
 6346SOL     OW30499   2.784   2.630   2.305  0.1496  0.0711  0.4149
 6346SOL    HW130500   2.770   2.583   2.222 -1.0217  0.2846  0.4930
 6346SOL    HW230501   2.736   2.711   2.288  0.6555  0.0850 -0.9921
 6347SOL     OW30502   0.787   1.312   0.355  0.4016 -0.1097 -0.5458
 6347SOL    HW130503   0.819   1.376   0.292 -0.2649  1.6758  0.9490
 6347SOL    HW230504   0.694   1.315   0.330  0.0448 -2.2041  0.5381
 6348SOL     OW30505   1.482   0.798   4.372 -0.2290 -0.0420 -0.3583
 6348SOL    HW130506   1.516   0.745   4.300 -0.4064 -1.8120  0.8639
 6348SOL    HW230507   1.558   0.855   4.389  0.6040 -1.3160  0.1941
 6349SOL     OW30508   4.027   3.574  16.526  0.1234  0.1690 -0.6667
 6349SOL    HW130509   3.977   3.521  16.589 -3.3829  0.5044 -3.1945
 6349SOL    HW230510   4.065   3.638  16.587 -1.8056  0.7502 -0.0589
 6350SOL     OW30511   0.072   0.570   0.227  0.4748 -0.3597 -1.0543
 6350SOL    HW130512   0.005   0.632   0.198  0.3683 -0.2185 -0.5132
 6350SOL    HW230513   0.065   0.495   0.168 -0.4664 -1.4150  0.3783
 6351SOL     OW30514   1.539   1.779   3.870  0.0016 -0.3728 -0.5969
 6351SOL    HW130515   1.576   1.741   3.950  2.8758  0.8949 -1.3219
 6351SOL    HW230516   1.446   1.783   3.892  0.3318  0.5623  0.6523
 6352SOL     OW30517   4.203   3.120   2.351  0.6691 -0.1723  0.2097
 6352SOL    HW130518   4.209   3.160   2.437  1.4244 -1.3975  0.7163
 6352SOL    HW230519   4.219   3.205   2.310  0.5075 -0.2637 -0.0421
 6353SOL     OW30520   4.352   2.334   8.211  0.7677 -0.2771 -0.1333
 6353SOL    HW130521   4.426   2.340   8.151 -0.4499 -0.2086 -1.6269
 6353SOL    HW230522   4.283   2.353   8.147 -0.4777 -0.7074  1.0729
 6354SOL     OW30523   0.414   4.355   6.268  0.0777  0.3951 -0.5623
 6354SOL    HW130524   0.397   4.441   6.306 -0.9716 -0.7253  1.5494
 6354SOL    HW230525   0.474   4.322   6.336 -0.2080  0.0309 -0.4798
 6355SOL     OW30526   3.381   1.844   1.272 -0.4829 -0.6425  0.2445
 6355SOL    HW130527   3.369   1.891   1.354 -1.5893 -0.4733 -0.0187
 6355SOL    HW230528   3.289   1.839   1.247 -1.2009  1.9840  2.3551
 6356SOL     OW30529   4.328   1.346  11.436 -1.0725  0.4468 -0.5505
 6356SOL    HW130530   4.255   1.400  11.406 -1.8344 -0.2795 -0.0090
 6356SOL    HW230531   4.339   1.293  11.357  0.5313 -1.2130  0.7953
 6357SOL     OW30532   2.237   2.924   3.014  0.1100 -0.6407  0.2242
 6357SOL    HW130533   2.318   2.964   2.982 -0.8199  0.0718 -1.2414
 6357SOL    HW230534   2.184   2.916   2.935  0.7480 -2.0615 -0.0598
 6358SOL     OW30535   1.631   0.271   9.433 -0.3428 -0.4005 -0.9431
 6358SOL    HW130536   1.547   0.287   9.477  0.3070  0.0787  0.1338
 6358SOL    HW230537   1.693   0.309   9.496 -1.2981 -1.7326  0.8001
 6359SOL     OW30538   1.514   1.538  10.368  0.5622  0.0261 -0.5937
 6359SOL    HW130539   1.579   1.564  10.434 -0.1212 -0.7830  0.3884
 6359SOL    HW230540   1.489   1.626  10.338  0.5198 -0.1605 -1.0990
 6360SOL     OW30541   2.444   0.669   6.041  0.6217  0.6407 -0.3398
 6360SOL    HW130542   2.481   0.672   6.130 -0.4998  3.2905  0.0557
 6360SOL    HW230543   2.366   0.723   6.053 -0.5105 -0.6175 -2.2424
 6361SOL     OW30544   3.446   0.455   7.091  0.5077  0.2549  0.1970
 6361SOL    HW130545   3.356   0.448   7.060  0.7577  0.4384 -0.5843
 6361SOL    HW230546   3.465   0.363   7.107  0.6432  0.4723  1.3076
 6362SOL     OW30547   0.310   3.431   6.919  0.2649  0.3211 -0.1282
 6362SOL    HW130548   0.311   3.351   6.866  0.2554  0.2125  0.0353
 6362SOL    HW230549   0.227   3.468   6.891  0.2096  0.0587 -0.3072
 6363SOL     OW30550   4.163   3.956   5.945  0.5525 -0.8934 -0.0707
 6363SOL    HW130551   4.150   3.897   6.019  1.2190 -0.7038  0.1958
 6363SOL    HW230552   4.117   3.897   5.886  1.0786 -0.6968 -0.6798
 6364SOL     OW30553   3.193   1.349   2.469 -0.5223 -0.5925 -0.8668
 6364SOL    HW130554   3.267   1.315   2.418  0.2868 -2.1418  1.3327
 6364SOL    HW230555   3.222   1.437   2.491 -0.0742 -0.7353 -0.8816
 6365SOL     OW30556   4.669   2.473   9.402 -0.2819  0.1655  0.0445
 6365SOL    HW130557   4.630   2.387   9.390 -3.0191  1.4131  0.0102
 6365SOL    HW230558   0.035   2.449   9.410 -0.9702 -2.6759 -0.5571
 6366SOL     OW30559   1.041   3.405  11.324 -0.0210 -0.4266 -0.5576
 6366SOL    HW130560   0.964   3.365  11.365  0.6053 -0.8561  0.1936
 6366SOL    HW230561   1.082   3.456  11.394  0.7975 -0.7389 -0.8111
 6367SOL     OW30562   0.461   0.227  10.696 -0.0126  0.1943 -0.0136
 6367SOL    HW130563   0.551   0.203  10.676 -0.3048  0.5863 -1.7771
 6367SOL    HW230564   0.414   0.157  10.652 -0.7198 -0.6995  2.1518
 6368SOL     OW30565   4.023   2.656   5.169  0.0713 -0.4528 -0.7999
 6368SOL    HW130566   4.089   2.591   5.143  1.3463  1.2491 -1.8474
 6368SOL    HW230567   3.946   2.604   5.191  0.2575 -0.8501 -1.0899
 6369SOL     OW30568   1.363   2.252   7.797  0.1396  0.3254 -0.3228
 6369SOL    HW130569   1.340   2.180   7.737 -0.1754  0.4895 -0.4002
 6369SOL    HW230570   1.326   2.331   7.757  0.8050  0.4663 -0.6546
 6370SOL     OW30571   1.522   1.299   2.244  0.3030  0.0240 -0.2738
 6370SOL    HW130572   1.583   1.367   2.272  1.2639 -1.8819  2.2945
 6370SOL    HW230573   1.466   1.306   2.321  1.1398  0.5893  0.2837
 6371SOL     OW30574   0.629   4.351   6.027  0.4331 -0.7681  0.2602
 6371SOL    HW130575   0.670   4.381   6.109  0.2954 -0.0815  0.0720
 6371SOL    HW230576   0.691   4.374   5.958 -1.8065  2.4399 -0.6376
 6372SOL     OW30577   3.861   0.011   5.164  0.2994  0.3459 -0.1280
 6372SOL    HW130578   3.778   0.052   5.187  1.0431  2.0169 -0.4065
 6372SOL    HW230579   3.909   0.026   5.245  0.0904 -0.3760  0.1242
 6373SOL     OW30580   4.299   3.848  12.352 -0.2010  0.1887  0.0422
 6373SOL    HW130581   4.273   3.827  12.263  2.0656 -0.6968 -0.4039
 6373SOL    HW230582   4.209   3.858  12.384 -0.4961  1.8230 -1.3256
 6374SOL     OW30583   0.097   1.570   8.398 -0.1414 -0.2870 -0.3566
 6374SOL    HW130584   0.070   1.531   8.481 -0.3282  0.1758 -0.2011
 6374SOL    HW230585   0.191   1.555   8.401 -0.3573 -1.5413  0.2594
 6375SOL     OW30586   3.286   2.989   1.448 -0.0092  0.1886 -0.1285
 6375SOL    HW130587   3.346   3.061   1.467  0.0468  1.0763 -3.5794
 6375SOL    HW230588   3.349   2.917   1.446 -1.6858 -1.2954  0.9935
 6376SOL     OW30589   3.226   2.184   2.582  0.2184  0.7329  0.5017
 6376SOL    HW130590   3.195   2.271   2.558  1.4938  0.6324 -1.5654
 6376SOL    HW230591   3.205   2.124   2.510 -0.5624 -0.7449  1.9692
 6377SOL     OW30592   2.137   2.439  16.415 -0.0663 -0.2160 -0.0224
 6377SOL    HW130593   2.138   2.535  16.415 -1.0460 -0.2017 -1.5801
 6377SOL    HW230594   2.200   2.410  16.481 -0.9863  2.0015  1.8444
 6378SOL     OW30595   0.644   3.066   2.936  0.5554 -0.6928  0.4785
 6378SOL    HW130596   0.553   3.085   2.960  1.0134  0.7458  1.1085
 6378SOL    HW230597   0.647   3.082   2.841  1.1805 -1.3548  0.3922
 6379SOL     OW30598   3.258   0.341  12.125  0.0470 -0.1999  0.3723
 6379SOL    HW130599   3.215   0.426  12.120 -0.5030 -0.5547 -0.8609
 6379SOL    HW230600   3.344   0.368  12.092 -0.3058  0.2338 -0.1962
 6380SOL     OW30601   0.072   1.417   9.065 -0.1567  0.5140  0.2215
 6380SOL    HW130602   0.086   1.431   8.972  1.1147 -1.2177  0.1459
 6380SOL    HW230603   0.134   1.477   9.106  0.5466  0.7979 -1.2773
 6381SOL     OW30604   1.158   1.435   1.297  0.1492 -0.2714  0.4988
 6381SOL    HW130605   1.222   1.448   1.227  1.3024  0.2249  1.6305
 6381SOL    HW230606   1.153   1.522   1.337  1.0853 -1.0971  2.4517
 6382SOL     OW30607   2.142   2.505   3.947  0.1107 -0.1461  0.0826
 6382SOL    HW130608   2.134   2.473   4.037 -1.5363 -1.1281 -0.4137
 6382SOL    HW230609   2.126   2.430   3.889 -0.8172 -0.7375  1.1171
 6383SOL     OW30610   2.631   0.021   1.626  0.2541 -0.6951  0.4353
 6383SOL    HW130611   2.712   0.044   1.582 -0.2692 -0.1356 -0.2452
 6383SOL    HW230612   2.666   4.689   1.693 -0.9285 -0.3794  1.3384
 6384SOL     OW30613   2.139   2.690  11.056 -0.2109 -0.4711 -0.5677
 6384SOL    HW130614   2.212   2.739  11.092 -1.2461  1.3896 -1.0118
 6384SOL    HW230615   2.158   2.605  11.096 -0.4091 -0.3798 -0.2890
 6385SOL     OW30616   1.231   1.003   6.739 -0.0616 -0.1980 -0.3420
 6385SOL    HW130617   1.268   1.081   6.696 -0.2495  0.1945  0.2094
 6385SOL    HW230618   1.314   0.958   6.753  0.4872  0.0174 -2.8614
 6386SOL     OW30619   4.562   3.168   0.654  0.3105 -0.0813  0.3505
 6386SOL    HW130620   4.514   3.206   0.581 -0.0915 -0.4529  0.4192
 6386SOL    HW230621   4.482   3.153   0.705 -0.3678  0.2307 -0.6303
 6387SOL     OW30622   2.657   3.406   2.874  0.0477  0.2293 -1.1114
 6387SOL    HW130623   2.594   3.340   2.902 -0.0816  1.6026  1.8425
 6387SOL    HW230624   2.596   3.480   2.877  0.3854  0.4852 -0.6087
 6388SOL     OW30625   0.764   2.439   7.579  0.5264 -0.1812  0.4685
 6388SOL    HW130626   0.721   2.392   7.508  0.1303 -0.1802  0.7086
 6388SOL    HW230627   0.814   2.374   7.628  2.3062  0.5363 -0.3801
 6389SOL     OW30628   0.842   2.267   8.514 -0.2036  0.2472 -0.2599
 6389SOL    HW130629   0.920   2.213   8.516 -0.6313 -0.4776 -2.8659
 6389SOL    HW230630   0.784   2.225   8.450 -0.7738  1.4264 -0.5304
 6390SOL     OW30631   2.015   0.164  15.399  0.0186  0.6545 -0.2095
 6390SOL    HW130632   1.933   0.116  15.399  0.7684 -0.6369 -0.7207
 6390SOL    HW230633   1.981   0.253  15.404 -0.9746  0.1212  2.0948
 6391SOL     OW30634   0.071   4.553   5.946  1.1770 -0.5712 -0.1998
 6391SOL    HW130635   0.141   4.616   5.959  1.5321 -0.7972 -1.0375
 6391SOL    HW230636   0.005   4.620   5.930  2.1129 -0.2166 -2.5832
 6392SOL     OW30637   3.391   3.543   0.271 -0.0170 -0.4931  0.3860
 6392SOL    HW130638   3.331   3.617   0.282 -2.5493 -2.6641  1.1779
 6392SOL    HW230639   3.341   3.465   0.297 -1.3938 -0.1646 -1.2038
 6393SOL     OW30640   2.132   3.572   5.312 -0.2690 -0.4999  0.0419
 6393SOL    HW130641   2.038   3.568   5.330 -0.3576 -1.4669 -0.6149
 6393SOL    HW230642   2.157   3.646   5.366  0.7583 -0.0400 -1.0645
 6394SOL     OW30643   2.009   4.453   6.272  0.3770 -0.3001  0.6622
 6394SOL    HW130644   2.097   4.422   6.294 -0.1722 -3.3178 -1.3404
 6394SOL    HW230645   1.969   4.366   6.263  1.3288 -0.3814 -2.7206
 6395SOL     OW30646   1.380   4.268   6.247  0.2578 -0.0159  0.3122
 6395SOL    HW130647   1.296   4.279   6.290  0.4216  0.8082  0.4094
 6395SOL    HW230648   1.356   4.267   6.154 -0.3981 -0.5810  0.4851
 6396SOL     OW30649   4.476   0.875   6.799 -0.2677  0.5181 -0.2975
 6396SOL    HW130650   4.558   0.825   6.804 -0.7886 -0.4561 -1.5005
 6396SOL    HW230651   4.464   0.910   6.887  0.3705  1.2716 -0.5091
 6397SOL     OW30652   2.849   4.694   1.388 -0.0220  0.0866 -0.0859
 6397SOL    HW130653   2.800   4.612   1.380 -0.1577  0.3041 -1.5395
 6397SOL    HW230654   2.937   4.667   1.415 -0.3246  1.4596  2.1946
 6398SOL     OW30655   3.144   4.496   9.137  0.2671 -0.1462  0.2684
 6398SOL    HW130656   3.107   4.408   9.127  3.2739 -1.2577 -1.2227
 6398SOL    HW230657   3.119   4.534   9.053  1.9047  1.0668  0.3109
 6399SOL     OW30658   4.594   3.956   7.429 -0.2105 -0.3863 -0.2396
 6399SOL    HW130659   4.508   3.948   7.388 -0.6021  1.7535  0.1467
 6399SOL    HW230660   4.644   4.014   7.372  0.3438  1.4724  2.1245
 6400SOL     OW30661   1.137   2.924   2.252  0.4229 -0.1576  0.3668
 6400SOL    HW130662   1.076   2.972   2.307 -1.6088 -0.4526 -1.6390
 6400SOL    HW230663   1.151   2.833   2.279  3.2640  0.3190  0.4760
 6401SOL     OW30664   3.175   0.015   9.719 -0.9252 -0.2759 -0.0289
 6401SOL    HW130665   3.107   4.720   9.783 -0.7510 -2.1698 -0.4663
 6401SOL    HW230666   3.136   0.096   9.686  1.1471  0.1934 -1.3515
 6402SOL     OW30667   1.993   4.128   4.118  0.2026 -0.1913  0.3011
 6402SOL    HW130668   1.987   4.224   4.115  0.5322 -0.2157 -1.1802
 6402SOL    HW230669   2.008   4.108   4.211 -0.1595 -2.6237 -0.1784
 6403SOL     OW30670   1.637   4.509   0.202 -0.7139  0.1153  0.0812
 6403SOL    HW130671   1.731   4.526   0.210 -0.8744  1.1560 -0.2672
 6403SOL    HW230672   1.630   4.418   0.175  1.6391 -0.8519  2.7762
 6404SOL     OW30673   1.892   0.800  11.464 -0.2198  0.0350  0.8827
 6404SOL    HW130674   1.807   0.844  11.474  0.0166  1.4335 -3.0454
 6404SOL    HW230675   1.943   0.870  11.423 -0.6978 -0.8794 -1.2958
 6405SOL     OW30676   4.600   2.030   8.493  0.2872 -0.4131 -0.2368
 6405SOL    HW130677   4.642   2.054   8.576 -1.0885  1.4168 -0.0775
 6405SOL    HW230678   4.568   2.116   8.467  0.7346 -0.2219 -0.1529
 6406SOL     OW30679   1.649   3.462   7.886 -0.6262  0.4104 -0.4976
 6406SOL    HW130680   1.701   3.503   7.954 -1.5265  1.0678 -0.2029
 6406SOL    HW230681   1.702   3.492   7.812  2.9912 -1.3192  1.4009
 6407SOL     OW30682   2.424   4.649  15.731  0.0752 -0.0371  0.6012
 6407SOL    HW130683   2.371   4.694  15.665  0.4496 -1.3179 -0.5561
 6407SOL    HW230684   2.432   4.716  15.799 -0.1901  0.1456  0.4527
 6408SOL     OW30685   1.283   3.502   1.672  0.0846  0.0045 -0.1719
 6408SOL    HW130686   1.213   3.528   1.612 -0.6659  0.5118  0.9164
 6408SOL    HW230687   1.357   3.549   1.633 -0.2050 -0.5315 -1.3836
 6409SOL     OW30688   1.704   1.815   3.163 -0.4421  0.7275 -0.7459
 6409SOL    HW130689   1.769   1.763   3.116 -0.9440  0.1400 -0.7938
 6409SOL    HW230690   1.757   1.892   3.183  0.3097 -0.3807  1.4847
 6410SOL     OW30691   1.814   1.088  12.565 -0.1882 -0.3943 -0.2290
 6410SOL    HW130692   1.727   1.126  12.551 -0.0507 -0.6915 -1.9381
 6410SOL    HW230693   1.802   1.014  12.625  1.2747 -0.4867 -0.0486
 6411SOL     OW30694   1.889   4.365   7.565  0.1471  0.3489  0.1201
 6411SOL    HW130695   1.904   4.312   7.644  0.0770  0.3722  0.1494
 6411SOL    HW230696   1.794   4.371   7.549  0.1178 -0.4617 -0.0217
 6412SOL     OW30697   1.294   0.162  15.583  0.1775  0.2946  0.2602
 6412SOL    HW130698   1.219   0.176  15.640 -0.9435 -1.7524 -0.7295
 6412SOL    HW230699   1.246   0.117  15.513 -0.1696 -5.6627  4.3679
 6413SOL     OW30700   4.590   1.373   9.947 -0.5317 -0.4318 -0.0385
 6413SOL    HW130701   4.602   1.445  10.009 -1.8661  0.9974 -1.4473
 6413SOL    HW230702   4.628   1.403   9.865  0.6428  2.5327  1.6136
 6414SOL     OW30703   2.671   3.632   8.422 -0.1266 -0.0958  0.1120
 6414SOL    HW130704   2.766   3.618   8.418 -0.1344 -0.0449 -0.2587
 6414SOL    HW230705   2.653   3.620   8.329  1.4210  2.7076 -0.5694
 6415SOL     OW30706   4.015   1.693   7.217 -0.6652  0.0362 -0.2145
 6415SOL    HW130707   3.926   1.658   7.214 -0.5749 -0.2581  0.5219
 6415SOL    HW230708   4.034   1.671   7.125  0.3318  0.2824 -0.0717
 6416SOL     OW30709   2.875   3.037  11.877  0.0622 -0.1248  0.3272
 6416SOL    HW130710   2.846   2.946  11.876 -2.0586  0.5299  1.1112
 6416SOL    HW230711   2.801   3.065  11.931  0.4106  0.0478  0.7108
 6417SOL     OW30712   4.597   2.099   4.773 -0.3862 -0.2025 -0.1119
 6417SOL    HW130713   4.661   2.033   4.749 -1.0165 -0.8976  0.1258
 6417SOL    HW230714   4.554   2.118   4.689 -0.9649  1.3663  0.5260
 6418SOL     OW30715   3.823   4.001  14.077 -0.2781 -0.2352  0.3657
 6418SOL    HW130716   3.851   3.952  13.999  0.8629 -2.0274  1.9241
 6418SOL    HW230717   3.738   4.035  14.049 -0.7035  0.4623  2.4906
 6419SOL     OW30718   4.651   2.161  14.332  0.1775  0.4172  0.2646
 6419SOL    HW130719   4.631   2.089  14.272 -0.3849 -0.4146  1.4386
 6419SOL    HW230720   4.720   2.203  14.280 -0.9951  0.7601 -0.9808
 6420SOL     OW30721   2.548   0.465   8.197 -0.2662 -0.8091 -0.2502
 6420SOL    HW130722   2.466   0.454   8.244  0.7043 -0.3250  1.5397
 6420SOL    HW230723   2.517   0.432   8.113 -1.1841  1.9268 -1.0126
 6421SOL     OW30724   1.083   4.237  15.633  0.4952 -0.5891 -0.1353
 6421SOL    HW130725   1.172   4.269  15.622  0.8310 -1.3739  0.2844
 6421SOL    HW230726   1.108   4.145  15.638 -2.8430 -1.5837 -1.7426
 6422SOL     OW30727   0.906   1.555   7.047  0.0077  0.7279  0.0722
 6422SOL    HW130728   0.990   1.509   7.040 -0.7535 -0.6429 -0.1166
 6422SOL    HW230729   0.844   1.510   6.990  1.4058 -2.7366  1.2853
 6423SOL     OW30730   4.138   4.622  17.627  0.1889 -0.0318 -0.3913
 6423SOL    HW130731   4.140   4.684  17.554  1.8701  0.5990  0.1758
 6423SOL    HW230732   4.100   4.547  17.582 -1.3099 -0.7142  2.0511
 6424SOL     OW30733   0.359   2.429   3.046 -0.1008  0.7162 -0.0532
 6424SOL    HW130734   0.311   2.481   2.981 -1.4932  1.7545  1.7846
 6424SOL    HW230735   0.281   2.405   3.097 -0.0507  2.2648  0.7676
 6425SOL     OW30736   1.024   2.226  17.182 -0.0745 -0.2072 -0.1589
 6425SOL    HW130737   1.083   2.198  17.112 -2.0967 -1.2417 -1.4264
 6425SOL    HW230738   0.975   2.152  17.217 -0.0849 -0.2050 -0.1690
 6426SOL     OW30739   3.455   2.922   1.069  0.3881  0.8910  0.0012
 6426SOL    HW130740   3.505   2.857   1.020 -1.4423 -2.8786  3.1455
 6426SOL    HW230741   3.454   2.993   1.004 -0.1744  1.3483  0.5116
 6427SOL     OW30742   4.478   2.411   1.307 -0.0763  0.2055  0.0581
 6427SOL    HW130743   4.398   2.357   1.310 -0.5582  0.9627  0.8348
 6427SOL    HW230744   4.543   2.348   1.274 -1.7687 -1.3600 -0.3150
 6428SOL     OW30745   3.958   1.985   3.494  0.7641 -0.3285  0.2517
 6428SOL    HW130746   3.972   1.910   3.551 -3.4036 -0.4376  1.0850
 6428SOL    HW230747   3.980   1.939   3.412  0.1258 -0.0081 -0.0945
 6429SOL     OW30748   3.370   0.435   6.211 -0.3828 -0.3751 -0.0622
 6429SOL    HW130749   3.407   0.464   6.128 -0.6453  0.7738  0.2301
 6429SOL    HW230750   3.443   0.465   6.266 -0.8869 -0.5908  0.7258
 6430SOL     OW30751   1.632   1.457   6.796  0.2831 -0.5806 -0.5579
 6430SOL    HW130752   1.713   1.417   6.828  0.6520  0.1433 -0.5725
 6430SOL    HW230753   1.569   1.390   6.822  2.0251 -2.6781 -1.7506
 6431SOL     OW30754   3.865   2.540   4.146 -0.5920 -0.1674  0.0782
 6431SOL    HW130755   3.942   2.530   4.090  0.0307 -0.8689  1.0596
 6431SOL    HW230756   3.886   2.581   4.230 -2.9093 -0.1408  0.6494
 6432SOL     OW30757   3.036   1.956  11.018  0.4340 -0.4852  0.2152
 6432SOL    HW130758   3.104   2.022  11.036  0.0661  0.5454 -2.1441
 6432SOL    HW230759   3.084   1.874  11.015 -2.0746 -2.0023  2.0594
 6433SOL     OW30760   0.296   2.269  13.165 -0.0899  0.5779  0.2712
 6433SOL    HW130761   0.251   2.287  13.082  2.4367  0.0158 -1.2124
 6433SOL    HW230762   0.218   2.246  13.215  0.1209  1.5693  1.0681
 6434SOL     OW30763   0.565   3.172   5.133 -0.4367 -0.1959 -0.0605
 6434SOL    HW130764   0.470   3.181   5.123 -0.6784 -0.3611  2.0007
 6434SOL    HW230765   0.572   3.216   5.218 -1.4139 -1.6477  0.7650
 6435SOL     OW30766   1.316   2.606   2.779  0.0576  0.2018  0.3849
 6435SOL    HW130767   1.308   2.535   2.842  0.5591 -0.9753 -0.8885
 6435SOL    HW230768   1.374   2.561   2.718  0.3882  1.1792 -0.0302
 6436SOL     OW30769   2.115   4.239   1.007 -0.3686  0.2113 -0.0082
 6436SOL    HW130770   2.100   4.207   1.096  1.0653 -0.8127 -0.1385
 6436SOL    HW230771   2.042   4.301   1.006 -0.4496  0.1380  1.5668
 6437SOL     OW30772   2.764   3.362   5.158 -0.1694  0.2746 -0.2003
 6437SOL    HW130773   2.729   3.379   5.245 -1.1697 -2.0428 -0.1356
 6437SOL    HW230774   2.775   3.267   5.165 -0.5850  0.1074 -1.8545
 6438SOL     OW30775   0.614   0.734   7.917 -0.2281  0.3265  0.1596
 6438SOL    HW130776   0.581   0.814   7.876  2.9999  1.8088  0.5032
 6438SOL    HW230777   0.535   0.691   7.950  0.1045  0.1876  0.7612
 6439SOL     OW30778   4.264   2.684  11.734  0.3153  0.1870  0.3447
 6439SOL    HW130779   4.272   2.588  11.736  0.5098  0.1624 -2.3876
 6439SOL    HW230780   4.300   2.704  11.648  0.7769  0.6466  0.6435
 6440SOL     OW30781   0.138   3.851  10.467 -0.1217  0.2431  0.2654
 6440SOL    HW130782   0.218   3.903  10.458  0.2771 -0.6928 -1.4983
 6440SOL    HW230783   0.146   3.797  10.546  2.2958  1.7000  1.0138
 6441SOL     OW30784   2.261   0.115  15.618  0.3476 -0.7747  0.0303
 6441SOL    HW130785   2.168   0.106  15.596 -0.2217  3.6484  0.6494
 6441SOL    HW230786   2.278   0.203  15.586 -1.1507  0.3269  2.2855
 6442SOL     OW30787   2.152   4.665   2.037  0.0492 -0.1683  0.1781
 6442SOL    HW130788   2.068   4.625   2.060  0.0050 -0.8532 -1.2039
 6442SOL    HW230789   2.200   4.643   2.118 -1.1279  1.1714  1.2447
 6443SOL     OW30790   4.460   1.902   3.453 -0.4732  0.3975  0.0014
 6443SOL    HW130791   4.525   1.842   3.489  1.9757  3.1124  0.0780
 6443SOL    HW230792   4.403   1.845   3.401  1.8477 -0.6396 -1.3876
 6444SOL     OW30793   3.104   4.188   0.357  0.5260  0.2388  0.2158
 6444SOL    HW130794   3.033   4.124   0.364  0.5791  0.1539 -0.0261
 6444SOL    HW230795   3.142   4.164   0.273  2.4723  0.8153  0.9289
 6445SOL     OW30796   0.622   0.725   4.087  0.0583  0.2956 -0.5894
 6445SOL    HW130797   0.580   0.661   4.144  0.1624  1.5270  0.8620
 6445SOL    HW230798   0.566   0.715   4.010  0.2528 -0.2332 -0.6650
 6446SOL     OW30799   1.826   1.706   3.817  0.1408  0.0612  0.0037
 6446SOL    HW130800   1.860   1.753   3.740 -3.6554  3.7320  0.5465
 6446SOL    HW230801   1.732   1.723   3.805  0.3565 -0.1944 -2.0220
 6447SOL     OW30802   4.506   4.340   2.058 -0.1180 -0.6253  0.6101
 6447SOL    HW130803   4.522   4.404   1.989  1.3250 -0.7756  0.7937
 6447SOL    HW230804   4.481   4.393   2.134  0.7990 -0.7862  1.0270
 6448SOL     OW30805   1.702   3.642  15.289 -0.5672 -0.1758  0.7935
 6448SOL    HW130806   1.743   3.604  15.367 -0.8277  0.1377  1.0848
 6448SOL    HW230807   1.783   3.645  15.237  0.1152 -2.8720  1.7474
 6449SOL     OW30808   2.572   3.076  10.623 -0.2747 -0.0653  0.2566
 6449SOL    HW130809   2.602   3.008  10.682 -0.9295  0.5761  1.3346
 6449SOL    HW230810   2.480   3.056  10.602 -0.6825  2.3625 -0.3396
 6450SOL     OW30811   4.072   1.742   9.155  0.4790 -0.1236  0.1723
 6450SOL    HW130812   4.048   1.699   9.236 -0.3867  0.7272  0.3609
 6450SOL    HW230813   3.992   1.792   9.138  0.1531 -0.5308  0.5255
 6451SOL     OW30814   1.396   1.972  10.808 -0.2823  0.2315  0.3929
 6451SOL    HW130815   1.322   1.939  10.858  0.2994 -1.7701 -0.0626
 6451SOL    HW230816   1.353   2.028  10.743 -0.7760 -2.3827 -1.5353
 6452SOL     OW30817   1.684   4.588   4.330  0.1406 -0.1381 -0.0606
 6452SOL    HW130818   1.681   4.666   4.386  0.0711  0.6756 -1.2050
 6452SOL    HW230819   1.653   4.619   4.245 -1.7168  0.7556  0.9457
 6453SOL     OW30820   3.298   3.809  11.396  0.2609  0.0158 -0.3053
 6453SOL    HW130821   3.255   3.732  11.359  1.9654 -0.8173 -0.5288
 6453SOL    HW230822   3.338   3.828  11.311 -1.7795  0.9681 -1.0776
 6454SOL     OW30823   0.134   1.114  16.519 -0.0635  0.6266  0.5575
 6454SOL    HW130824   0.230   1.114  16.521 -0.0544 -0.7139  0.1414
 6454SOL    HW230825   0.114   1.055  16.592  0.2519 -2.0529 -1.5187
 6455SOL     OW30826   2.830   0.562   4.927  0.0925 -0.0035 -0.2358
 6455SOL    HW130827   2.866   0.549   4.839 -0.2245  2.4664 -0.7392
 6455SOL    HW230828   2.753   0.618   4.916 -0.3281 -0.3852  0.7492
 6456SOL     OW30829   1.127   4.075   4.493 -0.2165 -0.2522 -0.2325
 6456SOL    HW130830   1.043   4.075   4.540  0.8336  1.5555  1.6860
 6456SOL    HW230831   1.177   4.024   4.556  0.2247  0.5007  0.0285
 6457SOL     OW30832   0.202   0.748   9.899 -0.1136  0.1459  0.8686
 6457SOL    HW130833   0.147   0.805   9.845  2.7521 -1.6805 -3.9465
 6457SOL    HW230834   0.138   0.716   9.962  0.6473 -0.2890  1.4115
 6458SOL     OW30835   1.669   2.856   8.605  0.4772  0.4344 -0.0285
 6458SOL    HW130836   1.718   2.879   8.526  1.3202 -2.0743 -0.2125
 6458SOL    HW230837   1.730   2.796   8.647 -0.3568 -0.1785  0.3065
 6459SOL     OW30838   4.577   3.603  16.202 -0.2634 -0.1962 -0.7472
 6459SOL    HW130839   4.518   3.542  16.157 -0.7572 -0.9495  0.9248
 6459SOL    HW230840   4.554   3.685  16.159 -0.9001 -0.3670 -0.7444
 6460SOL     OW30841   2.118   0.071   6.269 -1.0111 -0.2533 -0.3998
 6460SOL    HW130842   2.104   4.717   6.217 -1.5903  0.4655 -1.3615
 6460SOL    HW230843   2.168   0.125   6.208  1.9549 -1.0712  1.3481
 6461SOL     OW30844   3.422   0.646   8.798 -0.2528  0.3545  0.1629
 6461SOL    HW130845   3.470   0.637   8.881 -1.2321  2.1935  0.9233
 6461SOL    HW230846   3.423   0.742   8.797  0.4698  0.3636  1.1445
 6462SOL     OW30847   2.336   4.430   1.024  0.1277 -0.3072  0.5163
 6462SOL    HW130848   2.293   4.515   1.026 -1.2167 -0.9432 -0.7702
 6462SOL    HW230849   2.257   4.379   1.005  0.4163 -0.5544 -0.0260
 6463SOL     OW30850   4.164   2.497   6.874 -0.3979 -0.1747  0.1026
 6463SOL    HW130851   4.121   2.581   6.858  2.1119  1.0785 -0.2079
 6463SOL    HW230852   4.167   2.463   6.784  1.0047  0.5578 -0.1321
 6464SOL     OW30853   4.577   3.627   6.117  0.0982 -0.2372  0.0446
 6464SOL    HW130854   4.498   3.603   6.166 -0.1064 -0.3861 -0.3582
 6464SOL    HW230855   4.562   3.721   6.109 -0.7154 -0.3134  0.6319
 6465SOL     OW30856   1.033   0.744   9.919  0.5848 -0.5728 -0.5007
 6465SOL    HW130857   1.083   0.673   9.960 -1.2599 -1.1151  0.8122
 6465SOL    HW230858   1.096   0.815   9.911 -0.2689  0.0807 -1.3233
 6466SOL     OW30859   3.629   2.191   8.499  0.2750 -0.1195 -0.2394
 6466SOL    HW130860   3.671   2.274   8.479  0.2445  0.3382  1.5798
 6466SOL    HW230861   3.546   2.204   8.453  0.9036  0.8595 -1.0837
 6467SOL     OW30862   2.338   4.441   1.826  0.0645  0.1893 -0.2871
 6467SOL    HW130863   2.332   4.440   1.730  1.9649  0.5196 -0.4135
 6467SOL    HW230864   2.368   4.529   1.845  0.9643  0.8360 -4.7231
 6468SOL     OW30865   1.851   0.933   9.744  0.2326  0.3269 -0.2344
 6468SOL    HW130866   1.886   0.888   9.821 -1.0198  0.2406  0.2797
 6468SOL    HW230867   1.824   1.019   9.778 -1.5793 -0.5546  0.5400
 6469SOL     OW30868   1.210   1.542  16.364 -0.2760 -0.0607  0.3937
 6469SOL    HW130869   1.207   1.530  16.459  0.8851  0.4249  0.5037
 6469SOL    HW230870   1.269   1.474  16.331 -0.3716 -0.0880  0.2813
 6470SOL     OW30871   0.688   4.390  13.606 -0.4654  0.5027  0.4987
 6470SOL    HW130872   0.765   4.380  13.663  1.0840 -0.5384 -1.7471
 6470SOL    HW230873   0.641   4.460  13.650  0.6471 -1.7055  5.1941
 6471SOL     OW30874   4.712   3.906  16.611 -0.1608 -0.2490 -0.2530
 6471SOL    HW130875   4.717   3.938  16.702 -0.1845  1.1891 -0.7502
 6471SOL    HW230876   4.626   3.863  16.608  0.1152 -0.7217 -1.2299
 6472SOL     OW30877   3.063   3.452   7.123  0.6915  0.5029 -0.3324
 6472SOL    HW130878   3.033   3.414   7.041 -0.8300 -0.7805  0.8233
 6472SOL    HW230879   3.111   3.377   7.158 -1.5775 -0.3151  0.9468
 6473SOL     OW30880   4.148   3.829   3.166  0.1782  0.1046 -0.0862
 6473SOL    HW130881   4.125   3.862   3.253 -2.2555  0.1356 -0.7560
 6473SOL    HW230882   4.227   3.881   3.153 -0.4300  0.5394 -2.0445
 6474SOL     OW30883   2.528   2.462   8.302 -0.9659 -0.1767 -0.5590
 6474SOL    HW130884   2.457   2.437   8.244 -1.3605 -0.3091 -0.0134
 6474SOL    HW230885   2.578   2.380   8.303  0.0461  0.4554  2.4958
 6475SOL     OW30886   3.953   3.784  13.271  0.1776 -0.3284 -0.1325
 6475SOL    HW130887   3.976   3.691  13.281 -1.0412 -0.5262  0.8837
 6475SOL    HW230888   3.865   3.790  13.308  0.7877  0.5608  1.1764
 6476SOL     OW30889   3.797   3.700  17.418 -0.9461  0.5392 -0.7269
 6476SOL    HW130890   3.830   3.721  17.331  2.3247 -2.3512 -0.1783
 6476SOL    HW230891   3.833   3.769  17.474 -1.7329 -0.3191  0.8349
 6477SOL     OW30892   0.856   1.673   9.718  0.6443  0.0456  0.1015
 6477SOL    HW130893   0.900   1.753   9.746  0.6901  0.3747 -0.8976
 6477SOL    HW230894   0.848   1.620   9.797  2.2173  0.4855  0.5494
 6478SOL     OW30895   3.375   3.858   7.385  0.1298  0.0740  0.7078
 6478SOL    HW130896   3.382   3.785   7.447 -0.3104 -0.7717 -0.2265
 6478SOL    HW230897   3.311   3.913   7.431 -1.0144 -0.1420 -0.6087
 6479SOL     OW30898   1.134   0.051  10.193 -0.2051  1.0198  0.2149
 6479SOL    HW130899   1.158   0.002  10.272 -0.0396  0.7863  0.0214
 6479SOL    HW230900   1.041   0.030  10.191 -0.0933  0.7274 -2.5536
 6480SOL     OW30901   3.969   0.135   1.208  0.2564 -0.3416 -0.7952
 6480SOL    HW130902   3.996   0.138   1.300 -0.8462 -0.4282 -0.4723
 6480SOL    HW230903   4.014   0.056   1.177  1.4968 -0.1079  0.4190
 6481SOL     OW30904   3.287   2.086  13.399 -0.3652 -0.8031  0.2000
 6481SOL    HW130905   3.272   2.122  13.486 -1.9347  1.2642 -0.9205
 6481SOL    HW230906   3.382   2.078  13.399 -0.0719  2.5911 -1.3909
 6482SOL     OW30907   0.271   2.945   4.016 -0.0038  0.1252  0.0478
 6482SOL    HW130908   0.364   2.930   4.030 -0.5483 -0.1386  3.4551
 6482SOL    HW230909   0.262   3.032   3.977  2.8024  1.0360  1.4587
 6483SOL     OW30910   4.493   3.150   7.738  0.0187 -0.0009  0.6795
 6483SOL    HW130911   4.457   3.097   7.809 -0.7670 -0.5942 -0.1601
 6483SOL    HW230912   4.581   3.113   7.740  0.1123  0.0488 -2.5332
 6484SOL     OW30913   3.432   2.927  13.816 -0.0329 -0.3749  0.1080
 6484SOL    HW130914   3.412   2.834  13.802 -0.0194 -0.4993  0.8968
 6484SOL    HW230915   3.403   2.965  13.733  2.4815 -2.6741 -1.8251
 6485SOL     OW30916   3.720   3.832   5.813  0.3440  0.3390 -0.0291
 6485SOL    HW130917   3.712   3.737   5.817  1.2953  0.3278  1.8399
 6485SOL    HW230918   3.785   3.840   5.883  1.8387 -0.2232 -1.3557
 6486SOL     OW30919   1.875   0.445   0.625 -0.5759  0.2961 -0.1580
 6486SOL    HW130920   1.839   0.484   0.546  1.9058 -0.4431 -1.6448
 6486SOL    HW230921   1.930   0.518   0.652 -1.3696  0.8094  0.0840
 6487SOL     OW30922   1.277   1.928   1.769  0.4644 -0.5239 -0.3320
 6487SOL    HW130923   1.236   1.873   1.836  0.0850  1.4526  1.0601
 6487SOL    HW230924   1.356   1.946   1.820  0.8362  0.5004 -1.2639
 6488SOL     OW30925   1.794   0.985   5.619 -0.0694 -0.4201 -0.4251
 6488SOL    HW130926   1.718   0.955   5.569 -1.0361  0.8724  0.2643
 6488SOL    HW230927   1.862   0.980   5.552 -1.4089 -1.2826 -1.7170
 6489SOL     OW30928   1.971   2.300   5.344 -0.0752  0.1593 -0.1843
 6489SOL    HW130929   2.055   2.320   5.386  0.6865  0.2373 -1.7589
 6489SOL    HW230930   1.994   2.255   5.263  2.7501  2.3728 -0.6164
 6490SOL     OW30931   0.063   3.700   7.936  0.0990  0.8467  0.3948
 6490SOL    HW130932   0.034   3.707   7.845  1.6195 -1.5816 -0.2587
 6490SOL    HW230933   0.143   3.651   7.919 -0.0111  1.2504 -1.3274
 6491SOL     OW30934   2.577   0.013   9.054 -0.1588 -0.3102 -0.0349
 6491SOL    HW130935   2.582   0.023   9.149 -1.3068 -1.5490  0.1536
 6491SOL    HW230936   2.544   0.099   9.026  1.4821 -0.0530 -1.2000
 6492SOL     OW30937   0.195   0.052   0.663  0.1014  0.4227 -0.0564
 6492SOL    HW130938   0.171   0.144   0.654 -1.6870  0.1328  1.7365
 6492SOL    HW230939   0.238   0.054   0.749  0.7943 -0.5476 -0.3818
 6493SOL     OW30940   2.148   1.255   4.999 -0.4613 -0.5273  0.0706
 6493SOL    HW130941   2.212   1.323   4.979 -1.2088  0.6354  1.5920
 6493SOL    HW230942   2.155   1.253   5.095  0.5935 -1.9535 -0.0286
 6494SOL     OW30943   1.409   1.899   9.898 -0.4422  0.3983  0.3997
 6494SOL    HW130944   1.491   1.947   9.883 -0.5924 -0.5761 -3.5926
 6494SOL    HW230945   1.368   1.966   9.953  1.5786  1.0527  1.1077
 6495SOL     OW30946   1.828   1.550  13.920  0.9360 -0.1445 -0.1244
 6495SOL    HW130947   1.793   1.522  14.005 -1.6737  3.1374 -0.1114
 6495SOL    HW230948   1.768   1.491  13.874 -0.4826  0.7021  0.6204
 6496SOL     OW30949   0.344   2.031   6.827 -0.8829 -0.3022  0.6253
 6496SOL    HW130950   0.312   2.088   6.758 -0.6768  0.1759  0.9262
 6496SOL    HW230951   0.262   2.005   6.869 -0.8292  1.1381  1.6257
 6497SOL     OW30952   1.158   1.101   5.474 -0.5164 -0.4230  0.2195
 6497SOL    HW130953   1.105   1.028   5.508  1.5030 -1.1311  1.8365
 6497SOL    HW230954   1.104   1.176   5.499  0.0449  0.1494 -0.2943
 6498SOL     OW30955   4.026   3.522   7.878 -0.0870 -0.4017  0.0779
 6498SOL    HW130956   3.951   3.538   7.820  0.4496 -1.2246 -0.8465
 6498SOL    HW230957   4.091   3.478   7.824 -1.4197 -0.7130 -1.2966
 6499SOL     OW30958   3.715   2.498   1.954 -0.2032  0.0494 -0.6281
 6499SOL    HW130959   3.668   2.568   1.909  0.5726  0.2824 -1.0815
 6499SOL    HW230960   3.721   2.532   2.044 -0.7489 -1.0739 -0.1715
 6500SOL     OW30961   1.094   2.187  15.558 -0.3317  0.1675 -0.5478
 6500SOL    HW130962   1.081   2.157  15.647 -0.6230 -0.1708 -0.7040
 6500SOL    HW230963   1.065   2.278  15.567 -0.0428 -0.0066  1.9486
 6501SOL     OW30964   3.338   2.085  14.304 -0.2535 -0.0010  0.3209
 6501SOL    HW130965   3.292   2.092  14.388 -2.6103 -1.6142 -0.8371
 6501SOL    HW230966   3.398   2.016  14.334 -0.7442 -0.1526  0.9511
 6502SOL     OW30967   3.630   2.360  11.640  0.5076  0.6360  0.1786
 6502SOL    HW130968   3.579   2.279  11.630  1.8160 -0.0753 -0.7412
 6502SOL    HW230969   3.627   2.389  11.549 -1.4729 -0.0978 -0.0016
 6503SOL     OW30970   1.170   3.592  11.107 -0.0148 -0.2231 -0.1077
 6503SOL    HW130971   1.250   3.636  11.136 -0.9479  1.2915  0.1435
 6503SOL    HW230972   1.110   3.665  11.094 -0.5424 -0.6072  0.1606
 6504SOL     OW30973   2.330   4.027   4.930  0.4412 -0.7078  0.0362
 6504SOL    HW130974   2.364   4.019   4.841  1.5814 -2.4275  0.6188
 6504SOL    HW230975   2.381   3.959   4.974  2.2849 -0.0304 -1.0656
 6505SOL     OW30976   3.096   0.950   4.366 -0.2822  0.0033 -0.2396
 6505SOL    HW130977   3.148   1.007   4.309  1.1838 -1.2077 -0.1056
 6505SOL    HW230978   3.023   1.011   4.379 -1.6458 -1.9753  1.2637
 6506SOL     OW30979   2.959   4.431   1.633 -0.1241 -0.5635  0.1195
 6506SOL    HW130980   2.900   4.504   1.651 -1.0637 -1.0969 -0.7324
 6506SOL    HW230981   3.007   4.428   1.715 -1.3291 -1.8705  0.7810
 6507SOL     OW30982   2.825   0.863   7.297 -0.0913 -0.5759  0.1415
 6507SOL    HW130983   2.901   0.834   7.246 -1.2768  1.5193 -2.7892
 6507SOL    HW230984   2.842   0.829   7.386 -2.2494 -0.3855  0.6229
 6508SOL     OW30985   0.691   2.030   5.628 -0.4284  0.6538 -0.4679
 6508SOL    HW130986   0.660   2.092   5.693  1.4245 -0.0654  1.1108
 6508SOL    HW230987   0.785   2.048   5.630 -0.6474  1.8115 -0.6305
 6509SOL     OW30988   2.046   2.961  14.032  0.6648  0.5830  0.4589
 6509SOL    HW130989   2.047   3.054  14.054 -0.1615  0.5784  0.5242
 6509SOL    HW230990   1.958   2.940  14.064  0.5018 -0.8381 -0.9432
 6510SOL     OW30991   0.258   1.860   7.336  0.1425 -0.0293  0.0481
 6510SOL    HW130992   0.289   1.782   7.291  0.1526 -0.2254  0.3986
 6510SOL    HW230993   0.332   1.881   7.395  0.0964 -1.6198  0.6653
 6511SOL     OW30994   4.021   0.741   7.656 -0.1514  0.0402 -0.2111
 6511SOL    HW130995   4.071   0.732   7.575  1.1484  0.4579  0.5473
 6511SOL    HW230996   4.089   0.715   7.717 -0.0907 -1.0362 -0.7394
 6512SOL     OW30997   0.984   3.201   8.821 -0.1721  0.4365  0.1605
 6512SOL    HW130998   0.911   3.141   8.838 -0.9079  1.0692 -0.7572
 6512SOL    HW230999   0.941   3.279   8.786 -3.5961 -1.4640  0.1923
 6513SOL     OW31000   0.735   4.513   8.504 -0.1031  0.2779 -0.0757
 6513SOL    HW131001   0.692   4.518   8.419  2.1957  1.0420 -1.2134
 6513SOL    HW231002   0.825   4.517   8.472 -0.3096 -1.1395 -0.8578
 6514SOL     OW31003   2.678   3.709   7.854  0.0215  0.3808 -0.0513
 6514SOL    HW131004   2.619   3.781   7.829 -2.8475 -2.1539 -0.6334
 6514SOL    HW231005   2.743   3.756   7.907 -0.2058  2.1720 -1.3350
 6515SOL     OW31006   0.648   1.753  14.606  0.0553 -0.5555  0.5520
 6515SOL    HW131007   0.645   1.798  14.522 -2.2200 -0.9082  0.4351
 6515SOL    HW231008   0.741   1.732  14.614  0.2682  0.9278  1.8433
 6516SOL     OW31009   3.226   1.139   8.959 -0.3019 -0.0227  0.1678
 6516SOL    HW131010   3.222   1.199   8.884 -0.3337 -1.2117 -0.7849
 6516SOL    HW231011   3.152   1.083   8.934 -0.2947 -0.2713  0.7106
 6517SOL     OW31012   1.642   3.704  11.022  0.1671 -0.2466 -0.2110
 6517SOL    HW131013   1.697   3.658  10.959 -0.0690 -1.0738  0.1798
 6517SOL    HW231014   1.700   3.699  11.098  2.5112  0.8421 -1.9462
 6518SOL     OW31015   1.468   1.148   2.996  0.2783  0.1488  0.2630
 6518SOL    HW131016   1.397   1.138   3.060 -2.7517  0.6446 -2.9807
 6518SOL    HW231017   1.487   1.055   2.984 -0.1986  0.0200  0.4889
 6519SOL     OW31018   4.523   2.772   7.414 -0.3898 -1.1721 -0.1656
 6519SOL    HW131019   4.568   2.854   7.395 -1.0501 -0.4756  1.2374
 6519SOL    HW231020   4.592   2.706   7.412 -1.0220 -1.8581  0.3280
 6520SOL     OW31021   4.350   2.747   4.605 -0.1039  0.3548 -0.0576
 6520SOL    HW131022   4.439   2.782   4.602 -0.2985  0.8851  0.5630
 6520SOL    HW231023   4.309   2.738   4.519  0.3207  0.5936 -0.2823
 6521SOL     OW31024   1.897   0.670   6.237  0.4483 -0.2795 -0.7404
 6521SOL    HW131025   1.965   0.602   6.229 -0.0780 -1.0392  1.1900
 6521SOL    HW231026   1.829   0.618   6.280  1.0832 -0.2934  0.2601
 6522SOL     OW31027   0.335   3.687  10.911 -0.4198 -0.1379 -0.3857
 6522SOL    HW131028   0.240   3.676  10.907 -0.3104 -0.4067 -2.1031
 6522SOL    HW231029   0.370   3.612  10.960  1.0143 -0.1610 -1.4404
 6523SOL     OW31030   1.479   4.528   4.996  0.3863  0.5530  0.1890
 6523SOL    HW131031   1.409   4.593   5.000 -1.0835 -0.9568 -0.3523
 6523SOL    HW231032   1.445   4.466   4.931  1.1638  0.4068 -0.0781
 6524SOL     OW31033   3.401   0.234   8.603  0.6035 -0.2197 -0.7353
 6524SOL    HW131034   3.429   0.143   8.592  1.0513 -0.1473 -0.2213
 6524SOL    HW231035   3.306   0.223   8.606  0.3847  1.6712 -0.8143
 6525SOL     OW31036   2.599   2.672  16.140  0.3137 -0.2223 -0.2268
 6525SOL    HW131037   2.694   2.676  16.136  0.5024 -1.5079  2.8281
 6525SOL    HW231038   2.588   2.577  16.137 -0.3736 -0.2040  1.6353
 6526SOL     OW31039   4.554   2.935   5.488  0.2577  0.2523  0.3196
 6526SOL    HW131040   4.565   2.884   5.407 -0.0982  0.9279 -0.1582
 6526SOL    HW231041   4.589   3.022   5.466  0.8030 -0.1167 -0.2810
 6527SOL     OW31042   2.912   2.089  12.541 -0.0866 -0.1275  0.1964
 6527SOL    HW131043   2.850   2.053  12.604  0.9472  0.3290  1.4833
 6527SOL    HW231044   2.911   2.181  12.568 -0.3182  0.1177 -0.6366
 6528SOL     OW31045   2.196   3.853   3.632 -0.0301 -0.5141  0.4605
 6528SOL    HW131046   2.215   3.946   3.645 -1.5128  0.1663 -2.2403
 6528SOL    HW231047   2.137   3.833   3.704 -1.8812 -3.1297 -1.7467
 6529SOL     OW31048   4.706   3.188   7.016  0.2579 -0.6228  0.4108
 6529SOL    HW131049   0.003   3.172   6.924 -1.5676 -4.3290  0.6061
 6529SOL    HW231050   4.723   3.100   7.049  0.3974 -1.1933 -1.1626
 6530SOL     OW31051   1.280   2.137   6.066 -0.2693  0.3607 -0.0174
 6530SOL    HW131052   1.329   2.208   6.106  2.1756 -1.9635  1.0881
 6530SOL    HW231053   1.194   2.179   6.056 -0.6504 -0.2477  0.6753
 6531SOL     OW31054   1.435   3.088   8.754 -0.2565  0.7075 -0.0494
 6531SOL    HW131055   1.447   3.163   8.813  1.7702  0.1750  0.2131
 6531SOL    HW231056   1.340   3.081   8.740 -0.3653 -0.4476  1.1554
 6532SOL     OW31057   2.522   1.557   3.640  0.5957  0.3418  0.1861
 6532SOL    HW131058   2.460   1.486   3.655  0.5599  0.7110  1.7164
 6532SOL    HW231059   2.566   1.517   3.564  0.1383  0.0882  0.0566
 6533SOL     OW31060   1.977   2.955   6.392  0.8731  0.5714 -0.3073
 6533SOL    HW131061   2.015   2.909   6.317 -0.7581  1.4915 -1.7078
 6533SOL    HW231062   2.007   3.043   6.373 -1.3043  1.2557 -0.5953
 6534SOL     OW31063   4.396   1.971   0.059 -0.2063 -0.5320 -0.4890
 6534SOL    HW131064   4.491   1.968   0.067 -0.1231 -0.0095 -1.2844
 6534SOL    HW231065   4.366   2.054   0.095  1.0202 -0.8896  1.3106
 6535SOL     OW31066   2.045   2.912   8.830 -0.2364  0.2383 -0.0100
 6535SOL    HW131067   2.041   3.006   8.816 -0.6616  0.1089 -0.7839
 6535SOL    HW231068   2.044   2.877   8.741  1.2778  1.5105 -0.5165
 6536SOL     OW31069   2.885   2.044   0.042 -0.4259  0.0017 -0.1153
 6536SOL    HW131070   2.891   2.139   0.052  0.3819 -0.0369 -0.1904
 6536SOL    HW231071   2.926   2.025   0.127 -0.0682  0.4738 -0.1843
 6537SOL     OW31072   1.875   0.030   2.865 -0.2315 -0.0699  0.4308
 6537SOL    HW131073   1.872   4.667   2.829 -0.1648  0.6955 -1.5002
 6537SOL    HW231074   1.970   0.041   2.877 -0.0746 -0.6187 -0.2985
 6538SOL     OW31075   1.197   1.997  13.413  0.0876 -0.2674  0.0827
 6538SOL    HW131076   1.168   1.921  13.464 -1.1185 -1.7273 -2.7923
 6538SOL    HW231077   1.234   2.051  13.482  1.3287  0.8437 -1.4491
 6539SOL     OW31078   1.425   4.429   8.479 -0.1766  0.8162 -0.4480
 6539SOL    HW131079   1.439   4.336   8.466 -0.2525  0.3723  2.6060
 6539SOL    HW231080   1.491   4.440   8.548 -1.1826  0.4421  0.5698
 6540SOL     OW31081   0.593   4.637   2.625 -0.0859  0.6215  0.1899
 6540SOL    HW131082   0.559   4.709   2.572 -1.7149 -1.7041 -1.9455
 6540SOL    HW231083   0.524   4.622   2.690  0.4485 -0.9624  0.4045
 6541SOL     OW31084   3.567   1.235  13.967 -0.0131  0.7699  0.8375
 6541SOL    HW131085   3.485   1.232  13.918 -0.2293  1.8034  1.1481
 6541SOL    HW231086   3.539   1.226  14.058  0.2482 -2.8739  0.5515
 6542SOL     OW31087   2.150   3.958  11.727  0.1076 -0.9402 -0.6079
 6542SOL    HW131088   2.163   3.864  11.740  0.9074 -1.0349 -2.0572
 6542SOL    HW231089   2.063   3.972  11.763  0.0032  3.5650 -2.5972
 6543SOL     OW31090   2.275   2.137   6.688  0.3915 -0.2995 -0.1278
 6543SOL    HW131091   2.254   2.127   6.595 -0.0563 -0.8512  0.0311
 6543SOL    HW231092   2.228   2.064   6.727  2.5715 -2.8334 -2.2673
 6544SOL     OW31093   4.097   2.687   6.361 -0.2582  0.3082 -0.6810
 6544SOL    HW131094   4.014   2.673   6.406 -1.0302 -0.2420 -2.2609
 6544SOL    HW231095   4.073   2.718   6.274 -0.4100 -0.4334 -0.9077
 6545SOL     OW31096   0.209   4.673   3.749  0.1176 -0.5261  0.3946
 6545SOL    HW131097   0.228   4.612   3.677 -0.5611 -0.1950 -0.0647
 6545SOL    HW231098   0.134   0.001   3.723  0.2843 -0.8406 -0.7539
 6546SOL     OW31099   1.820   2.989  16.485  0.0055  0.3553 -0.1723
 6546SOL    HW131100   1.809   2.895  16.470  0.0384  0.5381 -1.3363
 6546SOL    HW231101   1.765   3.022  16.414 -0.2301  0.4562  0.0603
 6547SOL     OW31102   1.295   4.245   7.068 -0.9122  0.0995  0.1172
 6547SOL    HW131103   1.313   4.152   7.055  2.6826  0.7968  0.1269
 6547SOL    HW231104   1.293   4.242   7.164  1.2346  0.6193  0.1660
 6548SOL     OW31105   2.278   1.495   2.474  0.6268  0.1123  0.0795
 6548SOL    HW131106   2.372   1.482   2.484  0.2633  0.3842  3.8824
 6548SOL    HW231107   2.269   1.550   2.396 -1.6884 -1.0590 -0.4900
 6549SOL     OW31108   0.333   1.189  14.424  0.3972 -0.3097 -0.0687
 6549SOL    HW131109   0.357   1.170  14.515 -1.9914  0.7092  0.7762
 6549SOL    HW231110   0.367   1.107  14.388  1.7498  0.4931 -0.6199
 6550SOL     OW31111   4.579   0.274   6.413 -0.5163 -0.8642  0.1334
 6550SOL    HW131112   4.655   0.225   6.445  0.5233  0.4172 -0.3777
 6550SOL    HW231113   4.515   0.247   6.479 -1.6767  0.4725 -0.4320
 6551SOL     OW31114   0.561   1.937   7.842 -0.1274  0.0511 -0.1804
 6551SOL    HW131115   0.650   1.973   7.849 -0.0405  0.3694 -2.7972
 6551SOL    HW231116   0.528   1.973   7.760 -1.2179 -0.6875 -0.0650
 6552SOL     OW31117   0.270   1.299   4.784  0.0065 -0.2241 -0.3685
 6552SOL    HW131118   0.336   1.358   4.821 -0.2395 -0.6499  0.7360
 6552SOL    HW231119   0.215   1.266   4.855 -2.5165  1.4678 -1.5129
 6553SOL     OW31120   1.821   0.832   4.305  0.4931  0.2440  0.5320
 6553SOL    HW131121   1.887   0.769   4.276  1.8273  2.2772 -0.8787
 6553SOL    HW231122   1.773   0.854   4.225  0.4311 -3.0213 -0.3439
 6554SOL     OW31123   2.150   4.328   2.612 -0.2671 -0.1860 -0.0020
 6554SOL    HW131124   2.190   4.254   2.565  1.0531 -0.2253  1.2159
 6554SOL    HW231125   2.074   4.295   2.659 -1.5973  0.4172 -1.7058
 6555SOL     OW31126   2.609   2.373   8.763 -0.5315 -0.0091  0.3413
 6555SOL    HW131127   2.593   2.279   8.770  0.1467 -0.0993  0.6054
 6555SOL    HW231128   2.701   2.377   8.740 -0.2742 -0.5885  1.2671
 6556SOL     OW31129   0.075   3.988   7.906 -0.4324 -0.2814  0.1477
 6556SOL    HW131130   0.073   3.970   7.812  0.8173  0.8519 -0.0875
 6556SOL    HW231131   0.036   3.907   7.940 -0.6341 -0.2104  0.0869
 6557SOL     OW31132   0.355   0.724  13.601  0.4270  0.4711 -0.5396
 6557SOL    HW131133   0.416   0.797  13.607  0.1519  0.5289  1.5380
 6557SOL    HW231134   0.362   0.697  13.509  0.5404  2.6905 -1.1660
 6558SOL     OW31135   2.979   3.292  17.591  0.0834  0.3864  0.1767
 6558SOL    HW131136   2.990   3.223  17.656 -1.0881  0.0585  0.0217
 6558SOL    HW231137   3.002   3.368  17.643  2.6934  0.0278 -0.4457
 6559SOL     OW31138   3.082   1.416   6.429  0.2685  0.0849 -0.0101
 6559SOL    HW131139   3.098   1.334   6.475 -0.0689 -0.0122 -0.0693
 6559SOL    HW231140   3.072   1.377   6.342 -0.2997  1.5709 -0.6088
 6560SOL     OW31141   4.615   0.038   5.886  0.2515  0.7673  0.5622
 6560SOL    HW131142   4.551   0.075   5.947 -0.3987  0.9946 -0.2686
 6560SOL    HW231143   4.576   0.052   5.800 -0.2269 -4.0602 -0.0198
 6561SOL     OW31144   1.859   0.945  12.335  0.3363 -0.2895 -0.3841
 6561SOL    HW131145   1.850   0.867  12.390  0.8501  1.2889  1.9014
 6561SOL    HW231146   1.832   1.010  12.399  0.3732 -1.1595  0.5083
 6562SOL     OW31147   1.778   0.052   8.978 -0.2166  0.1139 -0.0919
 6562SOL    HW131148   1.807   0.094   9.059  1.8244  0.7729 -1.1591
 6562SOL    HW231149   1.721   0.114   8.933  1.8102  1.8644 -0.2449
 6563SOL     OW31150   4.045   1.228  12.967  0.4116 -0.4686 -0.6228
 6563SOL    HW131151   4.137   1.243  12.945  0.5222 -1.0061 -0.5313
 6563SOL    HW231152   4.010   1.316  12.957  1.0471 -0.0872  0.5724
 6564SOL     OW31153   4.095   2.736   3.298 -0.4064  0.2616  0.3628
 6564SOL    HW131154   4.133   2.653   3.266 -1.0037 -0.2231  0.9049
 6564SOL    HW231155   4.055   2.715   3.382  3.0732 -0.1207  1.9373
 6565SOL     OW31156   4.327   1.967  11.787 -0.0331  0.2960 -0.1961
 6565SOL    HW131157   4.398   2.020  11.824  0.0908 -0.2857  0.4014
 6565SOL    HW231158   4.320   1.895  11.850 -0.9604  1.0295  0.5360
 6566SOL     OW31159   0.046   4.248   7.840 -0.2273 -0.2060 -0.4759
 6566SOL    HW131160   0.084   4.161   7.843  1.1690  0.4542  0.8543
 6566SOL    HW231161   4.705   4.239   7.771  0.7229  0.8182 -1.5297
 6567SOL     OW31162   3.034   1.962   8.562 -0.4084 -0.4793  0.1987
 6567SOL    HW131163   3.002   1.940   8.475 -1.3559 -1.6189  0.8276
 6567SOL    HW231164   3.128   1.974   8.551 -0.6907  0.3127 -1.2670
 6568SOL     OW31165   3.656   2.402   3.750  0.6778 -0.0078  0.2310
 6568SOL    HW131166   3.604   2.411   3.670  1.3242 -0.4347 -0.2353
 6568SOL    HW231167   3.733   2.444   3.712 -0.1255  2.2137  1.0874
 6569SOL     OW31168   1.425   1.939   1.526 -0.2773  0.5001  0.2995
 6569SOL    HW131169   1.373   1.902   1.598  1.2025 -1.3346  0.4396
 6569SOL    HW231170   1.383   1.891   1.455  0.3293 -0.0671  0.3114
 6570SOL     OW31171   4.722   4.165  13.272  0.5016  0.0044  1.0190
 6570SOL    HW131172   0.051   4.159  13.350  0.6055  1.8038  1.0739
 6570SOL    HW231173   0.004   4.260  13.268  1.9369 -0.1544  0.0161
 6571SOL     OW31174   3.682   1.860   0.863 -0.1808 -0.4710 -0.3687
 6571SOL    HW131175   3.623   1.903   0.924 -1.0340 -2.2761  0.0860
 6571SOL    HW231176   3.723   1.793   0.918 -0.1051 -0.3924 -0.3301
 6572SOL     OW31177   4.037   1.329   6.662 -0.3747  0.1206  0.2984
 6572SOL    HW131178   4.099   1.375   6.606 -1.4332 -0.2150 -1.1315
 6572SOL    HW231179   4.096   1.300   6.732 -0.5466 -2.9179 -0.8231
 6573SOL     OW31180   3.514   1.887   7.758  0.3298  0.4050 -0.1381
 6573SOL    HW131181   3.551   1.820   7.700  1.4391  2.3720 -1.7170
 6573SOL    HW231182   3.505   1.958   7.694  3.8562  0.3393 -0.7149
 6574SOL     OW31183   2.311   1.962   3.505  0.0860 -0.0085  0.3350
 6574SOL    HW131184   2.350   1.981   3.420 -0.5884  0.8796  0.2185
 6574SOL    HW231185   2.266   2.046   3.516 -0.8438 -0.2657 -1.4068
 6575SOL     OW31186   1.945   2.911   0.176 -0.1452 -0.8150 -0.1080
 6575SOL    HW131187   1.854   2.885   0.190  0.2047 -1.1662  1.5078
 6575SOL    HW231188   1.971   2.833   0.126  0.6336 -1.0879  0.7116
 6576SOL     OW31189   2.423   4.158   0.396  0.1541 -0.2807  0.2824
 6576SOL    HW131190   2.364   4.083   0.386 -0.8288  0.5452 -0.0023
 6576SOL    HW231191   2.455   4.166   0.306 -0.8462  0.8125  0.0246
 6577SOL     OW31192   0.715   3.080  15.245 -0.1868  0.6639 -0.3805
 6577SOL    HW131193   0.677   3.102  15.330  0.2637 -1.5505  0.3986
 6577SOL    HW231194   0.642   3.046  15.193  0.9259 -0.5114 -1.1797
 6578SOL     OW31195   1.016   4.209   7.717 -0.1687 -0.1930  0.0672
 6578SOL    HW131196   1.031   4.176   7.629 -2.4716 -0.4155 -0.2457
 6578SOL    HW231197   1.094   4.265   7.726  0.0564 -0.8384  2.1354
 6579SOL     OW31198   1.434   4.194  10.058  0.4283 -0.2878 -0.1456
 6579SOL    HW131199   1.420   4.286  10.081 -0.3807 -0.2316 -0.8900
 6579SOL    HW231200   1.348   4.166  10.027 -0.0092  1.5552 -0.5522
 6580SOL     OW31201   2.873   4.674   0.954  0.5603 -0.1935 -0.2518
 6580SOL    HW131202   2.889   4.711   0.867  0.7865  0.1546 -0.0652
 6580SOL    HW231203   2.883   4.581   0.934  0.5944 -0.5164  1.2392
 6581SOL     OW31204   2.779   2.186   2.710  0.0865 -0.2971  0.6608
 6581SOL    HW131205   2.819   2.105   2.741  1.5626 -0.3208 -1.3605
 6581SOL    HW231206   2.852   2.224   2.662 -0.5278  0.2602  0.1717
 6582SOL     OW31207   3.565   0.247   8.360  0.3003 -0.2869 -0.0414
 6582SOL    HW131208   3.551   0.192   8.437 -0.7722 -0.4386 -0.3338
 6582SOL    HW231209   3.582   0.174   8.301 -1.7480 -2.0236  1.4872
 6583SOL     OW31210   3.591   4.011   7.292 -0.1880  0.2039  0.0137
 6583SOL    HW131211   3.529   3.942   7.316 -0.4417  0.9587  1.5514
 6583SOL    HW231212   3.556   4.049   7.211  0.0517 -1.1586 -0.7183
 6584SOL     OW31213   4.077   4.453   3.237 -0.1810 -0.0503  0.3638
 6584SOL    HW131214   4.117   4.503   3.166 -1.8186  1.3544  0.4348
 6584SOL    HW231215   4.156   4.441   3.289  0.2953 -2.6263 -0.9496
 6585SOL     OW31216   4.097   4.385  17.507  0.2561  0.5503  0.0605
 6585SOL    HW131217   4.032   4.315  17.498 -0.2158  0.9731  0.1863
 6585SOL    HW231218   4.160   4.340  17.451  0.0637  2.0236 -1.3585
 6586SOL     OW31219   2.799   2.842   0.102 -0.7960 -0.1542  0.1605
 6586SOL    HW131220   2.823   2.753   0.126 -0.6501 -0.1974 -0.1456
 6586SOL    HW231221   2.740   2.821   0.029  1.7667 -1.0012 -1.6382
 6587SOL     OW31222   3.042   1.551  13.013 -0.1045  0.1077 -0.1317
 6587SOL    HW131223   2.949   1.573  13.012 -0.4334 -1.3074 -0.2660
 6587SOL    HW231224   3.089   1.631  12.991 -1.9242  1.5608  1.2831
 6588SOL     OW31225   1.657   2.712   4.732 -0.2157  0.3590  0.3187
 6588SOL    HW131226   1.735   2.669   4.768 -1.2017 -0.6814  1.2062
 6588SOL    HW231227   1.699   2.793   4.701  1.3701 -1.4497 -2.2488
 6589SOL     OW31228   0.238   2.823   2.108 -0.1356  0.9601 -0.3469
 6589SOL    HW131229   0.313   2.882   2.102  0.9420 -0.2447  1.2588
 6589SOL    HW231230   0.207   2.843   2.197 -1.3971 -0.2060 -0.5231
 6590SOL     OW31231   2.056   0.691   4.215  0.2586  0.3922 -0.2709
 6590SOL    HW131232   2.094   0.759   4.270 -1.0203  0.0550  1.0530
 6590SOL    HW231233   2.117   0.707   4.143  1.8134 -0.5268  0.8601
 6591SOL     OW31234   0.232   4.546   3.486 -0.5704  0.7855  0.3324
 6591SOL    HW131235   0.150   4.495   3.483  1.0313 -1.8462  1.4777
 6591SOL    HW231236   0.259   4.532   3.395  1.0226  1.5059  0.7061
 6592SOL     OW31237   1.241   1.467   6.809  0.4295 -0.4182  0.1892
 6592SOL    HW131238   1.249   1.493   6.718 -0.2383  0.6906  0.4483
 6592SOL    HW231239   1.315   1.505   6.855  0.8780  1.5793 -2.1999
 6593SOL     OW31240   4.533   0.982   5.469 -0.5142 -0.3309  0.5559
 6593SOL    HW131241   4.575   1.003   5.552  0.3882  0.1630 -0.0197
 6593SOL    HW231242   4.573   0.902   5.435 -2.6655 -1.9140  1.7171
 6594SOL     OW31243   3.317   2.862   6.565 -0.5766 -0.1327 -0.2913
 6594SOL    HW131244   3.343   2.928   6.500  1.0244 -0.0009  0.4623
 6594SOL    HW231245   3.222   2.866   6.558 -0.6966 -2.2708  0.0604
 6595SOL     OW31246   3.958   1.559  11.171 -0.0620  0.4111  0.1577
 6595SOL    HW131247   3.987   1.502  11.242 -0.7201 -0.8842 -0.6078
 6595SOL    HW231248   4.033   1.598  11.128 -1.0285  3.3716  1.1405
 6596SOL     OW31249   2.049   3.126   5.244  0.4294  0.0174  0.2035
 6596SOL    HW131250   2.126   3.147   5.297  0.4703  0.9579 -0.2357
 6596SOL    HW231251   2.089   3.133   5.158 -0.8848  0.1518 -0.3910
 6597SOL     OW31252   1.068   2.183   6.971  0.4241 -0.3942  0.3846
 6597SOL    HW131253   1.005   2.182   6.899 -0.1246 -1.7637  0.8849
 6597SOL    HW231254   1.099   2.093   6.960  0.6442 -0.2660 -0.0470
 6598SOL     OW31255   3.464   1.600  12.658 -0.3960 -0.0643  0.1835
 6598SOL    HW131256   3.429   1.515  12.683  0.2286  0.4192  2.6963
 6598SOL    HW231257   3.403   1.630  12.589 -0.4644 -1.3761 -0.3240
 6599SOL     OW31258   1.651   2.020   5.564  0.3996 -0.5004  0.2963
 6599SOL    HW131259   1.659   2.093   5.502  0.3235 -0.8058 -0.0737
 6599SOL    HW231260   1.572   1.974   5.535 -0.2907  0.4500  0.6601
 6600SOL     OW31261   4.224   3.821  14.914  0.1096 -0.5872  0.3459
 6600SOL    HW131262   4.286   3.813  14.841 -1.8565  0.7563 -1.4660
 6600SOL    HW231263   4.271   3.890  14.962  0.3681  0.9776 -2.1391
 6601SOL     OW31264   3.401   3.692   5.625  0.1558 -0.4697 -0.2935
 6601SOL    HW131265   3.313   3.654   5.614 -0.1849 -0.1224  1.1742
 6601SOL    HW231266   3.440   3.635   5.691  0.2667  0.6173  0.5868
 6602SOL     OW31267   4.688   0.271   0.915  0.7510  0.0554  0.4950
 6602SOL    HW131268   4.657   0.236   0.999  0.1114 -2.9582 -1.0140
 6602SOL    HW231269   4.675   0.195   0.859  2.5990 -1.2733  1.8746
 6603SOL     OW31270   1.700   2.415  11.310 -0.6653 -0.0551 -0.3958
 6603SOL    HW131271   1.707   2.435  11.404 -2.0003  0.0433 -0.3118
 6603SOL    HW231272   1.653   2.332  11.305 -0.7159 -0.1438  1.5196
 6604SOL     OW31273   0.616   3.952  11.820  0.6359 -0.2390 -0.5858
 6604SOL    HW131274   0.521   3.943  11.815  0.6649 -0.1191 -1.3285
 6604SOL    HW231275   0.635   3.901  11.899 -0.8902 -1.0017 -0.7245
 6605SOL     OW31276   4.469   1.209  10.141  0.1068  0.3828  0.3358
 6605SOL    HW131277   4.499   1.118  10.137  0.9924  0.7256 -0.9395
 6605SOL    HW231278   4.509   1.236  10.058 -1.3004  0.0535 -0.4505
 6606SOL     OW31279   2.978   3.500   3.405 -0.8267 -0.0109  0.9434
 6606SOL    HW131280   3.063   3.533   3.435 -0.5465  0.1624 -0.0560
 6606SOL    HW231281   2.929   3.575   3.372 -1.4888 -1.8127 -2.2042
 6607SOL     OW31282   3.163   3.702   1.276  0.5087  0.0892  0.3267
 6607SOL    HW131283   3.075   3.688   1.310  0.2457  3.2023  0.9419
 6607SOL    HW231284   3.186   3.789   1.309  1.3549  0.1921 -0.5293
 6608SOL     OW31285   2.111   0.966   9.615 -0.4033  0.7391 -0.3216
 6608SOL    HW131286   2.036   0.944   9.670 -0.0646 -0.8395 -0.4906
 6608SOL    HW231287   2.171   0.898   9.646 -0.2046  0.2651 -1.7411
 6609SOL     OW31288   1.673   2.177   9.006 -0.0967 -0.1303 -0.2007
 6609SOL    HW131289   1.688   2.235   9.080  0.7719 -1.9938  1.0658
 6609SOL    HW231290   1.749   2.201   8.953 -0.7497 -0.0621 -1.1060
 6610SOL     OW31291   0.410   0.430   0.647 -0.1927 -0.1686  0.2258
 6610SOL    HW131292   0.476   0.459   0.710  0.2529 -2.2100  0.6889
 6610SOL    HW231293   0.341   0.411   0.711 -0.7912 -0.7438 -0.5838
 6611SOL     OW31294   1.301   4.123   3.372 -0.0325  0.3191  0.1942
 6611SOL    HW131295   1.309   4.031   3.346  1.9901  0.3976  0.5180
 6611SOL    HW231296   1.393   4.152   3.375 -0.2274  1.0045 -0.3110
 6612SOL     OW31297   2.942   3.012   2.458  0.1739 -0.0842 -0.4038
 6612SOL    HW131298   2.916   3.034   2.547  1.7941 -1.1308  0.3342
 6612SOL    HW231299   2.892   3.071   2.402 -0.0426  0.1505  0.0448
 6613SOL     OW31300   0.259   3.519   7.846 -0.1389  0.0676 -0.5955
 6613SOL    HW131301   0.342   3.516   7.893  0.1190 -1.1238 -1.1366
 6613SOL    HW231302   0.214   3.448   7.892  0.5099  0.0263 -0.0182
 6614SOL     OW31303   0.065   3.237   2.563  0.2391  0.0554 -0.1508
 6614SOL    HW131304   0.028   3.149   2.567 -3.0160  1.4766  0.2110
 6614SOL    HW231305   0.077   3.253   2.469  1.8551  0.4920  0.1221
 6615SOL     OW31306   0.866   0.362   9.430  0.4975 -0.5129 -0.0564
 6615SOL    HW131307   0.910   0.296   9.377  1.0233  0.1419 -0.4359
 6615SOL    HW231308   0.935   0.429   9.436  0.6762 -0.4225 -3.2011
 6616SOL     OW31309   4.235   2.382  11.833 -0.3040 -0.1846 -0.2754
 6616SOL    HW131310   4.329   2.395  11.850 -0.6590  0.7664  0.9530
 6616SOL    HW231311   4.220   2.324  11.907  0.1608 -0.2846 -0.2561
 6617SOL     OW31312   2.333   2.810   6.416  0.0823  0.2322 -0.3663
 6617SOL    HW131313   2.363   2.890   6.459  2.7025 -1.7095  1.3918
 6617SOL    HW231314   2.322   2.755   6.494 -1.6368 -0.3117 -0.9887
 6618SOL     OW31315   3.798   4.384   4.893 -0.2560  0.0473 -0.1675
 6618SOL    HW131316   3.762   4.409   4.978  0.5731 -1.2847  0.5785
 6618SOL    HW231317   3.864   4.452   4.882  1.4688 -1.1323  3.0979
 6619SOL     OW31318   0.059   3.241   4.814 -0.8287 -0.1695 -0.0300
 6619SOL    HW131319   4.703   3.289   4.818 -0.3595  0.8003 -2.1989
 6619SOL    HW231320   0.117   3.312   4.840 -0.5647  0.0141 -1.1071
 6620SOL     OW31321   2.708   0.528   2.420 -0.4481  0.2218  0.1719
 6620SOL    HW131322   2.621   0.566   2.428 -0.2870  0.0633  2.5530
 6620SOL    HW231323   2.765   0.602   2.440 -0.0482  0.7527 -2.9008
 6621SOL     OW31324   4.284   1.569   6.385  0.2220  0.7778 -0.0753
 6621SOL    HW131325   4.303   1.477   6.403 -0.7198  0.6463  0.2556
 6621SOL    HW231326   4.372   1.605   6.396 -0.6161  2.6424  0.5254
 6622SOL     OW31327   2.541   3.917   6.890  0.7198  0.1840  0.2159
 6622SOL    HW131328   2.530   3.972   6.813 -0.2260  0.1850  0.3615
 6622SOL    HW231329   2.636   3.906   6.882  0.3319 -1.5452 -1.9973
 6623SOL     OW31330   1.330   4.581   2.896 -0.1135  0.3179  0.5738
 6623SOL    HW131331   1.426   4.586   2.887 -0.2407  2.1540  0.2885
 6623SOL    HW231332   1.326   4.489   2.868  3.9896  0.8809 -1.8723
 6624SOL     OW31333   2.626   1.927   7.551  0.1865  0.5493  0.5525
 6624SOL    HW131334   2.581   1.850   7.584  1.3950 -1.1286 -1.7453
 6624SOL    HW231335   2.710   1.920   7.596 -0.1635 -0.8503  0.9817
 6625SOL     OW31336   1.899   2.211  12.329 -0.2238 -0.1333  0.5375
 6625SOL    HW131337   1.978   2.195  12.381 -0.9239 -3.9849  0.4043
 6625SOL    HW231338   1.826   2.184  12.384 -1.0444  0.7427 -0.1186
 6626SOL     OW31339   3.040   3.741   6.296  0.3992  0.5202 -0.0599
 6626SOL    HW131340   2.966   3.787   6.258 -0.6149 -1.5562 -0.5912
 6626SOL    HW231341   3.086   3.815   6.336  0.5583  0.1231  0.5002
 6627SOL     OW31342   2.745   3.939  16.363  0.0509  0.1487 -0.0897
 6627SOL    HW131343   2.654   3.916  16.384 -0.3395  1.9770  0.2974
 6627SOL    HW231344   2.758   4.008  16.429  1.7433 -1.2884  1.0690
 6628SOL     OW31345   1.569   0.038   5.741 -0.1015 -0.6016  0.0946
 6628SOL    HW131346   1.614   0.114   5.705 -1.1485 -0.5359 -1.0470
 6628SOL    HW231347   1.487   0.043   5.692  0.3702 -1.6353 -0.7893
 6629SOL     OW31348   3.206   3.207   0.753 -0.4513 -0.0917  0.5080
 6629SOL    HW131349   3.180   3.164   0.834 -1.2390 -0.4408  0.0712
 6629SOL    HW231350   3.155   3.286   0.770 -0.8523  0.1906 -1.9860
 6630SOL     OW31351   1.712   1.545  11.446 -0.0999  0.1985 -0.4485
 6630SOL    HW131352   1.623   1.579  11.458 -0.5663 -0.6630 -1.3845
 6630SOL    HW231353   1.757   1.605  11.505 -1.2682  1.1323 -0.5006
 6631SOL     OW31354   2.313   0.836  11.231  0.0603 -0.0046 -0.0618
 6631SOL    HW131355   2.237   0.783  11.207  0.3536 -0.7641  0.6869
 6631SOL    HW231356   2.313   0.831  11.326  1.1595 -2.1113 -0.1651
 6632SOL     OW31357   0.626   3.709   4.703 -0.4105 -0.5349  0.3804
 6632SOL    HW131358   0.590   3.621   4.708  1.3091 -1.3636 -2.1041
 6632SOL    HW231359   0.663   3.715   4.615 -1.1169  2.7529  0.3113
 6633SOL     OW31360   2.719   3.230   7.717  0.4824 -0.2285  0.0448
 6633SOL    HW131361   2.711   3.276   7.634  1.6236 -1.5485 -0.8125
 6633SOL    HW231362   2.777   3.290   7.764 -2.5269 -0.3162  3.8875
 6634SOL     OW31363   3.249   3.081   3.807 -0.1350 -0.3925  0.4276
 6634SOL    HW131364   3.239   3.079   3.711 -0.1628 -0.0912  0.4232
 6634SOL    HW231365   3.205   2.998   3.823  0.4321 -0.6685  0.5544
 6635SOL     OW31366   2.339   2.520   9.437  0.3858  0.1185  0.2712
 6635SOL    HW131367   2.276   2.503   9.507 -0.2823  1.3997 -0.0293
 6635SOL    HW231368   2.400   2.448   9.454 -1.7657 -1.8406 -0.2205
 6636SOL     OW31369   2.908   4.720   1.720  0.2175  0.2974  0.1166
 6636SOL    HW131370   2.926   4.691   1.809 -2.4427 -1.0796  0.1883
 6636SOL    HW231371   2.896   0.088   1.733  0.1302 -0.0745  2.7829
 6637SOL     OW31372   4.352   0.560   2.208 -0.0513 -0.1965 -0.3912
 6637SOL    HW131373   4.342   0.578   2.114 -2.1487 -0.3852 -0.2067
 6637SOL    HW231374   4.282   0.496   2.219 -1.6537  1.5269 -0.4684
 6638SOL     OW31375   4.471   1.384   7.373 -0.0409 -0.2075 -0.4667
 6638SOL    HW131376   4.457   1.311   7.433 -3.7189  1.2353  0.4254
 6638SOL    HW231377   4.379   1.396   7.351  0.5832  3.7533 -0.9416
 6639SOL     OW31378   4.714   3.496  15.454 -0.4229  1.4246 -0.0844
 6639SOL    HW131379   4.620   3.481  15.463  0.0886 -1.3356  0.4032
 6639SOL    HW231380   4.711   3.586  15.420  0.7596  0.5153 -2.5121
 6640SOL     OW31381   2.162   3.166   5.005 -0.0328  0.2988 -0.2849
 6640SOL    HW131382   2.199   3.251   4.980 -0.6223  0.2042 -1.4912
 6640SOL    HW231383   2.222   3.103   4.964 -0.6262 -1.2993  1.3233
 6641SOL     OW31384   3.459   2.144   7.622 -0.2550 -0.3818  0.4493
 6641SOL    HW131385   3.548   2.175   7.607  0.3459 -0.9872  2.7793
 6641SOL    HW231386   3.433   2.210   7.686 -0.6047  1.5893 -1.7177
 6642SOL     OW31387   3.026   1.829  12.630  0.7329  0.2279  0.0382
 6642SOL    HW131388   3.070   1.879  12.700 -0.7884  1.3965  0.1497
 6642SOL    HW231389   3.091   1.759  12.621  1.2361  0.5503  1.1067
 6643SOL     OW31390   3.099   1.459   4.513  0.8172 -0.7107  0.2921
 6643SOL    HW131391   3.151   1.393   4.559  1.2895 -1.0256 -0.6931
 6643SOL    HW231392   3.097   1.428   4.423 -2.6398 -2.9469  1.1378
 6644SOL     OW31393   3.111   2.790   0.120 -0.4896 -0.0890 -0.5245
 6644SOL    HW131394   3.083   2.757   0.205  1.0721  1.4594  0.6074
 6644SOL    HW231395   3.112   2.706   0.075 -3.2514 -0.1930 -0.3788
 6645SOL     OW31396   1.105   4.436   8.061 -0.1189 -1.0163  0.2034
 6645SOL    HW131397   1.194   4.458   8.032 -0.6494 -0.7363 -1.2244
 6645SOL    HW231398   1.109   4.439   8.157  1.4593  1.2292  0.0568
 6646SOL     OW31399   2.294   2.377   8.477  0.2411  0.3742  0.6949
 6646SOL    HW131400   2.251   2.409   8.557 -0.5651 -2.0476  1.2170
 6646SOL    HW231401   2.221   2.380   8.417 -1.4295 -0.0211  2.7160
 6647SOL     OW31402   1.626   0.082  14.672 -0.0412  0.0109  0.1134
 6647SOL    HW131403   1.675   0.088  14.754  1.7089  1.2459 -1.0169
 6647SOL    HW231404   1.578   0.165  14.672 -1.0191 -0.5564  0.3101
 6648SOL     OW31405   4.632   0.932   1.415  0.2371 -0.3614  0.2277
 6648SOL    HW131406   4.583   0.945   1.334 -0.1136  0.9398  0.6551
 6648SOL    HW231407   4.707   0.880   1.385 -0.5017 -1.7694  0.7935
 6649SOL     OW31408   3.715   1.187   6.158 -0.0243 -0.0532 -0.0502
 6649SOL    HW131409   3.632   1.234   6.145  1.1764  1.8877 -0.7035
 6649SOL    HW231410   3.753   1.229   6.081 -1.8242  0.9051 -0.4320
 6650SOL     OW31411   3.481   3.575   5.372  0.2835  0.0927 -0.1302
 6650SOL    HW131412   3.458   3.506   5.435  2.5994 -1.4789 -0.9919
 6650SOL    HW231413   3.472   3.653   5.426 -3.1653  0.2420 -0.9728
 6651SOL     OW31414   2.909   3.631  14.081 -0.2403  0.7419  0.2911
 6651SOL    HW131415   2.861   3.611  14.161 -0.3728 -2.0094 -0.5010
 6651SOL    HW231416   2.854   3.589  14.016  0.3150 -1.3754  1.1986
 6652SOL     OW31417   3.702   2.007   7.423 -0.6678  0.2220 -0.2670
 6652SOL    HW131418   3.607   2.006   7.425 -0.6350 -1.7758  0.4913
 6652SOL    HW231419   3.727   2.045   7.339  0.2610 -2.6006 -1.2679
 6653SOL     OW31420   1.753   2.115   4.486  0.2968  0.3575  0.0278
 6653SOL    HW131421   1.703   2.056   4.429 -2.3813  2.7440 -0.0674
 6653SOL    HW231422   1.784   2.067   4.563  0.8073  1.7985  0.7190
 6654SOL     OW31423   0.953   1.310  10.307  0.1276 -0.2553 -0.0171
 6654SOL    HW131424   0.954   1.337  10.399 -2.2612 -1.9325  0.4720
 6654SOL    HW231425   0.971   1.216  10.309 -1.1719 -0.5010  0.1098
 6655SOL     OW31426   0.116   0.833  13.722  0.5069  0.6681 -0.7331
 6655SOL    HW131427   0.078   0.886  13.651  0.9554  0.2344 -1.2876
 6655SOL    HW231428   0.205   0.809  13.697  0.7266 -1.6360  2.3874
 6656SOL     OW31429   0.758   4.498  16.868  0.1505  0.4715  0.0667
 6656SOL    HW131430   0.672   4.468  16.899 -0.2236  1.5835  0.1240
 6656SOL    HW231431   0.801   4.538  16.944  2.9456 -0.8173 -0.8420
 6657SOL     OW31432   3.490   2.786   5.139 -0.3265 -0.0421 -0.0202
 6657SOL    HW131433   3.510   2.767   5.047  0.0922  1.5388 -0.2414
 6657SOL    HW231434   3.579   2.789   5.172 -0.2469  0.1248 -0.2475
 6658SOL     OW31435   4.516   2.604  14.830 -0.0691 -0.4922  0.0203
 6658SOL    HW131436   4.482   2.586  14.743  1.2602  1.4025 -0.8799
 6658SOL    HW231437   4.599   2.642  14.802  0.4428 -2.1043 -0.6647
 6659SOL     OW31438   1.014   0.012   3.373  0.1074  0.1405  0.7145
 6659SOL    HW131439   0.953   4.676   3.413  1.8912 -1.4859  0.9699
 6659SOL    HW231440   0.963   0.068   3.315  0.4087 -0.7324 -0.3946
 6660SOL     OW31441   3.897   3.144   5.036 -0.0821 -0.0282  0.2696
 6660SOL    HW131442   3.818   3.119   5.083 -0.1135  2.0554  1.3488
 6660SOL    HW231443   3.937   3.058   5.022 -0.9431  0.2360 -3.8340
 6661SOL     OW31444   3.876   3.959   9.385 -0.0828 -0.6805  0.4799
 6661SOL    HW131445   3.783   3.945   9.403 -0.5853  1.8805 -0.0071
 6661SOL    HW231446   3.876   3.950   9.290  0.6694  0.0917  0.3973
 6662SOL     OW31447   0.929   1.844   5.748 -0.2901 -0.5887  0.0323
 6662SOL    HW131448   0.948   1.861   5.656  2.0858  0.9727  0.8035
 6662SOL    HW231449   0.986   1.907   5.792 -0.8583  0.6600 -1.0197
 6663SOL     OW31450   3.298   2.258   8.860  0.1246 -0.0747  0.3696
 6663SOL    HW131451   3.323   2.292   8.946  0.6822  0.2346  0.0845
 6663SOL    HW231452   3.385   2.241   8.823 -0.8224  0.0365 -1.8605
 6664SOL     OW31453   1.638   0.350   9.962 -0.3685  0.4028 -0.0126
 6664SOL    HW131454   1.699   0.424   9.952  0.0180  0.1398  0.4061
 6664SOL    HW231455   1.608   0.338   9.872  1.2796 -1.8765 -0.2644
 6665SOL     OW31456   1.090   2.870   5.379 -0.3096 -0.0709 -0.4565
 6665SOL    HW131457   1.107   2.813   5.305  2.4754  1.5476 -1.0447
 6665SOL    HW231458   1.177   2.870   5.418  0.2611  0.5109 -1.7575
 6666SOL     OW31459   0.302   2.537  16.148  0.2977  0.1071 -0.2832
 6666SOL    HW131460   0.320   2.469  16.212  0.2944  0.4857  0.1185
 6666SOL    HW231461   0.244   2.589  16.203  1.2885  1.4895 -0.5299
 6667SOL     OW31462   0.451   0.541   5.370 -0.4472  0.4259  0.3580
 6667SOL    HW131463   0.523   0.511   5.316  0.8078  3.0075  0.5661
 6667SOL    HW231464   0.482   0.529   5.460 -2.3135  0.8086  1.0612
 6668SOL     OW31465   0.339   0.687   1.708  0.1926  0.2484 -0.1872
 6668SOL    HW131466   0.322   0.604   1.752  2.3644 -0.0468  0.1128
 6668SOL    HW231467   0.266   0.735   1.746  1.6840  2.4425 -0.1085
 6669SOL     OW31468   0.448   1.987   7.604  0.3654  0.2605  0.7231
 6669SOL    HW131469   0.433   2.061   7.546  1.9979 -0.8693 -1.1235
 6669SOL    HW231470   0.522   1.936   7.571 -0.1659 -1.9360  2.8788
 6670SOL     OW31471   0.815   3.563   5.702 -0.0989 -0.0549  0.5290
 6670SOL    HW131472   0.904   3.570   5.667 -0.8815 -1.7899 -1.7676
 6670SOL    HW231473   0.770   3.520   5.629  2.0974 -1.0071 -0.2480
 6671SOL     OW31474   1.397   2.887   4.331  0.2465 -0.2303 -0.2546
 6671SOL    HW131475   1.316   2.836   4.322  0.7152 -1.4306  2.4693
 6671SOL    HW231476   1.451   2.825   4.380  0.8536  0.9973  0.6121
 6672SOL     OW31477   1.019   3.230  12.348 -0.0319 -0.8756  1.0950
 6672SOL    HW131478   0.952   3.221  12.417 -0.9143 -0.4694  0.2889
 6672SOL    HW231479   1.023   3.139  12.320 -0.8976 -0.3105 -0.8899
 6673SOL     OW31480   2.724   3.496   0.370 -0.1256  0.1678  0.0908
 6673SOL    HW131481   2.685   3.513   0.456  1.7268  2.6482  0.4164
 6673SOL    HW231482   2.763   3.409   0.384  0.3709  0.1509 -1.4126
 6674SOL     OW31483   2.062   4.581   5.345  0.3203 -0.3976  0.1094
 6674SOL    HW131484   2.099   4.502   5.304  2.1379  0.7591 -0.4634
 6674SOL    HW231485   2.027   4.623   5.266  3.8683  1.7280 -0.3257
 6675SOL     OW31486   1.937   1.461   6.024 -0.0056 -0.1965  0.3087
 6675SOL    HW131487   1.927   1.508   6.107 -0.1142  0.3826 -0.0350
 6675SOL    HW231488   1.846   1.464   5.996 -0.7734 -0.4578  2.7932
 6676SOL     OW31489   4.486   2.489  11.593  0.5386 -0.1612  0.0921
 6676SOL    HW131490   4.555   2.469  11.529  0.3537 -2.2249  0.5501
 6676SOL    HW231491   4.426   2.538  11.537  0.9981  0.1403 -0.1391
 6677SOL     OW31492   3.537   0.409   3.715 -0.3255  0.5496  0.0588
 6677SOL    HW131493   3.496   0.380   3.796  0.3782  0.2748  0.3214
 6677SOL    HW231494   3.605   0.470   3.744 -0.5110  0.8509 -0.1442
 6678SOL     OW31495   2.918   3.538   7.786 -0.5655 -0.6029 -0.1488
 6678SOL    HW131496   2.902   3.629   7.812  0.3508 -0.6647  0.6338
 6678SOL    HW231497   2.945   3.495   7.867 -1.0969  1.3902  1.0735
 6679SOL     OW31498   0.415   0.310  14.822 -0.3263 -0.2357  0.3450
 6679SOL    HW131499   0.363   0.296  14.744  0.9564  0.7886 -0.7019
 6679SOL    HW231500   0.377   0.382  14.872 -2.4638 -1.1757  0.0367
 6680SOL     OW31501   0.101   1.042  14.363  0.0706 -0.6600  0.1987
 6680SOL    HW131502   0.171   1.105  14.378 -0.3704 -0.7595  2.7176
 6680SOL    HW231503   0.109   0.999  14.278  0.1557 -1.2467  0.4982
 6681SOL     OW31504   3.836   2.118   5.595 -0.2585  0.1381  0.1009
 6681SOL    HW131505   3.840   2.208   5.626  0.2915  0.8541 -2.0497
 6681SOL    HW231506   3.751   2.087   5.626 -0.1144 -0.1978  0.1665
 6682SOL     OW31507   1.450   0.899   7.906 -0.1494 -0.2031  0.3534
 6682SOL    HW131508   1.507   0.846   7.849  0.5020  0.5618  0.2915
 6682SOL    HW231509   1.485   0.984   7.880 -1.9377  1.0518  2.1025
 6683SOL     OW31510   0.746   2.963   5.801 -0.2175  0.2536 -0.3237
 6683SOL    HW131511   0.839   2.987   5.791 -0.1869 -0.2304 -1.2353
 6683SOL    HW231512   0.732   2.972   5.706  3.9217 -2.4772 -1.1907
 6684SOL     OW31513   0.171   1.804   6.497 -0.1336  0.2277  0.2791
 6684SOL    HW131514   0.077   1.788   6.496 -0.1937  0.6028 -0.4830
 6684SOL    HW231515   0.205   1.720   6.528  0.6165  0.1063 -0.8660
 6685SOL     OW31516   0.054   3.553   3.216  0.1528  0.0910  0.0556
 6685SOL    HW131517   0.063   3.589   3.127  0.1468  0.2749  0.1290
 6685SOL    HW231518   4.708   3.603   3.256  0.8549  0.5279  0.7629
 6686SOL     OW31519   2.140   2.521   6.498  0.7215 -0.3639  0.1011
 6686SOL    HW131520   2.098   2.462   6.560 -5.0722  1.8058 -1.7603
 6686SOL    HW231521   2.189   2.574   6.561  1.6877  1.0720 -1.8696
 6687SOL     OW31522   2.014   3.620   6.722 -0.0993  0.1565  0.1567
 6687SOL    HW131523   2.016   3.580   6.809  0.8600 -0.1414 -0.0016
 6687SOL    HW231524   1.928   3.582   6.701 -0.3245  0.0278  1.3187
 6688SOL     OW31525   2.607   1.749  14.036  0.8302 -0.0909 -0.2080
 6688SOL    HW131526   2.683   1.724  13.983  1.5629 -1.7288  1.6239
 6688SOL    HW231527   2.551   1.788  13.969 -1.0070  1.5962  2.3093
 6689SOL     OW31528   0.371   1.215   2.645  0.2422 -0.0701 -0.1889
 6689SOL    HW131529   0.315   1.244   2.573 -1.6076 -2.5069  0.2876
 6689SOL    HW231530   0.423   1.150   2.598  0.8406  0.4685 -0.2723
 6690SOL     OW31531   3.328   2.122   3.398  0.0449  0.0220  0.0223
 6690SOL    HW131532   3.298   2.183   3.331  0.0528 -1.0627 -0.9646
 6690SOL    HW231533   3.419   2.112   3.372 -0.0412 -0.7771  0.0237
 6691SOL     OW31534   1.031   0.515   7.419  0.0913  0.0986  0.2935
 6691SOL    HW131535   1.041   0.552   7.507  0.0829  1.0554 -0.1048
 6691SOL    HW231536   0.979   0.437   7.438  1.7100 -1.2797 -1.0182
 6692SOL     OW31537   3.330   0.211   7.708 -0.2280  0.3331 -0.1535
 6692SOL    HW131538   3.280   0.232   7.787  1.4255 -0.6068  1.1291
 6692SOL    HW231539   3.413   0.206   7.754 -1.5016 -0.1730  2.0566
 6693SOL     OW31540   3.115   2.488  11.873 -0.6563  0.1960  0.1378
 6693SOL    HW131541   3.049   2.425  11.843 -0.6689 -0.2195  1.0317
 6693SOL    HW231542   3.154   2.454  11.954 -0.4635  1.4514  0.5826
 6694SOL     OW31543   0.795   1.041   2.498  0.5446 -0.4404 -0.3583
 6694SOL    HW131544   0.744   1.104   2.447  1.5394 -0.8796 -1.8630
 6694SOL    HW231545   0.725   0.996   2.546  0.5959 -0.6823 -0.5142
 6695SOL     OW31546   2.538   1.562   9.033  0.2298  0.6610 -0.5964
 6695SOL    HW131547   2.475   1.491   9.040  2.2528 -1.0456  0.2556
 6695SOL    HW231548   2.535   1.591   8.941 -1.1101  0.8429 -0.4952
 6696SOL     OW31549   1.246   1.019   6.392 -0.1753  0.2264  0.6271
 6696SOL    HW131550   1.192   1.097   6.405 -1.1620 -0.2432 -0.6634
 6696SOL    HW231551   1.197   0.938   6.407 -0.6494  0.1161 -1.6224
 6697SOL     OW31552   4.490   0.398  16.501 -0.0439  0.6442  0.0690
 6697SOL    HW131553   4.551   0.432  16.435 -1.0667  0.0535 -1.1968
 6697SOL    HW231554   4.527   0.312  16.521 -1.2938  0.0934  0.0318
 6698SOL     OW31555   4.218   1.286  13.376  0.9090  0.2373 -0.1349
 6698SOL    HW131556   4.261   1.298  13.292  1.4124 -0.7357 -0.0165
 6698SOL    HW231557   4.287   1.248  13.430 -1.4459 -1.8298  1.3738
 6699SOL     OW31558   2.786   1.208  11.410  0.6491  0.3142 -0.3463
 6699SOL    HW131559   2.811   1.290  11.368  1.3940 -0.9091 -2.3244
 6699SOL    HW231560   2.815   1.214  11.501  0.0385 -1.3083 -0.0314
 6700SOL     OW31561   2.601   0.035   1.247  0.5997 -0.2284  0.0561
 6700SOL    HW131562   2.593   4.726   1.159  0.3875 -0.9016  0.3470
 6700SOL    HW231563   2.680   4.717   1.280  1.2108  1.3666  0.7774
 6701SOL     OW31564   0.152   1.201  16.223 -0.1124  0.4483  0.6146
 6701SOL    HW131565   0.118   1.190  16.312  0.2280 -0.7454  0.6004
 6701SOL    HW231566   0.126   1.292  16.207  0.0399  0.4393  0.3104
 6702SOL     OW31567   2.255   1.521  17.091  0.2899 -0.4645  0.1152
 6702SOL    HW131568   2.233   1.601  17.139 -1.4940  0.5481 -2.3911
 6702SOL    HW231569   2.257   1.458  17.164 -4.1586 -2.1271 -1.2403
 6703SOL     OW31570   2.779   1.021  16.969 -0.5439 -0.3402 -0.3403
 6703SOL    HW131571   2.782   0.944  17.026  0.4034  0.9656  1.3380
 6703SOL    HW231572   2.741   1.083  17.031  0.5903 -1.0068  1.0104
 6704SOL     OW31573   0.517   0.819   1.849  0.0434  0.5342  0.5718
 6704SOL    HW131574   0.442   0.779   1.805 -0.9448  0.7923  1.9981
 6704SOL    HW231575   0.563   0.852   1.773  1.8503  1.4578  2.0549
 6705SOL     OW31576   0.665   3.315  15.768 -0.8251  0.3033 -0.5321
 6705SOL    HW131577   0.629   3.401  15.791 -0.3120  0.8149 -1.6499
 6705SOL    HW231578   0.759   3.330  15.777 -0.5708 -1.9825  0.5865
 6706SOL     OW31579   4.474   3.855   1.248  0.5227  0.0864 -0.2010
 6706SOL    HW131580   4.383   3.854   1.276  0.1722 -0.5907 -1.3530
 6706SOL    HW231581   4.494   3.948   1.253  1.7475 -0.2394  1.0573
 6707SOL     OW31582   0.948   1.937   7.429 -0.3947 -0.0927  0.4593
 6707SOL    HW131583   0.988   1.851   7.441 -0.2774 -0.2154 -0.8475
 6707SOL    HW231584   1.032   1.981   7.435 -0.1581 -0.7803  2.2669
 6708SOL     OW31585   3.554   2.689   4.917 -0.2517 -0.1663 -0.5162
 6708SOL    HW131586   3.594   2.753   4.858  0.9999  0.6467  1.2175
 6708SOL    HW231587   3.504   2.645   4.848 -0.3785 -0.6977 -0.0808
 6709SOL     OW31588   1.385   4.045  11.037 -0.0628 -0.1503  0.4161
 6709SOL    HW131589   1.397   4.089  11.122 -2.6192  0.6969  0.3233
 6709SOL    HW231590   1.400   3.956  11.067  2.0820  0.3660  0.8913
 6710SOL     OW31591   4.559   1.375   8.327  0.4184  0.1223  0.1337
 6710SOL    HW131592   4.625   1.437   8.294 -1.6784  2.9409  1.1906
 6710SOL    HW231593   4.521   1.421   8.402  2.9400  1.3668  0.6703
 6711SOL     OW31594   1.683   4.674   3.349 -0.0841  0.0104  0.1162
 6711SOL    HW131595   1.749   4.615   3.387 -0.8478 -2.2682 -2.0432
 6711SOL    HW231596   1.619   4.664   3.419  0.6447  1.3920  0.9906
 6712SOL     OW31597   3.105   0.670   1.535  0.1365  0.2101  0.0540
 6712SOL    HW131598   3.071   0.702   1.451  1.5660  0.0797 -0.5935
 6712SOL    HW231599   3.110   0.754   1.581  4.7495 -0.0480  0.0496
 6713SOL     OW31600   1.000   2.627   4.608 -0.2204  0.2274  0.0956
 6713SOL    HW131601   1.075   2.569   4.598 -1.9813 -2.3892  2.0491
 6713SOL    HW231602   0.935   2.563   4.578 -1.9637  0.3370  3.6924
 6714SOL     OW31603   1.743   2.020   2.164  0.1977  0.0872 -0.3854
 6714SOL    HW131604   1.696   2.101   2.184  1.5835  0.1677  2.5470
 6714SOL    HW231605   1.830   2.056   2.149  0.2405  0.0986 -0.1081
 6715SOL     OW31606   1.199   3.131   6.029 -0.2005 -0.3673 -0.1908
 6715SOL    HW131607   1.219   3.192   6.099  0.1980 -1.4793  0.6686
 6715SOL    HW231608   1.201   3.198   5.961 -1.2976 -0.4965 -0.3580
 6716SOL     OW31609   4.596   1.965   5.458 -0.2848  0.3789 -0.3219
 6716SOL    HW131610   4.662   2.032   5.471  0.0904  0.5224 -2.9217
 6716SOL    HW231611   4.641   1.884   5.483  1.6138  1.3161 -0.7412
 6717SOL     OW31612   2.318   4.258   0.068  0.3312 -0.3031 -0.1080
 6717SOL    HW131613   2.391   4.213   0.110  0.1964 -1.7497 -1.4228
 6717SOL    HW231614   2.362   4.251  17.689  0.8389  1.2351  0.0351
 6718SOL     OW31615   0.107   2.563   5.328  0.6189  0.7913  0.4452
 6718SOL    HW131616   0.186   2.559   5.382  0.6249 -0.6025  0.3329
 6718SOL    HW231617   0.056   2.634   5.366 -0.1991  0.7694 -0.6129
 6719SOL     OW31618   4.700   0.509   8.283 -0.3862  1.2839 -0.2115
 6719SOL    HW131619   0.031   0.548   8.349  0.1447  1.2803 -0.6695
 6719SOL    HW231620   4.624   0.565   8.296 -0.6899  0.9254 -0.4443
 6720SOL     OW31621   2.027   1.757   7.849 -0.0902 -0.1632  0.1189
 6720SOL    HW131622   2.026   1.663   7.864 -0.4442 -0.3408 -1.0583
 6720SOL    HW231623   2.109   1.784   7.890  0.0055 -1.9565  1.1238
 6721SOL     OW31624   0.561   2.776   7.839 -0.0751  0.0427 -0.3737
 6721SOL    HW131625   0.641   2.828   7.841 -1.4678  2.2654 -2.2577
 6721SOL    HW231626   0.533   2.781   7.930  0.2122  4.1277 -0.5286
 6722SOL     OW31627   3.713   2.991   2.893 -0.2399  0.2439  0.1164
 6722SOL    HW131628   3.788   3.008   2.950  0.6790  1.8637 -1.5744
 6722SOL    HW231629   3.678   2.912   2.935  0.1617  1.4639  2.7371
 6723SOL     OW31630   4.053   3.603   8.876  0.0750  0.5274  0.2124
 6723SOL    HW131631   3.973   3.591   8.926  0.0622  0.5877  0.2063
 6723SOL    HW231632   4.119   3.600   8.945 -0.9846 -0.2837  1.1852
 6724SOL     OW31633   1.214   4.196   8.230  0.5203  0.2386 -0.1056
 6724SOL    HW131634   1.242   4.160   8.315 -0.5092  1.6123  0.8046
 6724SOL    HW231635   1.292   4.244   8.202 -1.4387  1.1812 -3.9000
 6725SOL     OW31636   3.091   1.142   7.224  0.2749 -0.5745  0.3219
 6725SOL    HW131637   3.006   1.143   7.270 -0.2208  0.1975 -0.6048
 6725SOL    HW231638   3.106   1.237   7.221 -0.9718 -0.4388 -1.3364
 6726SOL     OW31639   3.634   0.236  10.915  0.3674 -0.1044 -0.1146
 6726SOL    HW131640   3.644   0.292  10.992 -0.1043 -1.4194  0.9187
 6726SOL    HW231641   3.540   0.223  10.927  0.3404 -1.4164 -1.6958
 6727SOL     OW31642   1.787   4.322   9.159 -0.1640  0.3313  0.3748
 6727SOL    HW131643   1.827   4.318   9.072  0.4601  1.7121  0.5901
 6727SOL    HW231644   1.869   4.318   9.209 -0.3315 -0.8998  0.5558
 6728SOL     OW31645   1.410   0.068   2.137  0.2552 -0.1734 -0.2516
 6728SOL    HW131646   1.318   0.046   2.122  0.8860 -1.5570 -2.0319
 6728SOL    HW231647   1.412   0.158   2.106 -0.2169 -1.0966 -2.9459
 6729SOL     OW31648   1.707   2.525   1.273 -0.3193  0.2670 -0.2449
 6729SOL    HW131649   1.775   2.592   1.265 -0.6172  0.1895 -3.3958
 6729SOL    HW231650   1.643   2.562   1.212 -0.9095  0.1946  0.3287
 6730SOL     OW31651   3.759   4.490   7.188 -0.0267  0.4863  0.1445
 6730SOL    HW131652   3.770   4.395   7.182  0.9575  0.6320 -0.3313
 6730SOL    HW231653   3.665   4.492   7.208 -0.1264  0.3022 -0.2912
 6731SOL     OW31654   2.724   3.416   5.430 -0.2988  0.2500 -0.0237
 6731SOL    HW131655   2.674   3.338   5.456 -1.3173  0.5034 -1.1854
 6731SOL    HW231656   2.647   3.472   5.441 -0.1377  0.1326  1.7188
 6732SOL     OW31657   4.535   2.966  12.471  0.1917  0.1022 -0.0757
 6732SOL    HW131658   4.502   3.025  12.539  1.5967  0.3938  0.3617
 6732SOL    HW231659   4.461   2.908  12.457 -0.1876  0.8940 -1.2675
 6733SOL     OW31660   2.311   1.936  10.457  0.6071  0.6959  0.4392
 6733SOL    HW131661   2.386   1.988  10.485  0.3626  0.1938  2.0187
 6733SOL    HW231662   2.249   1.979  10.515 -2.4962 -2.5199 -0.5040
 6734SOL     OW31663   2.212   4.467  12.658  0.2367  0.2383 -0.3770
 6734SOL    HW131664   2.172   4.446  12.573  0.0336 -0.2074 -0.1686
 6734SOL    HW231665   2.263   4.389  12.679 -0.4354 -0.5290 -1.5756
 6735SOL     OW31666   1.028   0.363   7.806 -0.0456 -0.1732  0.5610
 6735SOL    HW131667   1.016   0.337   7.897  2.4853 -1.8098  0.4307
 6735SOL    HW231668   1.110   0.324   7.773 -0.2046 -0.3223  0.3347
 6736SOL     OW31669   3.370   1.945   8.567  0.1937  0.2948  0.0551
 6736SOL    HW131670   3.366   2.039   8.547  0.9233  0.4314  0.5289
 6736SOL    HW231671   3.411   1.917   8.485 -0.7436  0.8945 -0.6226
 6737SOL     OW31672   0.112   4.517  11.932  0.7122  0.0659  0.3833
 6737SOL    HW131673   0.177   4.567  11.982 -0.4252 -0.8303  2.7150
 6737SOL    HW231674   0.083   4.593  11.881  1.6747  0.5487  0.5583
 6738SOL     OW31675   3.104   1.315  11.135 -0.4140  0.1128  0.1306
 6738SOL    HW131676   3.117   1.387  11.196  0.4230 -0.6465  0.8595
 6738SOL    HW231677   3.014   1.327  11.106  0.2470 -2.4943 -2.9723
 6739SOL     OW31678   4.376   3.395   1.198  0.1568  0.4261  0.1263
 6739SOL    HW131679   4.374   3.438   1.112  0.8267 -1.0396 -0.6293
 6739SOL    HW231680   4.288   3.409   1.231  0.2409 -1.0795  0.9500
 6740SOL     OW31681   3.585   1.865  12.437 -0.2177  0.0594 -0.6170
 6740SOL    HW131682   3.618   1.936  12.381 -1.4581 -0.2062 -1.7040
 6740SOL    HW231683   3.650   1.796  12.427 -2.3485 -1.9755 -0.5419
 6741SOL     OW31684   1.994   0.127   8.374  0.9448 -0.0641 -0.3313
 6741SOL    HW131685   1.944   0.136   8.292  0.1359  1.5332  0.3460
 6741SOL    HW231686   1.999   0.032   8.379  1.9772 -0.0693 -1.3989
 6742SOL     OW31687   2.293   1.963   0.417  0.7234  0.4816  0.7383
 6742SOL    HW131688   2.353   1.948   0.344  0.4918 -1.8536  1.0244
 6742SOL    HW231689   2.292   2.058   0.426 -0.0513  0.5175  0.2519
 6743SOL     OW31690   0.947   2.599   8.938  0.2411 -0.5402 -0.2567
 6743SOL    HW131691   0.950   2.691   8.912 -2.5425  0.0795  1.6275
 6743SOL    HW231692   0.976   2.563   8.854 -0.6216  0.2992 -0.9151
 6744SOL     OW31693   3.096   2.860   3.711 -0.1300 -0.3725  0.4591
 6744SOL    HW131694   3.038   2.809   3.654  0.2733  0.2009 -0.4594
 6744SOL    HW231695   3.183   2.828   3.687 -0.2786  1.9048 -3.1479
 6745SOL     OW31696   4.709   2.950   0.535 -0.2833 -0.4754  0.2229
 6745SOL    HW131697   4.669   2.939   0.449 -1.0229 -0.5767  0.5786
 6745SOL    HW231698   4.647   2.905   0.592 -0.9367 -1.5037 -1.2881
 6746SOL     OW31699   0.005   2.223   6.245  0.5689  0.0953  0.4499
 6746SOL    HW131700   4.678   2.158   6.198  4.0342 -0.5618 -2.5679
 6746SOL    HW231701   4.706   2.306   6.205  0.7684  1.3380  2.9193
 6747SOL     OW31702   2.199   3.113  16.754  0.7513  0.1004 -0.0336
 6747SOL    HW131703   2.144   3.155  16.820  1.0818  0.7792 -0.1906
 6747SOL    HW231704   2.143   3.094  16.679  1.8500 -0.5207 -0.7046
 6748SOL     OW31705   1.851   0.189   1.582 -0.4657  0.2863  0.1824
 6748SOL    HW131706   1.835   0.282   1.597 -3.4986  0.3803 -3.5461
 6748SOL    HW231707   1.778   0.175   1.522 -0.9977 -1.3803  1.1881
 6749SOL     OW31708   2.809   3.234   3.826  0.6032 -0.0558  1.1730
 6749SOL    HW131709   2.868   3.238   3.902  1.6678 -0.2561  0.3710
 6749SOL    HW231710   2.831   3.314   3.780 -3.0588 -1.3092 -2.7496
 6750SOL     OW31711   3.375   1.778   3.232 -0.1389 -0.1107  0.6389
 6750SOL    HW131712   3.303   1.727   3.196  0.6829 -0.5281 -0.4019
 6750SOL    HW231713   3.397   1.844   3.166 -1.3320 -1.1523 -0.7773
 6751SOL     OW31714   0.133   1.806  17.431  0.2333  0.0170  0.2773
 6751SOL    HW131715   0.151   1.786  17.339 -0.5743 -0.1213  0.1561
 6751SOL    HW231716   0.135   1.718  17.469 -1.8636  0.3472  1.1337
 6752SOL     OW31717   0.181   0.713   8.353 -0.3973  0.1645 -0.1655
 6752SOL    HW131718   0.245   0.643   8.338  0.4308  0.7182  0.8048
 6752SOL    HW231719   0.198   0.771   8.279 -0.5612 -0.4623 -0.6960
 6753SOL     OW31720   4.235   1.608   4.679  0.1196 -0.0927  0.3536
 6753SOL    HW131721   4.174   1.613   4.753 -1.0161  0.2637 -0.5990
 6753SOL    HW231722   4.183   1.646   4.608 -0.6870  0.9614  1.5183
 6754SOL     OW31723   2.052   3.209  15.476 -0.2185  0.1087 -0.8701
 6754SOL    HW131724   1.967   3.180  15.441 -0.2978  0.7222 -1.1939
 6754SOL    HW231725   2.059   3.134  15.535  2.0346 -0.6737 -2.1315
 6755SOL     OW31726   3.694   0.551   4.542  0.6140 -0.0889 -0.1257
 6755SOL    HW131727   3.723   0.479   4.486 -0.5884 -0.0193 -0.8335
 6755SOL    HW231728   3.637   0.602   4.484 -1.1564 -0.5760  1.1945
 6756SOL     OW31729   0.688   0.078   8.619 -0.1577 -0.2030  0.3520
 6756SOL    HW131730   0.768   0.076   8.566 -0.2414  1.7187  0.1482
 6756SOL    HW231731   0.648   4.721   8.593  0.0870  0.5123 -2.3493
 6757SOL     OW31732   3.804   1.029   5.142  0.3697 -0.0055  0.2574
 6757SOL    HW131733   3.767   0.962   5.084 -0.1530  1.3665 -1.0011
 6757SOL    HW231734   3.885   1.035   5.091 -0.0291 -2.7217 -0.7294
 6758SOL     OW31735   1.210   0.776   7.992 -0.3328 -0.5798 -0.0564
 6758SOL    HW131736   1.284   0.826   7.957 -1.9944  3.0487  1.6484
 6758SOL    HW231737   1.141   0.840   7.975 -0.4914 -0.0361  2.6348
 6759SOL     OW31738   3.299   4.530   7.010 -0.3109 -0.5343 -0.2861
 6759SOL    HW131739   3.357   4.459   7.037  0.9459  0.9705  1.0298
 6759SOL    HW231740   3.324   4.546   6.919 -2.0332  1.1241 -0.4681
 6760SOL     OW31741   2.535   1.260   0.399  0.2812 -0.3323 -0.4798
 6760SOL    HW131742   2.499   1.206   0.328  0.9185 -1.7112  0.2483
 6760SOL    HW231743   2.573   1.194   0.457 -0.1658  0.7131  1.0063
 6761SOL     OW31744   2.362   0.929   4.162  0.0505 -0.2979  0.5759
 6761SOL    HW131745   2.429   0.899   4.224  1.6557  1.7252 -0.1926
 6761SOL    HW231746   2.394   1.018   4.147 -1.8714  0.8277  3.1722
 6762SOL     OW31747   3.266   1.201  13.985 -0.0629 -0.0351 -0.0163
 6762SOL    HW131748   3.229   1.187  14.072  1.0767 -1.9625  0.1497
 6762SOL    HW231749   3.195   1.259  13.955  0.3504  0.4274 -0.1086
 6763SOL     OW31750   0.683   0.326  11.039  0.5010 -0.0216  0.2995
 6763SOL    HW131751   0.651   0.411  11.068 -1.3622 -0.2484 -1.1373
 6763SOL    HW231752   0.697   0.271  11.116  0.6536 -1.1933 -0.5497
 6764SOL     OW31753   2.866   0.593   8.711 -0.0787  0.2786 -0.1886
 6764SOL    HW131754   2.919   0.592   8.631  2.1457 -0.9228  1.2826
 6764SOL    HW231755   2.930   0.550   8.769 -1.9794  0.8805  2.3691
 6765SOL     OW31756   3.841   3.594   9.457  0.2461  0.3080 -0.4342
 6765SOL    HW131757   3.840   3.500   9.471  0.4698  0.3185 -0.3419
 6765SOL    HW231758   3.797   3.608   9.373  0.2743 -0.2784 -0.5473
 6766SOL     OW31759   1.131   2.187   8.476  0.3456  0.7182  0.2749
 6766SOL    HW131760   1.210   2.218   8.432 -0.1692 -0.1777 -1.2726
 6766SOL    HW231761   1.125   2.098   8.442 -0.4187  1.4168 -1.3935
 6767SOL     OW31762   0.016   4.582   0.665  0.8763  0.3891 -0.1514
 6767SOL    HW131763   4.674   4.644   0.641  0.2931  0.3095  1.3360
 6767SOL    HW231764   0.086   4.645   0.651 -1.2140  2.4882 -1.0988
 6768SOL     OW31765   0.697   1.248   2.364  0.2042  0.3606  0.2092
 6768SOL    HW131766   0.758   1.264   2.293 -1.5649 -1.7970 -1.7827
 6768SOL    HW231767   0.612   1.272   2.327  1.6033  2.4930 -1.5940
 6769SOL     OW31768   0.977   3.801   0.465 -0.3317  0.2952  0.1624
 6769SOL    HW131769   1.027   3.792   0.546  2.0500  1.0655 -1.2189
 6769SOL    HW231770   0.902   3.851   0.498 -0.6577 -0.4349  0.5282
 6770SOL     OW31771   1.766   3.802   3.671  0.7521 -0.1459 -0.2419
 6770SOL    HW131772   1.745   3.872   3.609 -0.0348  0.5791  0.8448
 6770SOL    HW231773   1.860   3.813   3.686  0.9121  0.6122 -1.8659
 6771SOL     OW31774   1.585   1.531   6.351  0.0116 -0.1647  0.7262
 6771SOL    HW131775   1.514   1.476   6.319 -2.1694  1.6949  2.3109
 6771SOL    HW231776   1.593   1.583   6.271 -0.2119 -1.2193  0.0185
 6772SOL     OW31777   3.597   2.121  14.592  0.4063  0.5974 -0.3504
 6772SOL    HW131778   3.590   2.067  14.514 -1.8645 -0.0548  0.3157
 6772SOL    HW231779   3.669   2.077  14.638 -0.4458  0.0483  0.4541
 6773SOL     OW31780   0.158   3.886   6.605 -0.3239 -0.3147 -0.1011
 6773SOL    HW131781   0.202   3.971   6.595 -0.5689 -0.1553  0.1445
 6773SOL    HW231782   0.146   3.874   6.699  1.0710 -1.8059 -0.1210
 6774SOL     OW31783   1.054   2.935   4.080 -0.0456  0.0212 -0.5265
 6774SOL    HW131784   1.096   2.851   4.097 -0.3175  0.0360  0.2294
 6774SOL    HW231785   0.962   2.915   4.060  0.3547 -0.1778 -2.1938
 6775SOL     OW31786   2.758   1.859   2.714  0.9092  0.1956 -0.8646
 6775SOL    HW131787   2.669   1.840   2.686  0.3766  0.3020  0.7727
 6775SOL    HW231788   2.761   1.825   2.803 -3.6572 -2.1496 -1.6022
 6776SOL     OW31789   1.441   4.171   2.424  0.2490  0.1998 -0.1061
 6776SOL    HW131790   1.372   4.238   2.422 -0.3292 -0.4233 -1.0067
 6776SOL    HW231791   1.505   4.203   2.360  3.3897 -2.3507  1.7820
 6777SOL     OW31792   3.424   4.098   5.680 -0.3273  0.0569  0.3411
 6777SOL    HW131793   3.371   4.177   5.689  0.4849  0.7384 -0.8326
 6777SOL    HW231794   3.509   4.134   5.706  1.5324 -2.9674 -1.5840
 6778SOL     OW31795   3.576   0.026   5.052  0.6566 -0.3843 -0.1246
 6778SOL    HW131796   3.569   0.016   4.957 -1.8026 -0.2159  0.0262
 6778SOL    HW231797   3.581   0.121   5.064 -2.0100 -0.2793  0.1667
 6779SOL     OW31798   1.167   2.114   3.149 -0.2153 -0.4325  0.2234
 6779SOL    HW131799   1.225   2.039   3.133  1.1473  0.2536  1.8812
 6779SOL    HW231800   1.209   2.182   3.098 -1.6423 -0.1873 -0.6157
 6780SOL     OW31801   2.132   0.433   5.336 -0.3820 -0.5448 -0.0788
 6780SOL    HW131802   2.079   0.478   5.402 -1.1937 -2.8201  0.8233
 6780SOL    HW231803   2.081   0.453   5.257  1.0105 -1.1299 -1.1316
 6781SOL     OW31804   3.244   2.857   7.610  0.1174  0.1775  0.3607
 6781SOL    HW131805   3.296   2.782   7.639 -0.1474 -0.8903 -1.9099
 6781SOL    HW231806   3.262   2.928   7.671  1.2170  0.8080 -0.7027
 6782SOL     OW31807   3.536   2.913   4.184  0.2982  0.6132 -0.3806
 6782SOL    HW131808   3.584   2.832   4.168  0.6553  0.4634  1.4292
 6782SOL    HW231809   3.559   2.967   4.108 -1.7389 -0.7765 -1.9815
 6783SOL     OW31810   2.817   2.416  15.502 -0.5505  0.5187  0.4868
 6783SOL    HW131811   2.740   2.442  15.451  0.2551  1.5269 -0.2210
 6783SOL    HW231812   2.856   2.354  15.441  0.3024 -0.3514  1.9312
 6784SOL     OW31813   0.367   3.170   2.956 -0.4814 -0.4567  0.2482
 6784SOL    HW131814   0.282   3.199   2.989  0.6665  1.6927  1.3285
 6784SOL    HW231815   0.342   3.094   2.904  3.2364 -1.3536 -0.2382
 6785SOL     OW31816   1.929   0.378  13.538  0.3778  0.7454  0.3753
 6785SOL    HW131817   1.972   0.404  13.619 -1.9937 -0.6614  2.0884
 6785SOL    HW231818   1.989   0.316  13.497 -1.1705 -0.5328  0.0167
 6786SOL     OW31819   2.169   2.654  16.039  0.5755  0.3955 -0.2538
 6786SOL    HW131820   2.248   2.691  16.000 -0.1926  0.5213 -1.6827
 6786SOL    HW231821   2.171   2.706  16.120  1.0705  2.0224 -1.3096
 6787SOL     OW31822   3.085   1.799   4.902 -0.1686  0.6956  0.1033
 6787SOL    HW131823   3.126   1.886   4.908 -1.3378  1.3405 -1.3192
 6787SOL    HW231824   3.086   1.775   4.995 -0.2599  0.5557  0.0678
 6788SOL     OW31825   1.775   1.021   4.545  0.0833  0.1335  0.2277
 6788SOL    HW131826   1.846   1.068   4.500  0.8171 -0.4559  0.7645
 6788SOL    HW231827   1.770   0.957   4.474 -0.7127  2.6377 -2.0036
 6789SOL     OW31828   2.533   0.433  13.515 -0.3999 -0.5187 -0.4045
 6789SOL    HW131829   2.549   0.523  13.488 -0.5972  0.0340  1.3234
 6789SOL    HW231830   2.626   0.408  13.514 -0.0473  0.8049 -1.1572
 6790SOL     OW31831   2.759   0.098   6.450  0.3966  0.0259 -0.2753
 6790SOL    HW131832   2.819   0.168   6.425 -1.4272  1.5732 -0.3008
 6790SOL    HW231833   2.716   0.069   6.369 -1.6219  0.6002  0.5873
 6791SOL     OW31834   4.454   1.674   2.988  0.0146 -0.2103 -0.6297
 6791SOL    HW131835   4.490   1.686   2.901 -2.4343 -0.3803 -1.6458
 6791SOL    HW231836   4.399   1.596   2.975 -0.1287 -0.2465  0.1716
 6792SOL     OW31837   4.256   3.528  14.761  0.2591 -0.1058  0.2561
 6792SOL    HW131838   4.224   3.517  14.851 -0.7613 -1.2693 -0.2594
 6792SOL    HW231839   4.301   3.612  14.771 -2.5819  1.2623  1.4435
 6793SOL     OW31840   2.758   2.837   1.543  0.0766 -0.6622  0.3188
 6793SOL    HW131841   2.838   2.785   1.536  0.8303  0.7349 -1.4400
 6793SOL    HW231842   2.757   2.874   1.455  0.5127 -1.4817 -0.0311
 6794SOL     OW31843   4.688   3.478   0.117  0.8099  0.0283 -0.3134
 6794SOL    HW131844   4.602   3.479   0.160  0.1265 -1.0056 -1.6583
 6794SOL    HW231845   4.719   3.568   0.125 -2.3829  0.9215  1.9538
 6795SOL     OW31846   2.865   3.644   6.996  0.3835 -0.8769  0.5209
 6795SOL    HW131847   2.956   3.675   6.995 -0.3196  1.2202  0.9233
 6795SOL    HW231848   2.820   3.707   6.940 -0.2207  1.4069  3.5962
 6796SOL     OW31849   0.583   2.350   2.646 -0.5819 -0.0478  0.3445
 6796SOL    HW131850   0.520   2.293   2.602  1.1256 -1.2825 -0.4958
 6796SOL    HW231851   0.587   2.304   2.730  0.7813 -2.7487 -1.1784
 6797SOL     OW31852   3.233   0.710   6.532 -0.0800  0.1538  0.1935
 6797SOL    HW131853   3.305   0.662   6.572  0.7787  2.0259  0.8975
 6797SOL    HW231854   3.280   0.752   6.460 -1.7959  2.7572  0.5855
 6798SOL     OW31855   0.987   1.726   6.164  0.9385 -0.5749 -0.7795
 6798SOL    HW131856   1.029   1.809   6.184 -0.8193  0.1070  0.0393
 6798SOL    HW231857   0.910   1.743   6.218 -0.0380 -4.0180 -1.0714
 6799SOL     OW31858   0.183   1.482   1.441 -0.0396  0.2508  0.4805
 6799SOL    HW131859   0.242   1.557   1.436 -0.3147  0.4486  0.2244
 6799SOL    HW231860   0.110   1.506   1.498 -1.2407 -1.0097 -0.5208
 6800SOL     OW31861   4.496   1.646   5.989  0.1110 -0.1559  0.2748
 6800SOL    HW131862   4.500   1.557   5.953  0.6188  0.4190 -1.0553
 6800SOL    HW231863   4.589   1.667   5.999  0.5435 -0.9525 -2.2369
 6801SOL     OW31864   1.335   0.718   6.931  0.4250 -0.6934  0.5519
 6801SOL    HW131865   1.373   0.650   6.987  0.0102 -1.8706 -0.5977
 6801SOL    HW231866   1.336   0.793   6.991  0.6367 -0.6861  0.5374
 6802SOL     OW31867   1.423   4.114  11.287  0.2525  0.1074  0.5524
 6802SOL    HW131868   1.494   4.174  11.309 -0.4701  1.6900 -1.3388
 6802SOL    HW231869   1.386   4.126  11.374 -0.3937 -1.7579  0.5252
 6803SOL     OW31870   0.477   2.857   5.143  0.6129 -0.0723  0.0057
 6803SOL    HW131871   0.437   2.770   5.136  0.8581 -0.2460  0.8760
 6803SOL    HW231872   0.567   2.830   5.125 -0.1475 -1.9943 -0.9902
 6804SOL     OW31873   4.148   2.576   7.692 -0.1183  0.0627 -0.0694
 6804SOL    HW131874   4.163   2.484   7.713  2.3109 -0.1413 -2.5824
 6804SOL    HW231875   4.212   2.585   7.621  0.2803 -0.0409  0.2782
 6805SOL     OW31876   2.780   2.416   6.227 -0.5795  0.0877 -0.0830
 6805SOL    HW131877   2.731   2.335   6.240  1.7106 -0.9044  2.5280
 6805SOL    HW231878   2.759   2.467   6.306  0.6674 -3.4858  2.5512
 6806SOL     OW31879   2.237   1.185   8.547  0.2820  0.3721 -0.4244
 6806SOL    HW131880   2.258   1.132   8.470 -1.4582  1.1410 -1.4259
 6806SOL    HW231881   2.230   1.112   8.609  1.1885 -0.8346 -1.7505
 6807SOL     OW31882   4.434   4.625   0.858 -0.1735  0.4239 -0.1187
 6807SOL    HW131883   4.463   4.541   0.893 -0.8751 -0.3538 -1.4293
 6807SOL    HW231884   4.339   4.622   0.863 -0.1938 -1.3174 -1.4230
 6808SOL     OW31885   4.231   4.057   7.846  0.3238  0.0703  0.0418
 6808SOL    HW131886   4.306   4.034   7.791 -0.9857 -1.6515 -1.0202
 6808SOL    HW231887   4.189   3.974   7.867 -0.6822  0.7800  0.8455
 6809SOL     OW31888   1.810   1.909   5.775  0.0714 -0.0287 -0.0162
 6809SOL    HW131889   1.756   1.948   5.706  1.5845 -0.6341 -1.5525
 6809SOL    HW231890   1.791   1.943   5.862 -0.1316 -0.1808 -0.0029
 6810SOL     OW31891   1.872   3.516  12.077  0.7270 -0.5959  0.4633
 6810SOL    HW131892   1.927   3.594  12.072  1.5387 -1.1834  0.2247
 6810SOL    HW231893   1.935   3.444  12.081 -1.1131 -2.3109 -1.7529
 6811SOL     OW31894   0.821   2.172   2.577 -0.1973  0.6814 -0.5078
 6811SOL    HW131895   0.875   2.234   2.528 -1.4318 -0.3691 -3.2141
 6811SOL    HW231896   0.744   2.227   2.596 -1.5758 -1.4171  0.0115
 6812SOL     OW31897   0.754   1.867   9.444 -0.2566  0.1916  0.1306
 6812SOL    HW131898   0.728   1.839   9.357 -0.6631 -1.6066  0.8408
 6812SOL    HW231899   0.686   1.931   9.463  0.3470  0.8278  0.1794
 6813SOL     OW31900   2.159   0.606   1.775  0.0896 -0.5948  0.0085
 6813SOL    HW131901   2.128   0.623   1.686  1.1865 -0.8058 -0.4152
 6813SOL    HW231902   2.248   0.586   1.745  0.9425  3.0906  0.0642
 6814SOL     OW31903   4.486   0.643   3.096  0.5807 -0.1219  0.0722
 6814SOL    HW131904   4.547   0.694   3.043  1.7452 -0.8212  0.7412
 6814SOL    HW231905   4.449   0.704   3.159 -1.3160  1.1184 -2.2327
 6815SOL     OW31906   0.686   2.181   9.081 -0.3056  0.0989 -0.2306
 6815SOL    HW131907   0.729   2.267   9.075  0.4866 -0.1912  1.2562
 6815SOL    HW231908   0.631   2.199   9.158 -1.4650 -2.2299 -0.5243
 6816SOL     OW31909   1.962   4.499   6.935  0.0647  0.1305 -0.3467
 6816SOL    HW131910   1.980   4.439   6.863 -1.3721 -0.2440 -0.4012
 6816SOL    HW231911   1.998   4.582   6.904 -1.9107  1.4600  0.9140
 6817SOL     OW31912   1.180   3.884  17.182  0.1115  0.3003  0.3557
 6817SOL    HW131913   1.222   3.935  17.250 -0.1205  0.0232  0.7073
 6817SOL    HW231914   1.178   3.956  17.118 -0.0763  1.2347  1.4269
 6818SOL     OW31915   0.357   1.334  12.116  0.1781  0.2011 -0.1522
 6818SOL    HW131916   0.433   1.276  12.120  0.2295  0.0788 -2.5740
 6818SOL    HW231917   0.391   1.402  12.057  1.1158 -0.5839 -0.5151
 6819SOL     OW31918   0.294   0.263   8.048 -0.0059 -0.4986 -0.1676
 6819SOL    HW131919   0.298   0.170   8.070  2.1453  0.0420  1.6834
 6819SOL    HW231920   0.348   0.270   7.969 -1.3805 -1.8162 -1.2257
 6820SOL     OW31921   0.497   4.707  16.759 -0.7984 -0.0475 -0.2533
 6820SOL    HW131922   0.423   4.694  16.817 -1.9286  0.4269 -1.5911
 6820SOL    HW231923   0.549   0.036  16.818 -0.3185 -0.0849 -0.6348
 6821SOL     OW31924   0.800   2.889  14.115  0.3673 -0.1557 -0.2758
 6821SOL    HW131925   0.756   2.839  14.046  1.5560 -1.0856 -0.3486
 6821SOL    HW231926   0.749   2.864  14.192  0.3129 -0.3122 -0.3625
 6822SOL     OW31927   3.523   0.236  14.733 -0.6325  0.5078 -0.4153
 6822SOL    HW131928   3.527   0.233  14.637 -1.3811 -0.5206 -0.4275
 6822SOL    HW231929   3.499   0.328  14.736 -2.6399 -0.0654  0.7311
 6823SOL     OW31930   1.327   0.438  13.404  0.6374 -0.6015 -0.2372
 6823SOL    HW131931   1.301   0.526  13.431  0.6464 -0.9567  0.9557
 6823SOL    HW231932   1.339   0.395  13.489 -0.4873 -0.2028  0.1343
 6824SOL     OW31933   0.920   0.369  16.362 -0.1426 -0.5253 -0.5388
 6824SOL    HW131934   0.914   0.423  16.283 -1.2476 -0.4067 -0.3600
 6824SOL    HW231935   0.962   0.438  16.412 -0.6352 -0.7021  0.1163
 6825SOL     OW31936   1.372   3.039   3.044 -0.2685 -0.8631 -0.0818
 6825SOL    HW131937   1.441   3.062   3.107 -0.8489 -0.4127  0.3828
 6825SOL    HW231938   1.324   2.989   3.110  0.3901 -0.2442  0.8604
 6826SOL     OW31939   3.564   3.461  12.727  0.3055 -0.0535 -0.8417
 6826SOL    HW131940   3.618   3.538  12.746  1.8293 -1.2396 -0.3158
 6826SOL    HW231941   3.619   3.395  12.684 -0.9399 -2.1371  0.7792
 6827SOL     OW31942   0.348   4.065   6.530 -0.3170 -0.2559  0.8978
 6827SOL    HW131943   0.424   4.123   6.535 -0.3901  0.0109 -0.9299
 6827SOL    HW231944   0.283   4.126   6.495 -0.5752 -1.0491 -0.0105
 6828SOL     OW31945   2.879   3.771  11.909 -0.3212  0.0840 -0.3187
 6828SOL    HW131946   2.783   3.775  11.910 -0.2786  0.5743  1.2294
 6828SOL    HW231947   2.896   3.815  11.825 -1.7248 -1.6675 -1.5170
 6829SOL     OW31948   0.540   4.423   4.589  0.7656  0.1013 -0.4212
 6829SOL    HW131949   0.471   4.374   4.545  2.2929 -0.5940 -2.0262
 6829SOL    HW231950   0.519   4.514   4.567 -0.3367 -0.1845 -0.5516
 6830SOL     OW31951   2.925   0.962   6.212  0.6589 -0.0678  0.7176
 6830SOL    HW131952   2.943   0.868   6.208  0.3036 -0.1599  1.4413
 6830SOL    HW231953   2.930   0.988   6.120  1.3951 -0.3238  0.6853
 6831SOL     OW31954   4.194   1.209   3.267  0.4698 -0.5965  0.7178
 6831SOL    HW131955   4.231   1.258   3.341 -0.3063 -1.4836  1.6975
 6831SOL    HW231956   4.180   1.273   3.198  0.0233 -0.2111  1.1629
 6832SOL     OW31957   0.388   1.307  13.364  0.3701 -0.2637  0.5543
 6832SOL    HW131958   0.451   1.350  13.306  1.6179 -0.6519  1.6325
 6832SOL    HW231959   0.381   1.216  13.336  2.3983  0.4136 -2.2386
 6833SOL     OW31960   4.634   1.163   5.132  0.0211  0.1071 -0.0530
 6833SOL    HW131961   4.573   1.143   5.203 -0.6498 -0.5892 -0.8220
 6833SOL    HW231962   4.583   1.219   5.073 -0.9518 -0.0169  0.6638
 6834SOL     OW31963   2.250   4.030   5.772 -0.3079 -0.5164 -0.6627
 6834SOL    HW131964   2.195   4.072   5.838 -0.7269  0.7518 -1.8094
 6834SOL    HW231965   2.186   4.031   5.701 -0.7016  1.0683 -0.2951
 6835SOL     OW31966   0.570   2.706  11.302 -0.0971 -0.3435  0.1103
 6835SOL    HW131967   0.641   2.643  11.318  1.6315  1.5087 -0.1896
 6835SOL    HW231968   0.600   2.735  11.216  0.6144 -0.3740  0.3477
 6836SOL     OW31969   0.698   3.619   9.510  0.2174  0.6032 -0.1990
 6836SOL    HW131970   0.711   3.713   9.523 -0.6789  0.5754  0.8740
 6836SOL    HW231971   0.790   3.599   9.527 -0.5245 -0.9975  1.8722
 6837SOL     OW31972   2.989   4.240  11.549 -0.2957  0.1472  1.0377
 6837SOL    HW131973   2.947   4.196  11.623  1.7295 -1.4048  1.2766
 6837SOL    HW231974   2.935   4.198  11.482  0.4933 -1.0704  1.1660
 6838SOL     OW31975   2.294   1.355   9.882 -0.0156 -0.2680 -0.4712
 6838SOL    HW131976   2.297   1.289   9.951 -0.8312 -0.3439 -0.5103
 6838SOL    HW231977   2.256   1.433   9.922 -3.2856 -2.3091  0.4049
 6839SOL     OW31978   2.147   0.017  13.432  0.3018 -0.4638 -0.2490
 6839SOL    HW131979   2.200   4.715  13.507  0.3986  1.5323  0.4365
 6839SOL    HW231980   2.209   0.055  13.369  0.4367 -1.9627 -1.0111
 6840SOL     OW31981   1.407   2.037   7.172 -0.0127 -0.5606  0.7387
 6840SOL    HW131982   1.343   2.003   7.109 -1.2099  0.2572  1.5079
 6840SOL    HW231983   1.475   2.042   7.105 -2.8873  0.4807 -2.1216
 6841SOL     OW31984   1.241   1.236   8.643 -0.2182 -0.3591  0.5711
 6841SOL    HW131985   1.272   1.293   8.572  0.1421  0.2343  1.2093
 6841SOL    HW231986   1.166   1.192   8.601 -1.3531  0.7368  1.4617
 6842SOL     OW31987   3.664   3.215   7.519 -0.2637 -0.3642 -0.6358
 6842SOL    HW131988   3.677   3.137   7.465  2.5532  1.1741 -2.1538
 6842SOL    HW231989   3.749   3.248   7.548 -0.3543 -1.8958  1.3819
 6843SOL     OW31990   4.099   4.448  13.539 -0.4055 -0.3142 -0.4122
 6843SOL    HW131991   4.122   4.461  13.631  0.7481 -0.2325 -0.7132
 6843SOL    HW231992   4.013   4.489  13.544  0.6800  2.1322 -2.0331
 6844SOL     OW31993   4.403   2.938   2.181  0.0651  0.2396 -0.4098
 6844SOL    HW131994   4.344   2.863   2.188  2.5054 -1.6238  0.1966
 6844SOL    HW231995   4.354   3.005   2.132 -2.0303 -0.5545  0.6207
 6845SOL     OW31996   3.253   4.076   9.438  0.0095 -0.0234 -0.1607
 6845SOL    HW131997   3.338   4.121   9.440 -0.5145  0.9334  0.7854
 6845SOL    HW231998   3.260   4.026   9.519 -0.2232  0.6468  0.2757
 6846SOL     OW31999   2.314   1.560   1.252 -0.2166  0.1165 -0.3058
 6846SOL    HW132000   2.329   1.644   1.210  1.4734 -0.0028  0.0626
 6846SOL    HW232001   2.254   1.588   1.322  0.3884 -1.6986  0.9453
 6847SOL     OW32002   3.215   3.392  15.526  0.3882 -0.2387 -0.1855
 6847SOL    HW132003   3.279   3.458  15.553 -0.3003  0.7841 -1.0215
 6847SOL    HW232004   3.136   3.447  15.531  1.6227  1.6036 -1.1727
 6848SOL     OW32005   2.440   4.432  13.644 -0.1566  0.4266 -0.4042
 6848SOL    HW132006   2.496   4.413  13.568  0.1146 -2.8686  0.6264
 6848SOL    HW232007   2.377   4.360  13.641 -1.8975  1.9034  0.9665
 6849SOL     OW32008   2.119   2.800   3.994 -0.0182 -0.2241 -0.0423
 6849SOL    HW132009   2.098   2.884   4.033 -0.7055 -1.9690  3.3644
 6849SOL    HW232010   2.177   2.776   4.066 -2.6642 -1.8150  1.5890
 6850SOL     OW32011   4.670   2.147  14.627  0.0803 -0.2096  0.1835
 6850SOL    HW132012   4.628   2.065  14.649  0.7481 -1.1782 -2.1538
 6850SOL    HW232013   4.697   2.139  14.536  2.9740  1.3836  0.8922
 6851SOL     OW32014   2.902   0.016   9.222 -0.4074 -0.2402 -0.3703
 6851SOL    HW132015   2.969   0.074   9.257 -0.7609  0.1489 -0.3294
 6851SOL    HW232016   2.845   0.032   9.297  0.9336  1.2891  0.3103
 6852SOL     OW32017   2.918   4.128   7.358  0.6293 -0.3964  0.7672
 6852SOL    HW132018   2.873   4.208   7.386  3.0596  0.6726  1.6303
 6852SOL    HW232019   2.860   4.105   7.285 -0.5473  0.6130  1.3690
 6853SOL     OW32020   3.629   3.849   1.943  0.0689 -0.4213  0.1581
 6853SOL    HW132021   3.598   3.924   1.995  0.6097 -0.9831  1.2863
 6853SOL    HW232022   3.567   3.840   1.870  0.1621 -0.9583  0.1476
 6854SOL     OW32023   4.522   4.454   7.893  0.1808  0.0482  0.0510
 6854SOL    HW132024   4.602   4.459   7.945 -0.1778 -0.1951  0.6277
 6854SOL    HW232025   4.553   4.475   7.805 -0.4173  0.0236 -0.1676
 6855SOL     OW32026   0.406   1.813  12.985  0.1894  0.3388  0.2559
 6855SOL    HW132027   0.401   1.858  13.069 -1.4938  2.0997 -0.7814
 6855SOL    HW232028   0.314   1.798  12.963  0.4998 -2.2542  0.6537
 6856SOL     OW32029   4.309   4.167   1.376  0.2779  0.5152 -0.0644
 6856SOL    HW132030   4.403   4.175   1.362  0.4208  0.1598  0.7050
 6856SOL    HW232031   4.311   4.075   1.403 -0.0225  0.4187 -0.3693
 6857SOL     OW32032   2.297   3.707  14.989 -0.0521 -0.0980 -0.1127
 6857SOL    HW132033   2.229   3.653  14.949 -0.0307  0.0476 -0.3503
 6857SOL    HW232034   2.337   3.643  15.048 -1.3401  0.7021  1.6456
 6858SOL     OW32035   4.534   1.998   5.771  0.0107 -0.1812 -0.4376
 6858SOL    HW132036   4.609   2.002   5.831  0.2007  1.3915 -0.7612
 6858SOL    HW232037   4.568   1.930   5.713 -0.5836 -2.5800  2.0828
 6859SOL     OW32038   2.730   0.014   9.477 -0.2356  0.0971  0.4836
 6859SOL    HW132039   2.644   0.009   9.436  0.1806  0.6266 -0.4689
 6859SOL    HW232040   2.715   0.093   9.529 -0.4086  1.2152 -1.2679
 6860SOL     OW32041   3.752   2.878  13.069 -0.3566 -0.3023  0.4655
 6860SOL    HW132042   3.833   2.828  13.073 -0.7346 -0.9133  0.4164
 6860SOL    HW232043   3.760   2.919  13.155 -1.4165  1.5611 -0.3105
 6861SOL     OW32044   3.378   0.124   4.313  0.1261 -0.0963  0.1039
 6861SOL    HW132045   3.442   0.186   4.278  0.3267 -0.6587 -0.5231
 6861SOL    HW232046   3.305   0.183   4.298  1.2176  0.6020 -2.3922
 6862SOL     OW32047   0.852   0.335   3.535 -0.6612 -0.0664  0.1625
 6862SOL    HW132048   0.836   0.253   3.581 -1.2631  0.0623  0.1808
 6862SOL    HW232049   0.875   0.312   3.445 -0.1907  0.5153  0.1377
 6863SOL     OW32050   2.082   4.162   4.883 -0.1474  0.4563 -0.3490
 6863SOL    HW132051   2.175   4.142   4.890 -0.2936  0.1815  0.7502
 6863SOL    HW232052   2.049   4.090   4.828  2.2546 -2.0323  1.4573
 6864SOL     OW32053   2.339   4.237  14.095  0.3438  0.0368 -0.1977
 6864SOL    HW132054   2.289   4.316  14.076 -1.0861 -1.0164 -0.7921
 6864SOL    HW232055   2.316   4.211  14.184  1.4069 -2.2832 -0.6002
 6865SOL     OW32056   3.078   1.919  16.801  0.3732 -0.1322 -0.2688
 6865SOL    HW132057   3.087   1.994  16.742  1.8855 -0.6099 -0.6392
 6865SOL    HW232058   3.125   1.850  16.755  1.1571 -0.4620  1.0181
 6866SOL     OW32059   2.954   2.007   4.426 -0.6709  0.2745 -0.1024
 6866SOL    HW132060   2.919   2.092   4.452 -0.7902  0.6834 -1.6239
 6866SOL    HW232061   2.976   1.964   4.509  1.9755  0.0766 -0.9175
 6867SOL     OW32062   4.626   0.546   2.506 -0.2838  0.0114  0.6548
 6867SOL    HW132063   4.707   0.501   2.483  0.0005  1.4346 -1.0717
 6867SOL    HW232064   4.639   0.556   2.601 -2.6802 -1.9975  1.1980
 6868SOL     OW32065   4.026   3.279  10.688 -0.2310 -0.1834  0.0169
 6868SOL    HW132066   4.084   3.348  10.655  0.8445 -1.0541  0.0929
 6868SOL    HW232067   4.083   3.202  10.690 -3.1046 -2.2980  0.8902
 6869SOL     OW32068   1.962   1.755   7.326 -0.1949  0.0643  0.5204
 6869SOL    HW132069   1.961   1.728   7.418 -0.5744  2.8356  1.3352
 6869SOL    HW232070   2.012   1.836   7.338 -1.0398  0.9586 -1.9304
 6870SOL     OW32071   1.539   1.955   4.744  0.1347  0.2665 -0.1230
 6870SOL    HW132072   1.529   2.045   4.776 -1.8222  0.7557 -2.0586
 6870SOL    HW232073   1.451   1.919   4.755  1.0662 -1.5923  1.2348
 6871SOL     OW32074   3.433   3.722  13.187  0.1636  0.4279  0.2996
 6871SOL    HW132075   3.464   3.810  13.168  0.8791 -0.3394 -2.0440
 6871SOL    HW232076   3.343   3.733  13.156  0.4187  1.5481 -0.0152
 6872SOL     OW32077   4.615   3.342   8.976  0.1927 -0.4117  0.0636
 6872SOL    HW132078   4.696   3.362   9.023 -0.2204 -2.1521  1.5579
 6872SOL    HW232079   4.649   3.281   8.911  0.4301  0.8785 -1.0119
 6873SOL     OW32080   3.148   4.054  17.312 -0.0928  0.5145  0.2061
 6873SOL    HW132081   3.080   4.057  17.380  3.1470 -0.0826  3.5034
 6873SOL    HW232082   3.141   4.133  17.259 -2.6578 -0.3141 -0.6730
 6874SOL     OW32083   0.713   1.070   6.792  0.4643 -0.0618  0.0588
 6874SOL    HW132084   0.759   1.011   6.853  0.7985  0.4725  0.3228
 6874SOL    HW232085   0.665   1.007   6.739  0.4566 -0.4374  0.5086
 6875SOL     OW32086   0.131   4.246  12.060 -0.2535 -0.2029 -0.1452
 6875SOL    HW132087   0.151   4.339  12.070  0.1238 -0.1082 -1.7906
 6875SOL    HW232088   0.212   4.206  12.027  0.7507  0.1059  1.9389
 6876SOL     OW32089   3.104   0.168   3.319 -0.7187  0.1035 -0.0714
 6876SOL    HW132090   3.144   0.207   3.241  1.7522  1.6607  1.9726
 6876SOL    HW232091   3.078   0.082   3.287  0.6345 -0.3556  0.0479
 6877SOL     OW32092   3.404   3.454   1.465  0.1763 -0.7081  0.3808
 6877SOL    HW132093   3.362   3.442   1.380  2.5761 -0.1180 -0.8820
 6877SOL    HW232094   3.362   3.531   1.504 -1.1497 -1.7509  1.0251
 6878SOL     OW32095   0.647   2.064   3.744  0.2642  0.2000 -0.2568
 6878SOL    HW132096   0.627   1.975   3.716  0.6526 -0.7901  2.6631
 6878SOL    HW232097   0.597   2.124   3.687 -0.4059  1.7614  1.9802
 6879SOL     OW32098   3.707   0.598   5.184  0.2403  0.4353  0.4086
 6879SOL    HW132099   3.745   0.614   5.270  0.2917 -3.0599  1.0539
 6879SOL    HW232100   3.732   0.506   5.178 -1.3209  0.0556 -0.1141
 6880SOL     OW32101   3.494   3.319  15.700  0.0501 -0.2446 -0.0185
 6880SOL    HW132102   3.480   3.398  15.647 -1.2773 -0.4426  0.0315
 6880SOL    HW232103   3.506   3.363  15.784 -3.2112  0.6814 -0.0355
 6881SOL     OW32104   0.566   1.810   3.962  0.0458 -0.0851  0.0496
 6881SOL    HW132105   0.532   1.783   4.047  0.8190 -1.2761 -0.0224
 6881SOL    HW232106   0.493   1.855   3.919  1.2802  0.9169 -1.0582
 6882SOL     OW32107   3.664   3.795   4.990 -0.3025  0.2263  0.3686
 6882SOL    HW132108   3.695   3.755   4.909 -1.6084 -1.3896  0.6511
 6882SOL    HW232109   3.666   3.725   5.056 -0.1570 -1.3721 -1.3355
 6883SOL     OW32110   1.175   1.129  10.785 -0.0520  0.4975  0.4560
 6883SOL    HW132111   1.165   1.224  10.793  1.7167  0.7470 -0.3579
 6883SOL    HW232112   1.095   1.092  10.823  2.1880 -3.0787  1.7115
 6884SOL     OW32113   4.480   3.030   2.456  0.2859  0.4085 -0.0856
 6884SOL    HW132114   4.450   2.993   2.372  0.3627 -1.0911  0.5395
 6884SOL    HW232115   4.506   3.117   2.427  0.4225 -0.5609 -2.9179
 6885SOL     OW32116   1.293   4.451  13.617  0.4465 -0.0529 -0.2239
 6885SOL    HW132117   1.303   4.395  13.694  4.1491 -1.3514 -1.6639
 6885SOL    HW232118   1.265   4.396  13.544 -1.2148 -0.5684  0.8052
 6886SOL     OW32119   4.561   1.382   5.937  0.0471 -0.4010 -0.3096
 6886SOL    HW132120   4.650   1.358   5.909  0.1601  0.2797 -0.5422
 6886SOL    HW232121   4.515   1.329   5.873 -1.4651  1.1938 -0.5288
 6887SOL     OW32122   3.200   2.501   7.903 -0.7010  0.3489 -0.0861
 6887SOL    HW132123   3.175   2.511   7.995 -0.1668  1.0743 -0.0214
 6887SOL    HW232124   3.109   2.506   7.876 -1.3585  1.3853  2.2527
 6888SOL     OW32125   0.348   0.191  13.688 -0.3938  0.0655  0.2023
 6888SOL    HW132126   0.354   0.286  13.701 -0.9788  0.3094 -1.3390
 6888SOL    HW232127   0.359   0.201  13.594 -2.0629  0.2868  0.0244
 6889SOL     OW32128   3.841   1.856   2.701  0.7836  0.0873 -0.1196
 6889SOL    HW132129   3.889   1.792   2.647  0.4175 -2.5734  2.7183
 6889SOL    HW232130   3.828   1.921   2.632 -1.7241  1.5822  1.7719
 6890SOL     OW32131   1.076   0.113   4.273 -0.5687 -0.4734 -0.1405
 6890SOL    HW132132   1.044   0.049   4.337  0.2293 -1.0105 -0.2774
 6890SOL    HW232133   1.006   0.177   4.274 -0.6440 -0.5706  0.4984
 6891SOL     OW32134   4.303   3.225   5.326 -0.2173  0.5797 -0.8418
 6891SOL    HW132135   4.211   3.241   5.306 -0.3167  3.2870  1.8154
 6891SOL    HW232136   4.304   3.181   5.411  1.5828 -0.8271 -1.5855
 6892SOL     OW32137   0.157   0.276   5.129 -0.1201 -0.9073 -0.3003
 6892SOL    HW132138   0.201   0.249   5.049  0.6942 -0.3475 -0.0329
 6892SOL    HW232139   0.153   0.195   5.181  0.4416 -0.2838  0.7133
 6893SOL     OW32140   3.293   4.005   6.092 -0.1961 -0.4161 -0.1005
 6893SOL    HW132141   3.253   4.091   6.086  1.5593  0.4008 -0.0334
 6893SOL    HW232142   3.250   3.953   6.024  0.4932  0.7328 -1.4064
 6894SOL     OW32143   4.017   3.741   1.270 -0.4115 -0.6683  0.2920
 6894SOL    HW132144   3.957   3.668   1.285  1.4051 -2.4108 -0.9394
 6894SOL    HW232145   4.083   3.687   1.226 -0.1940  0.5480 -0.8599
 6895SOL     OW32146   1.827   2.614   3.174  0.1504 -0.0590  0.4309
 6895SOL    HW132147   1.821   2.539   3.116  0.3947 -0.0304  0.3690
 6895SOL    HW232148   1.763   2.670   3.131  0.4355 -0.2219 -0.2016
 6896SOL     OW32149   3.435   3.290   6.879  0.0027 -0.7027 -0.4983
 6896SOL    HW132150   3.427   3.199   6.848 -1.7389 -1.1103  1.1227
 6896SOL    HW232151   3.471   3.329   6.799 -1.3462  0.6761 -0.4251
 6897SOL     OW32152   4.721   4.686   4.580 -0.4502 -0.1164  0.1586
 6897SOL    HW132153   4.658   0.024   4.548 -0.4420 -0.0465  0.2806
 6897SOL    HW232154   0.040   4.673   4.497 -0.3027 -0.6672  0.3167
 6898SOL     OW32155   1.512   3.235  10.911 -0.0304 -0.1886 -0.4436
 6898SOL    HW132156   1.557   3.166  10.960 -0.5408  0.2606  0.6307
 6898SOL    HW232157   1.557   3.314  10.941 -2.8707  2.0488 -2.0943
 6899SOL     OW32158   4.625   2.565   2.963  0.3866 -0.3492 -0.1433
 6899SOL    HW132159   4.598   2.505   2.893  2.6353 -1.1367 -0.3192
 6899SOL    HW232160   4.719   2.570   2.948  0.8426 -1.5928  2.1863
 6900SOL     OW32161   3.347   3.012   6.133 -0.6197 -0.3096 -0.4660
 6900SOL    HW132162   3.382   2.981   6.050 -0.4685 -2.2631  0.3305
 6900SOL    HW232163   3.265   2.963   6.141  0.2091 -1.6758 -0.2578
 6901SOL     OW32164   2.051   0.905   8.577  0.5286 -0.0577  0.2712
 6901SOL    HW132165   2.138   0.927   8.544  1.2621  1.3256  3.0663
 6901SOL    HW232166   1.992   0.977   8.557 -0.9241 -1.6049 -1.0109
 6902SOL     OW32167   3.297   2.913  12.896  0.7229 -0.1478  0.0950
 6902SOL    HW132168   3.338   2.996  12.871 -0.2044  1.0547  2.4497
 6902SOL    HW232169   3.204   2.924  12.878  0.5430 -1.9679 -0.0717
 6903SOL     OW32170   4.640   1.617  13.636  0.1395  0.0585  0.4311
 6903SOL    HW132171   4.591   1.549  13.589  0.5609  0.3626 -0.4479
 6903SOL    HW232172   4.568   1.667  13.676 -1.6696 -2.5269  0.4544
 6904SOL     OW32173   2.956   3.978   1.501  0.4725  0.0199  0.1614
 6904SOL    HW132174   2.889   4.046   1.502 -0.4265 -0.8687 -0.8093
 6904SOL    HW232175   3.028   4.025   1.460 -0.1584 -0.0880 -1.0544
 6905SOL     OW32176   3.580   0.611   9.032 -0.1466 -0.3409 -0.3735
 6905SOL    HW132177   3.539   0.535   9.073  0.1940 -1.1225 -1.4792
 6905SOL    HW232178   3.665   0.613   9.077 -0.3183 -0.9617 -0.0201
 6906SOL     OW32179   1.292   3.004   2.779  0.3150 -0.1285 -0.5419
 6906SOL    HW132180   1.302   3.009   2.874 -0.9433 -2.8974 -0.2723
 6906SOL    HW232181   1.206   3.046   2.783 -0.5477 -1.9980  0.0769
 6907SOL     OW32182   2.615   2.186   8.272  0.0050 -0.4690 -0.0536
 6907SOL    HW132183   2.580   2.149   8.191  1.2954  1.9998 -1.7265
 6907SOL    HW232184   2.549   2.154   8.334  0.3234 -0.4636  0.2876
 6908SOL     OW32185   3.618   2.092   6.522 -0.3089 -0.3398 -0.0199
 6908SOL    HW132186   3.581   2.035   6.589 -3.1483 -1.3437 -2.4467
 6908SOL    HW232187   3.562   2.167   6.541 -0.3493 -0.3676 -0.0286
 6909SOL     OW32188   2.242   2.946   9.575 -0.4610  0.2224  1.0158
 6909SOL    HW132189   2.303   2.978   9.642  0.1738 -1.4779  1.2368
 6909SOL    HW232190   2.172   3.010   9.590 -0.9908 -0.3297  0.9234
 6910SOL     OW32191   4.353   2.510   5.835  0.3637  0.2697 -0.4007
 6910SOL    HW132192   4.352   2.536   5.743  1.4707 -0.2019 -0.5461
 6910SOL    HW232193   4.364   2.416   5.826  0.9763  0.1530  1.5584
 6911SOL     OW32194   0.129   4.199   4.436  0.5413 -0.2410 -0.2170
 6911SOL    HW132195   0.129   4.141   4.359  1.1265  1.0417 -1.1903
 6911SOL    HW232196   0.052   4.252   4.414  0.6999 -0.3407 -1.0290
 6912SOL     OW32197   1.459   3.750  15.173  0.3809 -0.0521  0.1568
 6912SOL    HW132198   1.549   3.724  15.191  0.1848  0.1386  1.4157
 6912SOL    HW232199   1.422   3.662  15.182 -0.1863 -0.0696 -2.2973
 6913SOL     OW32200   1.495   1.660   5.137  0.7452 -0.2540  0.2926
 6913SOL    HW132201   1.408   1.637   5.169 -0.1644 -0.2268 -2.2055
 6913SOL    HW232202   1.503   1.635   5.045 -2.5271 -0.6136  0.1053
 6914SOL     OW32203   2.664   0.115   3.201  0.4966  0.0133 -0.3328
 6914SOL    HW132204   2.635   0.145   3.114  1.0529 -0.8735 -0.8283
 6914SOL    HW232205   2.607   0.039   3.211 -0.8630  0.6749 -3.0221
 6915SOL     OW32206   4.422   0.532  16.763  0.0410 -0.4631  0.8580
 6915SOL    HW132207   4.457   0.496  16.844  0.9266  2.5226  1.7724
 6915SOL    HW232208   4.446   0.464  16.699 -0.8819 -0.7233  0.7751
 6916SOL     OW32209   1.317   1.079   8.985  0.5921  0.7597 -0.0650
 6916SOL    HW132210   1.277   1.105   8.902 -2.7041  1.9252  1.9021
 6916SOL    HW232211   1.298   1.157   9.037 -4.4927  0.7992 -1.9930
 6917SOL     OW32212   3.945   0.530   4.336 -0.4776 -0.0310  0.1356
 6917SOL    HW132213   3.983   0.614   4.311  1.2775 -1.1051 -0.8325
 6917SOL    HW232214   4.012   0.471   4.300 -1.1325 -0.4777 -0.3635
 6918SOL     OW32215   0.785   2.133   6.479  0.0517 -0.1189  0.1742
 6918SOL    HW132216   0.694   2.148   6.504 -0.8804 -1.0367 -2.6585
 6918SOL    HW232217   0.783   2.037   6.482  0.0326 -0.1612 -0.9683
 6919SOL     OW32218   1.934   2.191   7.601 -0.2371  0.7157 -0.1966
 6919SOL    HW132219   1.906   2.260   7.662  0.0830 -1.6545  2.6188
 6919SOL    HW232220   2.018   2.184   7.646 -0.1462 -0.6742 -0.5844
 6920SOL     OW32221   2.470   0.719   8.593  0.2005  0.6839 -0.6628
 6920SOL    HW132222   2.560   0.748   8.581 -0.0571  1.1499 -1.4788
 6920SOL    HW232223   2.490   0.636   8.635  0.2830  0.9300 -0.2177
 6921SOL     OW32224   3.241   2.158  10.988 -0.2073 -0.2386  0.2439
 6921SOL    HW132225   3.197   2.241  10.969 -0.4797  0.1158  2.3099
 6921SOL    HW232226   3.317   2.175  10.933 -0.7306  0.9053 -0.1186
 6922SOL     OW32227   0.447   2.951  16.916  0.0078  0.0005 -0.1993
 6922SOL    HW132228   0.371   2.894  16.904  0.9206 -0.8383 -2.0340
 6922SOL    HW232229   0.473   2.983  16.829  1.9227  0.4222  0.5268
 6923SOL     OW32230   4.136   1.324   4.378 -0.1625 -0.5290  0.1505
 6923SOL    HW132231   4.185   1.246   4.403  0.2208 -0.1114  0.6880
 6923SOL    HW232232   4.091   1.347   4.459 -0.7204  2.5918 -1.0324
 6924SOL     OW32233   3.060   1.130   3.938 -0.0721 -0.3436 -0.6674
 6924SOL    HW132234   3.132   1.168   3.888  0.2157  0.3620  0.2890
 6924SOL    HW232235   2.995   1.177   3.887  0.4086  0.9011 -0.1367
 6925SOL     OW32236   2.149   2.708   7.275 -0.8151 -0.3550 -0.0166
 6925SOL    HW132237   2.061   2.684   7.247 -0.9439  0.5196 -0.3674
 6925SOL    HW232238   2.124   2.775   7.339  2.1873 -0.5399  1.3736
 6926SOL     OW32239   3.049   2.278  13.062 -0.3284 -0.8065 -0.5559
 6926SOL    HW132240   2.997   2.206  13.026 -1.1383  0.9300 -2.8711
 6926SOL    HW232241   3.013   2.359  13.028 -1.2558 -1.5844 -1.4228
 6927SOL     OW32242   1.726   1.857   0.810 -0.8441  0.1170 -0.0721
 6927SOL    HW132243   1.652   1.843   0.869 -0.1632 -0.8555  0.5577
 6927SOL    HW232244   1.695   1.815   0.729  0.3272  1.1849 -1.0662
 6928SOL     OW32245   0.993   3.497  12.384  0.2900 -0.0275 -0.0796
 6928SOL    HW132246   0.992   3.403  12.368 -1.2607  0.3049 -1.8198
 6928SOL    HW232247   0.923   3.506  12.449  0.1218 -0.5478 -0.1855
 6929SOL     OW32248   4.312   0.851   4.156 -0.5655  0.1212  0.7283
 6929SOL    HW132249   4.381   0.882   4.097 -1.8952 -0.0817 -0.9263
 6929SOL    HW232250   4.306   0.771   4.103  0.6906 -0.2371  1.1059
 6930SOL     OW32251   0.800   1.813   7.032 -0.3431 -0.0345 -0.2029
 6930SOL    HW132252   0.828   1.723   7.014  0.8365  0.1110  0.9456
 6930SOL    HW232253   0.803   1.856   6.946 -1.3908  0.5326  0.0459
 6931SOL     OW32254   3.280   4.027   0.763  0.2260 -0.3991  0.0741
 6931SOL    HW132255   3.215   3.992   0.824  0.0008  2.3741  1.4302
 6931SOL    HW232256   3.327   3.946   0.744  0.0668 -0.0168 -1.9309
 6932SOL     OW32257   0.756   2.522  11.341 -0.6777 -0.8077 -0.2009
 6932SOL    HW132258   0.776   2.482  11.256  1.1672 -1.9452  0.7663
 6932SOL    HW232259   0.816   2.472  11.396  0.5253  1.5571  0.6254
 6933SOL     OW32260   2.930   4.701   0.004 -0.4502  0.2238 -0.1350
 6933SOL    HW132261   2.986   4.716  17.633  0.9344 -1.5999  0.5383
 6933SOL    HW232262   2.889   0.061   0.017 -1.8856 -0.4941  0.0436
 6934SOL     OW32263   0.169   0.950   0.275 -0.0978 -0.0247 -1.2584
 6934SOL    HW132264   0.143   1.042   0.281 -0.6540 -0.1694 -1.5032
 6934SOL    HW232265   0.141   0.913   0.358  0.8523 -0.5313 -1.1700
 6935SOL     OW32266   3.684   0.134   4.787  0.2659 -0.1959 -0.1421
 6935SOL    HW132267   3.689   0.045   4.751 -0.4118  0.6454 -2.2897
 6935SOL    HW232268   3.775   0.164   4.789 -0.4339  1.8597  0.8387
 6936SOL     OW32269   0.917   1.477   7.697  0.0955 -0.1229 -0.0472
 6936SOL    HW132270   0.940   1.445   7.609  2.1572 -0.7555  0.7169
 6936SOL    HW232271   1.000   1.500   7.740  1.3553 -1.2728 -1.8422
 6937SOL     OW32272   4.220   0.777  15.342 -0.2083 -0.2215  0.0404
 6937SOL    HW132273   4.212   0.815  15.254 -0.8522  1.9437  1.0376
 6937SOL    HW232274   4.208   0.854  15.397  0.6112 -0.3372  0.3774
 6938SOL     OW32275   4.203   1.625   6.726  0.1616  0.0757 -0.0094
 6938SOL    HW132276   4.210   1.718   6.744 -0.7424  0.1601 -0.1309
 6938SOL    HW232277   4.295   1.598   6.718 -0.9014 -3.1426 -1.4858
 6939SOL     OW32278   1.298   4.161   9.035 -0.6191  0.6485 -0.3973
 6939SOL    HW132279   1.211   4.128   9.056  0.3874 -2.0131 -0.4836
 6939SOL    HW232280   1.355   4.096   9.075  2.4126  2.4782 -1.6727
 6940SOL     OW32281   2.075   4.030   7.552  0.0116  0.3431  0.1711
 6940SOL    HW132282   2.046   3.952   7.503 -1.5388  0.9046  0.1943
 6940SOL    HW232283   2.161   4.042   7.512  0.9937  0.5106  2.3419
 6941SOL     OW32284   3.880   3.028   1.371  0.4658 -0.0780 -0.1320
 6941SOL    HW132285   3.966   3.069   1.373  0.8149 -0.7958 -0.3549
 6941SOL    HW232286   3.898   2.941   1.336 -0.5766 -1.3862  2.5472
 6942SOL     OW32287   3.607   4.226   6.397 -0.1449  0.2302 -0.6542
 6942SOL    HW132288   3.646   4.201   6.480  1.3854 -0.6575 -1.6298
 6942SOL    HW232289   3.590   4.318   6.415  2.1689 -0.1167  3.1666
 6943SOL     OW32290   4.342   1.227  11.159  1.2356 -0.2123 -0.2387
 6943SOL    HW132291   4.389   1.258  11.082  2.4926 -1.0156  0.1927
 6943SOL    HW232292   4.400   1.168  11.208  0.7026  0.2675  0.9955
 6944SOL     OW32293   0.704   1.512   8.878  0.0870  0.7473 -0.2949
 6944SOL    HW132294   0.719   1.450   8.949 -1.4271 -0.2785 -0.8657
 6944SOL    HW232295   0.757   1.586   8.907  1.2755 -1.3826  2.8937
 6945SOL     OW32296   0.170   3.883  13.419  0.0474 -0.2903  0.7471
 6945SOL    HW132297   0.187   3.975  13.437  1.3686 -0.8892  2.5303
 6945SOL    HW232298   0.253   3.840  13.438  0.7313 -0.0419 -1.6838
 6946SOL     OW32299   1.426   3.991   4.286  0.2679 -0.0828 -0.4910
 6946SOL    HW132300   1.382   3.906   4.297  1.3882 -0.5289  0.5973
 6946SOL    HW232301   1.398   4.028   4.202 -0.4519  2.8461  1.0479
 6947SOL     OW32302   3.444   1.291   8.928  0.6389  0.1600  0.1718
 6947SOL    HW132303   3.385   1.363   8.904 -2.2460 -2.0521  0.6305
 6947SOL    HW232304   3.383   1.225   8.962  0.0746 -0.4878 -2.0990
 6948SOL     OW32305   3.538   3.204   8.801  0.2029 -0.2032 -0.0618
 6948SOL    HW132306   3.555   3.129   8.744  1.3669 -0.2185  0.2982
 6948SOL    HW232307   3.603   3.180   8.868 -1.1287 -0.0891  1.2625
 6949SOL     OW32308   2.403   1.635  10.042  0.3550 -0.2220  0.1559
 6949SOL    HW132309   2.434   1.662   9.956  0.0438  0.3336  0.2213
 6949SOL    HW232310   2.451   1.552  10.046  0.2520 -0.0582  5.0756
 6950SOL     OW32311   0.342   1.268   3.595  0.2728 -0.0865 -0.4407
 6950SOL    HW132312   0.345   1.200   3.663  0.9259  1.5200  1.1341
 6950SOL    HW232313   0.393   1.236   3.521  0.8778  3.4839 -1.5499
 6951SOL     OW32314   3.968   0.007  11.952  0.1451  0.0336  0.2040
 6951SOL    HW132315   4.053   4.710  11.988  1.1107  2.9213 -0.2397
 6951SOL    HW232316   3.970   4.693  11.864 -0.2380 -0.1465  0.2771
 6952SOL     OW32317   3.735   1.468  15.811 -0.4339  0.0977 -0.1649
 6952SOL    HW132318   3.680   1.435  15.741  2.1611  0.7175 -2.5167
 6952SOL    HW232319   3.722   1.562  15.797 -2.9297 -0.1724  0.3940
 6953SOL     OW32320   1.793   0.478   1.540 -0.4344  0.1044  0.3007
 6953SOL    HW132321   1.837   0.484   1.456  0.5025 -1.1292  0.7004
 6953SOL    HW232322   1.703   0.504   1.522  0.0276  0.9672 -0.7222
 6954SOL     OW32323   1.136   2.078   7.956 -0.1780  0.2679 -0.5839
 6954SOL    HW132324   1.069   2.016   7.929 -0.6854  0.6830 -0.2762
 6954SOL    HW232325   1.184   2.102   7.877  1.4899  0.1430  0.4005
 6955SOL     OW32326   3.111   4.707   1.546 -0.0445 -0.0289 -0.1572
 6955SOL    HW132327   3.039   4.684   1.605  0.4576  1.5523  1.0571
 6955SOL    HW232328   3.119   0.070   1.580  0.4224 -0.9233  2.0709
 6956SOL     OW32329   2.277   4.574   2.261  0.6537  0.0676  0.1474
 6956SOL    HW132330   2.299   4.481   2.261  2.5020  0.5115 -0.1387
 6956SOL    HW232331   2.276   4.584   2.356  2.5286  0.6426  0.1176
 6957SOL     OW32332   2.700   1.228   3.065  0.1737  0.0086  0.0909
 6957SOL    HW132333   2.637   1.215   2.994  1.9510  0.1143 -1.5022
 6957SOL    HW232334   2.777   1.246   3.011 -0.2956  0.7981 -0.3098
 6958SOL     OW32335   3.823   2.063   3.843 -0.4946 -0.3386 -0.5994
 6958SOL    HW132336   3.736   2.062   3.803 -1.3667 -1.5881  1.3425
 6958SOL    HW232337   3.861   1.991   3.794  1.8466  0.4201  0.0991
 6959SOL     OW32338   0.230   0.169   0.045  0.1762  0.8156 -0.6165
 6959SOL    HW132339   0.194   0.173   0.134  2.9421  1.5014  0.4733
 6959SOL    HW232340   0.322   0.195   0.058 -0.0231  1.2527 -0.0561
 6960SOL     OW32341   1.718   2.241   5.710 -0.1069  0.5493 -0.0697
 6960SOL    HW132342   1.799   2.243   5.761  0.0714 -0.1497 -0.3162
 6960SOL    HW232343   1.687   2.150   5.705  1.2669  0.1471 -1.2088
 6961SOL     OW32344   1.684   3.738  10.089  0.1427  0.1680 -0.1008
 6961SOL    HW132345   1.665   3.731   9.996  0.6178  0.6387 -0.2335
 6961SOL    HW232346   1.649   3.827  10.100  0.0586 -0.1201  1.9718
 6962SOL     OW32347   3.604   4.309   3.097 -0.7603  0.1002 -0.0731
 6962SOL    HW132348   3.591   4.372   3.025 -1.1739 -0.2000 -0.2645
 6962SOL    HW232349   3.699   4.294   3.096 -0.8139 -0.2443  0.2701
 6963SOL     OW32350   4.561   4.049   5.071 -0.9929  0.3214  0.4375
 6963SOL    HW132351   4.609   3.990   5.129 -0.6683  0.6730  0.5252
 6963SOL    HW232352   4.515   4.108   5.131  2.7574  2.3604  1.3027
 6964SOL     OW32353   0.990   1.748  13.525  0.0903  0.1570  0.4133
 6964SOL    HW132354   0.904   1.785  13.545 -0.3792 -0.7796  0.1293
 6964SOL    HW232355   0.989   1.731  13.431  0.5327 -1.4073  0.7022
 6965SOL     OW32356   3.440   4.582   9.609  0.2771 -0.8096  0.2894
 6965SOL    HW132357   3.381   4.593   9.684  0.2051  1.9149 -0.1616
 6965SOL    HW232358   3.405   4.499   9.578  2.2701 -1.1450 -0.9975
 6966SOL     OW32359   4.174   0.490   4.081 -0.2533 -0.0866 -0.3722
 6966SOL    HW132360   4.207   0.556   4.020 -0.5417 -0.4291 -0.9002
 6966SOL    HW232361   4.247   0.428   4.083  0.3002  0.5511 -0.6347
 6967SOL     OW32362   0.348   1.571   7.360  0.7094 -0.1590 -0.0848
 6967SOL    HW132363   0.329   1.602   7.449 -0.4979 -0.3445 -0.2771
 6967SOL    HW232364   0.263   1.547   7.321 -0.3303 -0.8539  2.6200
 6968SOL     OW32365   0.456   2.181   8.021 -0.0530  0.8241  0.1948
 6968SOL    HW132366   0.520   2.116   8.049 -1.8767 -0.4511  1.3789
 6968SOL    HW232367   0.483   2.183   7.929  1.2956  0.7546  0.5865
 6969SOL     OW32368   3.193   2.096  12.538  0.0307 -0.1761  0.2691
 6969SOL    HW132369   3.182   2.162  12.607 -1.3628  0.3007 -0.4044
 6969SOL    HW232370   3.105   2.062  12.524  0.7520 -2.4236  1.2353
 6970SOL     OW32371   4.145   3.233   5.000  0.0271  0.2545 -0.2323
 6970SOL    HW132372   4.065   3.181   4.996  0.9338 -1.1036 -0.6417
 6970SOL    HW232373   4.126   3.302   4.937 -0.1442  1.5884  1.2773
 6971SOL     OW32374   3.369   3.570  14.222 -0.2502  0.1262  0.6810
 6971SOL    HW132375   3.433   3.581  14.292  1.5089 -1.3871 -0.7107
 6971SOL    HW232376   3.333   3.484  14.245 -1.2191  0.4444  0.3555
 6972SOL     OW32377   0.389   0.075  16.383 -0.2072 -0.3537 -0.1026
 6972SOL    HW132378   0.322   0.070  16.452  1.0277 -1.7924  0.9793
 6972SOL    HW232379   0.329   0.098  16.312 -0.6320 -0.9626  0.0650
 6973SOL     OW32380   3.287   2.279   8.041 -0.1891 -0.0521 -0.2226
 6973SOL    HW132381   3.243   2.221   7.978  0.6966 -1.2567  0.2663
 6973SOL    HW232382   3.303   2.357   7.989  0.2334  0.9538  1.4253
 6974SOL     OW32383   2.936   1.265  16.627  0.2676  0.2072 -0.2058
 6974SOL    HW132384   2.960   1.259  16.535 -0.5321 -0.4650 -0.3745
 6974SOL    HW232385   2.853   1.303  16.597  0.7249  1.1158 -0.3158
 6975SOL     OW32386   1.319   2.173  15.766 -0.3652 -0.3729 -0.0135
 6975SOL    HW132387   1.331   2.099  15.707  0.4412 -0.0395 -0.2631
 6975SOL    HW232388   1.363   2.245  15.721  0.4158 -0.5680  0.4400
 6976SOL     OW32389   1.376   0.632  10.351 -0.2852  0.1254  0.4918
 6976SOL    HW132390   1.377   0.616  10.257  1.0166  1.4157  0.2983
 6976SOL    HW232391   1.349   0.723  10.357  0.2900  0.3700 -0.7527
 6977SOL     OW32392   4.690   3.416   0.663 -0.0693  0.4066  0.4087
 6977SOL    HW132393   4.674   3.322   0.656 -0.6852  0.4961  0.5631
 6977SOL    HW232394   4.644   3.427   0.746  0.6637 -2.1718  1.1554
 6978SOL     OW32395   4.678   3.530  12.877  0.2796  0.1426 -0.4012
 6978SOL    HW132396   0.022   3.500  12.935  0.7586 -0.8602 -1.4992
 6978SOL    HW232397   0.006   3.541  12.798 -0.7190 -0.0771 -1.1129
 6979SOL     OW32398   1.955   0.400   1.812  0.4708  0.2734  0.1433
 6979SOL    HW132399   2.035   0.454   1.808 -0.3363  1.3834 -0.8193
 6979SOL    HW232400   1.885   0.465   1.803  0.8209  0.3559 -1.9134
 6980SOL     OW32401   3.545   0.328  10.655 -0.3833 -0.0507 -0.2420
 6980SOL    HW132402   3.558   0.391  10.583 -1.8597 -0.2034 -0.6416
 6980SOL    HW232403   3.452   0.343  10.672 -0.1587 -1.2197  1.8818
 6981SOL     OW32404   4.646   4.236   2.352 -0.0958 -0.2221  0.5823
 6981SOL    HW132405   4.619   4.205   2.266 -0.3296  0.9329  0.2353
 6981SOL    HW232406   0.015   4.238   2.341 -0.2830  1.4952 -0.6412
 6982SOL     OW32407   2.904   3.472   2.746  0.3481 -0.5216 -0.4448
 6982SOL    HW132408   2.815   3.466   2.779  0.3889 -0.1017 -0.2579
 6982SOL    HW232409   2.946   3.396   2.785  2.3926  1.3684  1.0661
 6983SOL     OW32410   3.404   1.572   8.535  0.2444 -0.2556 -0.1791
 6983SOL    HW132411   3.479   1.615   8.494 -1.4086  0.0769 -2.8110
 6983SOL    HW232412   3.355   1.568   8.453  1.5081 -1.4684 -0.8718
 6984SOL     OW32413   1.952   0.308   3.838  0.8881  0.5056 -0.1270
 6984SOL    HW132414   2.041   0.335   3.817  0.2680  0.9994 -2.1070
 6984SOL    HW232415   1.953   0.226   3.788  0.6649  0.4380 -0.0189
 6985SOL     OW32416   2.301   4.421   6.978 -0.2857 -0.2579  0.3773
 6985SOL    HW132417   2.265   4.475   6.908  0.8867  1.4978  1.1100
 6985SOL    HW232418   2.371   4.374   6.933  1.8538  0.7239  2.6368
 6986SOL     OW32419   4.533   3.693   6.929  0.7730  0.5463  0.1714
 6986SOL    HW132420   4.467   3.655   6.872  2.2010 -0.9492 -0.4926
 6986SOL    HW232421   4.490   3.685   7.015  0.6402  1.4063  0.1891
 6987SOL     OW32422   3.937   1.491  12.918  0.1283  0.2729 -0.1815
 6987SOL    HW132423   3.843   1.475  12.922  0.4236 -1.2813  0.8375
 6987SOL    HW232424   3.962   1.520  13.006  0.8760 -0.1588 -0.2509
 6988SOL     OW32425   0.317   2.209   3.731  0.0441  0.6408 -0.0742
 6988SOL    HW132426   0.299   2.300   3.753  2.3530  0.5855  2.0139
 6988SOL    HW232427   0.227   2.180   3.719 -0.2428  1.1051  0.9227
 6989SOL     OW32428   2.431   0.309   4.638  0.0987  0.3875 -0.1268
 6989SOL    HW132429   2.477   0.332   4.557 -0.0362 -0.0340 -0.3249
 6989SOL    HW232430   2.500   0.303   4.704  0.7117  0.1891 -0.7802
 6990SOL     OW32431   0.386   4.025   6.116  0.3826 -0.0359 -0.1429
 6990SOL    HW132432   0.353   4.114   6.108  1.2038  0.2253 -0.5942
 6990SOL    HW232433   0.301   3.981   6.122  0.4667  0.0222  1.6158
 6991SOL     OW32434   1.387   1.765   8.949 -0.5659 -0.1279 -0.0935
 6991SOL    HW132435   1.412   1.788   9.039 -0.6114  1.7868 -0.5774
 6991SOL    HW232436   1.300   1.799   8.930 -1.4261 -3.2220 -1.6125
 6992SOL     OW32437   4.193   1.513   7.354 -0.3026 -0.0527 -0.8669
 6992SOL    HW132438   4.179   1.460   7.275 -0.2495 -2.2691  0.5954
 6992SOL    HW232439   4.134   1.586   7.338 -1.6673 -1.0016 -0.2748
 6993SOL     OW32440   4.594   1.753   5.665 -0.2150  0.2919  0.2749
 6993SOL    HW132441   4.531   1.722   5.600 -1.4301  2.6707  0.3121
 6993SOL    HW232442   4.657   1.681   5.664 -0.5794 -0.0471  1.0244
 6994SOL     OW32443   0.286   2.187   5.529  0.3520  0.0843  0.2763
 6994SOL    HW132444   0.331   2.104   5.546 -2.3494 -1.2031  1.2876
 6994SOL    HW232445   0.355   2.251   5.515 -0.5285  1.2397  1.1790
 6995SOL     OW32446   3.950   3.588   4.604  0.5713 -0.1769 -0.5949
 6995SOL    HW132447   3.888   3.602   4.532 -0.0771 -0.4824 -0.0926
 6995SOL    HW232448   3.966   3.673   4.645 -0.7705 -0.4085  0.4195
 6996SOL     OW32449   3.021   1.686   6.433 -0.7935  0.3054 -0.2743
 6996SOL    HW132450   3.081   1.709   6.362 -2.4636  0.4000 -1.6567
 6996SOL    HW232451   3.045   1.598   6.462  2.3265  1.0257 -0.5851
 6997SOL     OW32452   2.534   4.029  12.670  0.2979 -0.1341  0.4221
 6997SOL    HW132453   2.457   3.982  12.638  0.7603  0.1355 -1.1066
 6997SOL    HW232454   2.594   4.037  12.596 -1.6103 -1.9986 -1.3330
 6998SOL     OW32455   1.944   1.659  14.261  0.6722  0.2596  0.3088
 6998SOL    HW132456   2.019   1.662  14.202  0.6224  0.0272  0.2349
 6998SOL    HW232457   1.878   1.710  14.213  1.6093  0.0683 -1.1747
 6999SOL     OW32458   0.448   3.475   4.699 -0.1660 -0.3564 -0.3184
 6999SOL    HW132459   0.365   3.472   4.652  0.8101 -2.5226 -1.8881
 6999SOL    HW232460   0.472   3.383   4.695  0.7073 -0.2383  2.4547
 7000SOL     OW32461   0.860   2.719   7.125 -0.3157 -0.3234  0.2720
 7000SOL    HW132462   0.930   2.677   7.174 -1.4087  1.4085  3.2826
 7000SOL    HW232463   0.853   2.656   7.052  0.7564  0.0898 -0.1767
 7001SOL     OW32464   3.418   4.056   3.689  0.2140 -0.2065 -0.8441
 7001SOL    HW132465   3.351   4.009   3.739  1.1156 -1.7545 -1.1223
 7001SOL    HW232466   3.501   4.030   3.727  1.4122  1.4381 -2.3271
 7002SOL     OW32467   0.147   2.846   6.301 -0.3151 -0.0657 -0.6671
 7002SOL    HW132468   0.066   2.820   6.344  0.0274  2.3578  1.4383
 7002SOL    HW232469   0.129   2.809   6.214  0.7204 -0.5403 -0.6796
 7003SOL     OW32470   3.085   3.250  13.568  0.1248 -0.3939  0.2449
 7003SOL    HW132471   3.120   3.249  13.657  1.6675  0.6748 -0.3394
 7003SOL    HW232472   2.996   3.217  13.580 -0.1920  0.1376 -0.6275
 7004SOL     OW32473   0.908   0.965   1.776  0.3336  0.2936 -0.3407
 7004SOL    HW132474   0.972   0.896   1.760 -0.1601  0.0075 -1.0690
 7004SOL    HW232475   0.828   0.923   1.743 -0.0108  0.1318  0.6896
 7005SOL     OW32476   1.399   0.364   7.360 -0.1012  0.0357 -0.4093
 7005SOL    HW132477   1.399   0.458   7.345  1.2352 -0.3232 -2.6885
 7005SOL    HW232478   1.467   0.354   7.427 -0.9436  0.9880  0.5621
 7006SOL     OW32479   1.866   0.755  12.516  0.0858  0.2388  0.3006
 7006SOL    HW132480   1.912   0.726  12.595 -2.6726 -0.1959  1.7671
 7006SOL    HW232481   1.790   0.698  12.530 -1.2740  2.5716  2.6347
 7007SOL     OW32482   3.566   1.331   5.517  0.4057 -0.2177 -0.0358
 7007SOL    HW132483   3.477   1.337   5.483  0.9271  0.5448 -1.2649
 7007SOL    HW232484   3.609   1.411   5.486 -3.2719  0.9900 -1.9436
 7008SOL     OW32485   1.446   0.577  10.082 -0.4159 -0.1815  0.3187
 7008SOL    HW132486   1.484   0.600   9.997 -1.1400 -1.5520 -0.3781
 7008SOL    HW232487   1.524   0.533  10.115  0.4377 -0.1601 -1.6677
 7009SOL     OW32488   2.839   1.254   7.313  0.7101 -0.2183  0.2730
 7009SOL    HW132489   2.826   1.331   7.258  0.9858  0.7368  1.5617
 7009SOL    HW232490   2.778   1.194   7.269  1.5900 -0.8400 -0.0951
 7010SOL     OW32491   2.412   1.618   0.873  0.2298 -0.0692 -0.1248
 7010SOL    HW132492   2.395   1.536   0.919  0.8590 -0.2990 -0.3043
 7010SOL    HW232493   2.354   1.675   0.923 -0.6500  1.0509 -2.4342
 7011SOL     OW32494   3.238   1.599   3.451 -0.2556 -0.2506 -0.4244
 7011SOL    HW132495   3.319   1.630   3.410 -0.9888  1.1429 -0.8352
 7011SOL    HW232496   3.234   1.504   3.442 -0.7390 -0.2683 -0.0077
 7012SOL     OW32497   3.516   1.459   2.631  0.3578  0.2726 -0.6744
 7012SOL    HW132498   3.501   1.390   2.696  1.4605  1.3016  0.6588
 7012SOL    HW232499   3.561   1.523   2.685  1.8051 -1.1543 -0.1974
 7013SOL     OW32500   1.976   4.242   7.806 -0.5636 -0.0641 -0.1751
 7013SOL    HW132501   2.070   4.237   7.824 -0.4144  0.8816 -0.6877
 7013SOL    HW232502   1.935   4.239   7.893  2.3535 -2.4753  1.1173
 7014SOL     OW32503   0.598   2.976   2.326 -0.4252  0.0933  0.1162
 7014SOL    HW132504   0.546   2.981   2.406  0.3823  0.1461  0.6382
 7014SOL    HW232505   0.652   2.897   2.331  2.0080  1.6160 -2.0440
 7015SOL     OW32506   2.861   2.084   6.264 -0.3937 -0.5011 -0.0774
 7015SOL    HW132507   2.769   2.107   6.246 -0.4635  0.8511  1.9637
 7015SOL    HW232508   2.859   1.990   6.248  2.2809 -0.6003  0.1997
 7016SOL     OW32509   0.291   1.915   7.991  0.3603 -0.4759  0.5388
 7016SOL    HW132510   0.361   1.954   7.939 -0.3137 -0.6699 -0.5255
 7016SOL    HW232511   0.337   1.905   8.074  0.2405  0.5772  0.7387
 7017SOL     OW32512   3.883   4.475   6.407  0.2539  0.4499  0.2960
 7017SOL    HW132513   3.862   4.448   6.496 -1.2930 -0.2151 -0.2577
 7017SOL    HW232514   3.794   4.498   6.380 -0.2798 -1.4676  0.4627
 7018SOL     OW32515   2.256   1.399   3.582  0.2877  0.2178 -0.3419
 7018SOL    HW132516   2.247   1.387   3.487 -1.2048  0.6444 -0.2455
 7018SOL    HW232517   2.215   1.485   3.595  1.3492  0.5503  0.8338
 7019SOL     OW32518   2.548   2.219   5.546  0.0465 -0.4791 -0.0230
 7019SOL    HW132519   2.508   2.134   5.531  1.3189 -0.4832 -3.4166
 7019SOL    HW232520   2.481   2.287   5.542  0.8055  0.2777  0.1087
 7020SOL     OW32521   2.899   0.648   0.832  0.0372  0.0949 -0.2110
 7020SOL    HW132522   2.937   0.717   0.778 -2.3631  0.0512 -1.9403
 7020SOL    HW232523   2.876   0.581   0.768 -1.1093 -1.1842  1.5285
 7021SOL     OW32524   3.564   4.571  10.661  0.4434 -0.3105  0.1987
 7021SOL    HW132525   3.544   4.664  10.664  1.7925 -0.0202  0.0536
 7021SOL    HW232526   3.485   4.534  10.702 -0.6734 -0.4436 -2.0823
 7022SOL     OW32527   1.675   0.076  12.898  0.3670  0.0344 -0.7041
 7022SOL    HW132528   1.621   4.724  12.907  0.2956 -0.0739 -2.0742
 7022SOL    HW232529   1.678   0.105  12.990 -0.3250  0.6885 -0.8816
 7023SOL     OW32530   3.714   4.514   3.725  0.0058 -0.3918  0.3631
 7023SOL    HW132531   3.753   4.520   3.637  1.2167 -1.8620  0.8066
 7023SOL    HW232532   3.736   4.426   3.755 -0.9294 -0.0899  1.8983
 7024SOL     OW32533   1.821   3.492   0.291 -0.1310 -0.0207  0.0438
 7024SOL    HW132534   1.864   3.578   0.295  1.1361 -0.6704  0.5411
 7024SOL    HW232535   1.753   3.508   0.356 -0.2694 -0.5596  0.0272
 7025SOL     OW32536   3.642   3.942   5.225 -0.2502  0.1541 -0.1078
 7025SOL    HW132537   3.558   3.911   5.258  0.7237 -0.9130  1.3410
 7025SOL    HW232538   3.656   3.895   5.143  0.2560  0.4746 -0.2081
 7026SOL     OW32539   1.107   2.819   6.787 -0.1652  0.2839 -0.4279
 7026SOL    HW132540   1.144   2.859   6.708 -1.4798  2.2377 -0.0650
 7026SOL    HW232541   1.089   2.728   6.764  0.7684 -0.1867  0.6828
 7027SOL     OW32542   4.693   3.851  13.215  0.4388  0.1669  0.4322
 7027SOL    HW132543   4.659   3.915  13.153  2.1829  0.0427 -0.6508
 7027SOL    HW232544   0.041   3.891  13.261  1.1152 -0.6411  0.0615
 7028SOL     OW32545   2.897   3.724   2.623 -0.5338  0.3091 -0.4892
 7028SOL    HW132546   2.937   3.672   2.554  0.6570  2.2968 -1.2739
 7028SOL    HW232547   2.866   3.660   2.687  0.0225 -0.2229 -0.7543
 7029SOL     OW32548   4.113   0.446   7.155  0.7926  0.9937  0.2547
 7029SOL    HW132549   4.100   0.519   7.095 -1.3777 -0.1425 -0.6787
 7029SOL    HW232550   4.024   0.434   7.187  0.6247 -0.1497 -0.6304
 7030SOL     OW32551   0.878   2.773   4.832 -0.0224 -0.2461 -0.4377
 7030SOL    HW132552   0.964   2.784   4.872 -0.3191  0.3203  0.0471
 7030SOL    HW232553   0.902   2.744   4.744  0.1966 -1.2971 -0.0320
 7031SOL     OW32554   3.008   3.574   1.863  0.8803 -0.6866 -0.4798
 7031SOL    HW132555   3.085   3.525   1.834  0.0984 -1.8079 -0.6697
 7031SOL    HW232556   2.943   3.505   1.877  0.3619 -0.3230 -1.0982
 7032SOL     OW32557   3.459   0.869   2.182 -0.5538 -0.2828  0.0062
 7032SOL    HW132558   3.376   0.907   2.213 -0.9930 -1.5553  0.3947
 7032SOL    HW232559   3.522   0.940   2.185 -0.1670 -0.6930  1.1765
 7033SOL     OW32560   1.984   0.693   7.360  0.0298 -0.1434  0.1621
 7033SOL    HW132561   1.973   0.705   7.266  1.5332 -2.5915 -0.3296
 7033SOL    HW232562   1.946   0.605   7.372  1.2207 -0.3968  2.0692
 7034SOL     OW32563   4.094   1.630   4.087  0.1063  0.0615 -0.0662
 7034SOL    HW132564   4.046   1.571   4.028 -0.0240 -0.7005  0.7926
 7034SOL    HW232565   4.034   1.673   4.147  0.5629  1.3845 -0.5665
 7035SOL     OW32566   3.476   3.466   2.990 -0.4110  0.6471  0.3355
 7035SOL    HW132567   3.445   3.541   2.939  4.0254  0.8902 -1.9971
 7035SOL    HW232568   3.497   3.503   3.075  1.6204  1.8774 -0.7017
 7036SOL     OW32569   2.785   2.015   5.467  0.1252 -0.2254 -0.5499
 7036SOL    HW132570   2.831   1.971   5.396 -0.0465 -0.5390 -0.4652
 7036SOL    HW232571   2.698   1.979   5.450 -0.2639  1.5935 -2.3514
 7037SOL     OW32572   1.866   0.515   2.336 -0.5746 -0.6796  0.1222
 7037SOL    HW132573   1.918   0.538   2.258 -4.8672  1.6063 -2.0343
 7037SOL    HW232574   1.813   0.451   2.288 -0.9986  0.9339 -1.5767
 7038SOL     OW32575   0.514   2.047   1.666 -0.1876  0.4953  0.0119
 7038SOL    HW132576   0.420   2.053   1.687  0.1358  4.3675  0.3024
 7038SOL    HW232577   0.537   2.069   1.756 -2.3397 -0.6806  0.8581
 7039SOL     OW32578   0.045   0.558   5.682  0.1006  0.3279 -0.3523
 7039SOL    HW132579   0.003   0.507   5.613 -1.5087  0.3226  0.6465
 7039SOL    HW232580   4.693   0.572   5.736  0.0521 -0.2545 -0.2718
 7040SOL     OW32581   4.450   1.236   4.188  0.0576  0.5316  0.7480
 7040SOL    HW132582   4.397   1.158   4.205 -1.8966  1.5572 -0.6538
 7040SOL    HW232583   4.387   1.308   4.198 -0.3253  0.2786  0.1709
 7041SOL     OW32584   3.563   1.999   3.735  0.1847 -0.4507  0.3093
 7041SOL    HW132585   3.604   2.029   3.654 -2.0429  0.2011 -0.5635
 7041SOL    HW232586   3.486   1.958   3.695 -0.8354  3.3301 -1.6420
 7042SOL     OW32587   3.313   2.030   4.617  0.1372 -0.2922 -0.4156
 7042SOL    HW132588   3.298   2.067   4.530  0.6964  1.5689  0.2895
 7042SOL    HW232589   3.404   2.004   4.600 -0.4150 -1.4312 -1.6409
 7043SOL     OW32590   2.174   0.322   4.935 -0.3031  0.2409 -0.2456
 7043SOL    HW132591   2.171   0.366   4.850  0.2489  0.1304 -0.3190
 7043SOL    HW232592   2.105   0.373   4.978 -0.6662 -1.2025  0.8848
 7044SOL     OW32593   1.780   2.884   5.068  0.6459  0.4975 -0.3353
 7044SOL    HW132594   1.778   2.978   5.086 -0.5200  0.0658  1.8142
 7044SOL    HW232595   1.872   2.870   5.046  0.2132 -2.9727 -0.0414
 7045SOL     OW32596   1.545   2.959  15.234  0.5705 -0.2234  0.2187
 7045SOL    HW132597   1.615   2.930  15.175 -0.5739 -0.0237 -1.2621
 7045SOL    HW232598   1.475   2.980  15.172  1.8991  1.7126 -0.6492
 7046SOL     OW32599   0.584   1.846   3.606 -0.3510  0.0210 -0.0287
 7046SOL    HW132600   0.544   1.759   3.610  0.4753 -0.2920  1.4926
 7046SOL    HW232601   0.556   1.883   3.523  1.4086  3.1887  0.7858
 7047SOL     OW32602   2.185   3.939   2.809  0.1919  0.0151  0.0687
 7047SOL    HW132603   2.099   3.917   2.846  0.1302 -2.1257 -1.3572
 7047SOL    HW232604   2.244   3.916   2.881  0.4475 -1.1606 -0.5213
 7048SOL     OW32605   1.071   0.016  15.995 -0.8232  0.1387  0.3692
 7048SOL    HW132606   0.997   0.033  15.937  0.5950 -1.6222 -1.9802
 7048SOL    HW232607   1.140   4.695  15.948 -1.3638  0.9790 -1.2906
 7049SOL     OW32608   1.950   4.582  14.174 -0.1711 -0.2041 -0.0296
 7049SOL    HW132609   1.961   4.492  14.205 -0.5070  0.0954  0.9468
 7049SOL    HW232610   2.025   4.586  14.114 -1.6078  2.1730 -1.6956
 7050SOL     OW32611   1.531   4.153   1.319 -0.0454  0.1964 -0.4929
 7050SOL    HW132612   1.501   4.241   1.295  2.1094  0.5739 -1.8293
 7050SOL    HW232613   1.615   4.163   1.364 -2.1870 -0.3246  3.6209
 7051SOL     OW32614   0.001   2.079   6.486  0.3407  0.2801 -0.2708
 7051SOL    HW132615   4.686   1.993   6.476 -2.0078  1.3541  0.1774
 7051SOL    HW232616   0.002   2.118   6.398 -1.6381 -0.6230 -0.7015
 7052SOL     OW32617   3.128   3.818  15.845  0.0600 -0.5147 -0.2855
 7052SOL    HW132618   3.036   3.811  15.873  0.1916 -2.2410 -0.2928
 7052SOL    HW232619   3.116   3.811  15.750 -0.4249  0.7903 -0.3268
 7053SOL     OW32620   3.421   4.193   4.543  0.6098 -0.1435  1.1060
 7053SOL    HW132621   3.459   4.263   4.490  0.7222 -2.3059 -1.6629
 7053SOL    HW232622   3.449   4.114   4.497  0.8235  1.0548 -0.8294
 7054SOL     OW32623   1.190   1.785   7.570 -0.1392 -0.0695 -0.1973
 7054SOL    HW132624   1.173   1.692   7.560  1.8579 -0.8805  4.2174
 7054SOL    HW232625   1.250   1.795   7.496  0.7362  0.0599  0.5387
 7055SOL     OW32626   1.518   1.247   0.988 -0.1320  0.0367  0.1957
 7055SOL    HW132627   1.483   1.178   1.044  0.8146 -0.7871 -0.2255
 7055SOL    HW232628   1.559   1.181   0.931 -3.2097 -1.5201 -0.1916
 7056SOL     OW32629   0.709   2.296   7.360  0.4865  0.5292 -0.1510
 7056SOL    HW132630   0.749   2.232   7.301 -0.6366 -2.1055  2.0022
 7056SOL    HW232631   0.665   2.350   7.294  0.4235  1.9235  1.0144
 7057SOL     OW32632   2.213   2.179   7.218 -0.0670  0.7333  0.8571
 7057SOL    HW132633   2.231   2.272   7.209  1.7736  0.4920  2.1236
 7057SOL    HW232634   2.267   2.162   7.295 -2.1231  0.1499  2.1484
 7058SOL     OW32635   1.396   2.677   5.852 -0.3092  0.2856 -0.1866
 7058SOL    HW132636   1.426   2.765   5.875 -2.5370  1.4151 -1.6509
 7058SOL    HW232637   1.435   2.622   5.920  0.6049  0.0767 -0.8770
 7059SOL     OW32638   3.689   3.507   3.216 -0.1435 -0.4346  0.1799
 7059SOL    HW132639   3.709   3.418   3.246  0.9160  0.1915  1.3265
 7059SOL    HW232640   3.728   3.498   3.130  1.0088 -0.8722  0.7451
 7060SOL     OW32641   0.507   4.231  16.161 -0.3835  0.4805 -0.0285
 7060SOL    HW132642   0.436   4.281  16.199 -0.4726  2.8837 -3.3584
 7060SOL    HW232643   0.469   4.145  16.180  1.7430 -0.4944 -0.1779
 7061SOL     OW32644   3.378   4.591   6.762  0.4510 -0.4927  0.2183
 7061SOL    HW132645   3.456   4.604   6.708  1.0298 -1.5568  0.8161
 7061SOL    HW232646   3.316   4.658   6.732  2.0216  1.5098  1.4573
 7062SOL     OW32647   0.632   3.692   1.147  0.3928 -0.0244 -0.2599
 7062SOL    HW132648   0.612   3.637   1.072  0.9918 -1.1027  0.3610
 7062SOL    HW232649   0.715   3.736   1.127  0.4924 -0.4112 -0.6880
 7063SOL     OW32650   1.136   0.107   8.254 -0.6109 -0.2463 -0.1273
 7063SOL    HW132651   1.225   0.115   8.222 -1.0160  1.9025 -0.6924
 7063SOL    HW232652   1.110   0.020   8.226  0.0802  0.2729 -2.3179
 7064SOL     OW32653   1.610   0.204   6.941  0.2872 -0.1591  0.1011
 7064SOL    HW132654   1.694   0.188   6.984 -1.1787 -1.6697  2.4636
 7064SOL    HW232655   1.547   0.135   6.962 -1.6975  1.7787  0.5164
 7065SOL     OW32656   3.459   1.799   6.091  0.1124  0.0943  0.2744
 7065SOL    HW132657   3.516   1.729   6.059  1.6414  0.6430  1.8487
 7065SOL    HW232658   3.528   1.865   6.096  1.2927 -1.2693  1.9360
 7066SOL     OW32659   1.593   3.612   5.367  0.2460 -0.2446 -0.3821
 7066SOL    HW132660   1.578   3.553   5.440 -1.2363  0.7403  0.0933
 7066SOL    HW232661   1.591   3.558   5.288 -1.2960 -0.8159  0.0581
 7067SOL     OW32662   1.707   4.223   6.015 -0.0973 -0.1743  0.2248
 7067SOL    HW132663   1.654   4.301   5.997  1.8229  0.9359 -0.5971
 7067SOL    HW232664   1.665   4.146   5.977 -2.2695 -0.4755  3.2565
 7068SOL     OW32665   1.191   1.591   1.902  0.0352 -0.4891 -0.1485
 7068SOL    HW132666   1.201   1.515   1.959 -0.5175 -0.4734 -0.0389
 7068SOL    HW232667   1.124   1.567   1.838 -2.1043  1.4481  1.4060
 7069SOL     OW32668   3.604   1.271   5.793  0.1325  0.7644  0.1281
 7069SOL    HW132669   3.694   1.305   5.784  1.3399 -1.7145  3.1598
 7069SOL    HW232670   3.579   1.303   5.706 -0.0672 -0.4641 -0.2616
 7070SOL     OW32671   4.490   2.560  14.570  0.0938  0.1501 -0.3476
 7070SOL    HW132672   4.576   2.528  14.541  0.9945  0.9355  1.4759
 7070SOL    HW232673   4.436   2.505  14.513 -1.0459 -1.7903  2.5979
 7071SOL     OW32674   3.871   2.419  11.770 -0.4175 -0.3167 -0.0767
 7071SOL    HW132675   3.796   2.372  11.732 -1.3132 -0.2673  1.6304
 7071SOL    HW232676   3.836   2.490  11.823  2.2960 -0.3320  1.7024
 7072SOL     OW32677   1.457   0.863   6.732 -0.9297  0.3025  0.1190
 7072SOL    HW132678   1.466   0.810   6.653  2.7802  0.1934  0.6216
 7072SOL    HW232679   1.432   0.807   6.805 -0.2167  0.0479  0.1754
 7073SOL     OW32680   1.684   2.834  15.446  0.2272  0.1560 -0.5460
 7073SOL    HW132681   1.649   2.886  15.374  1.8635 -1.1720 -2.2959
 7073SOL    HW232682   1.777   2.824  15.427  0.1654 -2.4641  0.5742
 7074SOL     OW32683   0.889   4.297   3.280  0.0358 -0.1564 -0.2030
 7074SOL    HW132684   0.915   4.267   3.192 -0.3574 -0.5384 -0.1875
 7074SOL    HW232685   0.974   4.320   3.319  0.4151 -2.1269  0.1514
 7075SOL     OW32686   3.421   2.433  15.269 -0.0574  0.5670  0.7318
 7075SOL    HW132687   3.333   2.465  15.250 -0.6029  0.5023  3.0501
 7075SOL    HW232688   3.472   2.512  15.287 -1.4243  1.7751 -0.6788
 7076SOL     OW32689   3.102   3.361   8.001 -0.3758 -0.0126  0.0255
 7076SOL    HW132690   3.178   3.345   8.056 -0.2535  0.5969  0.0353
 7076SOL    HW232691   3.034   3.400   8.056  0.6938  0.9991  0.6300
 7077SOL     OW32692   2.149   3.324  15.244  0.0071  0.6636  0.1413
 7077SOL    HW132693   2.176   3.284  15.161  1.1703  1.2814  0.2178
 7077SOL    HW232694   2.162   3.264  15.317 -0.7502  2.4846  1.7545
 7078SOL     OW32695   2.379   2.302   3.068  0.5860 -0.0084  0.7017
 7078SOL    HW132696   2.421   2.220   3.041 -0.5434  0.1505 -1.4962
 7078SOL    HW232697   2.457   2.356   3.082  0.8148  0.2776 -1.7401
 7079SOL     OW32698   3.143   0.681   8.771  0.5788 -0.4142 -0.6037
 7079SOL    HW132699   3.236   0.661   8.780  0.9646  1.4996 -0.1453
 7079SOL    HW232700   3.133   0.656   8.679 -0.6174 -1.7067 -0.1121
 7080SOL     OW32701   1.102   0.789   2.520  0.0697 -0.0082 -0.0116
 7080SOL    HW132702   1.190   0.818   2.496  0.0608 -0.3948 -0.4908
 7080SOL    HW232703   1.054   0.805   2.439  0.5423 -0.5099 -0.3905
 7081SOL     OW32704   1.674   2.272   2.683  0.3404  0.3964 -0.0391
 7081SOL    HW132705   1.632   2.338   2.738  3.1075  1.2112  1.0810
 7081SOL    HW232706   1.621   2.192   2.680  0.6677  0.1529  0.5829
 7082SOL     OW32707   2.711   2.951   7.022 -1.0874  1.1031  0.3200
 7082SOL    HW132708   2.751   2.908   7.097  0.2330 -1.3829 -1.8135
 7082SOL    HW232709   2.717   3.043   7.047 -0.2829  0.6816  1.6573
 7083SOL     OW32710   3.034   3.962   6.592 -0.0484  0.2408 -0.3719
 7083SOL    HW132711   3.065   4.037   6.643  0.1912 -0.3953  0.4190
 7083SOL    HW232712   3.118   3.918   6.602 -0.4348 -0.0907  1.3796
 7084SOL     OW32713   2.915   2.810   4.723  0.2296  0.7585 -0.0632
 7084SOL    HW132714   2.848   2.836   4.660 -1.2043 -0.9897  0.7608
 7084SOL    HW232715   2.997   2.837   4.680 -1.0662  1.5407 -2.0381
 7085SOL     OW32716   3.600   1.795  12.746 -0.1336 -0.0657 -0.1517
 7085SOL    HW132717   3.566   1.706  12.731 -1.3526  0.0639  1.8231
 7085SOL    HW232718   3.525   1.845  12.715 -0.9653 -0.4464  1.2146
 7086SOL     OW32719   1.463   0.887  10.522  0.2417 -0.0009  0.5370
 7086SOL    HW132720   1.459   0.840  10.605  0.7903 -0.2972  0.3939
 7086SOL    HW232721   1.385   0.943  10.529 -0.8120 -1.4971  0.6800
 7087SOL     OW32722   2.498   1.277   6.737  0.0588 -0.1550 -0.4423
 7087SOL    HW132723   2.486   1.252   6.645 -0.9910 -0.1882 -0.2983
 7087SOL    HW232724   2.587   1.245   6.753 -0.0261  0.9038  2.0342
 7088SOL     OW32725   2.929   3.308   6.946 -0.3033  0.0899 -0.2650
 7088SOL    HW132726   2.910   3.382   6.887 -0.4076  0.6294  0.4433
 7088SOL    HW232727   2.978   3.253   6.885  0.8287  0.0770  0.6607
 7089SOL     OW32728   0.617   1.480  16.240 -0.0998 -0.1088  0.3166
 7089SOL    HW132729   0.601   1.573  16.222 -0.0399 -0.7070 -2.7397
 7089SOL    HW232730   0.532   1.438  16.229  0.0930 -1.0205  2.3767
 7090SOL     OW32731   0.090   1.969   6.913  0.1705 -0.4348 -0.8522
 7090SOL    HW132732   0.074   1.926   6.997  0.4075 -0.9792 -1.0858
 7090SOL    HW232733   0.001   2.005   6.909  0.2421 -0.3151 -1.3236
 7091SOL     OW32734   3.935   1.758  16.049 -0.0972 -0.1474 -0.1543
 7091SOL    HW132735   3.966   1.818  15.981  1.4218  1.2238  1.7369
 7091SOL    HW232736   3.845   1.735  16.026  0.6293 -3.7855  0.7106
 7092SOL     OW32737   3.035   1.131   4.572  0.0368  1.2253 -0.4691
 7092SOL    HW132738   3.042   1.171   4.658  1.8515 -2.4436  1.1154
 7092SOL    HW232739   2.940   1.125   4.571  0.1545 -0.6631 -0.4878
 7093SOL     OW32740   2.737   3.828   5.315  0.1502  0.1666 -0.1653
 7093SOL    HW132741   2.696   3.909   5.286  1.6585  0.5333 -1.3085
 7093SOL    HW232742   2.799   3.817   5.243  0.3390 -1.8467  0.3240
 7094SOL     OW32743   4.388   3.547   6.766 -0.0517 -0.5272 -0.1773
 7094SOL    HW132744   4.413   3.472   6.713 -0.6664 -1.3743  0.7261
 7094SOL    HW232745   4.297   3.559   6.739  1.0381  0.6747 -3.2303
 7095SOL     OW32746   2.418   2.955  10.194 -0.0173  0.5475 -0.0328
 7095SOL    HW132747   2.389   3.037  10.232 -1.0683 -0.0360  0.4130
 7095SOL    HW232748   2.389   2.974  10.105  1.7972 -0.5785 -0.8755
 7096SOL     OW32749   0.925   2.140   6.747 -0.1520 -0.3331  0.9372
 7096SOL    HW132750   0.985   2.187   6.689 -0.9129  1.0824  1.2957
 7096SOL    HW232751   0.843   2.132   6.699  0.6766  0.7288 -0.6670
 7097SOL     OW32752   0.422   0.654   1.440  0.3474 -0.1055  0.0956
 7097SOL    HW132753   0.435   0.559   1.434  1.9585  0.2787 -2.1260
 7097SOL    HW232754   0.429   0.667   1.535 -0.9794  0.0407  0.1692
 7098SOL     OW32755   3.130   0.687   4.682 -0.1845  0.1636  0.4680
 7098SOL    HW132756   3.192   0.621   4.652  0.9671  1.3312  0.2726
 7098SOL    HW232757   3.050   0.675   4.631  0.6011  0.1810 -0.7664
 7099SOL     OW32758   4.426   2.266   5.745  0.1029 -0.5633 -0.3392
 7099SOL    HW132759   4.455   2.175   5.735  1.2187  0.0116 -2.1577
 7099SOL    HW232760   4.505   2.303   5.706 -0.2840 -0.3776 -0.9414
 7100SOL     OW32761   0.286   1.815   5.760  0.1749  0.0204 -0.0784
 7100SOL    HW132762   0.317   1.819   5.851  4.8684  0.7014 -1.6817
 7100SOL    HW232763   0.363   1.854   5.719  0.4778 -0.2026  0.2710
 7101SOL     OW32764   2.705   0.277   0.807  0.1503 -0.2359  0.4349
 7101SOL    HW132765   2.727   0.189   0.778 -0.3364  0.1547 -1.0807
 7101SOL    HW232766   2.764   0.293   0.882 -0.8568  1.6437  0.8267
 7102SOL     OW32767   1.279   1.327   9.588  0.0225 -0.1685  0.7192
 7102SOL    HW132768   1.292   1.233   9.605 -2.3248 -0.5601  0.3700
 7102SOL    HW232769   1.233   1.348   9.669 -1.5550  0.3474 -0.3012
 7103SOL     OW32770   2.547   3.556   7.190 -0.1180  0.0420  0.5920
 7103SOL    HW132771   2.609   3.486   7.212  0.9277  0.1661 -2.0429
 7103SOL    HW232772   2.564   3.572   7.098  3.0193  1.4939  1.4287
 7104SOL     OW32773   1.534   0.962   8.467 -0.2584  0.0773  0.3233
 7104SOL    HW132774   1.438   0.961   8.467 -0.2958  3.1514  1.8175
 7104SOL    HW232775   1.548   1.012   8.548  1.0185  0.8595 -0.3779
 7105SOL     OW32776   3.648   3.128  15.589  0.0469 -0.2417 -0.7954
 7105SOL    HW132777   3.743   3.131  15.601 -0.1351  0.4199  0.4995
 7105SOL    HW232778   3.609   3.198  15.642  1.0716 -1.0351  1.0341
 7106SOL     OW32779   0.139   2.646  16.332 -0.2673  0.0261 -0.0126
 7106SOL    HW132780   0.155   2.740  16.347  3.0971 -0.8394  1.7602
 7106SOL    HW232781   0.055   2.634  16.376 -0.2174 -1.5925 -0.3629
 7107SOL     OW32782   0.755   1.279  13.659 -0.0856  0.0130 -0.8890
 7107SOL    HW132783   0.851   1.288  13.661 -0.0837 -0.3197  0.1484
 7107SOL    HW232784   0.728   1.369  13.679  1.3282  0.5668 -1.3972
 7108SOL     OW32785   3.013   3.548  10.277  0.4581 -0.1231  0.8729
 7108SOL    HW132786   3.003   3.480  10.344 -0.3840 -0.0192  0.8455
 7108SOL    HW232787   3.080   3.597  10.324  1.0022  0.5829 -0.6296
 7109SOL     OW32788   0.185   0.293  14.672 -0.2384  0.2923  0.4151
 7109SOL    HW132789   0.102   0.332  14.697 -0.3177  0.1201  0.4188
 7109SOL    HW232790   0.160   0.222  14.613 -1.9302 -0.1787  1.7283
 7110SOL     OW32791   3.928   0.164   4.922  0.0599  0.4091  0.4363
 7110SOL    HW132792   3.938   0.168   5.017 -2.2303 -2.0853  0.7448
 7110SOL    HW232793   3.946   0.257   4.906  0.2817  0.5789  1.6967
 7111SOL     OW32794   1.667   2.477   7.557  0.0677 -0.0293 -0.7201
 7111SOL    HW132795   1.728   2.527   7.504 -1.5740  0.6524 -1.9889
 7111SOL    HW232796   1.720   2.438   7.626  1.9813  1.1106 -1.5499
 7112SOL     OW32797   1.279   2.672   9.698 -0.1928  0.1055 -0.4468
 7112SOL    HW132798   1.184   2.661   9.697 -0.0330 -1.2319 -0.0308
 7112SOL    HW232799   1.267   2.760   9.661  0.0451  0.3509  0.0589
 7113SOL     OW32800   4.505   1.656   3.885 -0.0643 -0.5075 -0.4229
 7113SOL    HW132801   4.434   1.596   3.906  1.3292 -1.6906  0.8881
 7113SOL    HW232802   4.556   1.642   3.965 -1.7531  0.6901  0.8627
 7114SOL     OW32803   3.974   1.813   3.025  0.4564 -0.3103  0.3435
 7114SOL    HW132804   4.069   1.811   3.031  0.3947 -1.0504  1.0900
 7114SOL    HW232805   3.963   1.748   2.956  0.4929 -2.1133  2.0208
 7115SOL     OW32806   3.503   2.547   6.269  0.4379  0.0674 -0.1634
 7115SOL    HW132807   3.585   2.560   6.222  0.3989  2.3848  0.4358
 7115SOL    HW232808   3.532   2.580   6.354  0.1144  0.5334 -0.2344
 7116SOL     OW32809   2.330   2.774   1.035  0.0895  0.1133 -0.0117
 7116SOL    HW132810   2.294   2.688   1.016 -1.9080  0.6356  1.4565
 7116SOL    HW232811   2.274   2.794   1.109 -1.2347  0.4925 -1.1172
 7117SOL     OW32812   0.881   3.906   9.230  0.0944  0.2469  0.2941
 7117SOL    HW132813   0.796   3.898   9.186  1.0611  0.6240 -1.6426
 7117SOL    HW232814   0.854   3.894   9.321  0.0127  0.2210  0.2666
 7118SOL     OW32815   1.912   3.518  17.002 -0.9827  0.2530 -0.3899
 7118SOL    HW132816   2.000   3.526  17.039 -0.9616 -0.4161 -0.2890
 7118SOL    HW232817   1.913   3.450  16.935 -1.0839  1.7194 -1.8798
 7119SOL     OW32818   3.591   1.144   8.702  0.1725 -0.1361  0.1123
 7119SOL    HW132819   3.537   1.212   8.742  2.6604  1.8739  0.0179
 7119SOL    HW232820   3.662   1.160   8.765 -0.0411 -1.8608  0.7942
 7120SOL     OW32821   4.268   1.484  17.686 -0.5040 -0.1330  0.3910
 7120SOL    HW132822   4.202   1.415  17.676 -1.4443  1.1460 -2.1536
 7120SOL    HW232823   4.309   1.488  17.600 -2.8587 -0.6930 -0.7650
 7121SOL     OW32824   0.719   2.205   9.788  0.3735 -0.4093  0.1636
 7121SOL    HW132825   0.643   2.214   9.846  1.5500 -0.8559  1.7815
 7121SOL    HW232826   0.765   2.289   9.791  0.4597 -0.4230 -0.6942
 7122SOL     OW32827   0.201   0.083   5.417  0.7275 -0.5538  0.3144
 7122SOL    HW132828   0.233   0.174   5.413 -0.9552  0.0685  1.1883
 7122SOL    HW232829   0.178   0.077   5.510  2.1833 -1.8676  0.5973
 7123SOL     OW32830   4.426   1.127   7.794 -0.3386 -0.0020 -0.5801
 7123SOL    HW132831   4.460   1.073   7.866 -0.4441  0.9595  0.1857
 7123SOL    HW232832   4.339   1.152   7.822  1.1133  3.7863  0.5997
 7124SOL     OW32833   4.609   1.516   1.277 -0.3161 -0.8289 -0.1423
 7124SOL    HW132834   4.522   1.475   1.282 -1.3899  1.4278 -0.5167
 7124SOL    HW232835   4.573   1.604   1.271  0.7351 -0.4885 -1.3890
 7125SOL     OW32836   3.171   0.093   8.888  0.6775  0.0377  0.2463
 7125SOL    HW132837   3.078   0.085   8.907  0.1951  0.9850 -1.6896
 7125SOL    HW232838   3.182   0.161   8.954  0.9672 -0.3910  0.6349
 7126SOL     OW32839   2.027   3.256  12.129 -0.5617  0.0959 -0.2256
 7126SOL    HW132840   2.093   3.280  12.064 -0.4354  4.7083  1.6229
 7126SOL    HW232841   2.053   3.165  12.141 -0.4448  0.2248  0.4634
 7127SOL     OW32842   0.737   3.310   2.973 -0.3112  0.2807 -0.3038
 7127SOL    HW132843   0.724   3.217   2.958 -0.3909  0.3305 -0.5344
 7127SOL    HW232844   0.789   3.341   2.899  0.5932  1.3574  0.7871
 7128SOL     OW32845   3.295   0.390  10.747  0.3428  0.1210  0.0024
 7128SOL    HW132846   3.247   0.313  10.774  0.2558 -0.4312 -1.7158
 7128SOL    HW232847   3.226   0.436  10.699  1.5979  0.6037 -1.3746
 7129SOL     OW32848   3.350   0.152   6.980 -0.0737 -0.1137  0.0211
 7129SOL    HW132849   3.407   0.117   7.048  1.6833  1.1323 -0.8228
 7129SOL    HW232850   3.265   0.114   7.001  1.7738 -3.3928  1.6823
 7130SOL     OW32851   4.301   2.054  14.675  0.5843  0.5607  0.1546
 7130SOL    HW132852   4.311   2.113  14.600 -0.0804 -2.0661 -2.0003
 7130SOL    HW232853   4.390   2.023  14.692 -1.0315 -3.2002  1.7819
 7131SOL     OW32854   3.360   2.765   4.512  0.1005 -0.4156 -0.1656
 7131SOL    HW132855   3.388   2.841   4.564  0.0957 -0.9587  0.6259
 7131SOL    HW232856   3.322   2.817   4.441  0.4706 -1.1584 -0.9024
 7132SOL     OW32857   0.921   4.229   1.989  0.1067  0.4291  0.4772
 7132SOL    HW132858   1.002   4.225   2.038  0.0745  0.4651  0.5327
 7132SOL    HW232859   0.850   4.220   2.053  1.7276  1.9241  2.4841
 7133SOL     OW32860   0.781   4.652   0.538  0.1320 -0.0526 -0.4349
 7133SOL    HW132861   0.769   4.721   0.603 -2.0312 -0.2438 -0.6296
 7133SOL    HW232862   0.700   4.668   0.490 -1.5169  0.1041  2.4136
 7134SOL     OW32863   1.361   4.686   9.165 -0.1261 -0.6547 -0.4670
 7134SOL    HW132864   1.364   0.050   9.132  0.1798  0.1423  1.7532
 7134SOL    HW232865   1.329   4.649   9.083 -0.0721  1.0077 -1.2404
 7135SOL     OW32866   0.968   3.344   2.748 -0.5015 -0.1644 -0.4094
 7135SOL    HW132867   0.923   3.405   2.690 -0.5975  0.1823  0.0267
 7135SOL    HW232868   0.983   3.268   2.692  2.0870  0.6250 -0.7939
 7136SOL     OW32869   3.033   4.648   6.279 -0.5103  0.1803  0.3989
 7136SOL    HW132870   3.017   4.601   6.196  0.7406  0.0083  0.2623
 7136SOL    HW232871   3.056   0.007   6.241 -2.2617  0.3597 -0.2753
 7137SOL     OW32872   3.266   2.226   7.021  0.5428  0.2984  0.0158
 7137SOL    HW132873   3.202   2.234   6.950  2.5158  1.2460 -1.6461
 7137SOL    HW232874   3.339   2.184   6.975  1.3833  0.2866  1.3751
 7138SOL     OW32875   0.775   2.230  13.436  0.2300 -0.0511  0.2099
 7138SOL    HW132876   0.779   2.312  13.486  1.9725 -0.3715  0.5965
 7138SOL    HW232877   0.868   2.210  13.427 -0.1156 -0.5467 -2.2791
 7139SOL     OW32878   3.076   2.784   5.647 -0.3198  0.4420 -0.1621
 7139SOL    HW132879   3.096   2.751   5.735  0.5823  1.9284  0.1901
 7139SOL    HW232880   2.980   2.791   5.646 -0.4159 -1.2577 -1.2931
 7140SOL     OW32881   2.750   1.711   4.830 -0.5639 -0.2838 -0.1685
 7140SOL    HW132882   2.766   1.805   4.841  0.1463 -0.5570  1.1385
 7140SOL    HW232883   2.833   1.681   4.794 -2.6892 -2.2241 -3.4666
 7141SOL     OW32884   0.647   0.717   3.075 -0.2653 -0.0142 -0.5819
 7141SOL    HW132885   0.566   0.668   3.088  0.2047 -0.1197  1.9448
 7141SOL    HW232886   0.714   0.688   3.137 -1.8242 -0.7247  0.7652
 7142SOL     OW32887   0.965   2.971   8.216  0.2990  0.3521 -0.0525
 7142SOL    HW132888   0.895   2.909   8.197  1.0762 -0.9569  1.3189
 7142SOL    HW232889   1.050   2.927   8.212 -0.6581 -1.6399  1.3977
 7143SOL     OW32890   1.854   3.796   4.763  0.0673 -1.0242 -0.7845
 7143SOL    HW132891   1.791   3.834   4.825  0.7803 -0.0849 -0.6297
 7143SOL    HW232892   1.812   3.788   4.677 -0.9434  0.9092 -0.4807
 7144SOL     OW32893   0.522   0.312   8.728  0.6360  0.4637  0.3659
 7144SOL    HW132894   0.535   0.233   8.676  0.5459  0.1844  0.7627
 7144SOL    HW232895   0.559   0.293   8.815 -0.2669  0.8532  0.8398
 7145SOL     OW32896   2.023   3.062  17.640 -0.4052  0.0156 -0.3431
 7145SOL    HW132897   1.994   3.025   0.018  1.6210  1.1280  0.8572
 7145SOL    HW232898   2.017   2.991  17.576  0.1483  0.0775 -0.4581
 7146SOL     OW32899   1.986   0.146   2.597 -0.0099  0.2977  0.4109
 7146SOL    HW132900   1.921   0.116   2.661  0.7995 -0.5375  0.8285
 7146SOL    HW232901   1.947   0.232   2.582  0.1974  0.6904  2.1797
 7147SOL     OW32902   2.337   3.922  14.539 -0.1336 -0.2546 -0.5822
 7147SOL    HW132903   2.403   3.936  14.607  0.0954 -3.3969 -0.1964
 7147SOL    HW232904   2.382   3.867  14.474  0.3282 -1.3135  0.6417
 7148SOL     OW32905   2.861   2.288   7.946  0.9251  0.1519 -0.6165
 7148SOL    HW132906   2.872   2.307   8.040 -0.0453  0.0923 -0.4914
 7148SOL    HW232907   2.858   2.371   7.898 -4.1923  0.1322 -0.3302
 7149SOL     OW32908   4.465   3.426   8.497  0.6682  0.0632 -0.1347
 7149SOL    HW132909   4.465   3.486   8.423  2.1463  2.1693  1.5732
 7149SOL    HW232910   4.558   3.424   8.521  0.6123 -2.1147 -0.0972
 7150SOL     OW32911   3.761   2.263   6.887 -0.2803 -0.0064  0.4720
 7150SOL    HW132912   3.844   2.257   6.934  0.0722 -0.7652 -0.2550
 7150SOL    HW232913   3.784   2.258   6.794  1.1079  1.3123  0.7368
 7151SOL     OW32914   3.761   4.213   7.406  0.5963 -0.0375 -0.6463
 7151SOL    HW132915   3.715   4.133   7.381  0.7916 -0.1900 -0.5283
 7151SOL    HW232916   3.849   4.182   7.385  0.2498 -1.4310 -0.0454
 7152SOL     OW32917   2.265   3.641  11.674 -0.2644  0.0526 -0.6942
 7152SOL    HW132918   2.321   3.637  11.751 -1.4613  1.7323  0.2616
 7152SOL    HW232919   2.178   3.618  11.707 -0.3035  0.3298 -0.6032
 7153SOL     OW32920   4.400   3.756  12.729  0.2874  0.0823 -0.0282
 7153SOL    HW132921   4.340   3.686  12.755 -0.2554 -0.2661 -2.2510
 7153SOL    HW232922   4.464   3.755  12.801  2.2039 -0.2168 -1.7297
 7154SOL     OW32923   1.845   1.516  15.062  0.3550 -0.1479  0.2012
 7154SOL    HW132924   1.910   1.569  15.016  0.5329 -0.1415  0.4622
 7154SOL    HW232925   1.766   1.512  15.008  0.8734  1.2801 -0.6577
 7155SOL     OW32926   1.614   0.508   3.171 -0.6602 -0.2978  0.7015
 7155SOL    HW132927   1.660   0.447   3.114 -1.7353 -0.1106 -0.3575
 7155SOL    HW232928   1.527   0.522   3.134 -0.2486 -0.3003 -0.2603
 7156SOL     OW32929   0.829   3.595   7.757 -0.5043 -0.3402 -0.1501
 7156SOL    HW132930   0.879   3.536   7.700 -0.0459 -0.3858  0.2984
 7156SOL    HW232931   0.742   3.572   7.726 -1.3444  1.5073  0.8328
 7157SOL     OW32932   4.502   1.178  13.773  0.0306  0.4851 -0.1941
 7157SOL    HW132933   4.446   1.240  13.725  2.0039  4.1265  2.1646
 7157SOL    HW232934   4.532   1.229  13.848  1.3292 -1.6505  0.7401
 7158SOL     OW32935   0.768   0.751   8.711 -0.6291 -0.1179 -0.1106
 7158SOL    HW132936   0.723   0.710   8.785  1.2660 -1.4677  0.3016
 7158SOL    HW232937   0.689   0.787   8.671 -0.2482 -0.5495 -1.2418
 7159SOL     OW32938   0.088   2.653   6.930 -0.4252 -1.0402  0.3014
 7159SOL    HW132939   0.130   2.568   6.939 -0.4618 -1.0149  0.7151
 7159SOL    HW232940   0.009   2.648   6.984 -0.4908  1.3712  0.4166
 7160SOL     OW32941   3.308   2.393  12.034 -0.1414 -0.1279  0.5606
 7160SOL    HW132942   3.365   2.455  11.988  1.7486 -2.5693 -0.3949
 7160SOL    HW232943   3.345   2.395  12.123  0.0291  1.4902  0.4497
 7161SOL     OW32944   4.523   1.523  12.793 -0.0953 -0.6575 -0.0039
 7161SOL    HW132945   4.444   1.562  12.828  0.3746 -0.4348  0.8102
 7161SOL    HW232946   4.512   1.546  12.701  0.9615 -0.4725 -0.0865
 7162SOL     OW32947   1.950   1.032   6.961 -0.1633 -0.2425 -0.1510
 7162SOL    HW132948   1.955   1.007   7.054  1.3596  0.9134  0.0765
 7162SOL    HW232949   2.026   0.982   6.933 -0.2924 -0.6262  0.1671
 7163SOL     OW32950   3.010   1.908   5.903 -0.0909  0.4452 -0.1000
 7163SOL    HW132951   3.100   1.926   5.929 -0.5394  1.4225  0.7894
 7163SOL    HW232952   2.988   1.999   5.885 -0.6015  0.6517  1.5501
 7164SOL     OW32953   2.224   4.003   7.223 -0.2516 -0.1323  0.1482
 7164SOL    HW132954   2.282   4.033   7.154 -3.7188  1.2503 -2.1485
 7164SOL    HW232955   2.215   3.910   7.202  1.9353 -0.2043 -0.4907
 7165SOL     OW32956   1.847   4.452   1.602 -0.2355  0.2175 -0.5555
 7165SOL    HW132957   1.858   4.368   1.559 -0.0418  0.9237 -1.8848
 7165SOL    HW232958   1.900   4.442   1.682 -0.8664  1.3783  0.0161
 7166SOL     OW32959   1.695   2.511  13.352 -0.3698 -0.5949  0.0336
 7166SOL    HW132960   1.776   2.461  13.360 -0.6336 -1.3237 -2.0011
 7166SOL    HW232961   1.690   2.543  13.442 -0.4038  1.6915 -0.7706
 7167SOL     OW32962   1.495   0.039  10.278 -0.7314 -0.4032  1.0042
 7167SOL    HW132963   1.442   0.057  10.356 -1.5283  0.0641  0.3609
 7167SOL    HW232964   1.443   4.689  10.251 -1.6848 -0.1381  2.0951
 7168SOL     OW32965   0.144   1.945   2.613 -0.1836  0.3848  0.4623
 7168SOL    HW132966   0.147   1.967   2.520 -0.1707  2.5974  0.9931
 7168SOL    HW232967   0.217   1.883   2.622 -0.7952 -0.4430 -0.1863
 7169SOL     OW32968   2.427   2.405   8.965 -0.4232  0.3353  0.8984
 7169SOL    HW132969   2.431   2.495   8.998  0.1254  0.4054  0.6337
 7169SOL    HW232970   2.485   2.414   8.890 -1.6392 -1.1441 -0.2231
 7170SOL     OW32971   1.233   3.790   4.260  0.1233  0.6243  0.1011
 7170SOL    HW132972   1.195   3.705   4.240  1.7889 -0.2304  0.5823
 7170SOL    HW232973   1.200   3.839   4.185  0.7632 -1.4901 -1.5788
 7171SOL     OW32974   0.185   2.400   1.908 -0.3628 -0.0790 -0.8132
 7171SOL    HW132975   0.255   2.396   1.843  0.2779  0.8334 -0.1764
 7171SOL    HW232976   0.170   2.494   1.906  2.0875  0.4045  3.9444
 7172SOL     OW32977   3.459   0.076  10.717  0.2317 -0.7120 -0.2573
 7172SOL    HW132978   3.509   0.157  10.712  1.5152 -1.4884  0.0822
 7172SOL    HW232979   3.442   0.061  10.810 -1.2038 -1.8016 -0.6771
 7173SOL     OW32980   2.900   1.064   8.895 -0.5624  0.1246 -0.1061
 7173SOL    HW132981   2.857   1.032   8.816  1.0503 -0.6739 -0.6442
 7173SOL    HW232982   2.957   0.993   8.924 -2.3497 -1.6342 -0.9389
 7174SOL     OW32983   3.313   0.174   6.152  0.5746  0.2644  0.0797
 7174SOL    HW132984   3.244   0.183   6.086  0.7342  2.8820  0.2750
 7174SOL    HW232985   3.339   0.264   6.166  1.8239  0.1628 -1.6685
 7175SOL     OW32986   2.228   0.829   6.131  0.1578  0.5569 -0.3507
 7175SOL    HW132987   2.134   0.816   6.120 -0.0332  1.0551  0.7359
 7175SOL    HW232988   2.237   0.910   6.079 -3.4509  2.2147  1.5981
 7176SOL     OW32989   1.390   1.712   2.701  0.5734 -0.0846 -0.4331
 7176SOL    HW132990   1.449   1.675   2.766 -0.0112  1.5342  1.0386
 7176SOL    HW232991   1.340   1.634   2.677  0.9184 -0.9835  1.8197
 7177SOL     OW32992   3.553   2.827   0.403  0.2056  0.5272  0.1929
 7177SOL    HW132993   3.547   2.905   0.458 -0.5917  2.0953 -2.1453
 7177SOL    HW232994   3.474   2.840   0.350 -0.0809 -0.9505  0.2468
 7178SOL     OW32995   0.584   1.443   8.331 -0.1458 -0.0925  0.1948
 7178SOL    HW132996   0.598   1.360   8.285  1.1720 -1.2352  2.6425
 7178SOL    HW232997   0.677   1.459   8.349  0.5759 -3.0616 -0.8009
 7179SOL     OW32998   1.287   1.691  12.803 -0.4263  0.0155 -0.6845
 7179SOL    HW132999   1.292   1.607  12.757  0.0133 -0.3466  0.0148
 7179SOL    HW233000   1.380   1.715  12.805 -0.8221  1.5002  0.0947
 7180SOL     OW33001   4.383   4.492  15.223  0.1734 -0.2079  0.6889
 7180SOL    HW133002   4.451   4.556  15.247 -0.1842  0.5377 -0.2948
 7180SOL    HW233003   4.428   4.409  15.239 -0.2840 -0.8175 -1.1842
 7181SOL     OW33004   1.440   0.336   2.044  0.4013 -0.3099 -0.0852
 7181SOL    HW133005   1.448   0.389   2.124  0.6442  0.7829 -0.8460
 7181SOL    HW233006   1.387   0.391   1.987 -0.3601  0.0521  0.9678
 7182SOL     OW33007   2.224   0.089   1.418 -0.1228 -0.7040  0.0272
 7182SOL    HW133008   2.306   0.040   1.416 -0.4494 -1.3044  1.8004
 7182SOL    HW233009   2.184   0.055   1.338  0.7953 -1.2218 -0.2155
 7183SOL     OW33010   2.728   4.061   7.145  0.0795 -0.4380  0.1635
 7183SOL    HW133011   2.666   3.996   7.176 -0.0129 -0.1036  0.6909
 7183SOL    HW233012   2.697   4.143   7.184 -1.3650  1.1734 -4.4119
 7184SOL     OW33013   4.161   2.466  11.533  0.2758 -0.4070 -0.2290
 7184SOL    HW133014   4.136   2.546  11.485 -1.7670 -1.6635 -1.2553
 7184SOL    HW233015   4.215   2.428  11.463 -1.1140  1.8397 -2.5349
 7185SOL     OW33016   2.571   0.809   7.492 -0.2682 -0.4878  0.2499
 7185SOL    HW133017   2.572   0.905   7.503  2.7064 -0.6510  1.3169
 7185SOL    HW233018   2.649   0.776   7.537  0.5376  0.9532 -0.0822
 7186SOL     OW33019   4.468   4.328   2.545  0.0401  0.1705 -0.4892
 7186SOL    HW133020   4.483   4.411   2.590  0.0766 -0.3529  0.4448
 7186SOL    HW233021   4.547   4.308   2.493 -0.7706  0.5566 -1.8681
 7187SOL     OW33022   1.671   0.956   4.102 -0.4582  0.3740 -0.5383
 7187SOL    HW133023   1.698   1.014   4.031  0.6218 -0.3492 -0.7149
 7187SOL    HW233024   1.611   1.008   4.157  1.0810  0.4442  1.0730
 7188SOL     OW33025   3.985   2.001   4.631  0.1627 -0.1276 -0.1611
 7188SOL    HW133026   3.934   1.920   4.636 -0.2146  0.1585  0.7971
 7188SOL    HW233027   3.934   2.052   4.568  0.5256  0.0257 -0.3278
 7189SOL     OW33028   0.769   0.721   0.079 -0.3620 -0.1391 -0.1073
 7189SOL    HW133029   0.837   0.660   0.107 -2.3195 -2.0853  0.4081
 7189SOL    HW233030   0.715   0.710   0.158 -0.3397 -2.9674 -0.5003
 7190SOL     OW33031   3.553   0.545  16.056  1.1669  0.0065  0.3425
 7190SOL    HW133032   3.540   0.477  16.122  0.9444  1.7940  2.1356
 7190SOL    HW233033   3.630   0.580  16.101  2.1691 -2.9496  0.9069
 7191SOL     OW33034   2.259   0.778   3.956 -0.2940 -0.5738 -0.2778
 7191SOL    HW133035   2.252   0.839   3.882 -2.1461  0.4376  0.7504
 7191SOL    HW233036   2.286   0.846   4.017  0.2591 -1.5529  0.5735
 7192SOL     OW33037   1.733   0.776   2.038  0.0102  0.0199 -0.5255
 7192SOL    HW133038   1.806   0.732   1.993  0.4331 -0.5051  0.6902
 7192SOL    HW233039   1.712   0.843   1.973  0.7321 -1.9098 -2.7657
 7193SOL     OW33040   1.596   0.584   8.557 -0.2497  0.1837 -0.3803
 7193SOL    HW133041   1.504   0.581   8.530 -0.2901 -0.6383 -0.1636
 7193SOL    HW233042   1.592   0.668   8.603  1.2465 -0.8527  1.6300
 7194SOL     OW33043   1.663   2.737  10.558  0.3685  0.5498  0.1127
 7194SOL    HW133044   1.585   2.735  10.502  1.0321  0.2889 -0.7941
 7194SOL    HW233045   1.673   2.831  10.571  3.0691  0.6840 -2.9380
 7195SOL     OW33046   1.674   1.525   7.496  0.0314  0.1338 -0.2110
 7195SOL    HW133047   1.651   1.618   7.488  0.3553  0.3671  1.5034
 7195SOL    HW233048   1.761   1.540   7.535 -0.3906  1.4989  0.2192
 7196SOL     OW33049   0.775   3.836   5.119 -0.1925  0.1651 -0.5773
 7196SOL    HW133050   0.722   3.896   5.067  0.4779 -0.5677 -2.0879
 7196SOL    HW233051   0.714   3.774   5.159 -0.5431  0.0688 -1.2721
 7197SOL     OW33052   2.800   0.615   5.902  0.1414  0.1674 -0.0879
 7197SOL    HW133053   2.845   0.638   5.821  0.3174 -0.7250 -0.2505
 7197SOL    HW233054   2.722   0.570   5.868 -0.8307  2.3425 -0.7396
 7198SOL     OW33055   0.491   0.230   6.372 -0.3008  0.2158 -0.0422
 7198SOL    HW133056   0.533   0.305   6.329 -1.5981  1.2729  0.5021
 7198SOL    HW233057   0.415   0.211   6.317 -0.7390  0.2101  0.5693
 7199SOL     OW33058   0.753   4.160   6.344  0.3092 -0.3142  0.5503
 7199SOL    HW133059   0.716   4.111   6.271  1.2948  0.7829 -0.6739
 7199SOL    HW233060   0.839   4.121   6.360  1.1658  0.8672 -1.2433
 7200SOL     OW33061   4.051   1.395   8.122  0.4097 -0.3068  0.1400
 7200SOL    HW133062   4.004   1.423   8.044 -0.4510 -1.2677  0.3200
 7200SOL    HW233063   4.126   1.452   8.106 -1.3323  1.7902 -0.5307
 7201SOL     OW33064   0.716   0.852   6.041  0.8695 -0.0059 -0.6243
 7201SOL    HW133065   0.797   0.802   6.036  1.0370  0.3244 -1.2314
 7201SOL    HW233066   0.744   0.943   6.053 -0.6316  0.5259 -1.2390
 7202SOL     OW33067   4.545   3.839   8.672 -0.2627 -1.0087  0.4029
 7202SOL    HW133068   4.484   3.907   8.643 -1.1690 -2.7242 -1.6915
 7202SOL    HW233069   4.617   3.847   8.610 -1.8768  1.1396 -1.1654
 7203SOL     OW33070   2.903   2.193  15.357 -0.1759 -0.6230 -0.1468
 7203SOL    HW133071   2.997   2.199  15.376 -0.1843  0.1275 -0.3183
 7203SOL    HW233072   2.896   2.154  15.270  2.3606  0.9006 -1.0304
 7204SOL     OW33073   1.149   2.817   4.905 -1.1100  0.1852  0.2321
 7204SOL    HW133074   1.196   2.898   4.920  0.3653 -0.7455  0.6599
 7204SOL    HW233075   1.152   2.763   4.985 -0.3700 -1.9085 -1.2046
 7205SOL     OW33076   3.794   3.666   3.411 -0.0686 -0.1625 -0.1430
 7205SOL    HW133077   3.817   3.595   3.471  1.0507  0.6683  0.3898
 7205SOL    HW233078   3.743   3.612   3.349  0.1726 -1.2748  0.6313
 7206SOL     OW33079   0.120   2.919   1.404  0.1456 -0.1490  0.3313
 7206SOL    HW133080   0.099   2.936   1.312 -0.0683 -5.8751 -0.6892
 7206SOL    HW233081   0.104   2.825   1.407  1.5413 -0.4153 -0.3334
 7207SOL     OW33082   3.444   0.802   3.922  0.3598  0.1858  0.2360
 7207SOL    HW133083   3.425   0.891   3.952 -1.5109  0.5508 -2.0203
 7207SOL    HW233084   3.535   0.828   3.906  0.3983  0.5602  1.0290
 7208SOL     OW33085   3.415   1.333   6.286  0.6893  0.6820 -0.0359
 7208SOL    HW133086   3.384   1.376   6.206 -2.3446 -0.1132  0.6932
 7208SOL    HW233087   3.495   1.384   6.301  2.1153 -1.2989 -0.9941
 7209SOL     OW33088   4.471   3.662   7.194  0.3805 -0.4981 -0.0778
 7209SOL    HW133089   4.472   3.637   7.286  0.2739  0.2117  0.1170
 7209SOL    HW233090   4.511   3.581   7.162  1.4363 -0.7351  1.8395
 7210SOL     OW33091   2.710   2.321  12.916  0.0699 -0.2972  0.2598
 7210SOL    HW133092   2.776   2.260  12.882  0.5395  0.5484 -0.3595
 7210SOL    HW233093   2.770   2.357  12.981 -0.2668  0.3146  0.2334
 7211SOL     OW33094   2.195   2.968  12.910 -0.4490 -0.0790 -0.1203
 7211SOL    HW133095   2.214   2.916  12.832  1.4990  0.7184 -0.1894
 7211SOL    HW233096   2.110   2.927  12.923 -0.2220 -0.7402 -0.7229
 7212SOL     OW33097   0.603   0.939  16.892 -0.1254  0.0356  0.4377
 7212SOL    HW133098   0.527   0.982  16.852  0.2455 -1.2197 -1.6656
 7212SOL    HW233099   0.602   0.975  16.980 -1.5980  0.8722  0.0820
 7213SOL     OW33100   0.800   2.506   6.087  0.2431  1.0341 -0.1592
 7213SOL    HW133101   0.744   2.480   6.160  2.6809 -0.8116  1.0742
 7213SOL    HW233102   0.772   2.596   6.074 -3.3138 -0.1840 -1.0053
 7214SOL     OW33103   4.658   0.683  16.440  0.7278 -0.1800 -0.4151
 7214SOL    HW133104   0.018   0.721  16.421 -0.5402  2.3574 -1.1339
 7214SOL    HW233105   4.632   0.637  16.360 -1.5604  1.9122 -0.8662
 7215SOL     OW33106   1.430   0.181   5.437  0.2503  0.1348 -0.2438
 7215SOL    HW133107   1.365   0.179   5.367 -0.6582  0.9493  0.5639
 7215SOL    HW233108   1.399   0.264   5.475  1.2499  1.3188 -2.0323
 7216SOL     OW33109   1.130   0.596   0.887  0.2219 -0.3646 -0.0565
 7216SOL    HW133110   1.090   0.521   0.931 -0.6417 -0.2936 -0.7248
 7216SOL    HW233111   1.097   0.588   0.798  0.0777  0.0671 -0.0411
 7217SOL     OW33112   2.918   2.620  15.661  0.1508  0.1307  0.4564
 7217SOL    HW133113   2.912   2.687  15.593  4.9427 -0.6191 -0.7033
 7217SOL    HW233114   2.874   2.546  15.619 -0.4458 -0.2739  1.7806
 7218SOL     OW33115   1.938   0.045   8.102 -0.1922  0.0004 -0.0660
 7218SOL    HW133116   1.973   4.723   8.027 -0.2857 -0.9912  0.5289
 7218SOL    HW233117   1.978   0.130   8.084 -0.5932  0.6020  1.8730
 7219SOL     OW33118   1.389   4.637  12.753  0.0095 -0.3152  0.0656
 7219SOL    HW133119   1.446   4.713  12.743  0.3151 -0.8598 -2.3450
 7219SOL    HW233120   1.354   4.638  12.842 -0.3471 -0.6329 -0.0746
 7220SOL     OW33121   3.002   3.289   4.520  0.4936  0.3033  0.1638
 7220SOL    HW133122   3.048   3.240   4.587 -0.1844  0.7797  0.9780
 7220SOL    HW233123   3.040   3.374   4.541  0.8015  0.8319 -2.4817
 7221SOL     OW33124   0.965   4.656  17.363 -0.5562  0.2715  0.0290
 7221SOL    HW133125   0.966   4.560  17.361 -1.6050  0.2877 -1.8738
 7221SOL    HW233126   1.038   4.671  17.423 -0.1728  5.5455 -1.7462
 7222SOL     OW33127   3.911   1.057   8.206 -0.1659 -0.0765 -0.0465
 7222SOL    HW133128   3.873   1.100   8.282 -0.3377  0.6015 -0.5133
 7222SOL    HW233129   3.970   0.992   8.244 -0.5707  1.0698  2.5062
 7223SOL     OW33130   2.707   3.790   8.160  0.7572 -0.1722  0.1567
 7223SOL    HW133131   2.682   3.877   8.193 -1.1168 -1.2755  1.6788
 7223SOL    HW233132   2.802   3.802   8.158  0.3390  3.2441  0.0834
 7224SOL     OW33133   0.180   4.102   3.087  0.3034  0.4471 -0.1012
 7224SOL    HW133134   0.123   4.026   3.101  2.2101 -0.9767 -0.1639
 7224SOL    HW233135   0.212   4.084   2.998 -0.8054  0.6200 -0.5360
 7225SOL     OW33136   2.788   1.557  14.980  0.6548  0.4920  0.1623
 7225SOL    HW133137   2.795   1.496  15.054  0.6714  0.4520  0.1280
 7225SOL    HW233138   2.856   1.527  14.919 -0.6456 -0.3111 -0.8992
 7226SOL     OW33139   3.634   0.987   4.790  0.0860 -0.3815  0.2056
 7226SOL    HW133140   3.670   0.924   4.853  2.0406  1.0140  0.4665
 7226SOL    HW233141   3.550   0.983   4.836 -0.5732 -2.4421 -1.1482
 7227SOL     OW33142   3.690   0.902   7.501 -0.2760 -0.1559  0.6265
 7227SOL    HW133143   3.656   0.875   7.586 -2.6679  0.1395 -0.2296
 7227SOL    HW233144   3.721   0.815   7.477  0.7246 -0.0978  1.6838
 7228SOL     OW33145   1.454   3.371  10.601 -0.0997  0.0925  0.2012
 7228SOL    HW133146   1.506   3.296  10.630 -0.8053 -1.4009 -2.3962
 7228SOL    HW233147   1.527   3.425  10.571  0.2907 -1.1103 -1.0408
 7229SOL     OW33148   2.905   4.365   3.730  0.8979 -0.4925 -0.2190
 7229SOL    HW133149   2.877   4.445   3.686  0.5058  0.1879  1.2695
 7229SOL    HW233150   2.999   4.381   3.737  0.8384 -0.8369  1.3860
 7230SOL     OW33151   2.976   3.545  15.555  0.2786 -0.0013  0.3835
 7230SOL    HW133152   2.983   3.505  15.469  0.6613 -0.7336  0.7468
 7230SOL    HW233153   2.986   3.639  15.540  0.9097 -0.7671 -3.7556
 7231SOL     OW33154   2.927   3.996   1.171 -0.3511 -0.7145  0.7298
 7231SOL    HW133155   2.952   4.077   1.217  1.6305 -1.6784  1.3598
 7231SOL    HW233156   2.845   4.019   1.127  1.8129  1.1562 -2.3560
 7232SOL     OW33157   2.228   0.988   8.333 -0.2395 -0.1829  0.1628
 7232SOL    HW133158   2.306   0.977   8.279 -1.0658 -2.1810 -0.6619
 7232SOL    HW233159   2.208   0.899   8.363 -0.6068 -0.3958 -0.7133
 7233SOL     OW33160   3.340   2.105   5.182  0.2182  0.5629 -0.2177
 7233SOL    HW133161   3.435   2.100   5.183  0.2443  1.0401 -0.7453
 7233SOL    HW233162   3.315   2.101   5.090  1.6475  1.0861 -0.6237
 7234SOL     OW33163   0.422   3.221  11.050  0.4414  0.0796  0.3633
 7234SOL    HW133164   0.422   3.159  11.123 -2.0367 -1.4043 -0.9183
 7234SOL    HW233165   0.497   3.196  10.995 -0.8691 -2.3988 -0.2873
 7235SOL     OW33166   1.656   1.163   8.598 -0.4563 -0.0315 -0.2766
 7235SOL    HW133167   1.743   1.148   8.560 -0.7154  0.8640 -1.2003
 7235SOL    HW233168   1.601   1.206   8.533  1.6554 -0.9379 -2.7021
 7236SOL     OW33169   0.655   1.330  14.717 -0.1264 -0.4585  0.2254
 7236SOL    HW133170   0.696   1.380  14.646 -1.0447 -0.9887 -0.6676
 7236SOL    HW233171   0.704   1.370  14.790 -1.8327  0.6640  0.7422
 7237SOL     OW33172   2.473   0.001  16.458  0.1585  0.2185 -0.0040
 7237SOL    HW133173   2.463   0.085  16.412  1.8609 -0.4556 -1.6307
 7237SOL    HW233174   2.506   0.032  16.542 -1.4965  0.6159  0.4995
 7238SOL     OW33175   4.713   2.666   2.494 -0.1623 -0.0120 -0.1581
 7238SOL    HW133176   0.008   2.644   2.403 -1.1566 -3.0655  0.3487
 7238SOL    HW233177   4.693   2.758   2.478  1.3119  0.1502 -0.9934
 7239SOL     OW33178   4.468   0.860   5.918 -0.4675 -0.6302  0.1931
 7239SOL    HW133179   4.499   0.848   6.008  0.7502 -0.0781 -0.1432
 7239SOL    HW233180   4.374   0.869   5.931 -0.6252  0.5311 -1.6485
 7240SOL     OW33181   2.634   1.243   3.607  0.2994 -0.1895  0.3964
 7240SOL    HW133182   2.593   1.248   3.520 -2.0209  0.8337  1.5377
 7240SOL    HW233183   2.606   1.158   3.639  0.4215 -0.3041  0.1977
 7241SOL     OW33184   4.194   2.685   6.002  0.8180  0.6185  0.7056
 7241SOL    HW133185   4.252   2.646   5.937 -1.1056  0.7286 -1.0514
 7241SOL    HW233186   4.176   2.616   6.066  2.5872  0.0579  0.6096
 7242SOL     OW33187   2.651   4.223   9.288  0.4054 -0.6986 -0.2468
 7242SOL    HW133188   2.731   4.186   9.250  1.2684  2.7587 -1.8209
 7242SOL    HW233189   2.681   4.291   9.347 -1.7021 -0.0357  0.0458
 7243SOL     OW33190   2.668   3.094   2.013  0.2317 -0.6579 -0.5577
 7243SOL    HW133191   2.713   3.032   1.955 -1.6714 -2.2507 -0.3004
 7243SOL    HW233192   2.605   3.141   1.960 -1.6027 -3.6696 -1.0540
 7244SOL     OW33193   0.339   2.400   3.363 -0.3714 -0.0081  0.0474
 7244SOL    HW133194   0.310   2.311   3.341  0.2964 -0.0208 -0.7773
 7244SOL    HW233195   0.432   2.403   3.340 -0.1976  0.8799  0.8880
 7245SOL     OW33196   1.745   3.716  17.044  0.0022 -0.2266 -0.2903
 7245SOL    HW133197   1.791   3.632  17.036 -3.3116 -2.2132  1.1965
 7245SOL    HW233198   1.795   3.769  17.106  1.8360  0.6456 -2.5267
 7246SOL     OW33199   0.918   2.222   3.186 -0.2747  0.0981 -0.6131
 7246SOL    HW133200   0.997   2.183   3.225  0.1297 -0.9497 -2.4879
 7246SOL    HW233201   0.872   2.155   3.136  0.0696 -2.4200  2.3921
 7247SOL     OW33202   0.778   1.716   6.320 -0.2265  0.0732 -0.1203
 7247SOL    HW133203   0.745   1.776   6.388 -1.0173 -1.4860  0.8804
 7247SOL    HW233204   0.700   1.671   6.287 -0.7671  0.3859  0.7019
 7248SOL     OW33205   2.197   0.568   9.251 -0.4563 -0.3073 -0.5766
 7248SOL    HW133206   2.231   0.580   9.162 -1.8042  1.3364 -0.8797
 7248SOL    HW233207   2.159   0.654   9.267 -0.0477  0.4773 -3.7408
 7249SOL     OW33208   0.767   4.083  17.045 -0.1724  0.5466  0.0521
 7249SOL    HW133209   0.813   4.003  17.070 -0.9273  0.4859  1.2460
 7249SOL    HW233210   0.701   4.053  16.982  1.0195 -0.9175 -0.4933
 7250SOL     OW33211   3.205   2.771  11.386 -0.2533  0.1332  0.2293
 7250SOL    HW133212   3.116   2.799  11.366  0.3875  1.7064 -0.4978
 7250SOL    HW233213   3.253   2.758  11.304  1.6000 -0.0231  1.3292
 7251SOL     OW33214   1.435   2.570   6.123  0.0133 -0.1915 -0.2952
 7251SOL    HW133215   1.451   2.651   6.171 -1.0417  0.9993 -1.9410
 7251SOL    HW233216   1.433   2.506   6.193 -0.1734  0.8234  0.6303
 7252SOL     OW33217   3.535   0.917   6.486  0.2286  0.1210  0.9109
 7252SOL    HW133218   3.529   0.904   6.580 -0.5535  0.8596  0.9650
 7252SOL    HW233219   3.463   0.980   6.476  0.3997  0.1745 -0.0106
 7253SOL     OW33220   1.929   0.899   9.186  0.0487  0.3158  0.0253
 7253SOL    HW133221   1.913   0.960   9.114 -0.4814  1.8008  1.4162
 7253SOL    HW233222   1.870   0.823   9.176  1.2708 -0.5612 -0.4294
 7254SOL     OW33223   2.479   2.415   0.853 -0.0591  0.0341  0.1678
 7254SOL    HW133224   2.499   2.359   0.778  2.2974 -0.6019  1.2714
 7254SOL    HW233225   2.429   2.483   0.809  2.8984  1.2157 -1.4183
 7255SOL     OW33226   2.495   2.964   2.917  0.0915  0.2907  0.6229
 7255SOL    HW133227   2.518   2.872   2.903 -1.4569 -0.0697  0.4966
 7255SOL    HW233228   2.499   3.005   2.831  0.2685 -0.1034  0.4447
 7256SOL     OW33229   2.868   1.594   1.149 -0.0727 -0.3375  0.3351
 7256SOL    HW133230   2.809   1.662   1.182 -0.1007  0.2758 -0.9684
 7256SOL    HW233231   2.819   1.552   1.077 -1.2622  2.6138 -0.5801
 7257SOL     OW33232   0.497   1.117  10.469  0.3549 -0.3710 -1.1799
 7257SOL    HW133233   0.430   1.061  10.509 -0.5221 -0.3352 -2.6170
 7257SOL    HW233234   0.499   1.194  10.525 -0.7778  0.0052 -1.6724
 7258SOL     OW33235   1.750   2.702   4.053  0.1565 -0.5027 -0.6284
 7258SOL    HW133236   1.738   2.793   4.080 -0.6379 -0.6900 -0.3453
 7258SOL    HW233237   1.751   2.667   4.142 -2.0330 -0.4353 -0.5741
 7259SOL     OW33238   1.420   0.730  11.521  0.7509  0.2790 -0.1207
 7259SOL    HW133239   1.353   0.692  11.465  2.0249 -1.2465 -0.6083
 7259SOL    HW233240   1.451   0.651  11.566  1.4160 -0.7961 -2.4627
 7260SOL     OW33241   1.287   3.933  13.485 -0.3040  0.1613  0.0397
 7260SOL    HW133242   1.195   3.958  13.476 -0.2319  0.2781 -0.3870
 7260SOL    HW233243   1.311   4.006  13.542 -0.4822  0.6634 -0.5231
 7261SOL     OW33244   0.254   0.191  17.098  0.1146  0.4766 -0.0950
 7261SOL    HW133245   0.331   0.208  17.152  0.0758 -0.5890  0.3011
 7261SOL    HW233246   0.185   0.192  17.164  1.2962  1.6363  1.0996
 7262SOL     OW33247   3.271   2.874   4.267 -0.1743 -0.1553 -0.1799
 7262SOL    HW133248   3.353   2.914   4.236 -1.2315  2.5714  0.5667
 7262SOL    HW233249   3.238   2.825   4.192 -1.1499  1.1622 -0.6109
 7263SOL     OW33250   0.308   2.875   8.798 -0.4243 -0.3264 -0.1500
 7263SOL    HW133251   0.261   2.800   8.833 -0.7944  0.8268  1.7818
 7263SOL    HW233252   0.359   2.896   8.876  0.3089 -0.1996 -0.6562
 7264SOL     OW33253   4.327   3.553   7.995 -0.3134  0.4082  0.0094
 7264SOL    HW133254   4.364   3.642   7.999 -1.1604  0.7072  1.2156
 7264SOL    HW233255   4.392   3.500   7.949  0.3086 -0.9054  2.3932
 7265SOL     OW33256   2.488   1.968   6.951  0.0279 -0.5203  0.5103
 7265SOL    HW133257   2.468   1.891   7.005  0.1485  0.0217  1.3211
 7265SOL    HW233258   2.563   1.925   6.909  0.3408 -0.3561  0.9007
 7266SOL     OW33259   0.133   1.781  11.572 -0.0363 -0.3276 -0.1808
 7266SOL    HW133260   0.205   1.733  11.531 -0.7301 -0.8723 -0.7549
 7266SOL    HW233261   0.094   1.710  11.622 -3.8419  1.5495 -0.4735
 7267SOL     OW33262   1.330   2.439   6.572  0.0492 -0.2769 -0.0792
 7267SOL    HW133263   1.409   2.428   6.518  0.5004  1.4097  0.2459
 7267SOL    HW233264   1.286   2.502   6.515 -0.1609 -0.2417  0.1229
 7268SOL     OW33265   3.181   1.530   2.113 -0.4500  0.0003 -0.3244
 7268SOL    HW133266   3.106   1.489   2.070 -2.1881  1.1696  1.6280
 7268SOL    HW233267   3.257   1.479   2.085 -0.5114 -0.2333 -0.0649
 7269SOL     OW33268   2.269   0.960   1.401  0.3355 -0.5025 -0.5771
 7269SOL    HW133269   2.242   0.885   1.347 -3.9889 -0.0570  0.9108
 7269SOL    HW233270   2.235   1.030   1.344  1.7494 -0.6402 -1.5850
 7270SOL     OW33271   3.787   3.670  14.307  0.7420 -0.5549 -0.1258
 7270SOL    HW133272   3.798   3.633  14.220  1.3702  2.4351 -1.3092
 7270SOL    HW233273   3.708   3.627  14.340 -0.2512 -0.0381 -1.8328
 7271SOL     OW33274   2.910   3.063  11.591  0.1698  0.3583  0.5430
 7271SOL    HW133275   3.001   3.049  11.618  0.1042  0.1741  0.6652
 7271SOL    HW233276   2.868   3.056  11.677  0.7303 -1.0215  0.7116
 7272SOL     OW33277   3.258   2.856  10.325 -0.1005 -0.4591 -0.9684
 7272SOL    HW133278   3.295   2.942  10.345 -0.8090  0.0549 -1.8530
 7272SOL    HW233279   3.245   2.866  10.230 -0.6592 -0.8289 -0.9290
 7273SOL     OW33280   2.103   0.659  11.176  0.2500  0.5158 -0.0539
 7273SOL    HW133281   2.050   0.607  11.236 -0.1394  0.5421 -0.3741
 7273SOL    HW233282   2.042   0.730  11.157 -1.2926 -0.2185  2.1519
 7274SOL     OW33283   1.578   2.332  17.197  0.2914  0.0434 -0.0907
 7274SOL    HW133284   1.499   2.317  17.144 -1.2395  2.1441  1.6565
 7274SOL    HW233285   1.547   2.399  17.258 -3.2139 -1.3815 -0.2766
 7275SOL     OW33286   4.356   3.222   3.774  0.7335  0.0267 -0.4116
 7275SOL    HW133287   4.374   3.316   3.767  1.0573  0.1374  2.0811
 7275SOL    HW233288   4.446   3.190   3.778  0.0531 -1.7916 -0.0118
 7276SOL     OW33289   2.830   3.293   5.890 -0.6151  0.3959 -0.1289
 7276SOL    HW133290   2.914   3.277   5.934  0.1586  1.1774 -1.3287
 7276SOL    HW233291   2.849   3.352   5.817  0.8956  0.6299  0.4433
 7277SOL     OW33292   2.279   4.519   7.970  0.1382 -0.3111 -0.1737
 7277SOL    HW133293   2.309   4.601   7.930 -0.8845  0.1684  0.0546
 7277SOL    HW233294   2.324   4.511   8.054 -0.1292 -1.6745 -0.1725
 7278SOL     OW33295   1.211   3.317   2.298 -0.3680  0.0457  0.0162
 7278SOL    HW133296   1.150   3.284   2.365 -1.3327  1.1397 -0.3163
 7278SOL    HW233297   1.299   3.297   2.329 -0.1819 -0.0609 -0.5909
 7279SOL     OW33298   1.729   0.817   4.970  0.4692 -0.0341  0.0504
 7279SOL    HW133299   1.784   0.804   4.893 -0.6764  0.6332 -0.8781
 7279SOL    HW233300   1.644   0.791   4.935 -0.0855 -1.5773  2.5317
 7280SOL     OW33301   2.720   0.699  12.436 -1.0604 -0.3219 -0.3188
 7280SOL    HW133302   2.811   0.705  12.465 -1.1323 -0.9868  0.0602
 7280SOL    HW233303   2.712   0.606  12.414  0.1676 -1.1818  2.8379
 7281SOL     OW33304   2.354   3.252  11.394 -0.2098  0.0353 -0.4704
 7281SOL    HW133305   2.400   3.331  11.364 -0.1027 -0.0514 -0.5344
 7281SOL    HW233306   2.427   3.191  11.405  1.1530  1.6709 -0.3384
 7282SOL     OW33307   1.829   4.372   1.296  0.1218 -0.4295  0.7483
 7282SOL    HW133308   1.794   4.307   1.357 -2.7157  0.7782  0.3764
 7282SOL    HW233309   1.753   4.427   1.279 -0.5415 -1.4913  0.2185
 7283SOL     OW33310   0.055   1.654   6.814  0.0520 -0.5398 -0.1665
 7283SOL    HW133311   4.697   1.698   6.828  0.6171 -0.3698  2.6592
 7283SOL    HW233312   0.112   1.731   6.816 -0.5876 -0.0020 -3.3266
 7284SOL     OW33313   4.338   0.153  10.571 -0.6314  0.2755  0.0707
 7284SOL    HW133314   4.243   0.160  10.580 -0.5599  0.7872  0.4272
 7284SOL    HW233315   4.369   0.119  10.655  2.7155  1.4855 -0.6503
 7285SOL     OW33316   2.816   0.354  11.577  0.2996 -0.2374 -0.0955
 7285SOL    HW133317   2.766   0.295  11.633  0.1401 -0.5345 -0.5445
 7285SOL    HW233318   2.887   0.388  11.632  1.2565 -0.4101 -1.2250
 7286SOL     OW33319   4.178   0.287   3.356  0.4690 -0.1638 -0.4484
 7286SOL    HW133320   4.226   0.281   3.438 -0.2155  1.1833  0.0456
 7286SOL    HW233321   4.129   0.205   3.356  1.4811 -0.7830  0.8987
 7287SOL     OW33322   1.985   2.170  14.265  0.1274  0.2877  0.0245
 7287SOL    HW133323   1.954   2.080  14.278  0.4273  0.2422  0.4545
 7287SOL    HW233324   2.074   2.171  14.229 -1.2766  0.6032 -3.4005
 7288SOL     OW33325   4.537   3.746  12.947 -0.2860  0.2573  0.2572
 7288SOL    HW133326   4.582   3.661  12.947 -0.5338  0.1242 -0.2518
 7288SOL    HW233327   4.598   3.793  13.003  0.1880 -0.6439  0.5086
 7289SOL     OW33328   3.001   2.276   3.033 -1.1509  0.2793  0.1203
 7289SOL    HW133329   2.920   2.225   3.031 -0.5618 -0.7694  2.7249
 7289SOL    HW233330   3.058   2.220   3.085 -1.0612  0.8914  0.6815
 7290SOL     OW33331   0.675   4.171  15.117 -0.4541 -0.0495 -0.4576
 7290SOL    HW133332   0.707   4.104  15.058  2.0242 -0.9677  1.9775
 7290SOL    HW233333   0.759   4.202  15.150 -0.4523  1.6051 -1.9568
 7291SOL     OW33334   1.424   0.402   5.609 -0.1097  0.1148  0.1146
 7291SOL    HW133335   1.338   0.405   5.651 -0.7034  0.4120 -1.1284
 7291SOL    HW233336   1.432   0.490   5.572 -0.7324  0.5098  0.9265
 7292SOL     OW33337   0.836   4.532   4.945  0.0207  0.7765 -0.1982
 7292SOL    HW133338   0.881   4.507   4.864 -1.2131 -0.5809 -0.4758
 7292SOL    HW233339   0.748   4.501   4.924  0.7946 -1.3696 -0.2814
 7293SOL     OW33340   3.645   3.240   2.715  0.1760  0.2159  0.0849
 7293SOL    HW133341   3.674   3.163   2.667 -1.6630 -1.9938  2.4794
 7293SOL    HW233342   3.584   3.197   2.775  0.1384 -0.2316 -0.2752
 7294SOL     OW33343   1.887   0.945   4.781 -0.2028 -0.8463  0.3380
 7294SOL    HW133344   1.869   0.971   4.690  1.5204  0.1518  0.2899
 7294SOL    HW233345   1.914   1.033   4.807  2.0958 -1.6744  0.7169
 7295SOL     OW33346   2.286   1.372   9.065  0.0130  0.4456  0.0461
 7295SOL    HW133347   2.260   1.299   9.009  0.6957  0.4403 -0.2665
 7295SOL    HW233348   2.230   1.436   9.021  0.9320  2.2364  1.5157
 7296SOL     OW33349   1.379   2.427   3.563  0.3501  0.1975 -0.4986
 7296SOL    HW133350   1.417   2.345   3.531  0.4710  0.0066  0.1512
 7296SOL    HW233351   1.382   2.485   3.486  0.5699  0.4577 -0.2924
 7297SOL     OW33352   0.700   1.446   7.872 -0.2079 -0.2741  0.2971
 7297SOL    HW133353   0.749   1.458   7.791 -0.6679  2.8461  0.4558
 7297SOL    HW233354   0.742   1.514   7.924  0.1858 -1.8297  2.0030
 7298SOL     OW33355   1.486   2.754  11.413 -0.2764  0.3099  0.4390
 7298SOL    HW133356   1.525   2.760  11.325  0.7748  2.2247  1.0328
 7298SOL    HW233357   1.557   2.791  11.466 -1.5856 -0.2029  2.5482
 7299SOL     OW33358   3.015   2.126   5.630  0.2166 -0.0852 -0.2523
 7299SOL    HW133359   2.983   2.125   5.540 -2.3536  1.1989  0.6535
 7299SOL    HW233360   3.099   2.086   5.608  1.0568  1.0041  0.9903
 7300SOL     OW33361   2.510   3.858  11.711 -0.0564 -0.1938  0.5155
 7300SOL    HW133362   2.458   3.847  11.791  1.2456  2.7858  1.8130
 7300SOL    HW233363   2.586   3.804  11.730  1.4169  1.0993 -1.7699
 7301SOL     OW33364   1.699   3.491   4.308 -0.4941  0.2784 -1.0995
 7301SOL    HW133365   1.611   3.531   4.305 -0.3751  0.6091 -0.4013
 7301SOL    HW233366   1.690   3.432   4.383 -0.2383  0.5165 -0.8792
 7302SOL     OW33367   2.054   2.746  12.935 -0.1878 -0.1066  0.4248
 7302SOL    HW133368   2.054   2.709  13.023  2.9035 -0.8601  0.1179
 7302SOL    HW233369   1.989   2.681  12.907 -1.5651  1.6161 -0.3738
 7303SOL     OW33370   3.057   3.018  10.478 -0.1876  0.1475 -0.3387
 7303SOL    HW133371   3.006   3.019  10.397  1.5042  0.7157 -1.3974
 7303SOL    HW233372   3.139   3.051  10.441 -0.3812  1.8094  0.6645
 7304SOL     OW33373   2.716   2.800  11.218  0.4786 -0.5126 -0.1040
 7304SOL    HW133374   2.728   2.788  11.124  0.2723 -0.6580 -0.1127
 7304SOL    HW233375   2.671   2.883  11.203 -0.0169 -0.9942 -1.2809
 7305SOL     OW33376   2.286   4.160  14.352 -0.9897 -0.4002  0.0838
 7305SOL    HW133377   2.299   4.079  14.402 -0.6152 -1.2177 -1.3525
 7305SOL    HW233378   2.277   4.219  14.427 -1.1857  3.4174 -2.9126
 7306SOL     OW33379   2.683   3.251   4.618 -0.6798 -0.2772 -0.1192
 7306SOL    HW133380   2.709   3.330   4.570  0.1054  0.4396  1.4804
 7306SOL    HW233381   2.755   3.250   4.681  0.0642 -2.3745 -1.0037
 7307SOL     OW33382   3.490   4.277   7.035  0.0294 -0.1370 -0.0057
 7307SOL    HW133383   3.584   4.275   7.053  0.3984 -2.7981 -2.2894
 7307SOL    HW233384   3.452   4.191   7.051  1.5324 -0.5966  1.0818
 7308SOL     OW33385   3.462   4.570   4.681  0.3246 -0.1731  0.7855
 7308SOL    HW133386   3.466   4.665   4.669  0.4786 -0.1439  1.0621
 7308SOL    HW233387   3.371   4.550   4.662  0.8830 -0.6696 -1.3776
 7309SOL     OW33388   4.493   3.182   2.051  0.1689  0.2960 -0.0243
 7309SOL    HW133389   4.494   3.214   2.141  1.2395 -0.6483  0.3037
 7309SOL    HW233390   4.406   3.207   2.020 -0.6848 -0.8670  1.4333
 7310SOL     OW33391   0.240   1.410   9.842 -0.5776 -0.2505  0.4339
 7310SOL    HW133392   0.331   1.422   9.814 -0.0216 -1.7222  1.6601
 7310SOL    HW233393   0.205   1.362   9.767  1.7450 -2.9208  1.0454
 7311SOL     OW33394   3.640   0.449   2.299  0.0034  0.0517  0.0862
 7311SOL    HW133395   3.735   0.446   2.302 -0.0145 -0.7850 -0.2488
 7311SOL    HW233396   3.617   0.371   2.349  0.6236  1.7692  3.0316
 7312SOL     OW33397   3.235   3.951   2.661 -0.0692  0.6226  0.2522
 7312SOL    HW133398   3.267   3.984   2.745  0.8626  0.4973 -0.0487
 7312SOL    HW233399   3.216   4.034   2.618 -0.8338  1.2092  1.7190
 7313SOL     OW33400   0.048   3.978  16.176  0.0936  0.6674  0.1279
 7313SOL    HW133401   0.092   3.922  16.240 -0.5859 -0.3599 -0.3121
 7313SOL    HW233402   4.688   3.935  16.173  0.7542 -0.4779 -1.8010
 7314SOL     OW33403   3.513   0.151   7.200 -0.4777  0.3667  0.3681
 7314SOL    HW133404   3.574   0.201   7.255 -0.0170  0.6146 -0.3712
 7314SOL    HW233405   3.463   0.110   7.271 -1.3805  0.2112 -0.3630
 7315SOL     OW33406   2.708   0.151   7.595  0.3697  0.1201 -0.2816
 7315SOL    HW133407   2.651   0.165   7.519 -0.1079 -1.5288 -0.2180
 7315SOL    HW233408   2.665   0.082   7.646  0.3376  0.5750  0.3132
 7316SOL     OW33409   3.250   0.282   6.511 -0.4258 -0.3974 -0.5245
 7316SOL    HW133410   3.207   0.352   6.462 -0.0216 -0.5532 -1.1145
 7316SOL    HW233411   3.313   0.341   6.553 -1.5829  0.3393  0.1629
 7317SOL     OW33412   4.644   0.185  16.443  0.3598 -0.2172 -0.0982
 7317SOL    HW133413   4.631   0.093  16.465  0.8173 -0.2954 -0.1543
 7317SOL    HW233414   4.647   0.168  16.349 -0.1450 -0.7406 -0.0197
 7318SOL     OW33415   3.147   0.175   0.239 -0.2712 -0.1994 -0.2041
 7318SOL    HW133416   3.103   0.210   0.162 -0.1778 -2.5361 -1.3082
 7318SOL    HW233417   3.193   0.108   0.189 -0.5962 -1.1740  0.7901
 7319SOL     OW33418   0.010   3.973   6.379  0.7522  0.3567 -0.0275
 7319SOL    HW133419   4.702   4.050   6.425 -0.1770 -0.7269  1.0727
 7319SOL    HW233420   0.066   3.938   6.447  1.1079  1.2386  0.1402
 7320SOL     OW33421   3.974   0.391   3.504 -0.4432  0.3977 -0.7618
 7320SOL    HW133422   3.934   0.308   3.529  1.2426 -0.1071  0.2459
 7320SOL    HW233423   4.052   0.365   3.454  0.0431  0.1595  0.1095
 7321SOL     OW33424   0.872   4.399   5.910  0.5150  0.1819  0.6165
 7321SOL    HW133425   0.894   4.344   5.834  0.2093  0.8017  0.0835
 7321SOL    HW233426   0.940   4.466   5.910  0.8522 -0.1465 -2.2577
 7322SOL     OW33427   0.005   1.135   8.390 -0.6693  0.8408 -0.8371
 7322SOL    HW133428   4.646   1.179   8.393 -1.0237  0.1212 -0.4796
 7322SOL    HW233429   4.702   1.053   8.430  2.4835  0.2960  0.2668
 7323SOL     OW33430   1.975   2.108   9.287 -0.5167  0.0599 -0.0645
 7323SOL    HW133431   2.030   2.065   9.221  1.6269  0.8397  1.1954
 7323SOL    HW233432   2.002   2.056   9.362 -1.2902 -0.4344 -0.1373
 7324SOL     OW33433   1.450   0.337  12.246 -0.0306  0.3540 -0.2030
 7324SOL    HW133434   1.359   0.330  12.274  0.2894 -2.5243  0.1229
 7324SOL    HW233435   1.476   0.247  12.226 -0.0574  0.9754 -3.0035
 7325SOL     OW33436   2.612   0.783  11.221  0.2018  0.0274  0.1267
 7325SOL    HW133437   2.673   0.857  11.216  1.2351 -0.7595  0.8477
 7325SOL    HW233438   2.524   0.817  11.209  0.1214 -0.3002 -0.2260
 7326SOL     OW33439   4.034   2.602   5.448 -0.3140 -0.9761 -0.4631
 7326SOL    HW133440   4.089   2.632   5.376 -0.4371  0.5455  0.0663
 7326SOL    HW233441   3.963   2.564   5.398  0.0838 -1.1999 -0.8582
 7327SOL     OW33442   3.138   1.112  15.967  0.2957 -0.2390  0.0510
 7327SOL    HW133443   3.173   1.029  15.935  0.8160  0.2374 -0.6162
 7327SOL    HW233444   3.215   1.144  16.012 -1.5592  3.5527  0.5524
 7328SOL     OW33445   1.660   1.933   6.034  0.6696 -0.1225  0.2103
 7328SOL    HW133446   1.596   1.990   5.992  1.0703 -1.4630 -2.1899
 7328SOL    HW233447   1.713   1.998   6.080 -0.3702  1.6479 -1.0854
 7329SOL     OW33448   0.821   0.071   8.871  0.0587  0.2825 -0.0664
 7329SOL    HW133449   0.787   0.148   8.916 -0.7665  0.2571 -0.6622
 7329SOL    HW233450   0.779   0.076   8.786 -0.5533  0.5407  0.2562
 7330SOL     OW33451   2.765   1.070   4.570 -0.1414 -0.2942  0.0914
 7330SOL    HW133452   2.763   1.025   4.486 -1.4243 -1.0331  0.5120
 7330SOL    HW233453   2.674   1.099   4.575  0.3125  0.9723  1.0924
 7331SOL     OW33454   3.971   4.398   0.888  0.2442  0.0894  0.4806
 7331SOL    HW133455   4.015   4.315   0.908  0.9097  0.4434  0.4849
 7331SOL    HW233456   3.893   4.362   0.847  1.1491 -1.4957  0.1282
 7332SOL     OW33457   1.154   1.231   2.354 -0.4681  0.1590 -0.0085
 7332SOL    HW133458   1.225   1.252   2.415 -0.1773  0.1818 -0.3589
 7332SOL    HW233459   1.194   1.163   2.299 -0.3245 -0.8571  1.3522
 7333SOL     OW33460   4.002   4.620  10.061 -0.6803 -0.2577 -0.4413
 7333SOL    HW133461   4.048   4.677  10.123  1.3292 -2.6902  0.2810
 7333SOL    HW233462   4.057   4.616   9.984 -0.8015 -2.9454 -0.4009
 7334SOL     OW33463   3.429   0.403   9.110  1.0568  0.0483 -0.3594
 7334SOL    HW133464   3.462   0.319   9.144  0.8439  0.8191  1.7345
 7334SOL    HW233465   3.343   0.363   9.096 -1.0707  4.0427  1.6070
 7335SOL     OW33466   0.587   1.900   4.771 -0.4291  0.6361  0.0250
 7335SOL    HW133467   0.596   1.910   4.677 -0.6989 -1.4368 -0.2164
 7335SOL    HW233468   0.514   1.838   4.769  0.0884  0.0439 -0.6020
 7336SOL     OW33469   3.884   3.454   2.382  0.6022 -0.5624  0.0656
 7336SOL    HW133470   3.837   3.386   2.430  2.5707 -1.6784  0.3740
 7336SOL    HW233471   3.840   3.457   2.297  0.0903  0.7244  0.3748
 7337SOL     OW33472   4.155   1.653  14.999  0.3022  0.1291 -0.4893
 7337SOL    HW133473   4.149   1.702  14.917 -0.3871  1.4888  0.3723
 7337SOL    HW233474   4.247   1.627  14.996  0.9172  2.0432  2.6373
 7338SOL     OW33475   2.917   0.184  15.278 -0.2292 -0.1295  0.0119
 7338SOL    HW133476   2.884   0.228  15.200 -0.7904  1.0354  0.9058
 7338SOL    HW233477   3.004   0.224  15.275 -0.2539  0.1605  2.9475
 7339SOL     OW33478   1.973   1.736  11.327  0.2313 -0.4735  0.5027
 7339SOL    HW133479   2.049   1.758  11.273  0.1625 -1.8924 -0.1635
 7339SOL    HW233480   1.944   1.652  11.290 -1.6683  0.3985 -0.0126
 7340SOL     OW33481   3.425   2.775   1.305  0.0349 -0.1251  0.1630
 7340SOL    HW133482   3.422   2.709   1.236 -2.4138 -1.0844  1.1793
 7340SOL    HW233483   3.437   2.855   1.254 -1.7030 -0.5126 -0.8521
 7341SOL     OW33484   2.357   1.246   2.265  0.1428 -0.2032  0.2455
 7341SOL    HW133485   2.412   1.227   2.189 -0.8777 -1.4409 -0.1984
 7341SOL    HW233486   2.306   1.317   2.226  0.0672 -0.4844 -0.1740
 7342SOL     OW33487   4.126   0.778  16.081  0.7631 -0.2874  0.2717
 7342SOL    HW133488   4.031   0.768  16.076  0.5935  1.0361  0.9475
 7342SOL    HW233489   4.137   0.871  16.063  1.3257 -0.1126  1.4947
 7343SOL     OW33490   3.441   3.868  12.470 -0.1864 -0.7887 -0.0923
 7343SOL    HW133491   3.496   3.795  12.440  0.4625 -1.0471  1.7510
 7343SOL    HW233492   3.443   3.862  12.565  3.7588 -0.6239 -0.1550
 7344SOL     OW33493   4.206   0.591  15.029  0.0616  0.3808  0.4176
 7344SOL    HW133494   4.197   0.685  15.048  0.5431  0.3370  0.8436
 7344SOL    HW233495   4.234   0.562  15.116  2.2405 -1.9326 -1.0788
 7345SOL     OW33496   4.666   0.927   9.340  0.0895  0.5157  0.1353
 7345SOL    HW133497   0.001   0.897   9.272 -0.6776 -0.5096 -0.0966
 7345SOL    HW233498   4.623   1.001   9.297 -0.9379 -0.9784 -1.4075
 7346SOL     OW33499   3.632   2.758   0.926  0.1274 -0.2269  0.9310
 7346SOL    HW133500   3.648   2.672   0.887 -0.1076 -0.2537  0.8954
 7346SOL    HW233501   3.663   2.735   1.014  1.6412 -0.3963  0.3631
 7347SOL     OW33502   2.512   3.155   8.146 -0.0324  0.5949 -0.3837
 7347SOL    HW133503   2.419   3.157   8.168  0.3179 -2.7944  1.3792
 7347SOL    HW233504   2.540   3.109   8.225  0.2925  0.7236 -0.4238
 7348SOL     OW33505   1.645   4.007   3.502  0.2918 -0.4959 -0.1444
 7348SOL    HW133506   1.551   3.988   3.498 -0.0797  1.5973 -1.1674
 7348SOL    HW233507   1.660   3.981   3.411  0.7853 -2.4511  0.4815
 7349SOL     OW33508   4.450   2.196   6.084 -0.3092  0.3157 -0.2446
 7349SOL    HW133509   4.523   2.157   6.036  1.2582  1.9204  0.7931
 7349SOL    HW233510   4.374   2.166   6.034  0.9190  0.6912 -2.3272
 7350SOL     OW33511   0.824   4.173  15.438  0.1055  0.4635  0.5720
 7350SOL    HW133512   0.885   4.192  15.510  1.1269 -1.1394  0.1474
 7350SOL    HW233513   0.882   4.159  15.363  1.0090  2.9173  0.8270
 7351SOL     OW33514   3.347   2.429   8.646  0.1508  0.8280  0.4210
 7351SOL    HW133515   3.380   2.509   8.686 -1.6526  1.6447  0.2332
 7351SOL    HW233516   3.307   2.393   8.725  1.5279  2.3756  1.8130
 7352SOL     OW33517   4.105   3.391   8.662  0.0493  0.4495 -0.1750
 7352SOL    HW133518   4.102   3.336   8.584 -0.5069  1.5133 -0.9118
 7352SOL    HW233519   4.196   3.383   8.688 -0.1878 -0.1186  0.4591
 7353SOL     OW33520   2.722   0.632  10.426 -0.0957  0.5710  0.2489
 7353SOL    HW133521   2.672   0.696  10.376 -3.7606 -2.3893  0.0560
 7353SOL    HW233522   2.802   0.679  10.445  1.4824 -1.8341 -0.4386
 7354SOL     OW33523   3.499   4.074   2.982  0.4385 -0.1686  0.4104
 7354SOL    HW133524   3.499   4.160   3.024  1.3482  0.1352 -0.2050
 7354SOL    HW233525   3.421   4.076   2.927 -0.6144 -0.5800  1.9018
 7355SOL     OW33526   0.963   4.137  15.945 -0.6288 -0.0253  0.3917
 7355SOL    HW133527   0.920   4.134  16.030 -0.3242  1.1756  0.5905
 7355SOL    HW233528   0.975   4.232  15.940  2.3345 -0.3549  0.9106
 7356SOL     OW33529   1.973   3.952   3.335  0.2162  0.4565 -0.4678
 7356SOL    HW133530   2.012   4.008   3.269  2.9033 -1.0501 -0.1763
 7356SOL    HW233531   1.891   3.913   3.304  0.1488 -0.5417  0.9367
 7357SOL     OW33532   4.006   2.059   8.044  0.0016 -0.5804 -0.4070
 7357SOL    HW133533   4.011   1.966   8.064 -1.7853 -0.4505  0.7183
 7357SOL    HW233534   3.927   2.068   7.991  0.6443  1.0009 -1.0980
 7358SOL     OW33535   4.342   0.445  10.187  0.0404  0.1686 -0.0292
 7358SOL    HW133536   4.282   0.432  10.261  0.8825 -2.5564  0.1823
 7358SOL    HW233537   4.421   0.408  10.226  0.1161 -0.9943 -1.2853
 7359SOL     OW33538   0.508   0.841  17.356  0.1490 -0.5899  0.2529
 7359SOL    HW133539   0.534   0.773  17.418  1.2080 -1.2122 -0.8743
 7359SOL    HW233540   0.415   0.827  17.340  0.3739  0.0950 -1.7063
 7360SOL     OW33541   4.023   4.202   6.912  0.6637  0.8979  0.1812
 7360SOL    HW133542   4.082   4.223   6.839 -1.2257  0.9725 -1.3410
 7360SOL    HW233543   3.991   4.118   6.880  2.2219 -0.1095  1.2501
 7361SOL     OW33544   1.306   0.586   6.117  0.3443  0.6026 -0.2042
 7361SOL    HW133545   1.228   0.629   6.150  2.3526  1.9597  2.7757
 7361SOL    HW233546   1.315   0.633   6.035 -0.3059 -1.0530 -1.2329
 7362SOL     OW33547   2.355   3.468   8.302  0.4379  0.0082 -0.0363
 7362SOL    HW133548   2.401   3.503   8.226  0.8193 -1.2372 -0.3809
 7362SOL    HW233549   2.303   3.395   8.269  0.4975 -0.8568  1.7503
 7363SOL     OW33550   4.454   2.679   3.356  0.5167  0.1863 -0.4311
 7363SOL    HW133551   4.519   2.711   3.418 -0.2547  2.4738 -0.7981
 7363SOL    HW233552   4.376   2.712   3.401 -0.5822 -0.0354 -2.1536
 7364SOL     OW33553   2.239   2.320  17.215  0.0179  0.0042  0.0368
 7364SOL    HW133554   2.297   2.370  17.157  1.7988 -1.5216  0.5019
 7364SOL    HW233555   2.195   2.387  17.267  2.5695  1.3649  0.4809
 7365SOL     OW33556   1.397   0.239   9.168 -0.6986 -0.0245 -0.5398
 7365SOL    HW133557   1.385   0.333   9.154 -0.5408  0.0763  0.0114
 7365SOL    HW233558   1.468   0.235   9.231  0.4441  0.6284 -1.7786
 7366SOL     OW33559   2.577   3.914   2.754  0.3020  0.3995 -0.4283
 7366SOL    HW133560   2.544   3.998   2.721  0.2261 -0.0647 -1.5560
 7366SOL    HW233561   2.672   3.925   2.753  0.5592 -1.7780 -2.8894
 7367SOL     OW33562   2.557   4.644   7.723  0.4298  0.0424  0.1136
 7367SOL    HW133563   2.502   4.589   7.666 -0.9210  0.8311  0.6456
 7367SOL    HW233564   2.487   4.698   7.760 -0.1307 -0.4000 -0.2902
 7368SOL     OW33565   3.574   2.181   4.218 -0.4286  0.6166  0.2630
 7368SOL    HW133566   3.545   2.189   4.127 -0.1404 -1.5272 -0.0259
 7368SOL    HW233567   3.576   2.275   4.236  1.0818  0.4302  1.0551
 7369SOL     OW33568   2.003   4.092   5.330  0.1808 -0.0621 -0.2677
 7369SOL    HW133569   1.987   4.185   5.341  1.0803  0.3092 -2.1152
 7369SOL    HW233570   2.089   4.090   5.289 -0.8481 -1.0278 -2.4129
 7370SOL     OW33571   3.863   4.048   9.798  0.1012 -0.8899  0.3886
 7370SOL    HW133572   3.913   4.086   9.726 -0.9498  1.9956  1.1684
 7370SOL    HW233573   3.924   4.034   9.870 -0.7779 -1.0614  1.1064
 7371SOL     OW33574   1.766   3.419   3.379  0.3143 -0.0237  0.1397
 7371SOL    HW133575   1.802   3.386   3.461 -1.0915  1.3575  1.3318
 7371SOL    HW233576   1.724   3.499   3.411 -2.7799 -1.9197  0.7964
 7372SOL     OW33577   0.973   1.669  13.265 -0.1421  0.4930 -0.0092
 7372SOL    HW133578   0.961   1.703  13.177  2.6290 -1.4673 -1.1236
 7372SOL    HW233579   0.918   1.591  13.271  1.3662 -0.4438  1.3359
 7373SOL     OW33580   2.063   1.936   8.353 -0.0820 -0.1421 -0.1963
 7373SOL    HW133581   1.975   1.928   8.314 -0.6848 -0.5341  1.2618
 7373SOL    HW233582   2.044   1.994   8.426  1.8545 -1.8989  1.6915
 7374SOL     OW33583   2.096   1.464   7.909 -0.2950 -0.2800 -0.0191
 7374SOL    HW133584   2.183   1.468   7.950 -0.0345 -0.8022 -0.5163
 7374SOL    HW233585   2.108   1.382   7.862 -1.6804 -0.7033  0.3686
 7375SOL     OW33586   3.835   0.349   1.111  0.6143 -0.4333  0.0036
 7375SOL    HW133587   3.891   0.273   1.129 -0.8035 -1.1704  1.4272
 7375SOL    HW233588   3.883   0.416   1.159  0.0372 -1.5480  2.1701
 7376SOL     OW33589   4.374   0.216   8.139  0.6448  0.2627 -0.1393
 7376SOL    HW133590   4.422   0.163   8.076  0.8108  1.2477 -0.8401
 7376SOL    HW233591   4.348   0.148   8.201  1.6659  0.7362  0.8095
 7377SOL     OW33592   3.900   2.617  14.061 -0.2404  0.3579  0.2838
 7377SOL    HW133593   3.927   2.539  14.108 -0.4494 -1.7410 -3.1278
 7377SOL    HW233594   3.904   2.687  14.127  0.3594 -0.6336  1.2808
 7378SOL     OW33595   2.441   1.871  13.876  0.3405 -0.7123  0.4870
 7378SOL    HW133596   2.384   1.847  13.804 -0.2515  2.2519 -0.0202
 7378SOL    HW233597   2.448   1.966  13.875  2.9877 -0.8932 -0.3746
 7379SOL     OW33598   3.863   4.430   0.634 -0.1591  0.6899  0.0478
 7379SOL    HW133599   3.917   4.355   0.611  0.2372  0.8987  0.2858
 7379SOL    HW233600   3.793   4.389   0.684 -0.7505  2.1136  0.4079
 7380SOL     OW33601   4.365   2.231  14.458  0.4680 -0.3438 -0.2757
 7380SOL    HW133602   4.358   2.289  14.382  0.4085 -1.3519 -1.0479
 7380SOL    HW233603   4.460   2.215  14.452  0.5463  0.1096 -0.2676
 7381SOL     OW33604   2.763   4.050   3.274  0.2507 -0.5618 -0.3653
 7381SOL    HW133605   2.689   4.100   3.241  0.2951 -0.5753 -0.4848
 7381SOL    HW233606   2.717   3.971   3.303 -0.4718 -0.2926 -0.7799
 7382SOL     OW33607   1.055   1.519   2.312 -0.4583  0.3262 -0.4087
 7382SOL    HW133608   0.979   1.520   2.254  1.2475  2.7424 -2.6382
 7382SOL    HW233609   1.051   1.433   2.353 -1.2200  0.0008 -1.1638
 7383SOL     OW33610   1.978   2.942   7.706  0.3559  0.3618  0.3598
 7383SOL    HW133611   2.054   2.995   7.732 -0.2451  1.7783 -0.8223
 7383SOL    HW233612   1.914   2.976   7.768 -2.0799 -0.3526 -1.7808
 7384SOL     OW33613   1.014   2.528   9.304 -0.0740 -0.0281  0.1973
 7384SOL    HW133614   1.073   2.458   9.331  0.7609  0.4669 -0.3180
 7384SOL    HW233615   0.970   2.545   9.387 -0.8938 -0.2569 -0.1925
 7385SOL     OW33616   2.473   3.838   3.616 -0.3574  0.0020  0.0908
 7385SOL    HW133617   2.382   3.822   3.589 -0.4993 -0.2085  0.6912
 7385SOL    HW233618   2.472   3.923   3.659 -0.5589 -0.6461  1.3833
 7386SOL     OW33619   1.697   3.756   6.985  0.1231  0.3138  0.1765
 7386SOL    HW133620   1.674   3.726   6.897  1.5852  2.9302 -1.0988
 7386SOL    HW233621   1.743   3.839   6.972  1.4163 -0.5259 -0.7298
 7387SOL     OW33622   0.886   1.696   9.049 -0.2140  0.4468 -0.0327
 7387SOL    HW133623   0.867   1.789   9.057  2.3564  0.9652  0.2393
 7387SOL    HW233624   0.905   1.667   9.138 -1.0324 -0.9987 -0.3329
 7388SOL     OW33625   1.273   1.251  17.607  0.4405  0.3590  0.3049
 7388SOL    HW133626   1.207   1.204  17.659 -0.2082 -0.4375 -1.2243
 7388SOL    HW233627   1.350   1.223  17.657 -0.1612 -1.5074  0.1989
 7389SOL     OW33628   0.651   1.324  13.218 -0.0858 -0.1423 -0.3820
 7389SOL    HW133629   0.695   1.404  13.186 -1.3945  0.1286 -1.5078
 7389SOL    HW233630   0.672   1.265  13.146 -3.3588 -1.5313 -0.1736
 7390SOL     OW33631   1.068   4.507  15.721 -1.0794  0.2322 -0.6877
 7390SOL    HW133632   1.069   4.423  15.676  2.2542 -1.6633  2.9007
 7390SOL    HW233633   1.065   4.477  15.812 -0.2798 -0.4730 -0.8904
 7391SOL     OW33634   1.808   0.622   9.296 -0.1590 -0.0161  0.1414
 7391SOL    HW133635   1.734   0.587   9.345  0.2531 -2.9806 -1.3949
 7391SOL    HW233636   1.873   0.630   9.365  2.0407  0.6780 -1.9969
 7392SOL     OW33637   3.180   2.772  11.884 -0.7045  0.7925 -0.4814
 7392SOL    HW133638   3.160   2.680  11.867 -0.7481  0.8910 -0.9434
 7392SOL    HW233639   3.107   2.806  11.833 -0.0195  1.1902 -1.2015
 7393SOL     OW33640   0.631   2.001   8.140  0.1772 -0.2917 -0.1126
 7393SOL    HW133641   0.726   1.999   8.128  0.4286 -0.6996  1.8969
 7393SOL    HW233642   0.618   1.909   8.166  0.3154 -0.5473 -0.9439
 7394SOL     OW33643   3.493   2.625   5.475 -0.2922 -0.6689  0.9204
 7394SOL    HW133644   3.496   2.530   5.469 -1.9751 -0.8880  3.5385
 7394SOL    HW233645   3.584   2.647   5.498 -0.1902 -0.0222 -0.1133
 7395SOL     OW33646   3.514   0.751   5.856 -0.1429  0.4391  0.0088
 7395SOL    HW133647   3.459   0.799   5.793 -1.4435 -1.4647 -0.3223
 7395SOL    HW233648   3.576   0.812   5.895  1.2330 -0.6924 -0.4222
 7396SOL     OW33649   4.159   3.963   5.284 -0.0251  0.1564  0.0347
 7396SOL    HW133650   4.225   3.923   5.227 -0.0562  0.9916 -0.5836
 7396SOL    HW233651   4.183   4.055   5.284 -0.0247  0.1646 -1.7852
 7397SOL     OW33652   2.364   4.353   5.883  0.1918  0.1933  0.1005
 7397SOL    HW133653   2.309   4.354   5.962 -0.5004 -0.8687 -0.3812
 7397SOL    HW233654   2.429   4.287   5.907  0.2816  0.0868 -0.4449
 7398SOL     OW33655   0.075   2.947   7.141 -0.4719 -0.1862 -0.6322
 7398SOL    HW133656   0.059   2.871   7.084  1.0606  0.6296 -2.1825
 7398SOL    HW233657   0.135   2.907   7.204 -1.2064 -0.4718 -0.1161
 7399SOL     OW33658   2.731   1.746   8.483  0.8362  0.4459  0.3396
 7399SOL    HW133659   2.652   1.698   8.458  1.4705  0.4128 -1.6198
 7399SOL    HW233660   2.799   1.689   8.519  0.2790  1.3431  2.8245
 7400SOL     OW33661   3.754   3.432   4.301  0.0445  0.8249  0.1925
 7400SOL    HW133662   3.725   3.430   4.393 -1.1022 -1.9369 -0.2197
 7400SOL    HW233663   3.676   3.397   4.258  0.3203  1.0396 -0.4824
 7401SOL     OW33664   1.361   2.354  11.889 -0.3012 -0.0981 -0.5032
 7401SOL    HW133665   1.336   2.361  11.981 -0.5910 -0.5080 -0.5491
 7401SOL    HW233666   1.342   2.260  11.880 -0.2948 -0.2176  0.7193
 7402SOL     OW33667   3.561   3.892   8.892 -0.0884 -0.6506 -1.2812
 7402SOL    HW133668   3.484   3.878   8.837 -1.6990  0.2428  0.7225
 7402SOL    HW233669   3.592   3.802   8.885  1.0824 -0.4081  0.9455
 7403SOL     OW33670   0.807   2.268  14.821  0.1865  0.2211 -0.5601
 7403SOL    HW133671   0.735   2.216  14.857  0.6015 -0.9148 -1.3825
 7403SOL    HW233672   0.872   2.199  14.823 -0.4622 -0.3704  0.2990
 7404SOL     OW33673   4.680   0.998  17.664  0.2934  0.0007  0.0252
 7404SOL    HW133674   4.602   1.051  17.648 -1.8180 -3.4465 -1.0518
 7404SOL    HW233675   0.013   1.068  17.635  0.4969  0.1827  0.8967
 7405SOL     OW33676   1.396   3.868   3.323  0.6856 -0.4181  0.2605
 7405SOL    HW133677   1.365   3.823   3.401 -0.2217 -0.0269  0.1206
 7405SOL    HW233678   1.379   3.799   3.259  0.6200 -1.6421  1.6103
 7406SOL     OW33679   1.170   1.156   5.081  0.1129  0.3028  0.5621
 7406SOL    HW133680   1.076   1.141   5.091  0.2850 -2.4299 -1.8483
 7406SOL    HW233681   1.201   1.093   5.146  1.1341  1.1663  0.9107
 7407SOL     OW33682   2.171   2.447   8.704 -0.2296 -0.0669  0.0691
 7407SOL    HW133683   2.200   2.368   8.750  0.8350 -0.8015 -1.8732
 7407SOL    HW233684   2.119   2.486   8.774 -1.4279 -2.0333  0.2946
 7408SOL     OW33685   4.279   0.145  11.789 -0.0792  0.8459  0.0287
 7408SOL    HW133686   4.243   0.096  11.863  1.5874 -0.2880  0.1162
 7408SOL    HW233687   4.320   0.220  11.830  1.5261 -0.4657  0.8416
 7409SOL     OW33688   0.998   1.547  12.339  0.1061  0.0666  0.0959
 7409SOL    HW133689   0.937   1.590  12.398 -1.5499 -2.3057  0.1245
 7409SOL    HW233690   0.955   1.541  12.253 -1.1259 -1.1457  0.7942
 7410SOL     OW33691   0.445   0.638   2.033 -0.1407 -0.6958 -0.4245
 7410SOL    HW133692   0.486   0.703   1.975  1.6245 -1.9550 -0.5789
 7410SOL    HW233693   0.467   0.556   1.990 -0.7767 -0.5391 -1.0512
 7411SOL     OW33694   3.694   3.091  14.671  0.1384 -0.1398 -0.3200
 7411SOL    HW133695   3.748   3.121  14.744  0.6160 -2.7328  0.3764
 7411SOL    HW233696   3.648   3.032  14.730  1.3468 -0.7583  0.0080
 7412SOL     OW33697   3.018   0.984   2.824 -0.0679  0.6433 -0.3322
 7412SOL    HW133698   3.036   1.075   2.803  0.7923  0.3806 -0.7273
 7412SOL    HW233699   3.101   0.945   2.797 -1.9131 -1.8767 -2.3893
 7413SOL     OW33700   2.526   3.467  10.556 -0.3465 -0.0354 -0.6248
 7413SOL    HW133701   2.582   3.414  10.612 -0.2537  4.0206  3.1555
 7413SOL    HW233702   2.441   3.431  10.581  0.1913 -2.1180 -1.8173
 7414SOL     OW33703   3.621   3.854   3.446  0.5350  0.0135  0.4718
 7414SOL    HW133704   3.630   3.891   3.358  0.4789  1.4021  1.0479
 7414SOL    HW233705   3.667   3.771   3.441 -0.3769 -0.2858 -2.7168
 7415SOL     OW33706   1.522   0.480  11.631  0.0568  0.2518  0.3934
 7415SOL    HW133707   1.605   0.485  11.678  0.7936 -1.8426 -0.6441
 7415SOL    HW233708   1.448   0.482  11.691 -1.1525 -1.5243 -1.0428
 7416SOL     OW33709   2.570   3.874   1.227  0.1537 -0.5090  1.4572
 7416SOL    HW133710   2.601   3.814   1.159 -1.9163 -0.0721  0.1293
 7416SOL    HW233711   2.558   3.955   1.177  0.2809 -2.1431 -1.2209
 7417SOL     OW33712   0.503   3.417   6.463 -0.4648 -0.0629  0.4591
 7417SOL    HW133713   0.419   3.446   6.499 -0.6135 -0.5927  0.5523
 7417SOL    HW233714   0.509   3.475   6.388 -0.4534 -0.4867  0.1328
 7418SOL     OW33715   2.094   2.903   2.793 -0.6255  0.3653  0.2850
 7418SOL    HW133716   2.113   2.992   2.764  0.1317 -0.2444 -1.0791
 7418SOL    HW233717   2.004   2.892   2.765 -0.3456 -2.0347  0.3532
 7419SOL     OW33718   4.442   3.030   3.505 -0.3056  0.2743  0.4504
 7419SOL    HW133719   4.479   3.048   3.419  0.9933 -0.4599  0.8428
 7419SOL    HW233720   4.403   2.943   3.502 -0.5584  0.3976  0.2663
 7420SOL     OW33721   4.716   3.401   8.622 -0.0953  0.5399  0.3819
 7420SOL    HW133722   0.053   3.345   8.576  0.2111 -0.3390  1.9011
 7420SOL    HW233723   0.046   3.461   8.672  0.1535  1.7006 -1.2554
 7421SOL     OW33724   4.467   3.485   0.330 -0.0459  0.2303 -0.8065
 7421SOL    HW133725   4.439   3.576   0.329  1.2872  0.6315 -1.8244
 7421SOL    HW233726   4.437   3.461   0.418  1.1099  1.8406  0.0394
 7422SOL     OW33727   1.610   3.570   2.574  1.0142  0.1071  0.0134
 7422SOL    HW133728   1.544   3.633   2.604  2.0888  0.0147  2.6288
 7422SOL    HW233729   1.587   3.571   2.481  0.7054  0.0962  0.0874
 7423SOL     OW33730   4.200   3.937  14.332 -0.4296 -0.2159  0.1411
 7423SOL    HW133731   4.142   4.012  14.320 -1.2587 -0.9921 -0.6832
 7423SOL    HW233732   4.252   3.953  14.411  0.2818  1.3769 -0.6423
 7424SOL     OW33733   3.482   0.932   7.326 -0.2750 -0.1401  0.2204
 7424SOL    HW133734   3.485   0.842   7.293  0.6400  0.2328 -0.7387
 7424SOL    HW233735   3.557   0.935   7.386 -1.5007  1.7861  1.6218
 7425SOL     OW33736   3.971   3.900   5.022 -0.9937 -0.4627 -0.7633
 7425SOL    HW133737   3.927   3.861   5.098 -0.1883 -1.6249 -0.8941
 7425SOL    HW233738   3.971   3.991   5.052 -0.8602 -0.8393  0.3953
 7426SOL     OW33739   2.465   4.036   2.243 -0.0879 -0.5522 -0.4212
 7426SOL    HW133740   2.556   4.019   2.268  0.0747 -1.6799 -1.7616
 7426SOL    HW233741   2.457   3.961   2.183 -0.0902 -0.7795 -0.1354
 7427SOL     OW33742   2.855   1.343  15.606  0.8528 -0.1933 -0.2245
 7427SOL    HW133743   2.896   1.277  15.661 -0.4758 -1.8638 -1.2451
 7427SOL    HW233744   2.900   1.414  15.653 -0.4476 -0.2607  1.1438
 7428SOL     OW33745   0.635   3.797  16.663  0.3678  0.2179  0.2431
 7428SOL    HW133746   0.682   3.866  16.617 -1.8712  1.5086 -0.0989
 7428SOL    HW233747   0.665   3.806  16.754  0.4025 -0.8276  0.3345
 7429SOL     OW33748   1.397   1.348  11.402 -0.5645  0.0062  0.0808
 7429SOL    HW133749   1.388   1.440  11.426  1.0057  0.2378 -0.2573
 7429SOL    HW233750   1.379   1.351  11.308 -0.4529  1.0104  0.0951
 7430SOL     OW33751   2.066   4.457   9.127 -0.4548 -0.4780 -0.0833
 7430SOL    HW133752   2.114   4.519   9.182  0.6457 -2.1931  0.8932
 7430SOL    HW233753   2.138   4.419   9.076  0.9158  2.4581 -0.3278
 7431SOL     OW33754   1.589   2.757  11.749 -0.4469  0.2582  0.1786
 7431SOL    HW133755   1.539   2.679  11.724 -3.1188  2.3015 -0.8061
 7431SOL    HW233756   1.649   2.761  11.675 -2.3145 -1.4870 -1.4326
 7432SOL     OW33757   2.366   3.066   1.246 -0.7145  0.3680  0.1413
 7432SOL    HW133758   2.401   2.981   1.222 -0.2487  0.5318  0.2375
 7432SOL    HW233759   2.272   3.049   1.246 -0.1423 -2.7370 -1.3125
 7433SOL     OW33760   4.092   0.646   1.446 -0.0612 -0.6743  0.1998
 7433SOL    HW133761   4.138   0.729   1.432  0.8559 -1.0554  0.9636
 7433SOL    HW233762   4.139   0.609   1.520 -1.5635 -0.2918  1.3361
 7434SOL     OW33763   3.601   2.642   4.473  0.2580  0.1577  0.2726
 7434SOL    HW133764   3.586   2.562   4.422 -0.5610 -0.0984  0.9216
 7434SOL    HW233765   3.513   2.663   4.503 -0.3297  1.7187 -2.4804
 7435SOL     OW33766   1.012   0.527   2.209 -0.3527  0.1363  0.1645
 7435SOL    HW133767   1.020   0.461   2.140 -3.5187 -0.1541  0.0665
 7435SOL    HW233768   1.089   0.579   2.184  0.2700 -0.3324  1.1253
 7436SOL     OW33769   1.735   2.392   4.510 -0.5600 -0.3000 -0.3349
 7436SOL    HW133770   1.793   2.401   4.586 -0.6118  1.0170 -0.4564
 7436SOL    HW233771   1.730   2.297   4.505  1.6235 -0.5112  1.1954
 7437SOL     OW33772   3.988   1.057  15.184  0.5246 -0.0198 -0.4614
 7437SOL    HW133773   4.075   1.069  15.147  1.2046  0.4477  1.3361
 7437SOL    HW233774   3.987   0.962  15.184  0.4703 -0.0192 -1.1073
 7438SOL     OW33775   0.182   2.567   3.217  0.0919  0.0888  0.1759
 7438SOL    HW133776   0.091   2.540   3.231  0.4367 -0.3573  1.5477
 7438SOL    HW233777   0.234   2.527   3.286 -1.2853  0.5749  1.4972
 7439SOL     OW33778   4.419   2.739   6.783 -0.2111 -0.2939  0.0825
 7439SOL    HW133779   4.426   2.762   6.876 -2.3508  0.7801 -0.0315
 7439SOL    HW233780   4.477   2.664   6.767  1.3127  0.7722  0.5834
 7440SOL     OW33781   0.297   4.152   8.858 -0.1524  0.0040  0.3344
 7440SOL    HW133782   0.362   4.133   8.791 -2.5849 -1.7291 -1.5023
 7440SOL    HW233783   0.353   4.188   8.928  0.7924 -1.6399  0.4139
 7441SOL     OW33784   2.569   4.025  15.379 -0.3170  0.0311 -0.5088
 7441SOL    HW133785   2.533   4.037  15.291  0.0315  1.6603 -0.4378
 7441SOL    HW233786   2.530   4.103  15.418  0.5905 -0.7489  1.9632
 7442SOL     OW33787   2.973   1.568   4.727  0.3253  0.1441 -0.2607
 7442SOL    HW133788   3.005   1.521   4.650 -1.0984  0.9270 -1.3233
 7442SOL    HW233789   3.037   1.542   4.794 -0.3946 -1.3310 -0.1503
 7443SOL     OW33790   0.087   1.658  15.575  0.1169 -0.4209 -0.2467
 7443SOL    HW133791   0.095   1.625  15.664  0.6608 -1.7254 -0.7790
 7443SOL    HW233792   0.072   1.572  15.536  1.5005  0.2206 -2.2042
 7444SOL     OW33793   1.053   3.813  11.223 -0.2092 -0.5806 -0.2498
 7444SOL    HW133794   1.056   3.908  11.219 -1.3465 -0.5376 -0.1201
 7444SOL    HW233795   1.054   3.808  11.319 -0.0014  0.9389 -0.1748
 7445SOL     OW33796   0.502   3.020   6.464  0.6801  0.2664  0.9637
 7445SOL    HW133797   0.500   3.040   6.558  0.4255  0.2748  0.9563
 7445SOL    HW233798   0.589   3.052   6.442  1.0738 -1.3834  0.0390
 7446SOL     OW33799   1.309   2.486   0.516 -0.4970  0.2356  0.1641
 7446SOL    HW133800   1.225   2.472   0.472 -0.3745  0.5618 -0.1698
 7446SOL    HW233801   1.290   2.574   0.549  3.2195  0.8882  0.5969
 7447SOL     OW33802   3.186   4.281   5.472  0.3675  1.0528  0.1898
 7447SOL    HW133803   3.264   4.270   5.418  1.1081 -0.2649  1.5332
 7447SOL    HW233804   3.119   4.324   5.419 -1.2472  0.1462  1.4818
 7448SOL     OW33805   3.401   1.350   7.028  0.0665 -0.0339 -0.2719
 7448SOL    HW133806   3.413   1.401   7.108  1.0804  1.6674 -1.4904
 7448SOL    HW233807   3.455   1.275   7.052  0.8523  0.7785  0.5169
 7449SOL     OW33808   0.126   0.023   7.776 -0.2583 -0.3656  0.4565
 7449SOL    HW133809   0.083   0.084   7.835 -1.4577 -1.0726  0.3039
 7449SOL    HW233810   0.055   0.009   7.713 -0.1528 -3.1932  0.9313
 7450SOL     OW33811   2.937   1.803   6.683  0.3846 -0.4716  0.0574
 7450SOL    HW133812   3.023   1.808   6.725  0.3866 -1.7631  0.2139
 7450SOL    HW233813   2.969   1.781   6.595  0.7012  0.1990  0.0053
 7451SOL     OW33814   2.653   4.089   6.438  0.3833  0.5818 -0.6162
 7451SOL    HW133815   2.599   4.044   6.373  0.0433  1.7207 -1.1336
 7451SOL    HW233816   2.736   4.105   6.394  0.6924 -0.2359 -0.3158
 7452SOL     OW33817   1.994   3.158   4.788  0.2133 -0.2274 -0.2328
 7452SOL    HW133818   2.011   3.166   4.882 -1.8133 -1.7431  0.2665
 7452SOL    HW233819   2.001   3.247   4.755 -0.2492  0.3645  1.2557
 7453SOL     OW33820   1.417   0.039  13.368  0.1708 -0.6733 -0.0903
 7453SOL    HW133821   1.438   0.023  13.460  1.6989  0.4651 -0.2280
 7453SOL    HW233822   1.346   4.705  13.345  0.0501 -0.7165  0.4166
 7454SOL     OW33823   1.234   0.577   9.662  0.2028  0.0821 -0.7001
 7454SOL    HW133824   1.205   0.504   9.717  1.0979 -1.6068 -2.4925
 7454SOL    HW233825   1.156   0.580   9.607 -1.8124 -1.0080  2.0587
 7455SOL     OW33826   1.405   2.968   5.874 -0.0018  0.1412  0.0245
 7455SOL    HW133827   1.328   2.986   5.928 -0.4361  2.4007 -1.3513
 7455SOL    HW233828   1.371   3.011   5.795  0.4010  2.4319  1.1222
 7456SOL     OW33829   0.765   0.780  12.579 -0.4989  0.0917  0.0643
 7456SOL    HW133830   0.819   0.838  12.525  0.9287  0.5662  2.0428
 7456SOL    HW233831   0.797   0.692  12.559 -0.0613  0.2485  0.0816
 7457SOL     OW33832   1.595   1.009   3.304 -0.0599  0.4861  0.5260
 7457SOL    HW133833   1.595   1.089   3.356 -1.2496 -0.2038  1.5862
 7457SOL    HW233834   1.651   0.955   3.359  0.8124 -0.0964 -0.9400
 7458SOL     OW33835   3.663   3.124   4.003 -0.1040  0.1199  0.2610
 7458SOL    HW133836   3.754   3.151   3.991 -0.6093  1.4338 -0.6150
 7458SOL    HW233837   3.641   3.171   4.083 -0.5195 -0.5075  0.5186
 7459SOL     OW33838   1.958   2.850  17.458 -0.1578 -0.4092 -0.1490
 7459SOL    HW133839   1.980   2.816  17.372  3.1738  1.9771 -0.2556
 7459SOL    HW233840   1.877   2.897  17.436 -0.4666 -0.8202  0.0989
 7460SOL     OW33841   2.558   3.803  10.770 -0.1701  0.0209  0.0153
 7460SOL    HW133842   2.521   3.725  10.810 -0.6451 -0.2064 -0.8615
 7460SOL    HW233843   2.599   3.834  10.851 -1.1531 -1.7050  1.1750
 7461SOL     OW33844   1.148   3.065   1.635  0.0039  0.2721  0.1005
 7461SOL    HW133845   1.231   3.094   1.597 -0.0251 -0.8688 -0.8340
 7461SOL    HW233846   1.111   3.004   1.571 -0.4989 -0.5034  1.1419
 7462SOL     OW33847   2.912   4.671  15.178  0.2372  0.4594 -0.0438
 7462SOL    HW133848   2.818   4.668  15.196  0.3626  0.8134  0.6975
 7462SOL    HW233849   2.935   0.021  15.232  1.0105 -0.5334  1.0493
 7463SOL     OW33850   2.755   2.997   6.732 -0.3610 -0.3621  0.1939
 7463SOL    HW133851   2.717   2.921   6.688 -0.2466 -0.7730  0.7987
 7463SOL    HW233852   2.734   2.977   6.824  0.6105  1.1078  0.7327
 7464SOL     OW33853   3.891   4.722   0.589 -0.2340  0.6910 -0.5854
 7464SOL    HW133854   3.894   4.706   0.495 -1.7942  2.6626 -0.9698
 7464SOL    HW233855   3.890   4.631   0.618 -1.1268  1.3116  1.3423
 7465SOL     OW33856   4.164   1.082   4.122  0.3846  0.0725 -0.3138
 7465SOL    HW133857   4.209   1.003   4.153 -0.0513  0.7238  1.9764
 7465SOL    HW233858   4.134   1.118   4.205 -0.5732 -0.8566 -0.2567
 7466SOL     OW33859   1.327   3.711   3.535  0.2183  0.4512  0.1034
 7466SOL    HW133860   1.252   3.737   3.588 -0.7567  1.4118 -1.7333
 7466SOL    HW233861   1.384   3.668   3.598  1.0551  0.9518 -0.3131
 7467SOL     OW33862   2.793   1.705   2.118  0.2538  0.1966 -0.5545
 7467SOL    HW133863   2.757   1.786   2.153 -0.5477  0.1502 -1.2764
 7467SOL    HW233864   2.866   1.733   2.062 -0.8974 -1.7565 -3.0447
 7468SOL     OW33865   3.960   0.328  15.969  0.0531 -0.0009 -0.6427
 7468SOL    HW133866   3.917   0.322  16.055 -2.4951  1.5321 -1.8046
 7468SOL    HW233867   4.047   0.350  16.002  0.5459 -0.7239 -1.4821
 7469SOL     OW33868   0.499   0.132   6.622 -0.7700  0.0555 -0.2622
 7469SOL    HW133869   0.519   0.150   6.530 -0.2120 -1.3985 -0.4266
 7469SOL    HW233870   0.483   0.220   6.656 -2.4401 -1.1888  2.1021
 7470SOL     OW33871   0.118   0.102   7.105  0.2530 -0.1163  0.3469
 7470SOL    HW133872   0.177   0.050   7.051  0.0161 -0.5017  0.4568
 7470SOL    HW233873   0.166   0.185   7.108  2.1600 -1.2423  0.7071
 7471SOL     OW33874   3.315   3.981  17.668  0.1636  0.0750 -0.2540
 7471SOL    HW133875   3.272   3.896  17.664  0.7588 -0.2137 -0.4659
 7471SOL    HW233876   3.407   3.957  17.676  0.5045  0.8890 -1.6629
 7472SOL     OW33877   3.988   1.178   3.434 -0.4350  0.6782  0.3029
 7472SOL    HW133878   3.973   1.092   3.474  0.8986  0.1746 -0.2742
 7472SOL    HW233879   4.056   1.163   3.367 -2.0093  0.9602 -1.3655
 7473SOL     OW33880   2.417   0.331   3.185 -0.2024  0.3339  0.3097
 7473SOL    HW133881   2.417   0.426   3.175  0.7556  0.3411  0.3577
 7473SOL    HW233882   2.463   0.295   3.109  0.8566 -1.8830  1.9910
 7474SOL     OW33883   1.011   2.636   3.806  0.3172 -0.2497 -0.3253
 7474SOL    HW133884   1.094   2.638   3.854  1.2448  1.1530 -2.0151
 7474SOL    HW233885   1.035   2.655   3.715  0.5812 -0.4111 -0.2916
 7475SOL     OW33886   3.316   0.524   5.154 -0.5673  0.1740  0.2649
 7475SOL    HW133887   3.254   0.566   5.095  0.2104 -0.3367 -0.9316
 7475SOL    HW233888   3.258   0.464   5.200 -1.8149  1.3306  0.1968
 7476SOL     OW33889   3.139   3.328  13.000 -0.1881  0.2537 -0.2018
 7476SOL    HW133890   3.127   3.256  13.062  0.2763  1.4059  1.2129
 7476SOL    HW233891   3.231   3.333  12.974 -0.4052 -0.7489 -1.1532
 7477SOL     OW33892   1.570   0.058  16.794 -0.4947  0.5362 -0.6271
 7477SOL    HW133893   1.655   0.046  16.751 -1.1923  0.3080 -1.9435
 7477SOL    HW233894   1.592   0.136  16.844  1.2929  1.7803 -3.3313
 7478SOL     OW33895   4.251   0.786   6.657  0.1205 -0.0331  0.3012
 7478SOL    HW133896   4.274   0.838   6.580  1.0703  2.5497  2.3410
 7478SOL    HW233897   4.324   0.805   6.716  0.5504  0.1936 -0.3038
 7479SOL     OW33898   1.738   4.142   1.730 -0.0613 -0.2346  0.1228
 7479SOL    HW133899   1.776   4.069   1.779  3.0524  0.7353 -0.8404
 7479SOL    HW233900   1.764   4.216   1.786  0.3596  0.5654 -1.1302
 7480SOL     OW33901   4.064   4.618   7.503 -0.7708 -0.6056  0.1574
 7480SOL    HW133902   4.113   4.700   7.491 -1.9899  0.1145  0.1470
 7480SOL    HW233903   4.050   4.632   7.596 -1.9992  2.9574 -0.5360
 7481SOL     OW33904   0.403   3.783  11.952 -0.6313  0.0382 -0.1312
 7481SOL    HW133905   0.365   3.836  12.023  0.0763  0.3143  0.0357
 7481SOL    HW233906   0.491   3.777  11.988  0.1763  1.9338 -1.8420
 7482SOL     OW33907   0.461   3.499  11.047  0.2969 -0.1209 -0.2380
 7482SOL    HW133908   0.539   3.518  11.099  0.8700 -0.4510 -0.9815
 7482SOL    HW233909   0.449   3.407  11.073  0.7547 -0.0636  0.1722
 7483SOL     OW33910   0.307   4.719   6.040  0.3668 -0.0566 -0.1173
 7483SOL    HW133911   0.394   4.726   6.002  0.8750 -3.7830  0.3780
 7483SOL    HW233912   0.334   4.679   6.123 -0.2521  0.8145  0.5016
 7484SOL     OW33913   0.256   4.582   4.397  0.8756  0.3045  0.2529
 7484SOL    HW133914   0.194   4.630   4.343  1.2510 -1.6163 -1.8780
 7484SOL    HW233915   0.296   4.518   4.339  1.4603  1.5602 -0.7434
 7485SOL     OW33916   1.621   2.870   7.652 -0.0285  0.8603  0.7788
 7485SOL    HW133917   1.530   2.896   7.634 -0.0363  1.1832  1.2718
 7485SOL    HW233918   1.626   2.842   7.744 -0.0871 -2.9953 -0.3939
 7486SOL     OW33919   3.985   4.174   5.016  0.6005 -0.0863  0.1636
 7486SOL    HW133920   4.073   4.198   4.985  0.5869  0.1066  0.2770
 7486SOL    HW233921   3.944   4.219   4.942 -1.4618  0.2385  1.5357
 7487SOL     OW33922   0.902   0.633   3.199  0.1853 -0.5822 -0.4307
 7487SOL    HW133923   0.984   0.658   3.242 -0.8832  0.6402  0.8894
 7487SOL    HW233924   0.934   0.556   3.153  0.9997 -1.6070  1.8618
 7488SOL     OW33925   2.148   1.149   5.297 -0.0420  0.1812  0.2344
 7488SOL    HW133926   2.141   1.224   5.356  2.2178 -0.0188  0.7794
 7488SOL    HW233927   2.241   1.129   5.305  0.2640  0.9542 -1.4511
 7489SOL     OW33928   0.310   2.027  11.917 -0.0529 -0.3849 -0.5743
 7489SOL    HW133929   0.218   2.001  11.917 -0.0199 -0.4756  0.5586
 7489SOL    HW233930   0.303   2.101  11.856 -0.0555 -0.0963 -0.2270
 7490SOL     OW33931   3.770   1.721   4.036 -0.0910 -0.4823  0.6968
 7490SOL    HW133932   3.793   1.736   3.944 -2.7653  1.2933  0.3113
 7490SOL    HW233933   3.703   1.789   4.040  1.7616  1.2359  2.4515
 7491SOL     OW33934   0.330   2.311   6.459  0.6478  0.1278 -0.1717
 7491SOL    HW133935   0.332   2.397   6.500  2.4962 -0.7640  1.6221
 7491SOL    HW233936   0.274   2.264   6.521 -0.0159 -1.0732 -1.6792
 7492SOL     OW33937   2.074   4.722   3.715 -0.3709  0.0546  0.1648
 7492SOL    HW133938   1.979   0.007   3.714 -0.2314  1.1311 -0.8019
 7492SOL    HW233939   2.113   0.074   3.675  0.8459 -0.3676  0.5106
 7493SOL     OW33940   0.645   3.655   3.760 -0.0393  0.1424 -0.2545
 7493SOL    HW133941   0.649   3.600   3.682 -2.5865 -3.1130  1.8981
 7493SOL    HW233942   0.660   3.740   3.720  0.7739  0.0586 -0.1188
 7494SOL     OW33943   2.369   1.046  11.089  0.0636 -0.6767 -0.5867
 7494SOL    HW133944   2.376   0.986  11.015 -0.1597 -1.7609  0.2689
 7494SOL    HW233945   2.362   0.985  11.162  1.5571  1.0096  0.9736
 7495SOL     OW33946   1.088   0.754   1.737 -0.5253 -0.2760  0.0946
 7495SOL    HW133947   1.031   0.699   1.683 -1.9504  0.5690  0.7530
 7495SOL    HW233948   1.156   0.771   1.672 -0.8347  0.0518 -0.1483
 7496SOL     OW33949   2.880   1.904   7.977 -0.3372  0.1098 -0.4157
 7496SOL    HW133950   2.969   1.936   7.991 -1.2985  2.8757 -0.6274
 7496SOL    HW233951   2.852   1.892   8.068 -0.3699  0.0375 -0.4354
 7497SOL     OW33952   2.527   1.295   3.839  0.0019 -0.1824  0.1297
 7497SOL    HW133953   2.571   1.340   3.911 -0.0127  0.4299 -0.2430
 7497SOL    HW233954   2.583   1.306   3.762  1.4911 -1.8051  0.9807
 7498SOL     OW33955   2.672   0.951   4.313 -0.5476  0.3692 -0.2783
 7498SOL    HW133956   2.721   0.870   4.296  0.5386  0.8469  0.5793
 7498SOL    HW233957   2.671   0.991   4.226 -0.3503  1.7486  0.3532
 7499SOL     OW33958   2.873   0.186  16.767  0.0450 -0.8385  0.3330
 7499SOL    HW133959   2.881   0.281  16.776  1.4744 -0.9540  0.2534
 7499SOL    HW233960   2.824   0.188  16.685  2.8122 -0.1623 -1.3141
 7500SOL     OW33961   0.199   2.548  14.899  0.5941  0.3093 -0.0307
 7500SOL    HW133962   0.222   2.534  14.991  1.5780  0.8924 -0.1892
 7500SOL    HW233963   0.252   2.489  14.845 -0.7477  0.0444 -1.0482
 7501SOL     OW33964   4.514   3.409   4.213  0.2154 -0.1245  0.1600
 7501SOL    HW133965   4.521   3.391   4.119  0.6612  0.1897  0.1362
 7501SOL    HW233966   4.599   3.450   4.228  0.4191 -0.6672  0.4749
 7502SOL     OW33967   2.777   3.315   3.435 -0.0310  0.5024 -0.5181
 7502SOL    HW133968   2.849   3.377   3.427  1.3179 -1.1182 -0.9324
 7502SOL    HW233969   2.818   3.237   3.473  0.1106  2.2155  2.7783
 7503SOL     OW33970   3.243   3.924   5.805 -0.2679  0.0330 -0.3011
 7503SOL    HW133971   3.220   3.990   5.738  1.8679 -0.7175 -1.8029
 7503SOL    HW233972   3.333   3.899   5.782 -0.8319 -1.7119 -0.5702
 7504SOL     OW33973   2.068   2.281   6.214  0.2740 -0.3882 -0.4063
 7504SOL    HW133974   2.072   2.376   6.224  1.0029 -0.3844 -0.7827
 7504SOL    HW233975   2.129   2.270   6.141  1.7339 -1.9289  1.0419
 7505SOL     OW33976   3.493   2.614  11.587  0.2100 -0.4094  0.1300
 7505SOL    HW133977   3.509   2.543  11.525 -1.2605  0.0627 -0.7830
 7505SOL    HW233978   3.581   2.652  11.592  0.1065 -0.0410 -0.8738
 7506SOL     OW33979   2.620   2.789   6.640  0.4872 -0.1508  0.1776
 7506SOL    HW133980   2.552   2.808   6.704  0.1828 -2.7241  0.6128
 7506SOL    HW233981   2.655   2.704   6.666  1.2982  0.3680  0.7820
 7507SOL     OW33982   3.650   2.152  11.378  0.0376 -0.4837 -0.0889
 7507SOL    HW133983   3.667   2.073  11.326 -2.2606 -0.5289 -0.7806
 7507SOL    HW233984   3.605   2.208  11.315 -0.6445 -0.8365  0.0776
 7508SOL     OW33985   0.193   2.167   6.639  0.1397  0.0247 -0.1445
 7508SOL    HW133986   0.126   2.214   6.688 -0.5970  0.0570 -1.1741
 7508SOL    HW233987   0.132   2.115   6.586  0.3295 -0.8468  0.4995
 7509SOL     OW33988   0.343   3.213   6.386 -0.7094 -0.0945  0.0154
 7509SOL    HW133989   0.405   3.146   6.415  0.8995  1.6915  0.7065
 7509SOL    HW233990   0.389   3.294   6.405 -0.6778  0.1015 -0.9200
 7510SOL     OW33991   1.388   3.706  10.060 -0.3320  0.3272  0.2677
 7510SOL    HW133992   1.308   3.660  10.036 -0.5751  1.4395 -1.0567
 7510SOL    HW233993   1.431   3.733   9.979  1.1441 -1.8201  0.3133
 7511SOL     OW33994   0.511   1.199   6.988  0.2990 -0.0320  0.1564
 7511SOL    HW133995   0.450   1.237   7.052 -0.9242 -0.7855 -0.5631
 7511SOL    HW233996   0.597   1.241   6.998  1.1673 -1.7315 -0.1905
 7512SOL     OW33997   2.477   2.170  13.837 -0.0843 -0.1309 -0.0179
 7512SOL    HW133998   2.414   2.179  13.909 -1.7078  2.6180 -1.7992
 7512SOL    HW233999   2.539   2.240  13.858  0.3221 -0.7770  0.9627
 7513SOL     OW34000   0.571   3.474   0.984 -0.4392 -0.0828 -0.0754
 7513SOL    HW134001   0.631   3.408   0.950 -0.5388 -0.5952  0.7378
 7513SOL    HW234002   0.568   3.438   1.073 -0.4115  1.7157  0.6515
 7514SOL     OW34003   1.983   0.966   4.049  0.3103 -0.2277  0.4215
 7514SOL    HW134004   1.945   0.955   4.136  1.9606  2.4789  1.4727
 7514SOL    HW234005   2.012   1.057   4.049  2.1675 -0.8443  2.3677
 7515SOL     OW34006   3.421   3.765   3.204 -0.2322 -0.2333 -0.3170
 7515SOL    HW134007   3.423   3.778   3.110 -0.6639  1.2178 -0.1201
 7515SOL    HW234008   3.514   3.780   3.221 -0.0341 -1.3495 -0.3692
 7516SOL     OW34009   2.129   4.342   6.022 -0.1480 -0.1584  0.4331
 7516SOL    HW134010   2.081   4.328   5.941  1.8336  1.2013 -0.9802
 7516SOL    HW234011   2.077   4.408   6.069 -0.1928 -1.0039  1.5688
 7517SOL     OW34012   2.029   3.362   0.161 -0.0650  0.4777  0.3746
 7517SOL    HW134013   2.068   3.424   0.099  1.0347 -0.3007  0.2772
 7517SOL    HW234014   1.948   3.406   0.186 -0.8190 -1.5444  1.4701
 7518SOL     OW34015   2.921   4.098   6.346  0.7253 -0.6151 -0.3932
 7518SOL    HW134016   2.944   4.191   6.351 -0.4099 -0.3581  0.1410
 7518SOL    HW234017   2.985   4.053   6.401  1.1944 -0.4063 -0.7695
 7519SOL     OW34018   0.551   2.186  15.485 -0.6164 -0.2983 -0.3803
 7519SOL    HW134019   0.469   2.165  15.439 -1.2717  3.6036 -0.9992
 7519SOL    HW234020   0.615   2.186  15.413  0.9128  1.4508  0.9911
 7520SOL     OW34021   1.301   2.951   7.236  0.0073  0.6457  0.0634
 7520SOL    HW134022   1.236   2.917   7.298  2.4750 -0.6547  1.9692
 7520SOL    HW234023   1.262   2.939   7.150  0.2511  0.0286  0.0376
 7521SOL     OW34024   0.378   4.273   6.014  0.7895  0.0649  0.1284
 7521SOL    HW134025   0.470   4.299   6.009  0.9127 -0.3350  0.2587
 7521SOL    HW234026   0.349   4.325   6.090 -2.1273 -0.7312 -0.4255
 7522SOL     OW34027   3.197   1.084   3.043  0.5223 -0.4734 -0.3288
 7522SOL    HW134028   3.112   1.070   3.001 -0.1609 -0.4974  1.0644
 7522SOL    HW234029   3.256   1.020   3.003  1.3412  0.3548 -0.4412
 7523SOL     OW34030   1.453   3.731   4.065  0.0560  0.1272  0.3834
 7523SOL    HW134031   1.523   3.695   4.010  0.8525  1.1464  0.7332
 7523SOL    HW234032   1.448   3.822   4.035  0.5386 -0.6625 -2.0992
 7524SOL     OW34033   1.877   2.151   2.863  0.4921 -0.0104 -0.6684
 7524SOL    HW134034   1.817   2.108   2.923  2.0333 -1.9732 -0.5243
 7524SOL    HW234035   1.818   2.170   2.791 -2.0575  0.5776  1.5601
 7525SOL     OW34036   3.630   2.929   4.433 -0.2985 -0.3034 -0.1149
 7525SOL    HW134037   3.600   2.839   4.445  2.1994 -1.0546  0.6216
 7525SOL    HW234038   3.585   2.955   4.354 -0.0839  0.3926 -0.0085
 7526SOL     OW34039   1.176   2.921   3.842  0.9562  0.0238 -0.4030
 7526SOL    HW134040   1.107   2.930   3.908 -0.1839  1.7909 -1.8435
 7526SOL    HW234041   1.208   2.831   3.837 -0.6544 -0.4864 -1.2181
 7527SOL     OW34042   1.748   2.035   9.439  0.4736  0.2319 -0.0346
 7527SOL    HW134043   1.665   2.065   9.404  1.5301  1.4249 -1.4625
 7527SOL    HW234044   1.800   2.043   9.360  0.6322  2.8137  0.3275
 7528SOL     OW34045   0.802   0.300   0.492  0.2649 -0.4842  0.5590
 7528SOL    HW134046   0.881   0.295   0.438 -0.3697  0.7793 -0.5037
 7528SOL    HW234047   0.732   0.288   0.427  2.6272 -0.2719 -2.0113
 7529SOL     OW34048   2.821   0.341  13.753  0.5066  0.0065 -0.0577
 7529SOL    HW134049   2.912   0.316  13.766  0.7144  1.0390  0.4794
 7529SOL    HW234050   2.803   0.360  13.661 -0.7938  0.3785  0.2647
 7530SOL     OW34051   1.070   0.906   4.073  0.4182 -0.6770  0.3797
 7530SOL    HW134052   1.016   0.980   4.045  0.8378 -1.1231 -1.6187
 7530SOL    HW234053   1.155   0.937   4.043 -0.6376  0.7854 -1.1072
 7531SOL     OW34054   1.089   4.080  12.615 -0.0410 -0.6751  0.1722
 7531SOL    HW134055   1.164   4.030  12.646 -0.3367 -1.4671 -0.3900
 7531SOL    HW234056   1.053   4.115  12.697  0.8313 -1.2677  0.8041
 7532SOL     OW34057   0.076   0.199  17.309 -0.1271  0.6907  0.0900
 7532SOL    HW134058   0.068   0.134  17.379  3.7102  1.2638  1.0641
 7532SOL    HW234059   0.113   0.277  17.350  1.6467 -0.8250  1.4044
 7533SOL     OW34060   0.328   0.398  14.396 -0.1547  0.3455 -0.1223
 7533SOL    HW134061   0.313   0.306  14.415  2.0585  0.3312  1.4973
 7533SOL    HW234062   0.253   0.416  14.339 -1.2451  0.3932  1.3608
 7534SOL     OW34063   2.095   0.753   6.679 -0.5484  0.0956 -0.1673
 7534SOL    HW134064   2.065   0.811   6.609 -0.5585  1.0764  0.6436
 7534SOL    HW234065   2.151   0.819   6.719 -1.2366  2.3867 -2.9365
 7535SOL     OW34066   2.936   2.074  15.885  0.1534  0.5945 -0.0460
 7535SOL    HW134067   2.951   2.097  15.793 -1.8251  1.9695 -0.0069
 7535SOL    HW234068   2.863   2.012  15.883  0.3359  0.3761  0.0936
 7536SOL     OW34069   0.245   2.891   5.515  0.4817  0.0828  0.5165
 7536SOL    HW134070   0.182   2.916   5.447  0.5919  0.7769  0.6670
 7536SOL    HW234071   0.258   2.797   5.504  0.2787  0.3166 -1.7944
 7537SOL     OW34072   1.203   0.643   8.788  0.4226  0.8217 -0.3208
 7537SOL    HW134073   1.279   0.657   8.732  0.5633  0.4350 -0.2228
 7537SOL    HW234074   1.139   0.711   8.767 -0.7801 -0.1660  0.1219
 7538SOL     OW34075   3.882   2.214  11.555 -0.8293 -0.5729 -0.2919
 7538SOL    HW134076   3.809   2.199  11.495 -1.8458 -0.8635  1.0163
 7538SOL    HW234077   3.895   2.122  11.575 -2.2562 -0.1199  2.7107
 7539SOL     OW34078   2.440   0.479   2.743  0.7251  0.0758 -0.4981
 7539SOL    HW134079   2.518   0.534   2.752  0.5119 -0.1934  3.0733
 7539SOL    HW234080   2.375   0.547   2.760 -0.7627 -1.5424  0.2973
 7540SOL     OW34081   2.016   3.225   4.340  0.1797  0.2500  0.0479
 7540SOL    HW134082   2.085   3.240   4.404 -0.2738 -0.7916  0.7661
 7540SOL    HW234083   1.986   3.144   4.380 -0.8263 -0.7312 -2.6518
 7541SOL     OW34084   0.661   0.727   8.385 -0.1013  0.7339 -0.0851
 7541SOL    HW134085   0.646   0.638   8.416 -0.0681  0.6088 -0.4238
 7541SOL    HW234086   0.635   0.772   8.466 -0.5555  1.5268 -0.6646
 7542SOL     OW34087   3.029   2.356   4.187  0.0377  0.7887  0.1652
 7542SOL    HW134088   2.969   2.282   4.177 -1.4013  1.5676  2.9819
 7542SOL    HW234089   3.110   2.329   4.143 -0.4571 -1.4563  0.6285
 7543SOL     OW34090   0.587   3.935   2.554 -0.1326  0.5864  0.1136
 7543SOL    HW134091   0.587   3.840   2.556 -1.2031  0.5905  0.5530
 7543SOL    HW234092   0.548   3.943   2.466  0.1721  0.2043 -0.0550
 7544SOL     OW34093   1.681   0.844   3.762  0.1574  0.2229  0.6839
 7544SOL    HW134094   1.700   0.926   3.807  3.3651  0.7324 -1.5792
 7544SOL    HW234095   1.733   0.776   3.805  0.6436 -0.3680 -0.8190
 7545SOL     OW34096   1.685   1.098   6.704  0.1121  0.1868 -0.0355
 7545SOL    HW134097   1.742   1.041   6.651 -0.2978 -0.6436  0.4199
 7545SOL    HW234098   1.745   1.138   6.767  2.0247 -0.6547 -1.3299
 7546SOL     OW34099   1.902   1.420   3.486 -0.4113  0.1822 -0.7307
 7546SOL    HW134100   1.861   1.466   3.413 -0.3037 -0.0639 -0.9439
 7546SOL    HW234101   1.977   1.373   3.450  0.1603  0.9063 -0.4654
 7547SOL     OW34102   0.635   0.377   7.438 -0.4268 -0.3462 -0.0619
 7547SOL    HW134103   0.556   0.331   7.408 -1.1387  1.2767 -0.6691
 7547SOL    HW234104   0.678   0.394   7.354  2.2691 -0.2559  1.3206
 7548SOL     OW34105   2.516   3.197   4.413 -0.6960 -0.5498 -0.6108
 7548SOL    HW134106   2.555   3.225   4.495 -0.9225 -0.1038 -0.6552
 7548SOL    HW234107   2.521   3.102   4.421 -1.1338 -0.6340 -1.3023
 7549SOL     OW34108   0.128   3.804  16.416 -0.1380 -0.3207  0.2375
 7549SOL    HW134109   0.204   3.790  16.473 -0.7936 -1.0989  0.9318
 7549SOL    HW234110   0.078   3.856  16.479 -0.4148  0.6749 -0.8156
 7550SOL     OW34111   2.242   4.294   7.831  0.3073  0.0491  0.5252
 7550SOL    HW134112   2.253   4.379   7.875 -1.0061  0.9692 -0.9195
 7550SOL    HW234113   2.330   4.256   7.836 -0.2245 -1.0780  1.1924
 7551SOL     OW34114   1.009   0.225   3.946 -1.0554  0.2006 -0.4411
 7551SOL    HW134115   1.029   0.213   3.854 -0.2137 -1.2326 -0.0694
 7551SOL    HW234116   0.976   0.138   3.969 -2.1869  0.9692  0.8491
 7552SOL     OW34117   3.196   1.017   5.443  0.2765  0.2910  0.3949
 7552SOL    HW134118   3.102   1.017   5.456  0.4260 -1.4264  1.5901
 7552SOL    HW234119   3.188   0.983   5.354 -0.9757 -2.0268  1.3773
 7553SOL     OW34120   1.414   3.321   1.834 -0.3093  0.1594 -0.2321
 7553SOL    HW134121   1.336   3.290   1.880  0.7179  0.9604  2.1018
 7553SOL    HW234122   1.386   3.365   1.754 -4.1993  0.4589  1.2887
 7554SOL     OW34123   4.291   3.902   6.749 -0.0796 -0.0364 -0.0328
 7554SOL    HW134124   4.249   3.949   6.821 -1.4048 -2.0620  0.5294
 7554SOL    HW234125   4.382   3.913   6.777  0.7620  0.5825 -3.1154
 7555SOL     OW34126   0.318   2.580   5.537 -0.1725 -0.8700  0.3911
 7555SOL    HW134127   0.378   2.507   5.550  0.9972  0.0440  0.1657
 7555SOL    HW234128   0.288   2.588   5.628  0.6946 -1.9767  0.7770
 7556SOL     OW34129   2.928   2.280  11.067  0.2246 -0.7175  0.3889
 7556SOL    HW134130   2.841   2.242  11.055 -0.9634  2.5168 -1.3403
 7556SOL    HW234131   2.975   2.254  10.987  0.6421 -0.1446  0.4503
 7557SOL     OW34132   1.485   1.356   0.742 -0.2796 -1.3478 -0.0821
 7557SOL    HW134133   1.475   1.322   0.831  1.6240  1.1569  1.0886
 7557SOL    HW234134   1.411   1.319   0.694 -0.4590 -0.1337 -0.7615
 7558SOL     OW34135   1.453   1.092   4.254  0.5084 -0.3992  0.3064
 7558SOL    HW134136   1.400   1.095   4.334  1.6001  0.3862  0.9897
 7558SOL    HW234137   1.492   1.179   4.256 -3.2023  1.3301 -2.4640
 7559SOL     OW34138   4.404   1.234   6.146  0.1437  0.9697  0.8442
 7559SOL    HW134139   4.423   1.315   6.099 -0.1111  1.5263  1.7007
 7559SOL    HW234140   4.337   1.209   6.082  1.7348  2.4060 -1.4120
 7560SOL     OW34141   3.297   0.515   9.600  0.3130 -0.2576  0.4165
 7560SOL    HW134142   3.354   0.591   9.588  0.4985 -0.2749  1.1948
 7560SOL    HW234143   3.333   0.459   9.669  0.1077  0.6051  1.2183
 7561SOL     OW34144   4.397   3.861   0.582 -0.0115  0.4339  0.0149
 7561SOL    HW134145   4.464   3.801   0.615  0.5169  0.1580 -1.5806
 7561SOL    HW234146   4.379   3.819   0.498 -0.9600  0.1219  0.3740
 7562SOL     OW34147   1.704   2.064   8.082  0.1552 -0.4287 -0.5274
 7562SOL    HW134148   1.738   2.009   8.011 -0.1289 -2.1654  0.6610
 7562SOL    HW234149   1.720   2.151   8.046 -1.7758  0.1276 -0.0142
 7563SOL     OW34150   3.678   0.829  13.598 -0.3123 -0.7071  0.2930
 7563SOL    HW134151   3.708   0.835  13.688 -0.0212  0.5571  0.1126
 7563SOL    HW234152   3.742   0.767  13.565 -1.2790 -1.3282 -0.4225
 7564SOL     OW34153   2.478   0.457   1.381 -0.6546  0.2653 -0.4319
 7564SOL    HW134154   2.471   0.384   1.320 -0.2585  0.5188 -0.7819
 7564SOL    HW234155   2.562   0.499   1.362  0.0662 -1.5595 -1.2197
 7565SOL     OW34156   1.478   2.107   7.541 -0.4090  0.3283 -0.2724
 7565SOL    HW134157   1.398   2.062   7.567 -0.2668  1.7935  2.7066
 7565SOL    HW234158   1.441   2.183   7.495 -1.6680 -0.5040 -0.6427
 7566SOL     OW34159   1.617   1.718   7.862  0.3907 -0.3000 -0.3008
 7566SOL    HW134160   1.637   1.787   7.798 -1.0010  0.3981  0.0334
 7566SOL    HW234161   1.594   1.780   7.931 -0.4133 -0.8279 -0.0953
 7567SOL     OW34162   3.022   0.196   7.038 -0.0291  0.1917  0.1729
 7567SOL    HW134163   3.050   0.115   7.081  1.2965  0.6052  0.1129
 7567SOL    HW234164   2.930   0.209   7.060 -1.3315 -2.0563 -4.0197
 7568SOL     OW34165   1.337   2.866   5.472  0.3311 -0.1911 -0.3599
 7568SOL    HW134166   1.409   2.886   5.412 -2.8501  2.9360 -3.1215
 7568SOL    HW234167   1.347   2.773   5.491 -2.9236 -0.5416 -0.4188
 7569SOL     OW34168   1.891   1.328  10.569 -0.1158  0.4898  0.4022
 7569SOL    HW134169   1.896   1.423  10.583 -0.8580  0.2679  2.1677
 7569SOL    HW234170   1.802   1.320  10.602 -0.2861  1.9418  0.3078
 7570SOL     OW34171   2.540   3.433  11.275 -0.1320 -0.2651 -0.5071
 7570SOL    HW134172   2.601   3.491  11.230 -1.2955  0.7708 -0.7254
 7570SOL    HW234173   2.599   3.399  11.342 -0.7106 -0.5521 -0.1378
 7571SOL     OW34174   1.669   1.520   2.090 -0.0130 -0.0491  0.2817
 7571SOL    HW134175   1.601   1.587   2.100  1.2463  1.0168  1.7828
 7571SOL    HW234176   1.740   1.579   2.064  0.4998 -0.7109  0.2030
 7572SOL     OW34177   0.888   2.970   7.041  0.2144  0.6970  0.2030
 7572SOL    HW134178   0.825   3.009   7.102  1.5884  0.9871  1.4535
 7572SOL    HW234179   0.879   2.879   7.067  2.1292  0.4765  0.0508
 7573SOL     OW34180   2.130   2.730  16.485 -0.2049 -0.2311  0.2374
 7573SOL    HW134181   2.109   2.762  16.397 -2.7948  0.3836  1.0897
 7573SOL    HW234182   2.106   2.804  16.541 -0.7669  0.0066 -0.3090
 7574SOL     OW34183   0.724   4.072   4.078 -0.2994  0.2321 -0.3547
 7574SOL    HW134184   0.736   3.980   4.101 -1.2824  1.0876  3.4221
 7574SOL    HW234185   0.811   4.096   4.044  0.7076 -2.0493  0.6269
 7575SOL     OW34186   1.485   1.945   9.569  0.3724 -0.3571  0.4242
 7575SOL    HW134187   1.478   1.911   9.659  1.2628  1.0315  1.0262
 7575SOL    HW234188   1.557   2.007   9.575  0.5629 -0.6224  0.9098
 7576SOL     OW34189   3.747   0.268   7.376  0.0872  0.0733 -0.7811
 7576SOL    HW134190   3.745   0.217   7.457  0.3192  2.3264  0.6483
 7576SOL    HW234191   3.788   0.206   7.316 -1.1562 -1.7859  0.2940
 7577SOL     OW34192   3.519   3.688   6.835 -0.5447  0.1085 -0.4812
 7577SOL    HW134193   3.531   3.600   6.801 -3.5081 -0.4644 -0.0346
 7577SOL    HW234194   3.502   3.672   6.928  0.7128  0.5166 -0.1747
 7578SOL     OW34195   2.522   3.863   1.500 -0.6247 -0.1014  0.3417
 7578SOL    HW134196   2.547   3.895   1.413 -0.4182  2.2617  1.2626
 7578SOL    HW234197   2.484   3.941   1.540  1.8495  1.9375 -1.2501
 7579SOL     OW34198   1.908   3.428   3.639 -0.0492 -0.5210 -0.0223
 7579SOL    HW134199   1.977   3.420   3.573 -0.9538  0.9891 -1.1435
 7579SOL    HW234200   1.952   3.484   3.703  2.2572 -1.4067 -0.8397
 7580SOL     OW34201   0.336   3.073   9.622  0.2268  0.0652  0.5305
 7580SOL    HW134202   0.280   3.068   9.544  1.1919  3.1022 -0.3704
 7580SOL    HW234203   0.421   3.063   9.578 -0.0782  1.5038 -0.4067
 7581SOL     OW34204   4.365   1.856   6.488 -0.1271  1.0325 -0.1108
 7581SOL    HW134205   4.360   1.926   6.423 -1.3887  1.3660  0.3443
 7581SOL    HW234206   4.313   1.891   6.560  0.2812  0.7654  0.3159
 7582SOL     OW34207   4.598   0.046   3.820 -0.2051 -0.1548 -0.2516
 7582SOL    HW134208   4.626   0.072   3.732  1.4544  2.0920  0.9415
 7582SOL    HW234209   4.575   4.681   3.803 -1.7003  0.0603  0.5989
 7583SOL     OW34210   1.378   0.020   7.680 -0.1481 -0.1724 -0.5066
 7583SOL    HW134211   1.448   0.064   7.728 -2.2754  1.4888  1.0812
 7583SOL    HW234212   1.337   4.705   7.756 -1.4175  1.4520 -0.2971
 7584SOL     OW34213   0.947   0.269   7.471  0.0027  0.5381  0.6514
 7584SOL    HW134214   1.034   0.229   7.470 -0.6456 -0.8988  0.9274
 7584SOL    HW234215   0.899   0.211   7.412  0.2906  1.3948 -0.4317
 7585SOL     OW34216   2.757   4.362   9.597 -0.4527  0.2235  0.2519
 7585SOL    HW134217   2.782   4.271   9.614 -0.8024 -0.0437 -0.6430
 7585SOL    HW234218   2.661   4.356   9.596 -0.3547 -0.9638 -2.1477
 7586SOL     OW34219   3.039   3.717   8.727 -0.5475 -0.4657 -0.0181
 7586SOL    HW134220   3.039   3.811   8.713 -1.1817 -0.2058  1.6797
 7586SOL    HW234221   3.109   3.708   8.792 -0.5502 -4.4361 -0.5518
 7587SOL     OW34222   2.165   2.426  11.214 -0.1911 -0.2069 -0.4026
 7587SOL    HW134223   2.087   2.371  11.212  0.9701 -1.9710  2.6330
 7587SOL    HW234224   2.160   2.455  11.305  0.4198 -0.7673 -0.1876
 7588SOL     OW34225   1.306   2.336   2.454  0.7099 -0.4711 -0.2738
 7588SOL    HW134226   1.365   2.388   2.399  4.6672 -2.0352  2.5342
 7588SOL    HW234227   1.227   2.327   2.401  0.6536 -0.4704 -0.1913
 7589SOL     OW34228   3.509   0.013   2.737  0.1039 -0.5034  0.1535
 7589SOL    HW134229   3.549   0.060   2.664 -0.9980 -0.2669 -0.2879
 7589SOL    HW234230   3.521   0.077   2.807 -0.3256  0.3946 -0.6010
 7590SOL     OW34231   2.436   3.255   1.879 -0.3704 -0.0500 -0.1237
 7590SOL    HW134232   2.380   3.180   1.858  2.8573 -2.4300 -0.1823
 7590SOL    HW234233   2.443   3.297   1.793  1.4131 -1.0789 -0.4667
 7591SOL     OW34234   0.798   0.813   5.098 -0.1305 -0.1308  0.2872
 7591SOL    HW134235   0.734   0.846   5.036  3.8285  0.4701 -3.4578
 7591SOL    HW234236   0.839   0.895   5.127 -0.0644 -0.0779  0.0456
 7592SOL     OW34237   2.780   3.267   8.066  0.1579  0.1744  0.2729
 7592SOL    HW134238   2.686   3.250   8.065  0.1946 -0.0209  0.3131
 7592SOL    HW234239   2.810   3.177   8.074  2.4478  1.0710  1.5519
 7593SOL     OW34240   1.827   3.104  13.771  0.0281  0.0243 -0.2291
 7593SOL    HW134241   1.912   3.061  13.765  0.1661  0.1474  0.8510
 7593SOL    HW234242   1.837   3.176  13.834 -1.3168  2.2865 -2.6239
 7594SOL     OW34243   4.047   4.037  16.258  0.2776  0.8656  0.2514
 7594SOL    HW134244   4.091   4.044  16.174 -1.2687  0.7401 -0.5600
 7594SOL    HW234245   4.077   3.950  16.287  1.2857  1.5381  1.2407
 7595SOL     OW34246   2.585   1.268   4.815 -0.2086  0.7236  0.4387
 7595SOL    HW134247   2.672   1.301   4.836  0.3070 -0.1141 -0.4230
 7595SOL    HW234248   2.529   1.327   4.866 -0.6526  0.9556 -0.3191
 7596SOL     OW34249   0.152   0.428   3.298 -0.4766  0.1120 -0.5393
 7596SOL    HW134250   0.090   0.460   3.233  0.5184  3.6790  0.2567
 7596SOL    HW234251   0.195   0.368   3.237 -0.8804 -1.4136  0.6615
 7597SOL     OW34252   0.978   1.887  10.527  0.1774 -0.5689 -0.1496
 7597SOL    HW134253   1.065   1.854  10.502 -0.1685 -1.9741  0.4939
 7597SOL    HW234254   1.001   1.960  10.584 -0.6592 -0.1583 -0.3394
 7598SOL     OW34255   0.228   3.677   1.974 -0.2593 -0.1829  0.4294
 7598SOL    HW134256   0.155   3.675   1.912 -0.0204 -0.1007  0.1499
 7598SOL    HW234257   0.303   3.683   1.915 -0.6913  0.6534 -0.0375
 7599SOL     OW34258   0.864   3.306  16.045 -0.2470 -1.1081  0.1798
 7599SOL    HW134259   0.935   3.248  16.071  1.4944  0.9600  0.0743
 7599SOL    HW234260   0.883   3.301  15.951 -1.2149  2.2880 -0.2015
 7600SOL     OW34261   0.081   2.403   4.080  0.0142  0.5751  0.1545
 7600SOL    HW134262   4.721   2.374   4.112  0.0004  1.2935  0.7654
 7600SOL    HW234263   0.058   2.458   4.005 -0.6817  1.3698  0.9421
 7601SOL     OW34264   2.249   4.616  16.308  0.0774  0.2311 -0.1173
 7601SOL    HW134265   2.304   4.663  16.371 -0.0708  0.6583 -0.2994
 7601SOL    HW234266   2.299   4.603  16.228  0.7307 -0.2050  0.3656
 7602SOL     OW34267   1.668   1.143   9.854 -0.3585 -0.0106 -0.3340
 7602SOL    HW134268   1.742   1.136   9.914 -0.7321  1.1392  0.2688
 7602SOL    HW234269   1.653   1.238   9.859  0.6126  0.0110  2.4697
 7603SOL     OW34270   2.413   0.502   0.778  0.1963 -0.5505 -0.0324
 7603SOL    HW134271   2.400   0.493   0.872  1.0585 -0.1378  0.1346
 7603SOL    HW234272   2.377   0.420   0.745  1.5631 -1.2635  0.2470
 7604SOL     OW34273   3.488   0.161   0.471 -0.2279 -0.1021  0.2524
 7604SOL    HW134274   3.415   0.111   0.507  0.3893 -1.9611 -1.0550
 7604SOL    HW234275   3.518   0.203   0.551 -2.6090  1.2375  0.4350
 7605SOL     OW34276   0.234   2.661   8.473 -0.0571 -0.7768 -0.3607
 7605SOL    HW134277   0.216   2.666   8.567 -1.6436  0.4983 -0.7265
 7605SOL    HW234278   0.278   2.576   8.468 -1.5421 -1.6011  0.4528
 7606SOL     OW34279   3.249   3.255  12.587  0.4846 -0.1774 -0.4701
 7606SOL    HW134280   3.205   3.186  12.536 -1.2869  0.4340  0.2395
 7606SOL    HW234281   3.309   3.289  12.520  0.8068  4.1906  2.0645
 7607SOL     OW34282   2.118   1.570   9.027  0.4944 -0.0282  0.0568
 7607SOL    HW134283   2.045   1.617   8.989  1.1103 -0.6051 -1.8383
 7607SOL    HW234284   2.178   1.641   9.050  1.5550 -0.6029 -0.9515
 7608SOL     OW34285   0.145   1.517   7.015  0.0106  0.0106  0.5401
 7608SOL    HW134286   0.166   1.589   7.074  1.5006 -1.1710  1.4286
 7608SOL    HW234287   0.104   1.562   6.940  0.5137  0.7133  0.6847
 7609SOL     OW34288   1.830   0.764  14.534  0.4045 -0.3932  0.5630
 7609SOL    HW134289   1.827   0.829  14.605  0.1536  1.6530 -1.3406
 7609SOL    HW234290   1.758   0.705  14.557 -0.7385  0.4963 -0.8052
 7610SOL     OW34291   0.754   4.192   8.277 -0.5235  0.6347 -0.4994
 7610SOL    HW134292   0.732   4.236   8.195  2.5877 -0.2510 -1.7921
 7610SOL    HW234293   0.826   4.247   8.306 -0.5253  1.5981 -2.3562
 7611SOL     OW34294   2.981   4.169  10.391  0.2448 -0.3489 -0.2027
 7611SOL    HW134295   2.905   4.206  10.435 -0.6300 -0.5344 -1.5328
 7611SOL    HW234296   3.038   4.168  10.468 -0.3313  0.9701  0.2392
 7612SOL     OW34297   2.185   2.202   5.776 -0.1113  0.9866  0.4629
 7612SOL    HW134298   2.242   2.244   5.711 -0.7872  0.3584 -0.5151
 7612SOL    HW234299   2.220   2.114   5.788 -1.1068  0.6666  0.9727
 7613SOL     OW34300   2.928   4.325   8.762 -0.1814  0.4675 -0.2262
 7613SOL    HW134301   2.880   4.408   8.755  0.3182  1.0931  3.2734
 7613SOL    HW234302   2.876   4.273   8.702 -0.3810 -0.2556  0.5705
 7614SOL     OW34303   3.420   4.347  11.453 -0.1954  0.8013  0.4205
 7614SOL    HW134304   3.490   4.318  11.511  0.8642 -0.7679 -1.7006
 7614SOL    HW234305   3.456   4.429  11.418  0.9978  0.4656  0.8787
 7615SOL     OW34306   1.061   4.157   1.374 -0.1270  0.0480  0.2453
 7615SOL    HW134307   1.023   4.190   1.455 -2.0595  0.2281 -0.7283
 7615SOL    HW234308   1.109   4.085   1.414 -0.2113  0.0562  0.3612
 7616SOL     OW34309   3.699   3.844   5.535  0.5713  0.2556 -0.1495
 7616SOL    HW134310   3.711   3.842   5.630 -1.0981 -0.6550  0.0431
 7616SOL    HW234311   3.605   3.826   5.527  0.7216 -0.5558 -0.0331
 7617SOL     OW34312   0.800   4.485   3.820  0.1263  0.5760 -0.0458
 7617SOL    HW134313   0.762   4.489   3.732 -0.3396 -1.7802  0.0534
 7617SOL    HW234314   0.881   4.436   3.809 -1.5092 -2.0426 -0.2100
 7618SOL     OW34315   0.789   2.055   7.868 -0.2898  0.1656  0.6121
 7618SOL    HW134316   0.853   1.988   7.891  0.6361  0.6151 -0.6809
 7618SOL    HW234317   0.814   2.130   7.923 -1.0348  0.9498 -0.1256
 7619SOL     OW34318   1.268   2.510   7.766 -0.4922 -0.0655  0.1555
 7619SOL    HW134319   1.323   2.554   7.830  0.2084 -0.4625 -0.1652
 7619SOL    HW234320   1.313   2.550   7.691 -0.6354 -1.2170 -0.5445
 7620SOL     OW34321   3.826   2.513   0.134  0.0736  0.1580 -0.1289
 7620SOL    HW134322   3.778   2.596   0.138 -1.4793 -0.7030 -1.1288
 7620SOL    HW234323   3.870   2.529   0.050  1.6317 -0.2189  0.6098
 7621SOL     OW34324   4.194   0.028  11.077 -0.1929 -0.3953  0.5220
 7621SOL    HW134325   4.138   0.008  11.003 -1.2153 -0.2117  1.2465
 7621SOL    HW234326   4.279   0.007  11.037  0.9437 -0.4580  2.9519
 7622SOL     OW34327   3.180   3.713   0.289  0.0890 -0.0425 -0.5739
 7622SOL    HW134328   3.086   3.708   0.276 -0.3262  0.7428  2.1706
 7622SOL    HW234329   3.185   3.719   0.385  0.4474  0.7706 -0.6405
 7623SOL     OW34330   3.011   0.706   8.054  0.1593  0.3815 -0.5739
 7623SOL    HW134331   3.004   0.670   7.966  2.4245  0.9680 -0.9687
 7623SOL    HW234332   2.954   0.645   8.102  1.2067 -0.1192  0.0278
 7624SOL     OW34333   2.992   3.341  16.681  0.0767 -0.4457 -0.0652
 7624SOL    HW134334   3.052   3.298  16.619  0.7712 -0.4790  0.6307
 7624SOL    HW234335   2.913   3.341  16.627 -1.5199  0.0081  2.2980
 7625SOL     OW34336   3.123   2.589   9.873 -0.1103  0.3147  1.0111
 7625SOL    HW134337   3.142   2.572   9.781 -0.3754 -1.0431  1.2126
 7625SOL    HW234338   3.036   2.629   9.869 -0.9866 -1.6574  0.7339
 7626SOL     OW34339   3.417   2.428   7.467  0.2464 -0.0843  0.2464
 7626SOL    HW134340   3.329   2.460   7.452 -0.0666 -1.2586 -0.4744
 7626SOL    HW234341   3.409   2.371   7.544 -0.5761  2.0122  1.7057
 7627SOL     OW34342   4.594   2.979   4.350  0.0760  0.1026 -0.7559
 7627SOL    HW134343   4.623   3.049   4.410 -1.2935 -0.1344  0.1888
 7627SOL    HW234344   4.499   2.987   4.357  0.3644  2.8603  0.0617
 7628SOL     OW34345   4.011   0.462   6.536 -0.0578 -0.5124  0.5683
 7628SOL    HW134346   3.987   0.372   6.556 -1.9553 -0.2772 -0.5654
 7628SOL    HW234347   4.050   0.494   6.617  1.0257 -2.0039  0.6199
 7629SOL     OW34348   1.098   4.526  15.213  0.2901  0.3264  0.0147
 7629SOL    HW134349   1.133   4.438  15.228 -2.6884 -1.0799 -1.2585
 7629SOL    HW234350   1.008   4.505  15.241  0.4067 -2.3268 -1.6406
 7630SOL     OW34351   4.288   1.959   5.161  0.1677 -0.3015 -0.7928
 7630SOL    HW134352   4.212   1.901   5.173 -0.4067  0.6230  0.0516
 7630SOL    HW234353   4.277   1.997   5.074 -0.1182  0.1487 -0.5624
 7631SOL     OW34354   0.951   3.507   3.736 -0.1173 -0.0005  0.1325
 7631SOL    HW134355   1.010   3.435   3.758 -2.3058 -1.0257  2.6508
 7631SOL    HW234356   0.892   3.468   3.673  1.0369  0.2965 -1.1283
 7632SOL     OW34357   2.720   0.312  16.552  0.1268 -0.6906 -0.3189
 7632SOL    HW134358   2.705   0.346  16.640 -0.4504 -1.6154 -0.0490
 7632SOL    HW234359   2.634   0.269  16.551 -1.1087  1.7686 -0.0105
 7633SOL     OW34360   1.778   2.981   8.370  0.3720  0.4340 -0.1454
 7633SOL    HW134361   1.851   2.922   8.350 -0.3638 -1.7386  3.4952
 7633SOL    HW234362   1.833   3.057   8.386  2.0957 -1.0632  1.1110
 7634SOL     OW34363   3.200   3.205   1.297  0.0303 -0.5259 -0.1404
 7634SOL    HW134364   3.161   3.197   1.384 -0.7733  0.9880 -0.3636
 7634SOL    HW234365   3.240   3.118   1.295  2.9008  0.8526 -1.8665
 7635SOL     OW34366   0.333   2.690   4.101  0.0281  0.1560  0.1235
 7635SOL    HW134367   0.308   2.781   4.082 -0.8609 -0.2496 -0.6080
 7635SOL    HW234368   0.382   2.700   4.183 -0.6143  2.9389  0.1959
 7636SOL     OW34369   3.075   2.743   6.987 -0.0777 -0.7542  0.3354
 7636SOL    HW134370   3.165   2.726   7.016 -0.1297  0.1088  0.9899
 7636SOL    HW234371   3.080   2.838   6.991 -1.6290 -0.7444  2.0048
 7637SOL     OW34372   0.009   3.906  14.042 -0.2468 -0.1782 -0.2456
 7637SOL    HW134373   0.035   3.998  14.027  1.6567 -1.1119 -2.7869
 7637SOL    HW234374   0.085   3.876  14.092  0.3100  0.0184 -0.9689
 7638SOL     OW34375   1.116   1.775   8.894 -0.9017  0.8764 -0.2317
 7638SOL    HW134376   1.077   1.853   8.855  0.8948  1.2500 -1.2361
 7638SOL    HW234377   1.065   1.749   8.972  0.5590  0.9790  0.7649
 7639SOL     OW34378   0.039   3.892   7.624 -0.1645  0.3104 -0.4098
 7639SOL    HW134379   4.722   3.905   7.540 -0.9867  1.7306  0.2366
 7639SOL    HW234380   0.036   3.796   7.627 -0.8970  0.3712  1.3220
 7640SOL     OW34381   0.001   2.264   9.024 -0.2625 -0.4048 -0.3481
 7640SOL    HW134382   4.668   2.194   9.053 -0.2563  0.6177  2.0814
 7640SOL    HW234383   0.081   2.244   9.073  0.3309  1.0412 -0.7380
 7641SOL     OW34384   4.528   3.979   4.048  0.2523  0.7156  0.4683
 7641SOL    HW134385   4.546   3.955   3.957 -0.8558  0.3407  0.3441
 7641SOL    HW234386   4.608   4.025   4.073 -0.6941  2.1574  0.8958
 7642SOL     OW34387   2.174   4.632   0.937  0.2757  0.1239 -0.1926
 7642SOL    HW134388   2.183   4.711   0.883 -2.7187 -0.4991 -1.6257
 7642SOL    HW234389   2.142   4.571   0.870 -0.6555 -0.8652  1.1637
 7643SOL     OW34390   3.594   1.219  15.284 -0.7248  0.2806  0.0189
 7643SOL    HW134391   3.667   1.205  15.344 -1.8979 -0.9697  1.1537
 7643SOL    HW234392   3.537   1.173  15.345 -0.6491  0.4890  0.2449
 7644SOL     OW34393   3.230   3.834  10.147  0.3902 -0.3957 -0.2820
 7644SOL    HW134394   3.313   3.839  10.194  0.1151 -0.9438  0.2544
 7644SOL    HW234395   3.166   3.853  10.216 -0.7608 -1.8868 -0.9290
 7645SOL     OW34396   2.396   1.617   1.855  0.0687  0.3676 -0.0332
 7645SOL    HW134397   2.409   1.636   1.948  1.4764  1.0122 -0.3615
 7645SOL    HW234398   2.317   1.563   1.862  0.6371 -0.6507 -1.4512
 7646SOL     OW34399   0.576   4.329  13.857  0.9297 -0.1234  0.2293
 7646SOL    HW134400   0.564   4.423  13.840 -1.6984 -0.8679 -1.9307
 7646SOL    HW234401   0.643   4.317  13.790  0.3397 -1.5688 -0.0908
 7647SOL     OW34402   4.330   1.769   9.055 -0.1275  0.0101  0.1122
 7647SOL    HW134403   4.392   1.734   9.118 -1.1667 -1.2138  0.4491
 7647SOL    HW234404   4.242   1.741   9.081  1.1585 -2.9201  1.1633
 7648SOL     OW34405   3.308   4.229   0.071 -0.4372 -0.8702  0.6122
 7648SOL    HW134406   3.392   4.270   0.050 -0.0502 -2.5134 -1.0727
 7648SOL    HW234407   3.307   4.149   0.019  3.5649 -0.6855  0.2736
 7649SOL     OW34408   1.331   1.659   9.979 -0.4221 -0.0149 -0.2258
 7649SOL    HW134409   1.347   1.619   9.893  0.6871 -0.1483  0.0477
 7649SOL    HW234410   1.346   1.750   9.952  2.0125 -0.5764 -0.7552
 7650SOL     OW34411   3.577   0.205   2.393  0.3320 -0.4046 -0.6209
 7650SOL    HW134412   3.493   0.214   2.347  0.3156 -0.0011 -0.5113
 7650SOL    HW234413   3.627   0.137   2.349  1.1433 -1.2779  1.6533
 7651SOL     OW34414   1.999   2.406  14.064 -0.0937  0.0402 -0.5025
 7651SOL    HW134415   2.075   2.359  14.098 -1.1464 -0.5877  0.9654
 7651SOL    HW234416   2.040   2.493  14.058 -1.1119  0.3858 -2.4338
 7652SOL     OW34417   1.785   4.360   2.628 -0.4730 -0.4547  0.4191
 7652SOL    HW134418   1.755   4.385   2.541 -0.0851 -1.6195 -0.0539
 7652SOL    HW234419   1.776   4.266   2.611  0.6806 -0.8925  2.2728
 7653SOL     OW34420   2.687   2.577  14.392 -0.2030  0.3327 -0.4558
 7653SOL    HW134421   2.643   2.515  14.334  0.7061  0.8074 -1.6771
 7653SOL    HW234422   2.615   2.594  14.453  0.1740  0.7801 -0.1349
 7654SOL     OW34423   1.459   2.931   1.101  0.6810 -0.0644 -0.0791
 7654SOL    HW134424   1.443   2.976   1.184  0.0112  1.4503 -1.0342
 7654SOL    HW234425   1.465   2.838   1.123 -0.6057  0.1309  1.1207
 7655SOL     OW34426   4.693   3.359  16.545 -0.4396  0.1478  0.0600
 7655SOL    HW134427   4.701   3.264  16.546  0.7527  0.2051 -2.3010
 7655SOL    HW234428   4.666   3.376  16.635 -2.0279 -0.7255 -0.2504
 7656SOL     OW34429   1.312   2.230   2.737 -0.2400 -0.1958  0.3673
 7656SOL    HW134430   1.220   2.206   2.752  0.3409 -2.3961  0.4939
 7656SOL    HW234431   1.298   2.278   2.655 -1.4929 -1.4227 -0.1521
 7657SOL     OW34432   4.234   0.087  15.022  0.3695 -0.0773  0.0242
 7657SOL    HW134433   4.285   0.011  14.994 -1.6764 -1.0036 -1.1574
 7657SOL    HW234434   4.144   0.058  15.009  1.1071 -1.0302 -2.9717
 7658SOL     OW34435   1.388   4.591   8.099  0.1130  0.2748 -0.0279
 7658SOL    HW134436   1.359   4.682   8.099  0.5156  0.3941  2.4896
 7658SOL    HW234437   1.378   4.569   8.006  1.7899 -0.8489  0.0548
 7659SOL     OW34438   2.388   1.006   5.918  0.2457  0.2605  0.0207
 7659SOL    HW134439   2.469   0.977   5.959 -0.1503  1.1479  1.4277
 7659SOL    HW234440   2.391   1.100   5.937  0.5374  0.6125 -1.7364
 7660SOL     OW34441   3.753   3.668  13.637 -0.1651  0.1429 -0.2336
 7660SOL    HW134442   3.783   3.619  13.560 -0.5174  1.9057 -1.4714
 7660SOL    HW234443   3.820   3.736  13.644 -3.1392  3.1406 -0.9907
 7661SOL     OW34444   3.521   1.492   3.048 -0.5144 -0.2990 -0.8040
 7661SOL    HW134445   3.431   1.462   3.054  0.1365 -1.9218  1.0062
 7661SOL    HW234446   3.547   1.480   3.139 -0.5617 -1.4384 -0.9306
 7662SOL     OW34447   3.389   0.267   3.912 -0.3964 -0.2860  0.1501
 7662SOL    HW134448   3.372   0.173   3.906  1.3586 -0.5644 -0.3851
 7662SOL    HW234449   3.302   0.290   3.944 -0.2402  1.3165 -0.6012
 7663SOL     OW34450   4.075   0.354  11.181  0.3349 -0.3693 -0.4928
 7663SOL    HW134451   4.025   0.431  11.207 -2.6458 -2.8683  1.1563
 7663SOL    HW234452   4.110   0.326  11.265  0.0581 -1.1701 -0.6487
 7664SOL     OW34453   0.875   0.999  10.033 -1.0593 -0.6773 -0.2986
 7664SOL    HW134454   0.844   0.976  10.120 -0.4380 -1.4545 -0.2827
 7664SOL    HW234455   0.967   1.018  10.055 -1.5449 -1.7985  2.6439
 7665SOL     OW34456   2.962   3.306  15.722  0.4684  0.5759 -0.0492
 7665SOL    HW134457   3.003   3.352  15.796  1.9006 -1.2310  0.2826
 7665SOL    HW234458   2.999   3.350  15.646 -2.4351  3.1259  0.0099
 7666SOL     OW34459   2.280   2.215   7.490 -0.0117 -0.2347  0.4576
 7666SOL    HW134460   2.316   2.172   7.568 -3.5572 -0.1768  2.1207
 7666SOL    HW234461   2.330   2.297   7.490 -1.3776  0.5952  0.1642
 7667SOL     OW34462   4.088   1.386   5.828 -0.2364  0.7362  0.1074
 7667SOL    HW134463   4.134   1.469   5.825  0.2145  0.5135  0.7670
 7667SOL    HW234464   4.024   1.401   5.759 -0.9384 -1.1151  0.3348
 7668SOL     OW34465   2.400   2.050   9.606 -0.1992  0.6730  0.0540
 7668SOL    HW134466   2.428   2.087   9.522  1.5651  1.6066  1.0653
 7668SOL    HW234467   2.332   2.114   9.625  0.4808  1.1548  0.8437
 7669SOL     OW34468   2.994   4.635   7.711 -0.5216  0.0965 -0.1529
 7669SOL    HW134469   2.968   4.597   7.795 -0.9310  1.8009  0.4864
 7669SOL    HW234470   2.969   4.564   7.651 -1.7847 -0.3946  0.9565
 7670SOL     OW34471   2.277   3.337   5.275 -0.2176  0.3172 -0.8451
 7670SOL    HW134472   2.211   3.403   5.293 -0.5390  0.0352 -0.9787
 7670SOL    HW234473   2.320   3.375   5.198 -3.2574  1.4932 -1.9719
 7671SOL     OW34474   0.332   0.076  15.597 -0.2913 -0.4416 -0.1245
 7671SOL    HW134475   0.363   0.070  15.688 -1.6658 -1.3895  0.2876
 7671SOL    HW234476   0.258   0.136  15.605 -2.5304 -3.0012 -1.7344
 7672SOL     OW34477   4.136   2.554   4.524  0.1812 -0.8179  0.2905
 7672SOL    HW134478   4.139   2.574   4.617  1.7526  2.1102 -0.3758
 7672SOL    HW234479   4.187   2.474   4.517 -0.6222 -1.3042  0.0230
 7673SOL     OW34480   3.530   2.753   8.325 -0.1924  0.3309  0.0794
 7673SOL    HW134481   3.493   2.753   8.237  2.2637  0.8228 -0.9518
 7673SOL    HW234482   3.549   2.659   8.331 -1.5595  0.2353  2.9512
 7674SOL     OW34483   4.684   3.423  12.586 -0.3444 -0.2565 -0.1935
 7674SOL    HW134484   0.035   3.463  12.625 -1.5178  1.2288  0.6296
 7674SOL    HW234485   4.725   3.345  12.549 -0.7155  0.1834 -1.5263
 7675SOL     OW34486   1.683   0.658   5.363 -0.4601  0.1565  0.4063
 7675SOL    HW134487   1.663   0.746   5.332 -1.4119 -0.2542 -0.1563
 7675SOL    HW234488   1.623   0.648   5.437  0.5394  1.5896  1.4067
 7676SOL     OW34489   3.446   2.269  12.423 -0.5955 -0.2548 -0.1082
 7676SOL    HW134490   3.379   2.204  12.398 -0.2436 -1.2524  1.5713
 7676SOL    HW234491   3.415   2.349  12.380  0.0307 -0.0885 -0.2475
 7677SOL     OW34492   3.619   0.004   8.218  0.5948 -0.3091 -0.1905
 7677SOL    HW134493   3.673   4.691   8.287  1.1619  2.3485  0.8847
 7677SOL    HW234494   3.680   0.032   8.150  0.0738  1.0926 -0.0790
 7678SOL     OW34495   1.411   0.236  12.795  0.7062 -0.1399  0.3131
 7678SOL    HW134496   1.335   0.249  12.739 -0.0188  0.4478  1.4326
 7678SOL    HW234497   1.374   0.180  12.863  0.7358 -1.4275 -0.7409
 7679SOL     OW34498   3.926   4.524   2.261 -0.4731 -0.7044  0.6699
 7679SOL    HW134499   3.952   4.434   2.281  2.1039 -0.0356  0.2218
 7679SOL    HW234500   3.971   4.540   2.178 -0.2075 -0.0671  0.9448
 7680SOL     OW34501   0.182   2.503   3.639  0.2381 -0.0090  0.2053
 7680SOL    HW134502   0.275   2.525   3.636  0.4785 -1.2258 -1.2846
 7680SOL    HW234503   0.173   2.438   3.570  0.1840 -1.3567  1.4671
 7681SOL     OW34504   0.803   4.503   7.423  0.0600  0.4681  0.9474
 7681SOL    HW134505   0.764   4.577   7.468  2.4093  1.3058  1.6203
 7681SOL    HW234506   0.893   4.532   7.439  0.0338  1.4970 -0.7600
 7682SOL     OW34507   3.970   3.991   5.538 -0.0714  0.0472  0.1336
 7682SOL    HW134508   4.015   3.935   5.601 -0.5392 -1.0559 -0.5250
 7682SOL    HW234509   4.039   4.016   5.477 -0.5569  0.1279 -0.3758
 7683SOL     OW34510   0.877   1.234   9.695  0.2670  0.0189 -0.2814
 7683SOL    HW134511   0.846   1.304   9.638 -0.6283 -1.0713 -1.1427
 7683SOL    HW234512   0.952   1.270   9.742 -0.1702  1.2608 -0.5362
 7684SOL     OW34513   2.553   3.385   3.558 -0.1832 -0.1811 -0.7734
 7684SOL    HW134514   2.633   3.357   3.514  0.6364 -1.4250  1.5196
 7684SOL    HW234515   2.582   3.463   3.606 -1.8524 -0.3778  0.5222
 7685SOL     OW34516   2.007   0.922  11.724  0.2017 -0.4525  0.7781
 7685SOL    HW134517   2.101   0.934  11.743  0.5300  0.6638 -1.5414
 7685SOL    HW234518   2.010   0.869  11.644 -1.0100  0.4081  0.1677
 7686SOL     OW34519   2.642   1.329  15.136  0.2595  0.3434 -0.2856
 7686SOL    HW134520   2.646   1.309  15.229 -0.3638 -0.1908 -0.3737
 7686SOL    HW234521   2.713   1.283  15.091 -0.4750 -0.5552 -0.5323
 7687SOL     OW34522   0.411   0.254   7.308 -0.1783  0.5060  0.0434
 7687SOL    HW134523   0.454   0.177   7.269  0.0211 -0.7527  2.7461
 7687SOL    HW234524   0.334   0.210   7.344  0.7948  0.0734  1.6115
 7688SOL     OW34525   3.687   3.294  16.235  0.1616  0.1343  0.3765
 7688SOL    HW134526   3.661   3.367  16.292  0.3784  0.9754 -0.6119
 7688SOL    HW234527   3.680   3.215  16.289  1.3903 -0.4402 -0.3296
 7689SOL     OW34528   3.519   2.130   6.913  0.1994  0.6527 -0.1542
 7689SOL    HW134529   3.548   2.059   6.970  1.0787  2.2054  1.3710
 7689SOL    HW234530   3.605   2.173   6.907  0.7184 -0.4480 -0.4979
 7690SOL     OW34531   1.113   0.247   5.445 -0.2332 -0.2866 -0.3005
 7690SOL    HW134532   1.107   0.159   5.406  2.0528  0.2759 -1.9595
 7690SOL    HW234533   1.082   0.297   5.369 -0.0987  1.3006  0.6904
 7691SOL     OW34534   2.602   1.341  12.682 -0.6432 -0.1167 -0.4020
 7691SOL    HW134535   2.607   1.261  12.629  1.8673 -0.3218  0.1394
 7691SOL    HW234536   2.522   1.329  12.732 -0.3591  1.7205  0.4692
 7692SOL     OW34537   3.943   2.348   7.335  0.0057  0.0068 -0.2784
 7692SOL    HW134538   3.888   2.420   7.305  0.0886  0.0056 -0.4309
 7692SOL    HW234539   3.913   2.280   7.276 -0.5406 -0.2627  0.3097
 7693SOL     OW34540   2.333   4.708   3.807  0.9654  0.6663 -0.4099
 7693SOL    HW134541   2.239   4.700   3.792  1.1567 -1.3817 -0.4135
 7693SOL    HW234542   2.335   4.678   3.898  1.0347 -2.3509 -1.4104
 7694SOL     OW34543   1.543   4.363   7.100 -0.6489  0.0194  0.2919
 7694SOL    HW134544   1.451   4.354   7.076 -1.0956  2.4367  1.0715
 7694SOL    HW234545   1.549   4.322   7.186 -1.1078  1.0423  0.8106
 7695SOL     OW34546   0.491   2.527   4.973 -0.6066 -0.8426  0.0324
 7695SOL    HW134547   0.502   2.567   4.887 -0.1797 -1.1481 -0.0552
 7695SOL    HW234548   0.402   2.559   4.986  0.2111  1.0057  0.9594
 7696SOL     OW34549   3.963   2.837  12.300 -0.7498  0.3710  0.1276
 7696SOL    HW134550   4.039   2.893  12.314 -1.1909  1.1007 -0.4413
 7696SOL    HW234551   4.005   2.765  12.251  0.0386  1.0310 -0.1651
 7697SOL     OW34552   0.199   3.148  13.933  0.0131 -0.1951 -0.0909
 7697SOL    HW134553   0.227   3.070  13.885  0.1892 -0.3040  0.1934
 7697SOL    HW234554   0.125   3.120  13.986  0.1724  1.8982  1.2348
 7698SOL     OW34555   4.107   2.052   9.438  0.0873  0.3497  0.3426
 7698SOL    HW134556   4.150   1.970   9.416 -1.1677 -0.2413  0.0629
 7698SOL    HW234557   4.062   2.058   9.354  0.0255  0.8865  0.4106
 7699SOL     OW34558   1.257   1.475   2.711  0.2355  1.0171  0.4121
 7699SOL    HW134559   1.182   1.483   2.771 -2.7987  0.2619 -3.2980
 7699SOL    HW234560   1.265   1.380   2.717 -2.4064  0.6497 -1.7233
 7700SOL     OW34561   4.207   1.090   5.150  0.0916  0.6247  0.1629
 7700SOL    HW134562   4.170   1.010   5.189 -0.9500  0.7680 -0.5450
 7700SOL    HW234563   4.240   1.149   5.218 -1.2259 -1.5663  2.7391
 7701SOL     OW34564   2.532   1.032  13.366  0.0453 -0.0746  0.0203
 7701SOL    HW134565   2.485   1.114  13.381 -0.2393 -0.1421 -0.5090
 7701SOL    HW234566   2.487   0.970  13.424 -1.3658  2.2769  1.4592
 7702SOL     OW34567   2.747   1.851   0.323 -0.3111  0.2636 -0.0536
 7702SOL    HW134568   2.838   1.846   0.294 -0.4812 -2.7771 -0.1187
 7702SOL    HW234569   2.758   1.847   0.418 -0.3225 -2.4034 -0.1564
 7703SOL     OW34570   4.086   3.480   7.457  0.4323 -0.1820  0.7053
 7703SOL    HW134571   4.086   3.499   7.363  0.6468 -0.5082  0.6387
 7703SOL    HW234572   4.170   3.437   7.472  0.9195  0.5857  0.1758
 7704SOL     OW34573   3.326   2.547   5.735  0.5360 -0.4252  0.2431
 7704SOL    HW134574   3.305   2.517   5.647  1.3250  0.4000 -0.2284
 7704SOL    HW234575   3.242   2.543   5.780 -1.1066  0.4269 -2.7336
 7705SOL     OW34576   4.184   3.815   7.622 -1.0287 -0.2640 -0.0477
 7705SOL    HW134577   4.225   3.736   7.587 -2.2000 -0.6396 -0.5906
 7705SOL    HW234578   4.156   3.802   7.713  0.4978  0.1360  0.4718
 7706SOL     OW34579   0.002   1.076   2.891  0.3598 -0.0472 -0.4060
 7706SOL    HW134580   4.671   1.139   2.849  1.4196  2.5325  2.0247
 7706SOL    HW234581   0.071   1.141   2.902 -1.0673  1.0025  2.2965
 7707SOL     OW34582   0.216   0.077   8.998 -0.1112 -0.4943 -0.7695
 7707SOL    HW134583   0.187   0.052   9.086  2.3201 -0.2852  0.1092
 7707SOL    HW234584   0.260   0.161   9.010  1.7114 -1.4587 -0.6726
 7708SOL     OW34585   1.150   2.442   3.208  0.6429 -0.6660 -0.1884
 7708SOL    HW134586   1.168   2.536   3.196 -1.3602 -0.0349  1.7045
 7708SOL    HW234587   1.198   2.400   3.137 -0.8752 -3.8027  0.6651
 7709SOL     OW34588   1.446   0.959  17.557  0.2514  0.1638 -0.0067
 7709SOL    HW134589   1.430   1.009  17.636  0.1915  1.6142 -0.9403
 7709SOL    HW234590   1.366   0.963  17.503  0.8610  2.4200 -0.7225
 7710SOL     OW34591   3.662   0.186   6.023  0.2744 -0.9052 -0.0126
 7710SOL    HW134592   3.717   0.252   6.064 -0.4050 -0.3399 -0.0171
 7710SOL    HW234593   3.657   0.219   5.933 -2.4898  0.0553  0.5059
 7711SOL     OW34594   0.471   1.973   1.993  0.2794  0.2612 -0.1683
 7711SOL    HW134595   0.430   1.984   2.079  2.3050 -1.2456  0.9534
 7711SOL    HW234596   0.403   2.010   1.936 -0.3713 -1.3546 -0.4429
 7712SOL     OW34597   1.877   2.510   1.853 -0.3360  0.5163  0.3817
 7712SOL    HW134598   1.938   2.437   1.843  2.2775  2.9087 -1.3572
 7712SOL    HW234599   1.825   2.513   1.772  0.9611 -0.6352 -0.4988
 7713SOL     OW34600   1.780   0.886   2.304  0.1308 -0.5531 -0.0355
 7713SOL    HW134601   1.751   0.881   2.213 -0.2460  0.0315  0.0540
 7713SOL    HW234602   1.771   0.979   2.322 -3.8529 -1.4305  2.5917
 7714SOL     OW34603   3.991   2.469   0.965  0.1466 -0.5995 -0.3255
 7714SOL    HW134604   4.012   2.441   1.055  2.2925 -0.0204 -0.6358
 7714SOL    HW234605   3.902   2.501   0.976  0.3700 -0.3237  0.7791
 7715SOL     OW34606   2.584   0.036   7.167 -0.7969 -0.8064  0.2565
 7715SOL    HW134607   2.491   0.015   7.167 -1.3070  1.4705  2.3338
 7715SOL    HW234608   2.602   4.718   7.084  1.2830 -1.3300  0.9845
 7716SOL     OW34609   0.793   0.625   7.079  0.1853 -0.0149  0.5535
 7716SOL    HW134610   0.873   0.624   7.132 -1.2298 -0.1190  2.6750
 7716SOL    HW234611   0.796   0.539   7.037 -0.9364  0.5462 -0.6732
 7717SOL     OW34612   3.456   0.590   2.164  0.6335  0.5071 -0.3901
 7717SOL    HW134613   3.463   0.686   2.158  0.9313  0.3283 -2.7871
 7717SOL    HW234614   3.536   0.572   2.214 -0.5054  2.3894  2.0960
 7718SOL     OW34615   3.140   0.423   3.963 -0.1885 -0.3380  0.1084
 7718SOL    HW134616   3.087   0.349   3.932  0.4754 -1.2835  1.2286
 7718SOL    HW234617   3.096   0.492   3.914 -0.1478 -0.2620  0.1796
 7719SOL     OW34618   0.497   2.661   4.743 -0.3604  0.1031 -0.2552
 7719SOL    HW134619   0.480   2.754   4.760  0.5579  0.1136  0.5916
 7719SOL    HW234620   0.564   2.667   4.675  0.4891  1.0325  0.6527
 7720SOL     OW34621   3.603   3.641   0.684  0.0538  0.1769 -0.5328
 7720SOL    HW134622   3.576   3.584   0.756 -0.9750  0.7146 -0.4876
 7720SOL    HW234623   3.528   3.700   0.676 -0.3410  0.2557  3.7974
 7721SOL     OW34624   2.643   4.578   0.576 -0.5606  0.1917 -0.4254
 7721SOL    HW134625   2.709   4.535   0.522 -1.6297 -2.7635  0.6456
 7721SOL    HW234626   2.611   4.639   0.510  0.9014  0.7932 -0.5971
 7722SOL     OW34627   3.167   0.219   1.682 -0.1695  0.2527  0.1672
 7722SOL    HW134628   3.256   0.252   1.669 -0.4331  0.0590 -2.2012
 7722SOL    HW234629   3.147   0.230   1.775  2.5408  0.1499  0.7515
 7723SOL     OW34630   0.395   2.248   4.475 -0.6450 -0.5517  0.5473
 7723SOL    HW134631   0.409   2.340   4.495  1.6507 -1.0239  1.1157
 7723SOL    HW234632   0.300   2.253   4.470 -0.9065 -2.6044  3.1895
 7724SOL     OW34633   1.315   2.407  15.932  0.1224  0.1479 -0.4029
 7724SOL    HW134634   1.283   2.346  15.998 -0.2746  1.3609  0.5165
 7724SOL    HW234635   1.340   2.346  15.862  0.5165 -0.8055  0.5701
 7725SOL     OW34636   3.400   2.598   3.030 -0.1820  0.1421  0.0281
 7725SOL    HW134637   3.318   2.566   2.993 -0.8427  0.6957  1.0061
 7725SOL    HW234638   3.461   2.526   3.013  2.0530  2.2232 -0.6592
 7726SOL     OW34639   0.473   3.463   2.562 -0.1376  0.0397  0.0109
 7726SOL    HW134640   0.455   3.381   2.516 -2.8709  0.7830 -0.2687
 7726SOL    HW234641   0.455   3.435   2.652  0.0624 -1.8361 -0.5330
 7727SOL     OW34642   1.570   3.983  10.133 -0.1226 -0.1978  0.1810
 7727SOL    HW134643   1.623   4.021  10.204 -1.0535  1.2895  0.0805
 7727SOL    HW234644   1.537   4.062  10.090 -0.7634 -1.5645 -1.8112
 7728SOL     OW34645   0.130   1.319   8.560  0.8143 -0.8250 -0.4720
 7728SOL    HW134646   0.197   1.312   8.492  0.3996  1.7601 -1.1300
 7728SOL    HW234647   0.079   1.246   8.523 -0.5060 -0.1529  0.0102
 7729SOL     OW34648   0.207   4.008   9.354  0.0278  0.5239 -1.1148
 7729SOL    HW134649   0.206   4.006   9.450 -2.1040 -0.2068 -1.1556
 7729SOL    HW234650   0.299   3.994   9.331  0.2842  0.1115  0.1394
 7730SOL     OW34651   3.393   3.356   3.800  0.1848 -0.0264 -0.3379
 7730SOL    HW134652   3.359   3.270   3.777 -1.7479  0.8456 -0.7520
 7730SOL    HW234653   3.486   3.345   3.779 -0.0644 -1.9499 -0.4058
 7731SOL     OW34654   3.759   2.631  11.570  0.1715 -0.1554  0.8440
 7731SOL    HW134655   3.837   2.660  11.522  0.6196 -0.7456  1.2273
 7731SOL    HW234656   3.799   2.564  11.626  4.1230  2.0717  0.6838
 7732SOL     OW34657   3.932   1.912   6.337 -0.6897  0.0228  0.6359
 7732SOL    HW134658   4.015   1.941   6.372  0.1058 -0.9630 -0.4126
 7732SOL    HW234659   3.945   1.818   6.322 -0.3937  0.1002  0.4184
 7733SOL     OW34660   1.147   2.091   5.364 -0.0397 -0.4370  0.2266
 7733SOL    HW134661   1.169   2.172   5.409  1.8349 -0.6099 -0.3730
 7733SOL    HW234662   1.080   2.053   5.420  0.2363 -3.2553 -1.3608
 7734SOL     OW34663   1.288   3.483   4.693  0.7693  0.4078 -0.9338
 7734SOL    HW134664   1.233   3.561   4.684  0.9024  0.2157 -3.5658
 7734SOL    HW234665   1.297   3.455   4.602  2.9908  0.6941 -0.7980
 7735SOL     OW34666   0.636   0.868  15.700 -0.1323  0.6269 -0.3421
 7735SOL    HW134667   0.629   0.963  15.710  1.0194  0.8388 -1.5542
 7735SOL    HW234668   0.719   0.849  15.656  0.0489 -0.7623  0.6125
 7736SOL     OW34669   2.818   4.519   2.555 -1.0447  0.9321 -0.1989
 7736SOL    HW134670   2.891   4.484   2.607 -0.6048  2.1195 -0.0150
 7736SOL    HW234671   2.778   4.437   2.526 -1.2764  0.9807 -0.0113
 7737SOL     OW34672   0.377   3.194   4.357 -0.1914  0.0434 -0.2290
 7737SOL    HW134673   0.309   3.154   4.302 -0.5977  2.5279 -1.5260
 7737SOL    HW234674   0.316   3.246   4.407 -1.7470 -1.0217 -1.0173
 7738SOL     OW34675   0.192   2.294   8.065 -0.3232  0.2095 -0.2130
 7738SOL    HW134676   0.182   2.234   8.140  0.7255 -1.7237 -1.6225
 7738SOL    HW234677   0.285   2.283   8.046 -0.3176 -0.2928  0.1013
 7739SOL     OW34678   1.895   3.851   5.263 -0.0432  0.3489  0.3773
 7739SOL    HW134679   1.936   3.932   5.294  0.1612  1.0179 -1.6446
 7739SOL    HW234680   1.925   3.844   5.173  0.0069 -1.1095  0.5109
 7740SOL     OW34681   2.874   2.838  15.489  0.8480  0.3238  0.0135
 7740SOL    HW134682   2.947   2.822  15.430 -0.5376  1.7579 -2.0922
 7740SOL    HW234683   2.919   2.904  15.541  2.4536  0.9335 -2.1841
 7741SOL     OW34684   0.013   0.403   3.536  0.0637 -0.1625  0.1272
 7741SOL    HW134685   0.055   0.386   3.451  1.0286  0.1080  0.5441
 7741SOL    HW234686   0.084   0.416   3.598  0.0889 -1.6027  0.3988
 7742SOL     OW34687   3.117   4.085  15.934  0.0807  0.1915 -0.0177
 7742SOL    HW134688   3.114   3.990  15.939 -2.4193  0.3050  0.7085
 7742SOL    HW234689   3.068   4.103  16.014  1.0397  1.4566  0.2937
 7743SOL     OW34690   0.330   0.973   4.905 -0.0278  0.5894  0.0520
 7743SOL    HW134691   0.262   0.921   4.948  1.7257 -2.3456 -0.7144
 7743SOL    HW234692   0.296   0.995   4.819  2.3119 -0.1471 -1.0469
 7744SOL     OW34693   4.636   0.587   2.229  0.4351  0.4239 -0.1728
 7744SOL    HW134694   4.636   0.595   2.324 -0.7563 -0.1905 -0.1286
 7744SOL    HW234695   4.543   0.575   2.211  0.6954 -3.2851  1.0282
 7745SOL     OW34696   1.572   2.548   8.900 -0.0555  0.1622 -0.0686
 7745SOL    HW134697   1.578   2.640   8.873  0.4066  0.4710  1.0494
 7745SOL    HW234698   1.661   2.539   8.935  0.2822 -0.9745 -1.2373
 7746SOL     OW34699   2.521   0.757  17.271  0.0415 -0.8053  0.2842
 7746SOL    HW134700   2.514   0.702  17.349 -1.4976 -3.0762 -1.4367
 7746SOL    HW234701   2.441   0.808  17.281  0.4366 -0.2743  0.7250
 7747SOL     OW34702   1.346   1.696  15.536  0.0857  0.1236 -0.1710
 7747SOL    HW134703   1.366   1.685  15.629 -2.5033  0.1617  0.3628
 7747SOL    HW234704   1.404   1.635  15.490  1.0953  1.7304 -1.0304
 7748SOL     OW34705   1.939   2.301   3.641 -0.1258 -0.0071 -0.2297
 7748SOL    HW134706   1.926   2.310   3.546 -1.0495  1.5156  0.0393
 7748SOL    HW234707   1.850   2.324   3.668  0.6918  2.0192  0.7293
 7749SOL     OW34708   0.684   1.110   8.667  0.2285 -1.1418 -0.3504
 7749SOL    HW134709   0.741   1.170   8.619  0.8239 -1.1883  0.3027
 7749SOL    HW234710   0.744   1.073   8.732 -0.7173 -1.4848  0.3221
 7750SOL     OW34711   1.155   2.051  11.479  0.1911  0.2600  0.1569
 7750SOL    HW134712   1.060   2.060  11.473  0.3669  1.7440 -0.4942
 7750SOL    HW234713   1.177   2.144  11.481  0.1745  0.2949 -0.8816
 7751SOL     OW34714   2.160   1.238   4.270 -0.1833 -0.0865 -0.1827
 7751SOL    HW134715   2.120   1.258   4.186  1.1920 -0.5613 -0.9466
 7751SOL    HW234716   2.192   1.325   4.293 -1.1105  0.4238 -0.8441
 7752SOL     OW34717   4.178   0.484   4.834 -0.0230 -0.1531  0.4607
 7752SOL    HW134718   4.179   0.577   4.854 -1.0911  0.0598 -0.4770
 7752SOL    HW234719   4.173   0.494   4.739 -0.0445 -1.0239  0.3683
 7753SOL     OW34720   0.328   1.624   5.492 -0.7253 -0.1357  0.8551
 7753SOL    HW134721   0.364   1.709   5.513  1.1857 -0.5616 -0.7087
 7753SOL    HW234722   0.376   1.562   5.547 -2.8716  0.8956  3.8786
 7754SOL     OW34723   1.154   4.246   2.100 -0.2871  0.4896  0.3180
 7754SOL    HW134724   1.248   4.244   2.082 -0.2190 -0.3169  0.7622
 7754SOL    HW234725   1.138   4.320   2.159 -0.3416 -0.2818  1.2585
 7755SOL     OW34726   1.638   4.339   5.121  0.0678 -0.4023 -0.0428
 7755SOL    HW134727   1.696   4.301   5.054  2.1498 -0.2602  1.6638
 7755SOL    HW234728   1.564   4.379   5.076 -0.4601 -3.1328 -1.6175
 7756SOL     OW34729   3.711   3.693  12.744  0.3299  0.1399 -0.3770
 7756SOL    HW134730   3.752   3.748  12.811 -0.1500 -0.1038  0.1226
 7756SOL    HW234731   3.625   3.734  12.758  0.1561 -0.1565 -0.5883
 7757SOL     OW34732   4.254   3.293   5.670 -0.1093  0.2722  0.9992
 7757SOL    HW134733   4.299   3.215   5.635 -0.6019  0.4298  0.0162
 7757SOL    HW234734   4.164   3.262   5.667 -0.2147  0.7322 -0.2776
 7758SOL     OW34735   1.693   2.861   6.426  0.0566 -0.4895  0.1817
 7758SOL    HW134736   1.658   2.933   6.479 -0.8711 -0.8270  0.0403
 7758SOL    HW234737   1.782   2.894   6.413  0.0343 -0.3791  0.3067
 7759SOL     OW34738   0.761   0.991   4.836  0.3169 -0.3020  0.2979
 7759SOL    HW134739   0.856   1.000   4.833  0.3154 -0.0580  0.8848
 7759SOL    HW234740   0.753   0.906   4.793  1.6203  0.7225 -1.9785
 7760SOL     OW34741   0.072   2.727  10.781  0.0150  0.0842 -0.1467
 7760SOL    HW134742   0.084   2.787  10.707  0.6257  1.6020  1.1841
 7760SOL    HW234743   4.710   2.760  10.799 -0.6429 -1.0313 -1.3490
 7761SOL     OW34744   1.770   1.846   4.680 -0.2247 -0.4470 -0.1942
 7761SOL    HW134745   1.688   1.890   4.703  0.3041  1.8475 -2.5941
 7761SOL    HW234746   1.729   1.774   4.633 -1.0932 -0.1514  0.0989
 7762SOL     OW34747   1.280   1.361   1.536 -0.0696  0.1560 -0.6808
 7762SOL    HW134748   1.224   1.370   1.458  0.0191 -0.8645 -0.8651
 7762SOL    HW234749   1.212   1.323   1.591 -0.4345  1.0421 -0.5103
 7763SOL     OW34750   3.319   4.116  10.460 -0.2173 -0.3642 -0.0003
 7763SOL    HW134751   3.257   4.098  10.530 -0.2153  0.1075  0.1268
 7763SOL    HW234752   3.402   4.137  10.503 -0.6308  0.6697  0.2937
 7764SOL     OW34753   0.939   2.596   2.514 -0.6850  0.5954 -0.3708
 7764SOL    HW134754   1.012   2.638   2.470  1.2156 -1.9284  0.3496
 7764SOL    HW234755   0.961   2.502   2.513 -1.2820  0.4449  0.5730
 7765SOL     OW34756   2.849   3.004   8.066  0.1037 -0.4524 -0.6488
 7765SOL    HW134757   2.812   2.964   7.988 -0.5612  0.5057 -0.8294
 7765SOL    HW234758   2.923   2.945   8.078 -0.4190 -1.3809 -2.0319
 7766SOL     OW34759   1.714   4.573   5.437 -0.5170  0.6786 -0.0830
 7766SOL    HW134760   1.750   4.659   5.415  1.1540  0.1345  0.5904
 7766SOL    HW234761   1.620   4.576   5.418 -0.0010 -0.9780 -3.0354
 7767SOL     OW34762   0.697   2.531   4.059 -0.0648  0.0868  0.9222
 7767SOL    HW134763   0.629   2.532   4.125 -1.1983  0.3601 -0.2475
 7767SOL    HW234764   0.671   2.455   4.007  0.0482  0.2676  0.5981
 7768SOL     OW34765   2.150   3.429   7.666  0.7519  0.7320 -0.0518
 7768SOL    HW134766   2.236   3.407   7.631  0.7923  1.0080 -0.1253
 7768SOL    HW234767   2.141   3.344   7.709  1.9271  0.6249 -0.0358
 7769SOL     OW34768   1.434   2.100   4.053  0.2291  0.2235 -0.1203
 7769SOL    HW134769   1.462   2.028   4.109  1.1979  0.2873 -0.5196
 7769SOL    HW234770   1.492   2.160   4.100  0.0053  0.9323 -0.7426
 7770SOL     OW34771   0.727   2.069   2.027  0.1170  0.3666  0.0915
 7770SOL    HW134772   0.731   2.029   2.114  2.1992 -0.5597 -0.4279
 7770SOL    HW234773   0.632   2.066   2.017 -0.1692 -1.2191  3.4303
 7771SOL     OW34774   0.136   3.050   4.283  1.0774 -0.1241  0.1074
 7771SOL    HW134775   0.153   3.010   4.198 -4.0541 -0.7183 -0.5930
 7771SOL    HW234776   0.046   3.019   4.293  0.9636  0.6412  1.4784
 7772SOL     OW34777   4.205   3.969   2.461 -0.2619  0.3665 -0.2738
 7772SOL    HW134778   4.155   3.942   2.385 -1.2846  1.2954  0.0773
 7772SOL    HW234779   4.147   3.937   2.531 -0.5628  1.6315  0.0485
 7773SOL     OW34780   2.261   2.336   4.408  0.0820  0.5234 -0.1359
 7773SOL    HW134781   2.281   2.404   4.344 -0.1756 -0.5794 -1.3759
 7773SOL    HW234782   2.169   2.314   4.395  0.0681  0.2633  0.4031
 7774SOL     OW34783   3.958   1.286   9.045 -0.2221 -0.0124  0.3919
 7774SOL    HW134784   3.933   1.213   8.989  1.2859 -0.3766  0.1782
 7774SOL    HW234785   3.888   1.350   9.033 -0.0773 -0.1430 -1.2466
 7775SOL     OW34786   3.328   1.153  14.923  0.0695 -0.2917  0.3988
 7775SOL    HW134787   3.352   1.215  14.992  0.2743 -1.4033  1.3237
 7775SOL    HW234788   3.388   1.192  14.859 -2.4117  1.5227 -0.8245
 7776SOL     OW34789   4.362   0.447   6.827  0.1844 -0.0193  0.5495
 7776SOL    HW134790   4.394   0.458   6.917  1.4461 -1.6344  0.3099
 7776SOL    HW234791   4.445   0.466   6.782  0.4670 -1.3384  0.5118
 7777SOL     OW34792   1.927   2.548   9.301  0.2486  0.1170 -0.7124
 7777SOL    HW134793   1.936   2.643   9.308  0.4036 -0.0281  0.9390
 7777SOL    HW234794   2.019   2.534   9.278  0.7989  1.3327  0.7785
 7778SOL     OW34795   4.134   0.543   6.753 -0.2773  0.3614 -0.1956
 7778SOL    HW134796   4.214   0.499   6.783 -0.1967 -0.9462 -2.2957
 7778SOL    HW234797   4.169   0.625   6.718 -0.9985  0.8483  0.2540
 7779SOL     OW34798   3.443   1.657   7.967  0.1068 -0.1387 -0.0038
 7779SOL    HW134799   3.378   1.709   8.016  1.5688  0.7648  0.9933
 7779SOL    HW234800   3.519   1.690   8.014 -1.7114  1.7717  1.6382
 7780SOL     OW34801   0.913   0.112  16.234 -0.3932  0.0830 -0.0085
 7780SOL    HW134802   0.958   0.183  16.281  1.8453 -1.3309 -0.0228
 7780SOL    HW234803   0.834   0.115  16.287 -0.8845 -3.0241 -0.5773
 7781SOL     OW34804   3.105   0.979  16.811 -0.5925 -0.2064 -0.2319
 7781SOL    HW134805   3.143   0.929  16.738 -1.6490  1.4609 -1.9185
 7781SOL    HW234806   3.167   0.954  16.879 -0.1682  0.9576 -0.1937
 7782SOL     OW34807   0.480   1.735   2.166  0.3278 -0.5631 -0.1373
 7782SOL    HW134808   0.438   1.651   2.145 -0.2094 -0.1223 -0.8400
 7782SOL    HW234809   0.536   1.751   2.090 -0.0866  0.7219 -0.1676
 7783SOL     OW34810   3.171   4.394  12.455 -0.8087  0.2257  0.2315
 7783SOL    HW134811   3.184   4.489  12.455  1.3996 -0.0698 -0.3170
 7783SOL    HW234812   3.179   4.364  12.545  0.7708  2.4965  0.8350
 7784SOL     OW34813   0.293   3.446   3.291  0.4574  0.3118  0.0336
 7784SOL    HW134814   0.286   3.351   3.297 -0.6230  0.4241  0.5936
 7784SOL    HW234815   0.217   3.476   3.241  0.7994  1.0343 -0.0509
 7785SOL     OW34816   0.393   1.321   6.131  0.7208 -0.3416  0.4200
 7785SOL    HW134817   0.393   1.416   6.127  1.3698 -0.3297  0.6207
 7785SOL    HW234818   0.426   1.313   6.041  3.4551  3.4119  1.1116
 7786SOL     OW34819   1.123   0.534   5.130 -0.6213 -0.0176  0.5148
 7786SOL    HW134820   1.061   0.568   5.066 -0.0183 -0.8045 -0.4830
 7786SOL    HW234821   1.189   0.488   5.079 -0.9102  0.4989 -0.3233
 7787SOL     OW34822   4.149   3.490   2.766  0.3963  0.3305  0.1843
 7787SOL    HW134823   4.086   3.425   2.798  2.1821 -0.9215  1.1576
 7787SOL    HW234824   4.130   3.570   2.815 -0.7519 -0.4613  1.0501
 7788SOL     OW34825   0.524   0.708   3.833  0.0106 -0.1242 -0.2154
 7788SOL    HW134826   0.572   0.749   3.761 -1.3186 -1.7756 -2.0304
 7788SOL    HW234827   0.446   0.763   3.835  0.4470  0.5687 -2.0738
 7789SOL     OW34828   0.554   3.054   6.727  0.4965  0.5936  0.1478
 7789SOL    HW134829   0.650   3.056   6.733  0.4098 -0.1247  1.6121
 7789SOL    HW234830   0.518   3.026   6.811  0.0194  0.5737 -0.0615
 7790SOL     OW34831   2.569   4.462   8.982  0.1747 -0.1274 -0.2736
 7790SOL    HW134832   2.648   4.448   9.034  0.0608 -0.7053 -0.2498
 7790SOL    HW234833   2.540   4.547   9.015 -0.4063 -0.2491 -0.4690
 7791SOL     OW34834   1.241   1.982   3.662  0.2987  0.1720  0.8833
 7791SOL    HW134835   1.269   2.059   3.614  1.5673 -1.6341 -1.2547
 7791SOL    HW234836   1.151   1.966   3.634 -0.5637  0.5575  3.3829
 7792SOL     OW34837   0.768   3.040   7.575 -0.1265 -0.3675  0.1364
 7792SOL    HW134838   0.837   3.084   7.524  0.1442 -1.0973 -0.1222
 7792SOL    HW234839   0.755   2.964   7.518  0.1781 -0.3601  0.0569
 7793SOL     OW34840   2.633   1.949   3.500 -0.4132 -0.5540  0.3182
 7793SOL    HW134841   2.554   1.914   3.459  0.0024 -1.9489  0.7172
 7793SOL    HW234842   2.681   1.981   3.424  0.8876  0.2490  1.4683
 7794SOL     OW34843   1.011   2.566   7.307 -0.8609 -0.5471  0.1462
 7794SOL    HW134844   1.059   2.533   7.382  0.2315  0.2890 -0.1922
 7794SOL    HW234845   1.034   2.499   7.242  0.5674 -1.6074  1.7525
 7795SOL     OW34846   1.901   1.170   8.467 -0.2646  0.1057 -0.1089
 7795SOL    HW134847   1.951   1.250   8.450  0.5085 -0.7509 -1.8872
 7795SOL    HW234848   1.891   1.136   8.378 -2.6627 -0.5315  0.4078
 7796SOL     OW34849   2.721   1.475   8.619 -0.2501  0.2507 -0.0260
 7796SOL    HW134850   2.751   1.397   8.667 -0.4013 -0.0272 -0.3778
 7796SOL    HW234851   2.803   1.520   8.599  0.1270 -1.0190 -1.4020
 7797SOL     OW34852   1.100   1.538  10.083  0.1362 -0.6410  1.2148
 7797SOL    HW134853   1.124   1.532  10.176 -2.0680 -0.5737  1.7955
 7797SOL    HW234854   1.180   1.581  10.052 -0.9643 -0.2655 -1.0736
 7798SOL     OW34855   2.836   0.977   6.752 -0.0224  0.0044 -0.0475
 7798SOL    HW134856   2.890   1.053   6.776  0.2459  0.7198 -2.9602
 7798SOL    HW234857   2.897   0.925   6.701 -0.0546  1.3276 -1.4421
 7799SOL     OW34858   1.336   4.038   4.031  0.7018  0.5693  0.1262
 7799SOL    HW134859   1.384   4.018   3.951  1.3088  0.6072  0.4766
 7799SOL    HW234860   1.254   3.995   4.008  0.2134  0.3290  2.3473
 7800SOL     OW34861   2.428   3.265   5.490  0.0451 -0.0668  0.8317
 7800SOL    HW134862   2.399   3.299   5.405  1.3813 -1.4335 -0.1766
 7800SOL    HW234863   2.345   3.219   5.505  0.6070 -1.5888 -0.7059
 7801SOL     OW34864   1.018   0.483   6.092 -0.3395  0.1420 -0.4168
 7801SOL    HW134865   0.952   0.424   6.055 -0.2058  0.4638 -1.1702
 7801SOL    HW234866   1.100   0.438   6.071  0.8849  2.4476 -0.6178
 7802SOL     OW34867   4.329   1.111   2.915  0.3961 -0.0175 -1.1044
 7802SOL    HW134868   4.286   1.183   2.868 -0.8863  0.2725  0.4850
 7802SOL    HW234869   4.418   1.123   2.883  0.1704  1.3015 -1.2497
 7803SOL     OW34870   0.631   3.675   2.647  0.0139  0.4848 -0.3485
 7803SOL    HW134871   0.712   3.634   2.617  0.1309  1.2956 -1.1351
 7803SOL    HW234872   0.563   3.622   2.607  0.0937 -0.3958  0.6828
 7804SOL     OW34873   4.675   2.475  17.682 -0.8155  0.3570 -0.3364
 7804SOL    HW134874   4.660   2.516   0.062  1.1932  1.5898 -0.5701
 7804SOL    HW234875   0.016   2.409  17.700  0.5762  1.4463 -1.5594
 7805SOL     OW34876   0.855   0.341   8.463 -0.4028  0.2560  0.4816
 7805SOL    HW134877   0.887   0.251   8.471 -1.0327 -0.0785 -0.7402
 7805SOL    HW234878   0.928   0.382   8.418 -0.1939 -0.2823  0.3292
 7806SOL     OW34879   3.976   1.132   7.776  0.3764  0.4378 -0.2327
 7806SOL    HW134880   4.009   1.175   7.855 -0.5963  0.3283  0.2384
 7806SOL    HW234881   3.899   1.186   7.756 -0.4732 -1.2020 -1.3479
 7807SOL     OW34882   2.756   1.875   8.233  0.1049  0.6078  0.1944
 7807SOL    HW134883   2.758   1.815   8.308 -0.3754  0.5743  0.1793
 7807SOL    HW234884   2.771   1.957   8.280  2.1314  0.5764 -0.3740
 7808SOL     OW34885   3.263   3.485   1.759  0.3135  0.2434 -0.5358
 7808SOL    HW134886   3.264   3.395   1.727 -0.1618 -0.1854  0.6572
 7808SOL    HW234887   3.286   3.536   1.681  0.5070  1.3058  0.2180
 7809SOL     OW34888   3.057   4.210   7.936 -0.1416 -0.2322  0.8668
 7809SOL    HW134889   3.126   4.256   7.983 -0.3221 -0.3158  1.2102
 7809SOL    HW234890   2.978   4.261   7.951  0.9968  1.9163 -0.4365
 7810SOL     OW34891   2.270   1.757   9.538  0.0828 -0.2806  0.3398
 7810SOL    HW134892   2.251   1.683   9.595 -0.4808 -1.0545 -0.8481
 7810SOL    HW234893   2.215   1.743   9.460  0.4522 -0.3399  0.0850
 7811SOL     OW34894   2.942   1.362   2.379  0.4517  0.0751  0.1015
 7811SOL    HW134895   3.022   1.370   2.432  0.6436 -1.3343  0.0283
 7811SOL    HW234896   2.971   1.312   2.303  0.9979  1.8202 -0.8314
 7812SOL     OW34897   0.703   1.237   9.064 -0.3486 -0.5746 -0.1308
 7812SOL    HW134898   0.710   1.205   9.154 -0.0196 -0.0391  0.0330
 7812SOL    HW234899   0.618   1.211   9.028 -0.6369  0.0420  0.1031
 7813SOL     OW34900   4.453   2.355   3.083  0.5621  0.2855  0.2718
 7813SOL    HW134901   4.486   2.383   2.998  2.4646 -0.3222  0.8081
 7813SOL    HW234902   4.368   2.400   3.087 -0.3852 -1.5909  1.1147
 7814SOL     OW34903   3.860   4.614   1.026  0.4495  0.1071  0.2584
 7814SOL    HW134904   3.863   4.569   1.111 -1.7642 -0.2663  0.1489
 7814SOL    HW234905   3.882   4.537   0.974 -3.4449 -0.7529 -0.0994
 7815SOL     OW34906   2.043   4.109   0.768 -0.3122 -0.5412  0.3147
 7815SOL    HW134907   2.131   4.100   0.731 -0.9086 -2.1201 -0.6946
 7815SOL    HW234908   2.066   4.113   0.861 -1.6947  1.6707  0.5574
 7816SOL     OW34909   1.753   0.085  10.085  0.6046 -0.1595  0.2554
 7816SOL    HW134910   1.758   0.011  10.025 -2.3961 -2.8950  3.4455
 7816SOL    HW234911   1.840   0.080  10.125  0.7366 -0.5976 -0.0896
 7817SOL     OW34912   4.183   1.808  15.247 -0.3148 -0.3099  0.2253
 7817SOL    HW134913   4.197   1.889  15.200  1.6810 -0.0882  1.1859
 7817SOL    HW234914   4.157   1.749  15.177 -1.9449  1.4808 -0.6583
 7818SOL     OW34915   1.247   4.224  13.459  0.1768  0.5360 -0.1866
 7818SOL    HW134916   1.293   4.220  13.375 -0.0128 -2.4636 -0.1646
 7818SOL    HW234917   1.155   4.212  13.435  0.0230 -0.6596  0.9755
 7819SOL     OW34918   1.957   3.855   6.478  0.6882  0.5088  0.5752
 7819SOL    HW134919   2.006   3.937   6.477 -0.2942  1.0705 -1.2202
 7819SOL    HW234920   1.905   3.858   6.558 -0.2376  1.1611 -0.0450
 7820SOL     OW34921   3.038   1.632   5.819 -1.1391 -0.2507  0.1378
 7820SOL    HW134922   3.052   1.726   5.809 -2.9529 -0.2430 -2.2009
 7820SOL    HW234923   3.067   1.624   5.910 -2.3156  1.7653  0.7112
 7821SOL     OW34924   4.511   3.926   4.851 -0.1722  0.3575 -0.0266
 7821SOL    HW134925   4.504   3.971   4.935 -0.0274 -0.8380  0.6381
 7821SOL    HW234926   4.605   3.913   4.835 -0.2659  1.2055 -1.2470
 7822SOL     OW34927   0.419   0.243   0.446  0.0422 -0.2862  0.0060
 7822SOL    HW134928   0.396   0.294   0.369  0.5209  0.6164  0.4540
 7822SOL    HW234929   0.408   0.306   0.518  2.6520  0.9129 -0.6287
 7823SOL     OW34930   0.636   1.352   3.991  0.1193 -0.2375 -0.0700
 7823SOL    HW134931   0.641   1.264   4.028  1.8382  0.0181  0.3192
 7823SOL    HW234932   0.626   1.333   3.898  1.8705  1.2704 -0.5744
 7824SOL     OW34933   2.351   4.267  14.629 -0.1515 -0.1704  0.2154
 7824SOL    HW134934   2.346   4.328  14.703 -0.0230 -2.4941  2.1452
 7824SOL    HW234935   2.294   4.198  14.663 -0.3999 -0.6654 -1.2132
 7825SOL     OW34936   1.149   3.433   0.267  0.1359 -0.4613 -0.4473
 7825SOL    HW134937   1.236   3.413   0.303  1.3105  2.9523 -1.3990
 7825SOL    HW234938   1.132   3.375   0.194 -0.1688  0.4865 -1.1201
 7826SOL     OW34939   3.688   4.701   9.592  0.1229  0.1327  1.0128
 7826SOL    HW134940   3.678   0.037   9.664  1.6587  0.1901  1.1811
 7826SOL    HW234941   3.608   4.654   9.614 -1.8796  2.5256 -1.1564
 7827SOL     OW34942   2.630   1.006   6.940 -0.3996  0.1062 -0.2055
 7827SOL    HW134943   2.676   1.088   6.926  1.0263 -0.5014  0.9914
 7827SOL    HW234944   2.683   0.964   6.872  0.4487 -0.9607  1.1180
 7828SOL     OW34945   2.975   2.224   3.381  0.1397  0.3964  0.0391
 7828SOL    HW134946   2.889   2.236   3.341  0.2099 -0.2031 -0.2898
 7828SOL    HW234947   3.020   2.294   3.334 -0.1922  0.3603 -0.3314
 7829SOL     OW34948   2.467   0.628   7.829  0.0486 -0.2554  0.3218
 7829SOL    HW134949   2.493   0.668   7.913 -0.0333  2.1083 -0.7795
 7829SOL    HW234950   2.551   0.590   7.800 -0.3207 -0.5383 -0.3697
 7830SOL     OW34951   1.240   3.393  10.891  0.3862  0.5893 -0.7935
 7830SOL    HW134952   1.191   3.445  10.827 -0.9928 -1.8711 -1.7379
 7830SOL    HW234953   1.280   3.465  10.939 -2.0307 -0.0660  2.1956
 7831SOL     OW34954   4.197   4.522   1.481 -0.0055  0.2901  0.4426
 7831SOL    HW134955   4.203   4.616   1.494 -0.0605  0.5856 -1.7698
 7831SOL    HW234956   4.139   4.535   1.406 -0.1380  0.8167  0.6354
 7832SOL     OW34957   1.628   3.359   1.547 -0.9501  0.7715 -0.1770
 7832SOL    HW134958   1.594   3.354   1.458 -0.9910  1.1083 -0.1780
 7832SOL    HW234959   1.623   3.267   1.573  1.7101  0.2442 -1.5146
 7833SOL     OW34960   3.606   2.841  14.898  0.1099  0.2164 -0.1629
 7833SOL    HW134961   3.701   2.842  14.912 -0.0500  1.3681  0.8981
 7833SOL    HW234962   3.576   2.910  14.958  0.1141 -0.0729  0.1681
 7834SOL     OW34963   4.327   4.561   7.237 -0.1225  0.1605  0.0171
 7834SOL    HW134964   4.406   4.514   7.209 -0.0819  0.1110  0.2161
 7834SOL    HW234965   4.265   4.496   7.203  1.2104 -1.2631  0.2867
 7835SOL     OW34966   1.750   3.292   8.356 -0.0036 -0.0595 -0.1549
 7835SOL    HW134967   1.832   3.244   8.369  0.8521  1.4089 -0.1494
 7835SOL    HW234968   1.712   3.287   8.444  0.1567  0.5010 -0.0491
 7836SOL     OW34969   2.070   0.417   2.116  0.3661 -0.0654 -0.3991
 7836SOL    HW134970   2.123   0.338   2.128 -0.0484 -0.6472 -2.4070
 7836SOL    HW234971   1.999   0.387   2.058 -1.1279 -0.1407  1.4649
 7837SOL     OW34972   3.874   2.936  12.553 -0.5042 -0.6995 -0.2754
 7837SOL    HW134973   3.897   2.903  12.466  1.0034 -1.8494  0.5701
 7837SOL    HW234974   3.779   2.938  12.542 -0.1581  1.3738 -2.9525
 7838SOL     OW34975   2.619   4.576   1.929 -0.4890 -0.1722  0.0158
 7838SOL    HW134976   2.651   4.575   2.019 -0.1402  2.3808 -0.1008
 7838SOL    HW234977   2.552   4.643   1.940 -0.3660 -0.0946  0.2820
 7839SOL     OW34978   1.838   3.594   2.142  0.0105 -0.4809 -0.3688
 7839SOL    HW134979   1.768   3.659   2.134 -0.6300 -1.1831 -0.5335
 7839SOL    HW234980   1.818   3.565   2.231 -2.1086  1.0615 -0.3590
 7840SOL     OW34981   0.741   3.089   5.516 -0.4301  0.4094  0.0784
 7840SOL    HW134982   0.703   3.170   5.551  1.8441  1.7812 -0.6646
 7840SOL    HW234983   0.663   3.047   5.480  0.1830  0.0602 -0.8211
 7841SOL     OW34984   3.299   2.059  13.861  0.1258 -0.4158  0.1804
 7841SOL    HW134985   3.343   1.990  13.812  0.7674  1.8544 -2.4511
 7841SOL    HW234986   3.305   2.127  13.794  0.1351 -0.1262  0.4740
 7842SOL     OW34987   2.921   2.300  11.839 -0.1396 -0.0872  0.2190
 7842SOL    HW134988   2.898   2.208  11.828 -0.3247 -0.1076  0.7698
 7842SOL    HW234989   2.857   2.351  11.788  0.7334 -1.9982 -2.7706
 7843SOL     OW34990   1.310   1.742   2.106  0.4756  0.2238 -0.0436
 7843SOL    HW134991   1.287   1.681   2.176 -1.0430  0.4107 -0.3990
 7843SOL    HW234992   1.272   1.696   2.032  1.0320  1.4167 -1.0758
 7844SOL     OW34993   0.753   2.387   7.962 -0.3039 -0.3741  1.4046
 7844SOL    HW134994   0.826   2.443   7.935 -0.0467 -1.4032 -0.0403
 7844SOL    HW234995   0.678   2.433   7.924  2.0441  1.3641 -1.1559
 7845SOL     OW34996   0.593   1.244   1.906  0.1681  0.5376 -0.0139
 7845SOL    HW134997   0.630   1.309   1.847  1.1089 -0.2763 -0.3078
 7845SOL    HW234998   0.514   1.216   1.861 -0.7774  0.5898  1.6003
 7846SOL     OW34999   0.285   3.906  12.779 -0.4743 -0.3071  0.2243
 7846SOL    HW135000   0.219   3.838  12.769 -1.8220  1.0783 -0.1558
 7846SOL    HW235001   0.360   3.870  12.730 -0.4149  0.0611  0.0492
 7847SOL     OW35002   3.230   2.561   6.183  0.0340 -0.4961 -0.3336
 7847SOL    HW135003   3.198   2.487   6.132  0.0997 -1.0350  0.4117
 7847SOL    HW235004   3.322   2.537   6.197  0.5738  1.3779 -0.5815
 7848SOL     OW35005   3.522   1.594   1.248  0.1406  0.0273 -0.2408
 7848SOL    HW135006   3.501   1.683   1.277  0.5344  0.2977 -0.7746
 7848SOL    HW235007   3.485   1.604   1.161 -0.2363  0.8882  0.0150
 7849SOL     OW35008   1.957   4.621   7.260 -0.1983  0.6041  0.3460
 7849SOL    HW135009   1.918   4.627   7.347 -1.2190  1.1057 -0.1393
 7849SOL    HW235010   2.004   4.538   7.270  0.4462  1.0819  1.2761
 7850SOL     OW35011   1.681   1.706   1.525 -0.2818 -0.1524 -0.8998
 7850SOL    HW135012   1.605   1.669   1.568  0.4222  1.8735  2.1470
 7850SOL    HW235013   1.667   1.683   1.433 -2.7671 -0.1078 -0.5233
 7851SOL     OW35014   0.229   0.259   8.339 -0.0419  0.8714 -0.0934
 7851SOL    HW135015   0.160   0.202   8.373 -0.5081  0.1016 -2.3092
 7851SOL    HW235016   0.211   0.271   8.245  2.0646 -3.5782 -1.0655
 7852SOL     OW35017   0.157   4.205   5.876  0.6162  0.4424  0.2348
 7852SOL    HW135018   0.225   4.221   5.941  1.2093  1.2216 -0.5755
 7852SOL    HW235019   0.107   4.144   5.930 -1.0718  1.9557  0.3538
 7853SOL     OW35020   2.317   3.432   4.130 -0.1261  0.5540  0.0882
 7853SOL    HW135021   2.299   3.475   4.214  0.2285  1.2497 -0.1964
 7853SOL    HW235022   2.329   3.506   4.071  0.1860  0.1186 -0.3977
 7854SOL     OW35023   1.679   0.337  13.117  0.1845  0.2915  0.0253
 7854SOL    HW135024   1.704   0.248  13.142 -1.4168 -0.4481 -1.0495
 7854SOL    HW235025   1.584   0.329  13.118  0.1174  1.1597  1.3369
 7855SOL     OW35026   1.907   0.999  10.528  0.3600 -0.2582 -0.6372
 7855SOL    HW135027   1.840   0.968  10.588  3.1043 -2.1752  1.4248
 7855SOL    HW235028   1.904   1.093  10.547 -0.5809 -0.6586  1.1762
 7856SOL     OW35029   0.230   1.657   7.659 -0.2815  0.0937  1.0502
 7856SOL    HW135030   0.311   1.667   7.709 -0.7258  2.5455  1.3156
 7856SOL    HW235031   0.188   1.738   7.689  0.2567  1.0400 -0.7320
 7857SOL     OW35032   3.309   4.281   7.453 -0.0260  0.0243 -0.0219
 7857SOL    HW135033   3.265   4.348   7.507 -1.0670 -0.9643  0.3551
 7857SOL    HW235034   3.243   4.213   7.439 -0.7986  0.2848  2.2770
 7858SOL     OW35035   4.295   2.721   5.016 -0.0164 -0.2309 -0.4642
 7858SOL    HW135036   4.340   2.661   5.075 -0.7811  0.7635  1.1231
 7858SOL    HW235037   4.347   2.800   5.026  2.4642 -1.5387 -2.9778
 7859SOL     OW35038   4.357   2.246  10.418  0.1942 -0.0388 -0.5884
 7859SOL    HW135039   4.365   2.160  10.458 -1.4857  0.7340  1.3766
 7859SOL    HW235040   4.415   2.231  10.344  0.2112  1.0812 -0.8093
 7860SOL     OW35041   2.654   3.415   3.197 -0.7328 -0.2425 -0.9166
 7860SOL    HW135042   2.616   3.334   3.161  0.3861 -0.3187 -1.9192
 7860SOL    HW235043   2.683   3.384   3.283 -2.3743  1.8821  0.3816
 7861SOL     OW35044   2.081   2.871   6.151 -0.2522  0.4281 -0.3842
 7861SOL    HW135045   2.113   2.800   6.095 -0.7590  0.5988 -0.8861
 7861SOL    HW235046   2.019   2.925   6.102 -1.2939 -1.7490 -1.4401
 7862SOL     OW35047   3.989   1.283  15.688 -0.0049 -0.2039  0.0486
 7862SOL    HW135048   4.076   1.245  15.678  0.0001 -0.0103 -0.6183
 7862SOL    HW235049   3.996   1.328  15.772 -0.2074  2.2186 -1.2593
 7863SOL     OW35050   1.037   2.062  14.504 -0.4627  0.1737  0.1212
 7863SOL    HW135051   1.053   2.107  14.421  0.2589 -1.1349 -0.4556
 7863SOL    HW235052   1.099   2.117  14.553 -0.0665 -0.8547  0.7758
 7864SOL     OW35053   0.453   0.824  12.821  0.2037  0.6197  0.0561
 7864SOL    HW135054   0.437   0.733  12.849 -0.5669  0.8743  0.4388
 7864SOL    HW235055   0.548   0.830  12.833  0.4416 -2.1418 -0.4025
 7865SOL     OW35056   2.289   4.456   6.291  0.1593 -0.5930  0.5604
 7865SOL    HW135057   2.346   4.532   6.301  0.3439 -0.6157 -0.2864
 7865SOL    HW235058   2.346   4.382   6.269  2.0033  0.5861  1.3568
 7866SOL     OW35059   3.460   3.704   2.497 -0.5247  0.3435  0.4196
 7866SOL    HW135060   3.492   3.794   2.496  0.8786 -0.1457  1.9550
 7866SOL    HW235061   3.526   3.666   2.555 -0.6174  0.8136  0.8314
 7867SOL     OW35062   3.675   3.816   2.731 -0.9226 -0.1516  0.1244
 7867SOL    HW135063   3.727   3.775   2.662 -0.2777 -1.2818  1.2893
 7867SOL    HW235064   3.695   3.770   2.812  0.1530  0.4118  0.1824
 7868SOL     OW35065   1.284   0.647   2.223  0.5064 -0.4054 -0.2476
 7868SOL    HW135066   1.246   0.672   2.138 -0.7567 -1.4745  0.0035
 7868SOL    HW235067   1.378   0.646   2.203  0.8815 -0.1805  1.5469
 7869SOL     OW35068   2.408   1.849  17.368  0.3754  0.0536 -0.7711
 7869SOL    HW135069   2.445   1.842  17.456 -0.5496  1.2428 -0.3049
 7869SOL    HW235070   2.375   1.938  17.353 -1.5075 -0.5820 -0.3543
 7870SOL     OW35071   0.513   4.522  10.608 -0.1127 -0.3345  0.2491
 7870SOL    HW135072   0.604   4.494  10.622 -0.3186 -0.2541  1.7657
 7870SOL    HW235073   0.471   4.520  10.694  1.6609 -2.0031  1.0907
 7871SOL     OW35074   3.343   2.903   0.261 -0.5096 -0.1687  0.4442
 7871SOL    HW135075   3.372   2.972   0.202  1.3181 -0.0094  1.5167
 7871SOL    HW235076   3.285   2.853   0.202  0.3934 -0.7606  0.0426
 7872SOL     OW35077   4.493   1.294  15.404  0.5342 -0.6223  0.0757
 7872SOL    HW135078   4.438   1.313  15.328  1.0864 -0.5692 -0.3099
 7872SOL    HW235079   4.539   1.217  15.371  1.9644 -0.1538  0.9828
 7873SOL     OW35080   1.725   4.376   3.050 -0.2439 -0.1765 -0.0924
 7873SOL    HW135081   1.820   4.361   3.044 -0.3666 -0.8951 -0.2233
 7873SOL    HW235082   1.725   4.382   3.145  1.4697  2.5275 -0.2501
 7874SOL     OW35083   2.939   3.903   2.428  0.1985  0.4044 -0.4677
 7874SOL    HW135084   2.845   3.889   2.416 -0.2577  2.4877  0.7807
 7874SOL    HW235085   2.951   3.874   2.518  0.9078  1.2373 -0.2954
 7875SOL     OW35086   3.250   3.247   3.148  0.3761  0.2897  0.1945
 7875SOL    HW135087   3.239   3.341   3.163  2.2447  0.4760  0.4245
 7875SOL    HW235088   3.305   3.224   3.224 -1.0291 -1.2144  0.7533
 7876SOL     OW35089   1.744   2.978  12.107  0.2281 -0.7225 -0.8551
 7876SOL    HW135090   1.706   2.900  12.149  0.0503 -0.3013 -0.2435
 7876SOL    HW235091   1.838   2.961  12.117 -0.2160 -1.4963  2.1771
 7877SOL     OW35092   2.156   0.612   3.125  0.2552  0.3308 -0.4869
 7877SOL    HW135093   2.147   0.545   3.057  1.3982  1.3652 -1.6461
 7877SOL    HW235094   2.223   0.667   3.084  0.9394  0.0093  0.1945
 7878SOL     OW35095   0.788   3.200   3.945  0.6535  0.3321 -0.0390
 7878SOL    HW135096   0.793   3.165   4.034 -0.8753 -1.6225 -0.7446
 7878SOL    HW235097   0.781   3.294   3.962 -0.7013 -0.0839  1.6824
 7879SOL     OW35098   2.992   2.337  15.064  0.0829 -0.1586 -0.4998
 7879SOL    HW135099   2.955   2.255  15.096  0.3051 -0.3364 -0.6922
 7879SOL    HW235100   2.929   2.369  15.000  0.7972  0.5176 -0.8644
 7880SOL     OW35101   4.276   1.456   2.945  0.1252  0.4334 -1.0514
 7880SOL    HW135102   4.227   1.527   2.902  1.5353  1.8932 -0.2596
 7880SOL    HW235103   4.309   1.414   2.865  0.1243 -0.8071 -0.3954
 7881SOL     OW35104   3.368   2.727   8.056  0.2116 -0.0172 -0.0004
 7881SOL    HW135105   3.463   2.713   8.046  0.4081  1.8772 -0.6704
 7881SOL    HW235106   3.336   2.646   8.016  0.6511 -0.8062  1.2353
 7882SOL     OW35107   2.580   2.905   3.865 -0.0599  0.1644  0.1230
 7882SOL    HW135108   2.584   2.989   3.820  1.7995  0.6618  1.2070
 7882SOL    HW235109   2.661   2.858   3.846 -0.7639 -0.4688 -1.2853
 7883SOL     OW35110   3.564   0.198  17.033 -0.0298  0.4925  0.5460
 7883SOL    HW135111   3.503   0.126  17.022 -1.8857  2.0895  0.2923
 7883SOL    HW235112   3.643   0.152  17.061 -0.0326 -1.4153 -2.6619
 7884SOL     OW35113   3.910   2.343   3.208 -0.3142  0.6562 -0.0359
 7884SOL    HW135114   3.907   2.349   3.303 -1.9128  2.8449 -0.2361
 7884SOL    HW235115   3.883   2.253   3.187  1.4165  0.4079 -1.2196
 7885SOL     OW35116   1.576   1.884   5.312 -0.2342  0.1097 -0.3704
 7885SOL    HW135117   1.538   1.820   5.252  0.7406  1.4730 -2.4421
 7885SOL    HW235118   1.502   1.945   5.320 -0.4566 -0.3008  0.6682
 7886SOL     OW35119   2.791   1.162   4.072 -0.3378  0.6672 -0.3011
 7886SOL    HW135120   2.829   1.089   4.023  0.5010  0.1547  1.1079
 7886SOL    HW235121   2.771   1.231   4.009  1.2547  1.1312 -0.3033
 7887SOL     OW35122   4.027   2.292   6.368  0.1689  0.3591  0.3025
 7887SOL    HW135123   3.940   2.255   6.385  2.0320 -3.0124  2.2859
 7887SOL    HW235124   4.042   2.252   6.282  1.1480  1.1563  0.1108
 7888SOL     OW35125   4.689   1.696  10.277  0.6289 -0.7795  0.1781
 7888SOL    HW135126   4.722   1.669  10.191  0.0881 -1.9301  0.3232
 7888SOL    HW235127   4.593   1.702  10.269  0.7488  0.3966 -0.2808
 7889SOL     OW35128   2.291   1.341   1.956  0.3810 -0.4589  0.1392
 7889SOL    HW135129   2.375   1.297   1.942  0.0315 -0.8508 -0.7460
 7889SOL    HW235130   2.261   1.336   1.865  2.2557 -2.1569 -0.3994
 7890SOL     OW35131   3.381   1.570   4.797 -0.1047  0.1305 -0.0554
 7890SOL    HW135132   3.413   1.651   4.838  1.1968 -1.0892  1.3374
 7890SOL    HW235133   3.330   1.608   4.726  0.6518  4.0826  1.4754
 7891SOL     OW35134   0.087   0.878   6.941  0.2122 -0.1322  0.2405
 7891SOL    HW135135   0.050   0.806   6.890 -0.9749  0.3822  0.3791
 7891SOL    HW235136   0.163   0.836   6.982  1.0124 -0.0664 -1.1482
 7892SOL     OW35137   0.686   0.722  10.144  0.3812 -0.2080 -0.3832
 7892SOL    HW135138   0.696   0.812  10.176 -0.9345 -0.7712  1.6168
 7892SOL    HW235139   0.741   0.733  10.066  0.5738 -2.2659 -0.5220
 7893SOL     OW35140   0.766   4.278   2.818 -0.3138  0.1392  0.2775
 7893SOL    HW135141   0.772   4.213   2.748 -0.5218  3.0938 -2.5271
 7893SOL    HW235142   0.830   4.239   2.878 -1.2016  0.8625  1.6941
 7894SOL     OW35143   1.815   0.643   1.763  0.6667  0.6241 -0.3937
 7894SOL    HW135144   1.820   0.594   1.681 -0.3077 -0.5246  0.2316
 7894SOL    HW235145   1.877   0.716   1.754  2.0930 -0.2093  2.6075
 7895SOL     OW35146   0.709   2.246   7.081  0.0654  0.2629  0.0324
 7895SOL    HW135147   0.667   2.193   7.014  2.0890 -1.3328  0.0231
 7895SOL    HW235148   0.797   2.210   7.090 -0.3832 -0.7386  0.3670
 7896SOL     OW35149   0.806   1.683   3.724 -0.1121 -0.1491  0.8656
 7896SOL    HW135150   0.776   1.753   3.667  1.3852  1.2897  1.8633
 7896SOL    HW235151   0.860   1.730   3.788 -0.5570  0.8045  0.5294
 7897SOL     OW35152   3.055   2.087  15.628  0.2503 -0.1150 -0.1906
 7897SOL    HW135153   3.077   2.148  15.557  0.4122  0.8897  0.7296
 7897SOL    HW235154   3.118   2.116  15.694  0.0424 -0.1556  0.0249
 7898SOL     OW35155   1.791   2.987   3.589 -0.8186  0.2751  0.0583
 7898SOL    HW135156   1.774   3.077   3.618  1.9021  0.3789  1.3121
 7898SOL    HW235157   1.758   2.992   3.499 -2.7713 -2.8630  0.5996
 7899SOL     OW35158   3.396   4.635  12.638 -0.1228 -0.0058  0.4268
 7899SOL    HW135159   3.354   4.603  12.717 -0.1964  2.2153  1.2760
 7899SOL    HW235160   3.325   4.650  12.575 -0.9347 -1.4140  1.0157
 7900SOL     OW35161   1.666   0.726   2.503  0.2083 -0.0424 -0.4090
 7900SOL    HW135162   1.613   0.795   2.544  2.1058  1.5201 -0.5814
 7900SOL    HW235163   1.625   0.647   2.538 -1.4953  0.2524 -1.7950
 7901SOL     OW35164   2.309   0.945   8.655 -0.1012  0.1310  0.2471
 7901SOL    HW135165   2.346   0.879   8.596 -0.4043  1.8003 -1.7921
 7901SOL    HW235166   2.370   0.951   8.728  1.0373  1.4182 -0.8163
 7902SOL     OW35167   2.384   4.086   7.000 -0.5378 -0.2650  0.4843
 7902SOL    HW135168   2.440   4.015   6.970  0.6389  1.0471 -0.4077
 7902SOL    HW235169   2.405   4.151   6.934  1.1425  0.4013  1.6732
 7903SOL     OW35170   2.013   4.275   5.787 -0.3310 -0.8307 -0.0348
 7903SOL    HW135171   1.924   4.304   5.767  0.7096  2.0341 -0.3604
 7903SOL    HW235172   2.058   4.284   5.703  1.1871 -0.9009  0.7754
 7904SOL     OW35173   2.259   3.070   7.302 -0.1445  0.0997 -0.5319
 7904SOL    HW135174   2.314   3.082   7.225  3.0394  1.7142  2.0244
 7904SOL    HW235175   2.183   3.039   7.252  0.1875  1.4665 -1.8792
 7905SOL     OW35176   3.211   3.049   2.473 -0.1607 -0.8314 -0.1363
 7905SOL    HW135177   3.231   3.036   2.566  0.9795  2.2381  0.0508
 7905SOL    HW235178   3.116   3.045   2.468 -0.1079 -2.4013  0.0631
 7906SOL     OW35179   2.733   1.724   0.075 -0.1477  0.3651  0.0103
 7906SOL    HW135180   2.827   1.729   0.092 -0.0442  0.3339 -0.5437
 7906SOL    HW235181   2.710   1.778   0.150 -1.1240 -0.9080  0.6343
 7907SOL     OW35182   4.608   1.817   3.185  0.2974 -0.5143 -0.1007
 7907SOL    HW135183   4.583   1.909   3.184  2.1027 -0.0346 -1.3629
 7907SOL    HW235184   4.540   1.779   3.129  0.3353 -0.3196 -0.2769
 7908SOL     OW35185   1.425   4.239   4.383  0.3852  0.2293  0.1079
 7908SOL    HW135186   1.394   4.149   4.367  1.0792 -0.2566  1.5111
 7908SOL    HW235187   1.495   4.240   4.318  0.2233  2.5736 -0.0391
 7909SOL     OW35188   1.955   1.870   6.291  0.3537  0.0931 -0.4126
 7909SOL    HW135189   2.024   1.917   6.243 -1.2587  0.6160 -2.2072
 7909SOL    HW235190   1.887   1.919   6.245  1.3796  1.6689 -0.2858
 7910SOL     OW35191   1.446   0.620  17.320  0.3041 -0.3293 -0.2452
 7910SOL    HW135192   1.534   0.658  17.312  1.6434 -2.9945  1.8485
 7910SOL    HW235193   1.395   0.688  17.275 -0.7056  0.4308  2.0622
 7911SOL     OW35194   2.987   4.426   4.370  0.4327 -0.0722 -0.2277
 7911SOL    HW135195   2.929   4.501   4.357 -0.1241 -0.3843  0.3966
 7911SOL    HW235196   2.955   4.391   4.453  2.0613 -2.0833 -0.4717
 7912SOL     OW35197   4.215   0.858   3.720 -0.2321 -0.2593  0.3374
 7912SOL    HW135198   4.226   0.952   3.712 -2.1409 -0.1049 -0.4990
 7912SOL    HW235199   4.236   0.823   3.634  0.6048  0.5467  0.2288
 7913SOL     OW35200   3.552   3.065   7.081 -0.6375 -0.1922 -0.3531
 7913SOL    HW135201   3.615   3.006   7.041  0.4369 -0.6828  2.1210
 7913SOL    HW235202   3.487   3.041   7.015 -0.9002  0.0993 -0.2023
 7914SOL     OW35203   2.249   3.533   4.382  0.3260  0.0135  0.4310
 7914SOL    HW135204   2.236   3.513   4.475  1.0510 -2.5547  0.0008
 7914SOL    HW235205   2.160   3.565   4.366  0.3656 -0.0452  0.0965
 7915SOL     OW35206   0.180   4.716   4.792  0.0004 -0.7480  0.4611
 7915SOL    HW135207   0.113   4.716   4.725  2.1127  1.9529 -1.6645
 7915SOL    HW235208   0.180   4.622   4.808 -2.0786 -0.8743 -0.3149
 7916SOL     OW35209   0.033   2.314  11.865 -0.4613  0.5656 -0.8652
 7916SOL    HW135210   0.099   2.378  11.840  0.6078 -0.5618 -0.9562
 7916SOL    HW235211   0.052   2.299  11.958 -2.7780 -3.0445 -0.9901
 7917SOL     OW35212   0.358   1.619  14.310  0.2821  0.2439 -0.6826
 7917SOL    HW135213   0.443   1.576  14.324 -0.2307  0.0051  1.7979
 7917SOL    HW235214   0.385   1.711  14.310 -0.4428  0.4560 -1.4458
 7918SOL     OW35215   0.547   3.222  10.609  0.1962 -0.5114  0.3338
 7918SOL    HW135216   0.600   3.240  10.531 -0.3102  1.9734  0.5402
 7918SOL    HW235217   0.599   3.258  10.681  3.1961 -1.9489 -1.1134
 7919SOL     OW35218   4.213   3.258  15.181 -0.0384  0.2811  0.1382
 7919SOL    HW135219   4.124   3.247  15.147  0.2428 -2.3676  0.2780
 7919SOL    HW235220   4.205   3.327  15.247 -0.8707 -0.4864  0.8450
 7920SOL     OW35221   0.994   3.405  10.235  0.0930 -0.2628  0.2707
 7920SOL    HW135222   0.979   3.480  10.292  0.7648 -0.2638  0.4485
 7920SOL    HW235223   0.917   3.392  10.179  1.4027  2.0280 -2.0905
 7921SOL     OW35224   4.558   2.313  14.847  0.0864 -0.3700  0.5357
 7921SOL    HW135225   4.546   2.402  14.813 -0.0294  0.7040  3.3946
 7921SOL    HW235226   4.572   2.259  14.769  1.7683  0.3292  0.3480
 7922SOL     OW35227   0.584   1.561   7.574  0.0250  0.3184  0.0125
 7922SOL    HW135228   0.568   1.467   7.569 -2.1017  0.6766 -0.0561
 7922SOL    HW235229   0.666   1.579   7.527 -0.6670  1.1850 -0.8716
 7923SOL     OW35230   1.838   4.717  10.497  0.4646  0.2960 -0.0228
 7923SOL    HW135231   1.753   4.681  10.523  0.9273 -0.1393  0.8723
 7923SOL    HW235232   1.836   0.080  10.531  0.1181  0.6209 -0.8801
 7924SOL     OW35233   1.879   2.796  16.076 -0.2650  0.1494 -0.3762
 7924SOL    HW135234   1.962   2.798  16.124  0.1313 -2.2452 -0.9266
 7924SOL    HW235235   1.814   2.835  16.135  0.3413 -2.5063  2.0534
 7925SOL     OW35236   3.636   4.567   2.892 -0.5341  0.2963  0.3918
 7925SOL    HW135237   3.585   4.614   2.826  0.0196  3.8888  2.4690
 7925SOL    HW235238   3.675   4.645   2.932 -1.2903  1.0980 -0.4283
 7926SOL     OW35239   1.240   4.066   1.174  0.3032 -0.2097  0.3065
 7926SOL    HW135240   1.261   4.154   1.205 -1.5611  1.7172 -4.0168
 7926SOL    HW235241   1.144   4.062   1.168  0.1167 -0.4530  3.0911
 7927SOL     OW35242   0.502   3.956  11.482  0.0677 -0.5010 -0.2713
 7927SOL    HW135243   0.467   4.040  11.452 -0.7431 -0.1975  1.5171
 7927SOL    HW235244   0.451   3.925  11.556 -1.6861  0.1642 -1.1938
 7928SOL     OW35245   3.883   2.016   5.315 -0.1011  0.4177 -0.1983
 7928SOL    HW135246   3.895   2.040   5.406  1.2145 -0.0000 -0.2551
 7928SOL    HW235247   3.885   1.920   5.314  0.8562  0.4330 -0.4377
 7929SOL     OW35248   0.120   4.097  17.679 -0.1456 -0.2032 -0.1698
 7929SOL    HW135249   0.099   4.159  17.609  1.0326  1.0652  0.5874
 7929SOL    HW235250   0.079   4.128   0.054 -0.3862  1.1432 -0.7978
 7930SOL     OW35251   4.047   1.424   7.589 -0.3454  0.3002 -0.0873
 7930SOL    HW135252   3.992   1.349   7.568  1.6692 -1.0567 -0.5151
 7930SOL    HW235253   4.093   1.434   7.506 -2.1291  1.4074 -0.9134
 7931SOL     OW35254   3.812   4.190   4.606  0.2166  0.0742 -0.0631
 7931SOL    HW135255   3.746   4.149   4.663 -0.8295  1.0663 -0.5630
 7931SOL    HW235256   3.879   4.123   4.605 -0.2866 -0.4940  2.2639
 7932SOL     OW35257   1.275   2.885  13.414  0.0683  0.1031 -0.8029
 7932SOL    HW135258   1.326   2.918  13.340  1.8555  0.3543  0.5559
 7932SOL    HW235259   1.306   2.940  13.486  0.2548  0.9279 -1.5066
 7933SOL     OW35260   3.062   2.580   3.559  0.1724 -0.1214 -0.0425
 7933SOL    HW135261   3.153   2.587   3.530 -0.6437  2.3004 -2.0486
 7933SOL    HW235262   3.062   2.530   3.640  0.6259 -2.1285 -1.2726
 7934SOL     OW35263   4.107   2.304   7.988  1.0756 -0.4996  0.4685
 7934SOL    HW135264   4.088   2.211   7.996 -1.5700 -0.2306 -2.6986
 7934SOL    HW235265   4.184   2.285   7.933 -0.1043 -1.8588 -0.7051
 7935SOL     OW35266   1.445   2.635   7.530 -0.0444  0.8035 -0.0576
 7935SOL    HW135267   1.467   2.674   7.446 -3.1534  1.1718 -0.6836
 7935SOL    HW235268   1.524   2.587   7.555 -0.4669  1.6907  3.0656
 7936SOL     OW35269   1.874   3.987  11.858  0.4133 -0.0923  0.0016
 7936SOL    HW135270   1.859   4.072  11.899  0.5409 -0.4143  0.7325
 7936SOL    HW235271   1.815   3.989  11.783 -1.0039 -2.1540  1.0446
 7937SOL     OW35272   1.200   0.904  14.220  0.4337  0.3755 -0.1136
 7937SOL    HW135273   1.115   0.862  14.211  0.1853  1.1886 -1.5061
 7937SOL    HW235274   1.171   0.995  14.227  1.2273  0.8085 -2.5574
 7938SOL     OW35275   2.132   1.383  14.884 -0.2406 -0.0573 -0.4965
 7938SOL    HW135276   2.191   1.340  14.822  1.7979  0.6496  0.9606
 7938SOL    HW235277   2.136   1.475  14.857  0.2636 -0.2469 -1.0566
 7939SOL     OW35278   2.151   1.381   6.364  0.4318  0.0179  0.0113
 7939SOL    HW135279   2.073   1.416   6.407  0.0317  0.6446 -1.2254
 7939SOL    HW235280   2.216   1.377   6.434  0.3283  2.0028  0.2036
 7940SOL     OW35281   3.770   4.620   1.544  0.4408  0.6120  0.1599
 7940SOL    HW135282   3.681   4.594   1.520  0.8346  0.0905 -0.7363
 7940SOL    HW235283   3.761   4.615   1.640  4.6816 -3.6270  0.3165
 7941SOL     OW35284   2.855   2.265  10.021 -0.0280 -0.2504 -0.9370
 7941SOL    HW135285   2.874   2.255   9.927  0.7153  1.3441 -0.9776
 7941SOL    HW235286   2.806   2.186  10.041 -0.1298 -0.2387 -1.1353
 7942SOL     OW35287   4.342   0.439   4.355  0.1038  0.1073  1.1433
 7942SOL    HW135288   4.319   0.531   4.342 -2.3165 -0.8788 -1.4467
 7942SOL    HW235289   4.383   0.424   4.270 -3.0758  0.4480 -0.4522
 7943SOL     OW35290   4.198   4.385   2.606 -0.2364 -0.5335  0.4068
 7943SOL    HW135291   4.264   4.391   2.537 -0.9461  0.7846 -0.1575
 7943SOL    HW235292   4.183   4.479   2.609 -0.8604 -0.6473  0.8265
 7944SOL     OW35293   4.641   1.168  14.614 -0.2042 -0.3246  0.0291
 7944SOL    HW135294   4.633   1.198  14.704  0.5568  0.0905 -0.0409
 7944SOL    HW235295   4.623   1.246  14.563  2.6095 -0.1681 -0.7339
 7945SOL     OW35296   0.755   2.432  12.321  0.1823  0.2907 -1.1584
 7945SOL    HW135297   0.776   2.412  12.413  0.0422  3.7758 -0.3652
 7945SOL    HW235298   0.828   2.488  12.295  0.8445  1.0943  2.4570
 7946SOL     OW35299   4.289   1.847   4.412  0.0917 -0.1042 -0.5207
 7946SOL    HW135300   4.270   1.926   4.464  1.9695 -0.3644  0.5421
 7946SOL    HW235301   4.205   1.802   4.423 -2.1998  3.9301 -1.1813
 7947SOL     OW35302   1.345   1.363  13.994  0.2897 -0.2642  0.3491
 7947SOL    HW135303   1.369   1.439  14.048  1.9893  0.8932 -2.0414
 7947SOL    HW235304   1.381   1.301  14.057 -0.7327  1.7737  2.9641
 7948SOL     OW35305   1.090   3.500   6.959  0.1467  0.0021 -0.0344
 7948SOL    HW135306   1.039   3.419   6.950 -2.6585  1.7243  0.1472
 7948SOL    HW235307   1.179   3.466   6.961  0.2156  0.1395 -0.6300
 7949SOL     OW35308   3.772   3.199   9.410  0.1902 -0.8696 -0.1279
 7949SOL    HW135309   3.697   3.142   9.426 -0.5028 -0.7026 -2.7746
 7949SOL    HW235310   3.819   3.199   9.493  0.4315  0.9961 -0.2530
 7950SOL     OW35311   4.466   3.913   1.809  0.6021 -0.7195  0.6744
 7950SOL    HW135312   4.371   3.917   1.823  0.6015  0.5979  0.2355
 7950SOL    HW235313   4.481   3.843   1.746 -0.3458  1.0465 -1.5059
 7951SOL     OW35314   0.973   4.693   4.005  0.8054  0.2601 -0.0833
 7951SOL    HW135315   1.064   4.669   4.021  0.3739 -2.9223 -2.3737
 7951SOL    HW235316   0.927   4.611   3.988 -1.7124  1.2605  1.9488
 7952SOL     OW35317   0.255   0.422   4.692  0.1025 -0.0035 -0.0519
 7952SOL    HW135318   0.267   0.370   4.772  1.0268  2.7075  1.5643
 7952SOL    HW235319   0.162   0.427   4.673 -0.1906  1.2004  1.7135
 7953SOL     OW35320   3.906   2.747  13.605  0.3659  0.0187 -0.0314
 7953SOL    HW135321   3.851   2.810  13.652  2.6682  1.5177  0.6687
 7953SOL    HW235322   3.894   2.675  13.668  0.9368 -0.0662 -0.0196
 7954SOL     OW35323   1.572   4.604  12.224 -0.6358 -0.3654 -0.0465
 7954SOL    HW135324   1.481   4.620  12.246 -0.4230 -1.6772  1.8115
 7954SOL    HW235325   1.595   4.688  12.185 -1.6999 -0.6541 -1.2871
 7955SOL     OW35326   4.455   3.601   8.293 -0.0296  0.0480 -0.3843
 7955SOL    HW135327   4.533   3.612   8.239  0.6188  0.2000  0.5742
 7955SOL    HW235328   4.434   3.694   8.293 -1.1559 -0.1876  2.4322
 7956SOL     OW35329   3.473   1.417   1.432  0.1152 -0.0680 -0.0212
 7956SOL    HW135330   3.443   1.473   1.504  0.0257  0.0165 -0.1241
 7956SOL    HW235331   3.480   1.480   1.361  0.2289 -1.3733 -1.1646
 7957SOL     OW35332   2.179   1.549   7.647 -0.4744  0.2831  0.2559
 7957SOL    HW135333   2.171   1.545   7.743 -0.3168 -2.3579  0.1647
 7957SOL    HW235334   2.103   1.497   7.622  0.1138  0.2267 -1.4134
 7958SOL     OW35335   4.694   4.101   6.998 -0.1590 -0.1004  0.6230
 7958SOL    HW135336   0.048   4.149   6.979  0.4041 -1.0097  0.7043
 7958SOL    HW235337   4.706   4.086   7.092 -2.7754 -0.4547  0.9037
 7959SOL     OW35338   2.357   2.675   3.050  0.2335  0.1330 -0.2448
 7959SOL    HW135339   2.345   2.769   3.033 -1.3967 -0.1671 -0.7704
 7959SOL    HW235340   2.390   2.642   2.966 -0.2647 -0.6179 -0.1389
 7960SOL     OW35341   1.040   2.840   7.360  0.0341 -0.6777 -0.1019
 7960SOL    HW135342   1.048   2.836   7.455 -1.8026  1.1202  0.1310
 7960SOL    HW235343   1.039   2.748   7.335 -1.0347 -0.4352 -0.9662
 7961SOL     OW35344   2.432   3.640  11.146  0.0126  0.2735  0.4365
 7961SOL    HW135345   2.347   3.676  11.168 -0.2384  0.8961 -1.5098
 7961SOL    HW235346   2.442   3.578  11.218  1.9592 -0.1988 -0.2110
 7962SOL     OW35347   3.326   3.067   5.401 -0.0031 -0.8464  0.2050
 7962SOL    HW135348   3.381   3.123   5.455  0.4260  0.8245 -1.9656
 7962SOL    HW235349   3.323   2.981   5.444  1.1930 -0.2163  1.5377
 7963SOL     OW35350   0.385   0.877   6.781 -1.1434 -0.3905  0.0157
 7963SOL    HW135351   0.389   0.860   6.875  0.3939  2.9907  0.5781
 7963SOL    HW235352   0.304   0.926   6.767  0.2748  1.0622 -3.1036
 7964SOL     OW35353   0.520   3.589   3.163 -0.2488 -0.0943 -0.2214
 7964SOL    HW135354   0.518   3.661   3.226 -2.1210  0.0808 -0.4811
 7964SOL    HW235355   0.452   3.532   3.198  1.6022 -0.9528  1.9746
 7965SOL     OW35356   2.911   3.065   3.629 -0.4175 -0.4136 -0.0311
 7965SOL    HW135357   2.989   3.023   3.666 -2.0291 -1.0653  2.5638
 7965SOL    HW235358   2.890   3.128   3.698  0.4093 -1.0909  0.8301
 7966SOL     OW35359   2.399   2.712   6.159 -0.4637 -1.0224 -0.5787
 7966SOL    HW135360   2.352   2.772   6.217  0.8686  0.5628 -1.1438
 7966SOL    HW235361   2.376   2.623   6.188 -4.3537 -0.2186 -1.1951
 7967SOL     OW35362   4.202   0.900   5.963 -0.9706  0.2649  0.0790
 7967SOL    HW135363   4.227   0.992   5.952 -0.7984  0.1821 -0.1975
 7967SOL    HW235364   4.212   0.892   6.058 -0.8004 -0.5200 -0.0070
 7968SOL     OW35365   2.701   4.528   4.862  0.5884 -0.2629 -0.4437
 7968SOL    HW135366   2.701   4.450   4.916 -0.5760 -0.5902 -0.9181
 7968SOL    HW235367   2.691   4.498   4.771 -4.6826  1.5936 -0.4683
 7969SOL     OW35368   3.054   0.396   8.873 -0.0679 -0.4990 -0.0338
 7969SOL    HW135369   3.148   0.387   8.863 -0.0573 -0.0423 -0.3726
 7969SOL    HW235370   3.051   0.471   8.932 -1.0335 -1.4557  1.1234
 7970SOL     OW35371   1.111   1.862  12.699 -0.4594 -0.0968  0.1002
 7970SOL    HW135372   1.187   1.809  12.721  2.0468  2.5707 -1.9911
 7970SOL    HW235373   1.072   1.870  12.786  0.5814  1.6630  0.4211
 7971SOL     OW35374   4.136   0.339   5.418 -0.1232 -0.2364 -0.5501
 7971SOL    HW135375   4.224   0.302   5.422 -0.0426  0.3769  3.6203
 7971SOL    HW235376   4.081   0.284   5.474  2.1897 -1.1044  0.8560
 7972SOL     OW35377   2.425   2.789   7.218  0.2565  0.3431  0.5045
 7972SOL    HW135378   2.334   2.760   7.229  0.6153 -0.6148  0.9772
 7972SOL    HW235379   2.420   2.884   7.226  0.3527  0.4866 -1.1146
 7973SOL     OW35380   3.704   3.482   2.175 -0.5185 -0.0400 -0.6407
 7973SOL    HW135381   3.673   3.482   2.084 -1.3232  1.5713 -0.3570
 7973SOL    HW235382   3.634   3.459   2.235 -0.4376 -1.0914 -0.9512
 7974SOL     OW35383   3.972   1.419  15.946  0.0118  0.0884  0.6822
 7974SOL    HW135384   3.892   1.439  15.898  0.2916  0.7918  0.5049
 7974SOL    HW235385   3.982   1.505  15.986 -0.7147  0.5893 -0.2294
 7975SOL     OW35386   2.719   2.554   6.455  0.2275 -0.4753 -0.6511
 7975SOL    HW135387   2.697   2.536   6.546 -1.8193 -0.5034 -1.1473
 7975SOL    HW235388   2.634   2.576   6.415  1.2715  1.2904 -1.9200
 7976SOL     OW35389   3.206   3.088   7.867  0.0144 -0.0096 -0.6448
 7976SOL    HW135390   3.189   3.108   7.775 -1.8186 -2.5890 -0.8779
 7976SOL    HW235391   3.182   3.166   7.916  1.5013  1.3333 -2.0682
 7977SOL     OW35392   4.282   2.238   4.999  0.3483 -0.1046 -0.2374
 7977SOL    HW135393   4.372   2.226   5.029 -0.3147  0.7025  2.0655
 7977SOL    HW235394   4.296   2.312   4.941  3.4461 -0.5928 -0.0734
 7978SOL     OW35395   3.479   1.585  12.203  0.1296 -0.1318 -0.1153
 7978SOL    HW135396   3.472   1.492  12.185 -1.8123 -0.6000  3.0909
 7978SOL    HW235397   3.435   1.611  12.122  0.8032 -0.7276 -0.6699
 7979SOL     OW35398   3.062   2.882   6.542  0.2168 -0.1141 -0.0942
 7979SOL    HW135399   3.018   2.809   6.499  1.0584 -1.7228  1.7418
 7979SOL    HW235400   3.001   2.954   6.529  0.6706  0.4135  0.6585
 7980SOL     OW35401   3.195   3.416   2.841 -0.0616  0.0076 -0.5240
 7980SOL    HW135402   3.281   3.379   2.823 -0.9878 -2.2595 -0.2133
 7980SOL    HW235403   3.212   3.508   2.820  3.3145 -0.8727 -1.6930
 7981SOL     OW35404   0.573   4.628  16.512 -0.6235 -0.0108  0.3052
 7981SOL    HW135405   0.526   4.705  16.483  2.4840  1.1830 -1.5790
 7981SOL    HW235406   0.566   4.641  16.606 -0.5220 -1.5970  0.5360
 7982SOL     OW35407   0.748   4.533   3.196 -0.1381  0.3393 -0.8128
 7982SOL    HW135408   0.654   4.547   3.196  0.0159  1.4057  1.6265
 7982SOL    HW235409   0.750   4.448   3.240  3.4740  1.1122  0.5419
 7983SOL     OW35410   4.170   4.629   9.852 -0.8364  0.4398  0.1450
 7983SOL    HW135411   4.264   4.626   9.835 -0.7497  0.4803  0.6011
 7983SOL    HW235412   4.146   4.706   9.801 -0.1833  0.7707  0.3406
 7984SOL     OW35413   3.897   1.053  14.337 -0.8292 -0.0236 -0.7213
 7984SOL    HW135414   3.891   1.035  14.243 -4.4413  1.1735 -0.6874
 7984SOL    HW235415   3.992   1.048  14.347 -1.0143 -0.5144  0.8341
 7985SOL     OW35416   3.844   0.775  16.026 -0.1846  0.2331  0.1298
 7985SOL    HW135417   3.819   0.701  15.971 -0.5405 -1.5075  2.6395
 7985SOL    HW235418   3.838   0.846  15.962 -1.4125  0.7974  0.8454
 7986SOL     OW35419   0.144   2.265  12.109 -0.3459 -0.2406  0.4732
 7986SOL    HW135420   0.160   2.214  12.189 -0.3453 -1.5624 -0.3764
 7986SOL    HW235421   0.187   2.346  12.136 -1.0362  1.0426 -2.3610
 7987SOL     OW35422   1.389   3.370   0.390 -0.5487 -0.2825  0.3180
 7987SOL    HW135423   1.449   3.445   0.392  0.3336 -0.9117 -3.2867
 7987SOL    HW235424   1.363   3.376   0.482  0.7180  1.1152  0.5969
 7988SOL     OW35425   3.928   0.985  17.427 -0.0800 -0.1398 -0.7178
 7988SOL    HW135426   4.017   0.968  17.458 -0.7310 -1.1399  0.6004
 7988SOL    HW235427   3.935   0.959  17.336  1.5149 -2.5127  0.0848
 7989SOL     OW35428   4.664   3.562  12.278  0.1553  0.0405  0.1359
 7989SOL    HW135429   0.016   3.512  12.256 -0.0589 -0.1228 -0.2476
 7989SOL    HW235430   4.690   3.645  12.238 -0.4494  0.1740  0.0098
 7990SOL     OW35431   1.655   1.487   0.580 -0.2141 -0.5569  0.3872
 7990SOL    HW135432   1.586   1.454   0.638 -1.0835 -2.9162 -2.0124
 7990SOL    HW235433   1.734   1.459   0.626 -0.3195 -1.8363 -0.2186
 7991SOL     OW35434   2.697   0.255  17.010  0.1572  0.4379  0.1463
 7991SOL    HW135435   2.773   0.208  16.977 -1.0405 -1.0317 -0.5564
 7991SOL    HW235436   2.634   0.183  17.008  2.3932 -1.5233  0.2341
 7992SOL     OW35437   2.311   4.594   6.748  0.2194  0.1843 -0.3416
 7992SOL    HW135438   2.219   4.608   6.730 -0.0875 -2.9175 -1.2582
 7992SOL    HW235439   2.345   4.673   6.706 -0.5935  0.3073 -0.7512
 7993SOL     OW35440   3.250   1.323   6.807  0.2727  0.3587 -0.4001
 7993SOL    HW135441   3.334   1.341   6.765  1.3902 -1.2323  1.1365
 7993SOL    HW235442   3.283   1.334   6.896 -1.5662  0.7745  0.2201
 7994SOL     OW35443   4.191   0.818  12.955  0.1676 -0.4733  0.6505
 7994SOL    HW135444   4.123   0.802  13.021  0.2522  0.6543  1.0233
 7994SOL    HW235445   4.274   0.814  13.003 -0.2904 -2.4503  1.2564
 7995SOL     OW35446   1.613   0.342   7.550 -0.0509  0.5991 -0.0290
 7995SOL    HW135447   1.561   0.312   7.624 -0.7263 -0.6295 -0.9986
 7995SOL    HW235448   1.656   0.260   7.528  1.4461  1.2151  0.6058
 7996SOL     OW35449   4.453   2.167   3.474  0.3484  0.5393 -0.0287
 7996SOL    HW135450   4.443   2.073   3.485 -1.0420  0.6975  0.0895
 7996SOL    HW235451   4.384   2.191   3.412  0.9987 -2.1688 -1.7868
 7997SOL     OW35452   1.805   0.911   7.504  0.2158 -0.4721 -0.4287
 7997SOL    HW135453   1.889   0.874   7.531 -0.5874 -0.5457  2.0243
 7997SOL    HW235454   1.795   0.987   7.561 -1.1991 -0.2071 -1.0287
 7998SOL     OW35455   3.054   1.200  13.766 -0.7709 -0.4765 -0.0383
 7998SOL    HW135456   3.073   1.118  13.810 -0.6070 -2.5043 -3.8646
 7998SOL    HW235457   2.961   1.211  13.789 -0.6151 -0.7708  0.7146
 7999SOL     OW35458   1.102   2.548  16.033  0.1843 -0.0011 -0.5937
 7999SOL    HW135459   1.114   2.512  16.121 -1.2052 -1.1457 -0.8864
 7999SOL    HW235460   1.187   2.529  15.993  0.7719 -0.8169  1.0345
 8000SOL     OW35461   2.728   2.407  11.261  0.1325 -0.1348  0.0611
 8000SOL    HW135462   2.775   2.379  11.182 -0.6688  0.4792 -0.6231
 8000SOL    HW235463   2.656   2.346  11.248 -0.8809  1.1806 -0.5575
 8001SOL     OW35464   0.188   3.579  13.983 -0.0994  0.0935  0.1572
 8001SOL    HW135465   0.215   3.597  14.073  1.2459  1.6643 -0.5568
 8001SOL    HW235466   0.264   3.530  13.950  0.5431  1.4131 -0.3049
 8002SOL     OW35467   2.143   1.317   5.516 -0.0885 -0.4750 -0.1910
 8002SOL    HW135468   2.127   1.294   5.608  0.2255 -1.5568 -0.4105
 8002SOL    HW235469   2.076   1.385   5.508  0.5089  0.4093  2.3867
 8003SOL     OW35470   0.325   3.694   2.233 -0.0535  0.5364 -0.2362
 8003SOL    HW135471   0.281   3.683   2.149 -0.4153 -2.0052  0.2765
 8003SOL    HW235472   0.264   3.645   2.290 -0.5709  1.3065 -0.1304
 8004SOL     OW35473   1.442   2.568   3.338 -0.1776  0.3907  0.2427
 8004SOL    HW135474   1.499   2.504   3.296  1.4162  1.9420  0.0257
 8004SOL    HW235475   1.508   2.616   3.388  0.5757 -0.8678  0.4620
 8005SOL     OW35476   4.444   0.504   0.095 -0.1348 -0.8316  0.0276
 8005SOL    HW135477   4.422   0.513   0.188 -0.7584  3.3650 -0.5187
 8005SOL    HW235478   4.442   0.408   0.092  0.0734 -0.8992  1.9146
 8006SOL     OW35479   4.677   1.523   7.619 -0.5178  0.3572  0.1336
 8006SOL    HW135480   4.682   1.453   7.553 -1.5787  0.5552 -0.1503
 8006SOL    HW235481   0.019   1.585   7.593  0.0050 -0.2229  0.1230
 8007SOL     OW35482   3.674   2.769   0.021  0.4338  0.0697 -0.2331
 8007SOL    HW135483   3.628   2.694  17.690  0.0529  0.3169 -0.2644
 8007SOL    HW235484   3.633   2.837  17.673  0.3851 -0.7782 -1.2765
 8008SOL     OW35485   2.204   4.358   9.735  0.1066  0.0102  0.3109
 8008SOL    HW135486   2.164   4.445   9.735 -1.5270 -0.7495  0.9947
 8008SOL    HW235487   2.128   4.306   9.760  0.7400 -1.1266 -0.1259
 8009SOL     OW35488   4.191   2.910   2.916 -0.2658 -0.0654  0.2754
 8009SOL    HW135489   4.268   2.963   2.936  0.6609 -1.6811  1.0271
 8009SOL    HW235490   4.189   2.906   2.820  0.0395  4.0202  0.1192
 8010SOL     OW35491   1.937   3.832   2.889  0.0402  0.2000  0.0158
 8010SOL    HW135492   1.897   3.786   2.815 -0.6585  0.5827  0.1515
 8010SOL    HW235493   1.950   3.757   2.947 -0.0382  1.0527  1.1319
 8011SOL     OW35494   0.561   1.405   9.882  0.4013 -0.2806 -0.1775
 8011SOL    HW135495   0.536   1.496   9.888 -1.0505 -0.8170  1.6743
 8011SOL    HW235496   0.608   1.403   9.798  1.1104  0.6270  0.1982
 8012SOL     OW35497   1.663   4.480   8.035  0.6299 -0.7436 -0.2949
 8012SOL    HW135498   1.616   4.563   8.042  1.2617 -0.3924 -0.2525
 8012SOL    HW235499   1.722   4.483   8.109 -1.1632  0.3200  1.1049
 8013SOL     OW35500   1.480   1.816  13.974 -0.1934 -0.5260 -0.0711
 8013SOL    HW135501   1.475   1.910  13.992 -0.0977 -0.6463  0.5597
 8013SOL    HW235502   1.508   1.815  13.882  0.8093 -0.5000  0.2384
 8014SOL     OW35503   2.091   0.579  15.176 -0.0478 -0.2212 -0.0524
 8014SOL    HW135504   2.048   0.501  15.141 -2.9145  1.1670  0.3785
 8014SOL    HW235505   2.183   0.567  15.155 -0.4311 -0.8564 -1.3562
 8015SOL     OW35506   4.241   3.981   3.733 -0.5198  0.1062 -0.5804
 8015SOL    HW135507   4.234   3.904   3.789  0.5409 -0.4798 -1.2512
 8015SOL    HW235508   4.319   3.959   3.682  1.2346  1.5128  1.5049
 8016SOL     OW35509   4.279   4.676   5.899  0.3522 -0.1178 -0.3832
 8016SOL    HW135510   4.195   4.710   5.932 -0.0508 -0.8408 -0.6617
 8016SOL    HW235511   4.320   4.654   5.982 -0.2614  0.5310  0.0966
 8017SOL     OW35512   1.773   3.250  12.233 -0.2138 -0.2611 -0.2282
 8017SOL    HW135513   1.792   3.344  12.242 -3.1428  0.3266 -0.1605
 8017SOL    HW235514   1.857   3.222  12.197  0.0010  0.4472 -0.2769
 8018SOL     OW35515   3.678   1.943   6.197 -0.4806  0.1206 -0.4687
 8018SOL    HW135516   3.663   2.031   6.164 -1.3001  1.8754  4.5240
 8018SOL    HW235517   3.772   1.953   6.204 -0.1788 -1.9227 -1.4983
 8019SOL     OW35518   4.649   4.106  11.958 -0.1870 -0.1110  0.0427
 8019SOL    HW135519   4.705   4.104  11.881 -0.8637 -0.3604 -0.4376
 8019SOL    HW235520   4.697   4.165  12.017  0.5129 -0.0431 -0.5998
 8020SOL     OW35521   0.439   0.326   0.182  0.5430  0.0553 -0.9050
 8020SOL    HW135522   0.408   0.415   0.162 -0.1980  0.6731  2.8970
 8020SOL    HW235523   0.533   0.341   0.189  0.3506  1.0023 -0.1991
 8021SOL     OW35524   1.931   4.293   6.741 -0.1713 -0.3444  0.0717
 8021SOL    HW135525   1.945   4.299   6.647 -1.7593 -0.1409 -0.1448
 8021SOL    HW235526   2.004   4.236   6.765 -2.0272 -2.1846  1.3510
 8022SOL     OW35527   4.592   0.864   6.449 -0.1718 -0.5120 -0.4612
 8022SOL    HW135528   4.641   0.843   6.369 -0.5691 -1.4700 -0.4501
 8022SOL    HW235529   4.662   0.907   6.497  2.0796 -1.0762 -3.2354
 8023SOL     OW35530   3.683   3.824  13.356 -0.1255  0.4283 -0.0526
 8023SOL    HW135531   3.644   3.909  13.375  0.9872  0.5624  1.6169
 8023SOL    HW235532   3.619   3.793  13.293  1.1638 -1.8193 -0.2447
 8024SOL     OW35533   2.761   0.293   1.571 -0.2583 -0.1490 -0.5665
 8024SOL    HW135534   2.688   0.301   1.632  0.6886 -0.6453  0.6399
 8024SOL    HW235535   2.821   0.352   1.617 -0.2710  0.4856 -1.3724
 8025SOL     OW35536   3.559   0.826  10.001 -0.1855 -0.2953 -0.2879
 8025SOL    HW135537   3.604   0.881  10.066 -1.0324  1.6398 -1.3390
 8025SOL    HW235538   3.632   0.785   9.956  0.0760 -0.9091  0.6852
 8026SOL     OW35539   0.644   2.930   4.828  0.6032  0.6389 -0.4644
 8026SOL    HW135540   0.642   2.948   4.922  1.7690  0.7056 -0.4484
 8026SOL    HW235541   0.713   2.863   4.825 -0.1943 -0.2692  1.4004
 8027SOL     OW35542   2.523   3.210   1.395  0.2257 -0.0856 -0.4252
 8027SOL    HW135543   2.601   3.155   1.394 -0.5142 -1.1175 -1.6889
 8027SOL    HW235544   2.459   3.152   1.354  0.1277 -0.8341  0.7786
 8028SOL     OW35545   0.221   4.587  12.360 -0.2289  0.2498 -0.8603
 8028SOL    HW135546   0.136   4.545  12.356 -0.9989  1.9512 -2.0435
 8028SOL    HW235547   0.267   4.586  12.276 -1.3120 -1.1765 -1.4379
 8029SOL     OW35548   0.965   1.460   6.356  0.2916 -0.7803  0.1883
 8029SOL    HW135549   0.914   1.540   6.368  0.4199 -0.8761  1.4336
 8029SOL    HW235550   1.048   1.503   6.334 -0.6376  0.7676 -0.2755
 8030SOL     OW35551   2.754   0.736  15.718 -0.2976 -0.3649 -0.1349
 8030SOL    HW135552   2.794   0.804  15.771 -1.1372 -0.8759  1.1428
 8030SOL    HW235553   2.773   0.759  15.627 -1.6565  2.7173  0.3465
 8031SOL     OW35554   1.047   1.280   8.886 -0.5672 -0.0013  0.0424
 8031SOL    HW135555   1.082   1.306   8.971  0.3465  1.7102 -0.8674
 8031SOL    HW235556   1.114   1.307   8.823  1.2873  1.5512  2.6704
 8032SOL     OW35557   0.881   3.346  11.555  0.1351 -0.5425 -0.5179
 8032SOL    HW135558   0.963   3.297  11.549 -0.2359 -1.1556 -0.5390
 8032SOL    HW235559   0.831   3.297  11.490  1.1436 -2.5882  0.2333
 8033SOL     OW35560   1.050   0.306  16.046 -0.2225  0.3269  0.1820
 8033SOL    HW135561   1.010   0.221  16.063  0.2139 -0.1398 -1.1077
 8033SOL    HW235562   0.981   0.365  16.075 -1.6742 -1.6155  0.6571
 8034SOL     OW35563   3.188   2.437   1.139 -0.4015 -0.0551  0.1059
 8034SOL    HW135564   3.211   2.465   1.050 -0.4645 -0.5755 -0.0742
 8034SOL    HW235565   3.211   2.344   1.137  0.7739  0.2233  0.8294
 8035SOL     OW35566   1.711   1.833   6.460 -0.1696  0.0042  0.4337
 8035SOL    HW135567   1.784   1.895   6.452  0.3628 -0.7705 -0.7863
 8035SOL    HW235568   1.742   1.766   6.520 -0.8523 -0.3190  0.4236
 8036SOL     OW35569   0.937   0.985   2.261 -0.1260 -0.0881 -0.4435
 8036SOL    HW135570   0.914   0.892   2.256 -1.8448  0.4170 -2.2625
 8036SOL    HW235571   0.902   1.006   2.348  0.8120  1.1835 -0.3733
 8037SOL     OW35572   1.899   1.613   6.274  0.0271  0.0212  0.3742
 8037SOL    HW135573   1.936   1.698   6.298 -1.0682  0.6201 -0.0844
 8037SOL    HW235574   1.855   1.570   6.347 -0.9758 -0.6847 -0.6441
 8038SOL     OW35575   1.469   3.322   7.736  0.2299  0.4704 -0.7563
 8038SOL    HW135576   1.397   3.334   7.799 -0.4458 -1.3650 -1.1855
 8038SOL    HW235577   1.539   3.377   7.771 -0.9732  3.2188 -2.6415
 8039SOL     OW35578   3.928   4.348  14.706 -0.2164 -0.3235  0.2445
 8039SOL    HW135579   3.930   4.291  14.629 -0.3565  0.1114 -0.0844
 8039SOL    HW235580   3.871   4.418  14.672  1.0735  0.4660 -0.3063
 8040SOL     OW35581   0.113   2.987   3.185  0.0605 -0.2151  0.1245
 8040SOL    HW135582   0.048   2.921   3.161 -0.7384 -0.4846  3.0455
 8040SOL    HW235583   0.185   2.927   3.165  2.7845  2.8931  0.4981
 8041SOL     OW35584   4.244   1.181   5.892  0.4849 -0.2432 -0.7844
 8041SOL    HW135585   4.175   1.242   5.864  0.9508  0.3672 -0.5962
 8041SOL    HW235586   4.302   1.207   5.820  0.7049 -2.9406 -1.5798
 8042SOL     OW35587   3.666   2.774   3.745  0.2515 -0.4977 -0.6344
 8042SOL    HW135588   3.642   2.866   3.735  0.1792 -0.7447 -2.7122
 8042SOL    HW235589   3.583   2.734   3.720  1.2248 -2.7939 -0.1923
 8043SOL     OW35590   4.208   0.911   1.444 -0.0403 -0.7923  0.0416
 8043SOL    HW135591   4.193   0.915   1.349 -0.6309  1.9017  0.2493
 8043SOL    HW235592   4.190   1.002   1.469 -0.1489 -0.5561 -0.8958
 8044SOL     OW35593   4.205   0.425   8.185  0.4211 -0.3048  0.1169
 8044SOL    HW135594   4.191   0.408   8.279 -1.4149 -0.8690 -0.2545
 8044SOL    HW235595   4.274   0.360   8.173  0.6028 -0.0678 -0.1050
 8045SOL     OW35596   3.832   4.381   7.689  0.7301 -0.3679 -0.6127
 8045SOL    HW135597   3.799   4.345   7.606  0.9802 -0.4944 -0.6590
 8045SOL    HW235598   3.922   4.347   7.690  0.7126 -0.2569  2.5589
 8046SOL     OW35599   4.167   1.894  14.821  0.1539  0.2961  0.5597
 8046SOL    HW135600   4.218   1.960  14.773 -0.5596  0.7742  0.4640
 8046SOL    HW235601   4.115   1.863  14.747 -1.0768  2.6479  0.4265
 8047SOL     OW35602   4.132   0.970   6.899 -0.1230  0.2288  0.3126
 8047SOL    HW135603   4.042   0.999   6.885  0.8499  2.0429 -2.2801
 8047SOL    HW235604   4.176   1.054   6.883  0.1886 -0.1578 -0.9019
 8048SOL     OW35605   4.648   0.259   8.166  0.8836  0.0883 -0.7052
 8048SOL    HW135606   4.574   0.215   8.208  0.1121  1.9582 -0.1149
 8048SOL    HW235607   4.656   0.336   8.221  1.7854  0.2675 -1.0935
 8049SOL     OW35608   3.243   1.957   6.013 -0.0583  0.1063  0.1100
 8049SOL    HW135609   3.245   1.995   6.101  2.3726  2.6660 -1.0608
 8049SOL    HW235610   3.317   1.897   6.013 -0.1451  0.0016 -1.3017
 8050SOL     OW35611   0.465   1.819   5.994  0.1310  0.4212  0.2264
 8050SOL    HW135612   0.422   1.896   6.030  1.0327  0.8741  0.3427
 8050SOL    HW235613   0.548   1.857   5.964 -0.3953  1.2718 -0.1260
 8051SOL     OW35614   4.309   2.173   0.342  0.0875 -0.1002  0.4369
 8051SOL    HW135615   4.377   2.238   0.325  0.4678 -0.4206  0.7497
 8051SOL    HW235616   4.317   2.158   0.436 -1.8380  3.5105  1.1491
 8052SOL     OW35617   3.604   2.039   2.720 -0.3530 -0.1691 -0.2433
 8052SOL    HW135618   3.658   2.049   2.798  1.2677 -3.2722 -0.9406
 8052SOL    HW235619   3.532   2.101   2.736  1.4967  1.7863  0.4282
 8053SOL     OW35620   2.242   4.038   4.519 -0.3669 -0.1322  0.5107
 8053SOL    HW135621   2.291   4.090   4.583 -0.7352 -2.5857  2.7838
 8053SOL    HW235622   2.316   3.984   4.491 -0.2949  0.9546 -1.3933
 8054SOL     OW35623   1.932   1.015   6.521  0.3303 -0.1291 -0.4848
 8054SOL    HW135624   1.974   1.044   6.440  0.3380  2.0893  0.3076
 8054SOL    HW235625   2.010   1.017   6.576  0.2713 -1.4888 -0.3624
 8055SOL     OW35626   2.499   0.655  16.489  0.2040  0.4143 -0.3839
 8055SOL    HW135627   2.471   0.720  16.553 -0.7385 -2.0296  1.6931
 8055SOL    HW235628   2.591   0.677  16.475  0.3836 -0.3526 -0.4586
 8056SOL     OW35629   4.476   1.739   5.029  0.7449 -0.4341  0.8552
 8056SOL    HW135630   4.485   1.824   5.073 -1.2373  1.1403 -1.7474
 8056SOL    HW235631   4.519   1.761   4.946  0.7265  0.0615  0.9740
 8057SOL     OW35632   1.421   1.789   5.794  0.2772  0.3733  0.1549
 8057SOL    HW135633   1.481   1.793   5.868  1.0924  0.3701 -0.5020
 8057SOL    HW235634   1.465   1.730   5.732  1.3665  1.8566 -0.4888
 8058SOL     OW35635   2.763   0.676  16.472 -0.9707 -0.0708 -0.0434
 8058SOL    HW135636   2.744   0.626  16.551  0.2948  3.6347  2.6535
 8058SOL    HW235637   2.825   0.615  16.434 -0.2098  0.7945 -0.1971
 8059SOL     OW35638   1.767   3.822   5.496 -0.4350 -0.0086  0.1601
 8059SOL    HW135639   1.688   3.787   5.456  0.6903 -0.7839 -1.3656
 8059SOL    HW235640   1.815   3.854   5.420  2.0007 -0.7255  1.3961
 8060SOL     OW35641   2.434   1.256   7.757  0.7430 -0.1316  0.0109
 8060SOL    HW135642   2.527   1.237   7.745  0.2756 -1.4959 -1.5924
 8060SOL    HW235643   2.418   1.204   7.836  1.5728 -0.4214 -0.0098
 8061SOL     OW35644   1.396   3.849  10.757 -0.5557  0.1505  0.2988
 8061SOL    HW135645   1.321   3.837  10.700 -0.0022  1.5577 -0.7365
 8061SOL    HW235646   1.417   3.938  10.728 -1.0902  1.3133  3.5406
 8062SOL     OW35647   0.163   3.812   9.167  0.0641 -0.1310 -0.0630
 8062SOL    HW135648   0.173   3.897   9.210  0.8312 -0.6944  0.8611
 8062SOL    HW235649   0.116   3.843   9.089 -1.4235  0.4831  1.0808
 8063SOL     OW35650   4.291   0.545   6.465  0.3412 -0.1527 -0.2466
 8063SOL    HW135651   4.196   0.533   6.464  0.3643 -0.4022  0.2046
 8063SOL    HW235652   4.309   0.609   6.534 -0.2416  1.3068 -1.4672
 8064SOL     OW35653   4.292   4.143   9.649 -0.0166  0.5687  0.3539
 8064SOL    HW135654   4.294   4.226   9.601  1.2316 -0.0983 -0.7566
 8064SOL    HW235655   4.240   4.171   9.725  0.0574  0.8772  0.2926
 8065SOL     OW35656   3.968   0.209   5.591 -0.9558 -0.1896  1.1467
 8065SOL    HW135657   3.968   0.201   5.686  0.3928  1.0480  1.2519
 8065SOL    HW235658   3.961   0.305   5.592  1.7168  0.0342 -0.8987
 8066SOL     OW35659   3.364   1.379  15.060  0.0976  0.2118 -0.3725
 8066SOL    HW135660   3.410   1.438  15.121 -0.5658 -0.1939  0.5041
 8066SOL    HW235661   3.276   1.388  15.096  0.7950  2.2482  0.8657
 8067SOL     OW35662   4.443   4.586   4.383  0.0183 -0.0623  0.6760
 8067SOL    HW135663   4.429   4.505   4.432 -0.5556 -0.3950 -0.0351
 8067SOL    HW235664   4.364   4.600   4.331  1.6734 -0.0582 -1.8455
 8068SOL     OW35665   2.744   0.868   4.023  0.0184  0.1299 -0.1569
 8068SOL    HW135666   2.765   0.794   4.079  3.1864  0.6611 -0.6134
 8068SOL    HW235667   2.719   0.834   3.937 -1.3769  0.8875 -0.0523
 8069SOL     OW35668   0.855   4.010   3.322 -0.0631  0.4350  0.3393
 8069SOL    HW135669   0.811   4.095   3.321 -1.0970 -0.1024  0.2083
 8069SOL    HW235670   0.860   3.990   3.229 -0.2924 -2.4906  0.9614
 8070SOL     OW35671   1.898   0.719  16.726  0.0203  0.0790  0.0220
 8070SOL    HW135672   1.893   0.776  16.802  1.3606  0.1913  0.0240
 8070SOL    HW235673   1.909   0.778  16.651  0.0829  0.8040  0.6049
 8071SOL     OW35674   0.363   0.477   7.163 -0.1996 -0.2737  0.2777
 8071SOL    HW135675   0.365   0.392   7.206 -1.6113  0.5684  1.9833
 8071SOL    HW235676   0.411   0.460   7.082  0.0112 -1.2735  0.6151
 8072SOL     OW35677   2.665   1.043   7.212  0.4628  0.1080  0.5245
 8072SOL    HW135678   2.718   0.972   7.246 -0.0226 -0.8345 -0.6930
 8072SOL    HW235679   2.650   1.009   7.123 -0.9685  1.0080  0.4279
 8073SOL     OW35680   3.774   2.558   2.239  0.1212 -0.4528 -0.1394
 8073SOL    HW135681   3.756   2.631   2.299  1.6398  0.5312 -0.8763
 8073SOL    HW235682   3.741   2.484   2.289 -0.9580 -0.1358 -0.3748
 8074SOL     OW35683   1.275   1.264  13.746  0.1407  0.1540 -0.3330
 8074SOL    HW135684   1.214   1.192  13.761 -0.4250  1.2350  2.5107
 8074SOL    HW235685   1.284   1.298  13.835  0.4672 -0.7899 -0.0089
 8075SOL     OW35686   1.674   0.888  10.281 -0.1472 -0.4153  0.1520
 8075SOL    HW135687   1.644   0.916  10.195 -0.2448 -1.2295 -0.0747
 8075SOL    HW235688   1.599   0.904  10.338  0.4576 -4.6085  2.0634
 8076SOL     OW35689   1.654   2.070  12.930 -0.0707 -0.4982 -0.0231
 8076SOL    HW135690   1.666   2.150  12.981 -2.1101 -0.2536  0.0714
 8076SOL    HW235691   1.741   2.031  12.942 -0.0268 -0.0768  1.0359
 8077SOL     OW35692   2.959   3.186   8.589 -0.1301  0.0955  0.5161
 8077SOL    HW135693   2.936   3.168   8.498 -0.3538 -0.0676  0.6056
 8077SOL    HW235694   2.925   3.104   8.625  0.8555 -0.0380  1.1466
 8078SOL     OW35695   2.613   0.085   3.988  0.0815 -0.1120  0.2990
 8078SOL    HW135696   2.621   0.178   4.008  0.6640 -0.1710  0.3329
 8078SOL    HW235697   2.626   0.072   3.894 -1.3908 -0.8097  0.1952
 8079SOL     OW35698   2.397   3.199   0.943  0.0186 -0.0733  0.4384
 8079SOL    HW135699   2.317   3.147   0.945 -0.3927  0.4446 -1.9549
 8079SOL    HW235700   2.382   3.277   0.996 -0.9797  1.4693 -2.1170
 8080SOL     OW35701   2.302   4.418   8.458  0.8194  0.6834 -0.5390
 8080SOL    HW135702   2.283   4.462   8.541  1.3417  1.4787 -0.8364
 8080SOL    HW235703   2.317   4.326   8.478  2.5225  0.8335 -1.1249
 8081SOL     OW35704   4.233   1.681  13.389  0.8992  0.0320  0.3966
 8081SOL    HW135705   4.159   1.620  13.387  1.5803 -0.7373 -0.9933
 8081SOL    HW235706   4.250   1.681  13.295  0.5512 -1.2773  0.3273
 8082SOL     OW35707   4.079   1.416   8.398  0.2751 -0.6300 -0.2951
 8082SOL    HW135708   4.020   1.491   8.401 -1.4102 -1.9072 -2.2444
 8082SOL    HW235709   4.073   1.391   8.306  3.4154  0.4791 -0.8113
 8083SOL     OW35710   3.787   1.396   0.105 -0.4051 -0.2188  0.1796
 8083SOL    HW135711   3.757   1.334   0.171 -0.1550 -1.0131 -0.4612
 8083SOL    HW235712   3.805   1.334   0.035  0.0107 -0.3284  0.3834
 8084SOL     OW35713   0.017   1.134   7.769  0.1363  0.0971  0.7085
 8084SOL    HW135714   0.022   1.225   7.798 -0.3848  0.4245 -0.2450
 8084SOL    HW235715   4.650   1.117   7.785 -0.4097  0.3799 -2.2457
 8085SOL     OW35716   3.251   2.200   3.101  0.9203 -0.2800 -0.1125
 8085SOL    HW135717   3.285   2.276   3.055  1.0575  1.0572  2.2131
 8085SOL    HW235718   3.334   2.152   3.100  1.1108  0.0480  0.1409
 8086SOL     OW35719   0.001   0.315  17.693 -0.0696  0.2950 -0.3257
 8086SOL    HW135720   4.673   0.312   0.067  1.1651  0.6862  0.5360
 8086SOL    HW235721   0.067   0.249   0.010 -0.7193 -0.2308  0.0490
 8087SOL     OW35722   4.168   0.612  10.905  0.1131  0.5394 -0.2670
 8087SOL    HW135723   4.097   0.664  10.866  0.1361 -0.0968 -1.1522
 8087SOL    HW235724   4.173   0.537  10.847 -0.0138  0.8281 -0.6480
 8088SOL     OW35725   3.166   3.983   8.944 -0.3445 -0.8372 -0.6236
 8088SOL    HW135726   3.172   3.888   8.953  0.4548 -0.7508 -0.2327
 8088SOL    HW235727   3.093   3.993   8.883 -0.2095  2.3776 -0.2817
 8089SOL     OW35728   1.070   1.561  12.932  0.0225  0.3493  0.4699
 8089SOL    HW135729   1.001   1.628  12.941  1.1581  1.4393  1.0774
 8089SOL    HW235730   1.143   1.620  12.911 -0.0647  1.5520  3.5496
 8090SOL     OW35731   3.688   0.926   6.242 -0.1758  0.1991  0.3895
 8090SOL    HW135732   3.640   0.919   6.324 -0.5504 -0.5953  0.1122
 8090SOL    HW235733   3.688   1.020   6.224 -1.8165  0.0584 -0.3512
 8091SOL     OW35734   3.187   0.279   7.921 -0.0231 -0.0969 -0.7593
 8091SOL    HW135735   3.199   0.360   7.971 -1.9641  0.5789 -1.3532
 8091SOL    HW235736   3.098   0.252   7.946 -0.0584 -1.0149 -1.8751
 8092SOL     OW35737   0.808   0.148   2.444  0.2005  0.2054  0.2805
 8092SOL    HW135738   0.823   0.097   2.524 -0.3090  1.3483  1.1057
 8092SOL    HW235739   0.739   0.212   2.464 -0.2081 -0.0487 -0.2950
 8093SOL     OW35740   1.025   1.816   2.376 -0.3037 -0.1249  0.0699
 8093SOL    HW135741   0.957   1.786   2.437  0.5069 -0.6480  0.7058
 8093SOL    HW235742   1.058   1.736   2.337  0.7210  0.4604 -0.2640
 8094SOL     OW35743   1.972   1.636   4.331 -0.0720 -0.0051  0.0643
 8094SOL    HW135744   2.039   1.642   4.399  0.1997 -0.6956 -0.1472
 8094SOL    HW235745   2.029   1.611   4.258  0.5059  0.8402  0.2231
 8095SOL     OW35746   2.268   3.492   4.675 -0.4832  0.4307  0.6407
 8095SOL    HW135747   2.239   3.581   4.696 -0.2035  1.3752 -2.9845
 8095SOL    HW235748   2.277   3.467   4.767 -1.2809  0.3303  0.6888
 8096SOL     OW35749   4.126   0.787   2.803  0.6297 -0.0971  0.1747
 8096SOL    HW135750   4.145   0.816   2.892 -1.3291  1.1834  0.1765
 8096SOL    HW235751   4.217   0.783   2.774  0.9538  2.9165  0.7243
 8097SOL     OW35752   2.419   3.081   2.662 -0.2639  0.3016 -0.1996
 8097SOL    HW135753   2.365   3.136   2.719  1.6470  1.2714  0.6472
 8097SOL    HW235754   2.362   3.034   2.601  1.1015  0.0605 -1.2762
 8098SOL     OW35755   2.590   0.210  10.659 -0.5004 -0.1424 -0.2765
 8098SOL    HW135756   2.499   0.238  10.674 -0.5646 -0.7350  0.4479
 8098SOL    HW235757   2.603   0.185  10.750 -1.0388 -1.5760 -0.5974
 8099SOL     OW35758   1.850   3.893   5.835 -0.3439  0.1543  0.6460
 8099SOL    HW135759   1.768   3.881   5.883  0.4460 -2.4322  1.3017
 8099SOL    HW235760   1.830   3.969   5.780 -2.9429 -1.4311 -0.6336
 8100SOL     OW35761   2.123   0.793   1.231  0.3658  0.0791  0.1665
 8100SOL    HW135762   2.033   0.761   1.225  1.1943 -1.9925 -1.2568
 8100SOL    HW235763   2.167   0.710   1.246  0.5816  0.5018  1.8116
 8101SOL     OW35764   2.461   2.236   9.407  0.1852 -0.2347  0.5288
 8101SOL    HW135765   2.551   2.224   9.377  0.4591  1.6952  0.5542
 8101SOL    HW235766   2.412   2.230   9.326  0.1561  1.1891  0.4331
 8102SOL     OW35767   0.224   3.190   3.351 -0.2295 -0.5190 -0.2156
 8102SOL    HW135768   0.281   3.156   3.420 -0.1932  1.0396  0.5361
 8102SOL    HW235769   0.206   3.112   3.299  1.7154 -1.1157  0.0189
 8103SOL     OW35770   0.586   2.096  14.524 -0.4383 -0.4093  0.1626
 8103SOL    HW135771   0.644   2.172  14.524 -0.2733 -0.5337  1.1104
 8103SOL    HW235772   0.622   2.056  14.603  1.1079  1.1922  0.2583
 8104SOL     OW35773   1.625   4.264   6.856 -0.5211 -0.0818 -0.3781
 8104SOL    HW135774   1.702   4.309   6.821 -1.7832  1.2584 -1.4247
 8104SOL    HW235775   1.618   4.304   6.942 -0.8288  1.0572 -0.9356
 8105SOL     OW35776   1.567   3.737   9.031  0.4015 -0.0764  0.2341
 8105SOL    HW135777   1.657   3.738   8.998  0.0764 -0.5583 -0.6589
 8105SOL    HW235778   1.552   3.818   9.081 -0.0481 -1.2858  2.0990
 8106SOL     OW35779   2.423   2.113   2.079  0.4600  0.4720  0.2680
 8106SOL    HW135780   2.333   2.113   2.047  0.7544 -0.7402 -0.5551
 8106SOL    HW235781   2.464   2.040   2.033 -2.6158 -1.2049  0.2095
 8107SOL     OW35782   3.980   1.576  13.163 -0.2794  0.6486 -0.3190
 8107SOL    HW135783   4.076   1.577  13.154  0.1180  1.0680  4.1646
 8107SOL    HW235784   3.970   1.552  13.255 -1.5435 -0.4613 -0.7469
 8108SOL     OW35785   4.563   2.450   7.623  0.3123 -0.3592  0.0365
 8108SOL    HW135786   4.489   2.397   7.595  0.1665 -0.0990 -0.0770
 8108SOL    HW235787   4.583   2.411   7.708  0.2132  1.0625  0.7193
 8109SOL     OW35788   0.145   1.792   3.849 -0.3119  0.6906 -0.1031
 8109SOL    HW135789   0.138   1.817   3.941  1.1974  1.7007 -0.2665
 8109SOL    HW235790   0.220   1.843   3.820  1.5657 -2.6312 -1.1190
 8110SOL     OW35791   1.766   0.262   7.815 -0.1013  0.2079 -0.1446
 8110SOL    HW135792   1.746   0.355   7.815  1.7530  0.6090  0.8074
 8110SOL    HW235793   1.810   0.246   7.731 -0.6311  1.5581 -0.6765
 8111SOL     OW35794   1.233   0.698   3.381  0.6224  0.5727  0.2424
 8111SOL    HW135795   1.306   0.650   3.419  0.5398 -0.2400 -0.6173
 8111SOL    HW235796   1.277   0.750   3.314 -0.7614 -0.0996 -1.2103
 8112SOL     OW35797   4.674   3.642   8.157 -0.4333  0.2527 -0.3291
 8112SOL    HW135798   0.010   3.649   8.084  1.0689 -0.7396  0.8469
 8112SOL    HW235799   0.005   3.664   8.231 -0.7209  0.1444 -0.0759
 8113SOL     OW35800   0.101   4.402   0.399  0.5386  0.2312  0.1642
 8113SOL    HW135801   0.053   4.424   0.478  0.4201 -2.5867  0.8827
 8113SOL    HW235802   0.127   4.481   0.353  0.9721 -0.6506 -1.1086
 8114SOL     OW35803   0.035   4.373   5.705  0.0375  0.1343  0.3013
 8114SOL    HW135804   0.073   4.299   5.753  1.3762  1.0012  0.5647
 8114SOL    HW235805   0.054   4.440   5.770 -0.3401  2.0431 -1.5566
 8115SOL     OW35806   3.388   4.212   0.931 -0.4549 -0.4459 -0.6235
 8115SOL    HW135807   3.408   4.287   0.874 -2.3685 -0.0778 -0.7892
 8115SOL    HW235808   3.353   4.145   0.873 -1.8306 -0.3149  0.0662
 8116SOL     OW35809   0.856   1.489   9.928 -0.5649 -0.3071 -0.3101
 8116SOL    HW135810   0.928   1.524   9.980 -0.9007  0.7665 -0.5497
 8116SOL    HW235811   0.789   1.458   9.989  0.9254 -3.0294 -0.0795
 8117SOL     OW35812   0.284   0.325   5.475 -0.3049 -0.1300 -0.6247
 8117SOL    HW135813   0.291   0.356   5.565 -0.9878  1.4878 -1.1325
 8117SOL    HW235814   0.349   0.381   5.433  0.9510 -1.4547 -0.4467
 8118SOL     OW35815   3.054   1.636   8.850  0.1610 -0.4625 -0.2811
 8118SOL    HW135816   3.002   1.568   8.892 -0.6234 -0.1796 -0.7899
 8118SOL    HW235817   3.035   1.713   8.903  0.1128 -0.2779 -0.5668
 8119SOL     OW35818   3.060   1.333   4.256 -0.5900 -0.6046 -0.4750
 8119SOL    HW135819   3.118   1.277   4.207 -0.3922 -0.2991 -0.5912
 8119SOL    HW235820   2.977   1.303   4.218 -0.2957 -0.3632 -1.3047
 8120SOL     OW35821   2.827   1.814   6.268 -0.8070 -0.3929 -0.5798
 8120SOL    HW135822   2.888   1.802   6.341 -2.2479 -0.5896  0.6104
 8120SOL    HW235823   2.744   1.794   6.312 -1.4941  1.6614 -0.9446
 8121SOL     OW35824   4.254   1.415   4.160  0.3348 -0.5199  0.0995
 8121SOL    HW135825   4.201   1.494   4.161  2.9923  1.2405  2.9238
 8121SOL    HW235826   4.207   1.365   4.227 -0.4215 -0.5330 -0.4520
 8122SOL     OW35827   4.667   2.700   7.759 -0.6024 -0.1372  0.0650
 8122SOL    HW135828   4.645   2.721   7.850 -1.4190 -0.3744 -0.0754
 8122SOL    HW235829   4.602   2.635   7.733 -1.8151  0.4486  1.6138
 8123SOL     OW35830   4.435   2.883   7.009 -0.6295  0.0809 -0.2575
 8123SOL    HW135831   4.446   2.958   7.067  0.3974  1.0025 -1.6645
 8123SOL    HW235832   4.356   2.914   6.965 -2.0306  0.0908  2.2816
 8124SOL     OW35833   4.164   4.351   2.062  0.2615  0.7161 -0.7371
 8124SOL    HW135834   4.207   4.336   2.146 -1.7874 -2.6562 -0.2886
 8124SOL    HW235835   4.230   4.319   2.000  0.4085 -1.5666  0.5658
 8125SOL     OW35836   2.105   2.509  17.376 -0.1388  0.5614  0.1622
 8125SOL    HW135837   2.041   2.505  17.305 -0.8717 -2.6831  0.9828
 8125SOL    HW235838   2.105   2.421  17.415 -1.6406  1.0266  1.2105
 8126SOL     OW35839   2.198   3.687  11.301  0.2397 -0.0741 -0.0722
 8126SOL    HW135840   2.104   3.685  11.319 -0.0729  1.8824 -1.4439
 8126SOL    HW235841   2.233   3.712  11.386 -2.1468 -2.8665  1.7324
 8127SOL     OW35842   2.914   0.820  13.209  0.0320 -0.5026 -0.2247
 8127SOL    HW135843   2.928   0.883  13.280  1.4975 -0.3606 -0.6613
 8127SOL    HW235844   2.826   0.850  13.186  0.2615 -0.2114 -0.7195
 8128SOL     OW35845   4.138   2.825   7.844  0.6409  0.0387  0.8706
 8128SOL    HW135846   4.105   2.838   7.755  0.4634  0.5028  1.0034
 8128SOL    HW235847   4.186   2.742   7.837 -0.0494 -0.0253 -2.9220
 8129SOL     OW35848   3.979   0.087   2.703  0.0049  0.2554  0.6263
 8129SOL    HW135849   3.981   0.031   2.626 -1.1814  2.7810 -1.2512
 8129SOL    HW235850   3.966   0.028   2.777 -1.2800 -1.3419 -0.8734
 8130SOL     OW35851   3.942   3.079   6.199 -0.3856 -1.0147  0.2400
 8130SOL    HW135852   4.018   3.072   6.141  0.4720 -1.6008  1.4244
 8130SOL    HW235853   3.921   2.986   6.208  0.6096 -1.4525 -2.0129
 8131SOL     OW35854   2.361   2.457   5.941  0.0859 -0.1386 -0.5425
 8131SOL    HW135855   2.412   2.480   6.018 -2.3909  1.8224  0.5396
 8131SOL    HW235856   2.419   2.405   5.886  1.5703 -1.1944  2.0231
 8132SOL     OW35857   1.143   0.390   2.738  0.0084 -0.3987 -0.2673
 8132SOL    HW135858   1.143   0.418   2.647 -0.4378 -0.3072 -0.2417
 8132SOL    HW235859   1.196   0.311   2.729 -2.3697 -2.0278 -0.0059
 8133SOL     OW35860   0.410   1.041   3.716  0.5201  0.0131  0.4768
 8133SOL    HW135861   0.369   0.999   3.792  0.0918  0.7204  0.6363
 8133SOL    HW235862   0.483   0.986   3.689  1.0867  0.6928  0.6286
 8134SOL     OW35863   3.744   4.473   5.162  0.1978  0.2816 -0.1309
 8134SOL    HW135864   3.786   4.558   5.149  1.8042 -0.5580 -0.3340
 8134SOL    HW235865   3.659   4.501   5.198  0.0296 -0.4330  0.0290
 8135SOL     OW35866   1.104   0.912   0.944  0.5971  0.4518 -0.1190
 8135SOL    HW135867   1.089   0.819   0.965  2.3080  0.5809  1.6967
 8135SOL    HW235868   1.194   0.919   0.975  1.6010  1.9795 -3.3938
 8136SOL     OW35869   1.389   0.643   0.968  0.5310  0.0184 -0.4647
 8136SOL    HW135870   1.325   0.636   0.897 -1.5144  1.6895  1.2044
 8136SOL    HW235871   1.367   0.735   0.985 -2.4151 -0.5017 -1.4453
 8137SOL     OW35872   0.621   2.561   7.230  0.3894  0.3703 -0.1498
 8137SOL    HW135873   0.571   2.605   7.161  2.0871  2.8221  0.1694
 8137SOL    HW235874   0.707   2.588   7.198  0.4371  1.8446  1.2075
 8138SOL     OW35875   2.606   3.803   5.854  0.0339  0.2197  0.4342
 8138SOL    HW135876   2.632   3.896   5.848 -0.6599  0.3790 -0.0749
 8138SOL    HW235877   2.590   3.800   5.760  0.7492  2.2844  0.2472
 8139SOL     OW35878   4.352   4.533   2.818  0.3922 -0.2569 -0.2287
 8139SOL    HW135879   4.400   4.547   2.736 -0.0370  0.5550 -0.3367
 8139SOL    HW235880   4.424   4.542   2.880 -0.6036 -1.5970  1.1291
 8140SOL     OW35881   2.170   3.850   8.842  0.0351 -0.5128 -0.5513
 8140SOL    HW135882   2.188   3.927   8.896 -3.1415  0.2600 -0.5561
 8140SOL    HW235883   2.124   3.783   8.893 -0.3160  0.9654  1.0847
 8141SOL     OW35884   4.591   0.854   0.632  0.0046 -0.2039 -0.0386
 8141SOL    HW135885   4.555   0.928   0.681  1.9589  0.6709  0.0683
 8141SOL    HW235886   4.541   0.847   0.551  0.7292 -0.3445 -0.4658
 8142SOL     OW35887   2.346   0.380   9.581 -0.6240  0.1477  0.1821
 8142SOL    HW135888   2.389   0.298   9.609 -2.4065 -0.9650 -0.3514
 8142SOL    HW235889   2.369   0.386   9.488  2.7183 -0.3677  0.9456
 8143SOL     OW35890   0.407   3.264   0.766 -0.0656 -0.4392 -0.4594
 8143SOL    HW135891   0.445   3.235   0.849  0.2868  0.0173 -0.4608
 8143SOL    HW235892   0.377   3.351   0.792 -0.7154 -0.5112 -0.9507
 8144SOL     OW35893   1.799   1.911   5.096 -0.2212 -0.0344 -0.0443
 8144SOL    HW135894   1.774   1.837   5.151 -0.0894  0.7899  1.1270
 8144SOL    HW235895   1.893   1.892   5.089 -0.5209 -1.0947 -1.3187
 8145SOL     OW35896   2.099   2.706   4.593  0.3648 -0.0336  0.0971
 8145SOL    HW135897   2.035   2.700   4.522  0.0400 -1.1889  0.4831
 8145SOL    HW235898   2.155   2.782   4.577  2.9538 -1.9691  0.0357
 8146SOL     OW35899   0.754   2.473   9.843  0.0956  0.4585  0.1974
 8146SOL    HW135900   0.710   2.467   9.928  0.9986 -1.7871  0.5139
 8146SOL    HW235901   0.679   2.510   9.796  0.4010 -1.4867 -1.8317
 8147SOL     OW35902   1.590   1.550   2.382 -0.1329  0.4320 -0.2723
 8147SOL    HW135903   1.628   1.619   2.326  0.3838  1.0956  0.8978
 8147SOL    HW235904   1.496   1.570   2.378 -0.0486  1.3747  2.2843
 8148SOL     OW35905   1.362   1.083  11.432  0.1884  0.1234 -0.0520
 8148SOL    HW135906   1.376   1.170  11.469 -1.7118  1.0511 -1.5052
 8148SOL    HW235907   1.320   1.111  11.350 -1.5550 -1.6645  0.2321
 8149SOL     OW35908   4.555   0.054   5.623 -0.1152 -0.2856 -0.0604
 8149SOL    HW135909   4.545   0.097   5.538  0.0194  1.7278  0.9411
 8149SOL    HW235910   4.481   4.720   5.615 -1.7420  1.6088  0.8539
 8150SOL     OW35911   2.122   1.758   2.707  0.5189  0.2577 -0.1742
 8150SOL    HW135912   2.118   1.841   2.754  1.7903  0.3152 -0.1686
 8150SOL    HW235913   2.189   1.718   2.761  0.3128 -0.3212 -0.3467
 8151SOL     OW35914   4.581   0.633   3.513  0.3293  0.1547  0.3784
 8151SOL    HW135915   4.650   0.570   3.529  1.7517  1.3372 -1.1661
 8151SOL    HW235916   4.626   0.716   3.494  1.8587 -0.6509  0.5244
 8152SOL     OW35917   2.892   4.102   7.735 -0.5743 -0.0531 -0.2018
 8152SOL    HW135918   2.923   4.091   7.825 -1.1491 -0.9634 -0.1109
 8152SOL    HW235919   2.967   4.146   7.695  0.1794 -1.0055  0.1565
 8153SOL     OW35920   1.969   0.920   0.572  0.2256 -0.1272 -0.5501
 8153SOL    HW135921   2.020   0.973   0.634 -0.2855 -0.3747  0.0751
 8153SOL    HW235922   1.966   0.978   0.496 -0.0008  1.2503  0.4929
 8154SOL     OW35923   2.195   2.722  17.510 -0.1131  0.1102  0.2578
 8154SOL    HW135924   2.178   2.641  17.462  1.0473 -0.4255  0.7410
 8154SOL    HW235925   2.112   2.769  17.507 -1.2221 -1.6554  2.7276
 8155SOL     OW35926   0.906   1.107   0.794 -0.5590  0.1670  0.4420
 8155SOL    HW135927   0.993   1.068   0.787  1.2528  3.5435  4.2111
 8155SOL    HW235928   0.868   1.105   0.707  0.7973  2.3471 -0.2123
 8156SOL     OW35929   4.645   1.274  12.672  0.6893 -0.0570  0.4832
 8156SOL    HW135930   4.617   1.219  12.745  0.4844  0.4274  0.7764
 8156SOL    HW235931   4.628   1.360  12.710  1.4348 -1.2939  3.6282
 8157SOL     OW35932   4.479   0.931  13.592 -0.3385 -0.1894  0.3795
 8157SOL    HW135933   4.456   1.010  13.544 -0.5621 -0.1440  0.5639
 8157SOL    HW235934   4.523   0.978  13.663 -0.3036 -1.4607  1.2004
 8158SOL     OW35935   3.594   0.824   9.414 -0.3901 -0.0191 -0.1772
 8158SOL    HW135936   3.678   0.778   9.409 -0.0520  0.3752  2.1954
 8158SOL    HW235937   3.537   0.763   9.368 -2.0241  0.8221  0.7469
 8159SOL     OW35938   1.057   1.233   1.887 -0.1035  0.6724 -0.5860
 8159SOL    HW135939   0.975   1.200   1.924 -0.5580 -0.3151 -2.4453
 8159SOL    HW235940   1.045   1.217   1.793 -1.6775 -0.9675 -0.1011
 8160SOL     OW35941   4.603   4.232   1.506  0.5685 -0.3138 -0.5036
 8160SOL    HW135942   4.577   4.223   1.597 -2.1899 -0.5109 -1.3009
 8160SOL    HW235943   4.654   4.152   1.493  0.0971 -0.5625 -0.8301
 8161SOL     OW35944   3.179   0.222  12.537 -0.1075 -0.1046 -0.5510
 8161SOL    HW135945   3.264   0.178  12.534 -0.6970 -1.2390 -0.7309
 8161SOL    HW235946   3.172   0.247  12.629  1.4492  0.8982 -0.7109
 8162SOL     OW35947   1.701   1.286  12.810 -0.6757  0.4059  0.1524
 8162SOL    HW135948   1.723   1.332  12.729 -0.9015  0.4414  0.1119
 8162SOL    HW235949   1.635   1.219  12.792  2.0457 -2.8506  2.1595
 8163SOL     OW35950   4.266   3.811   9.256  0.3981 -0.2227  0.6754
 8163SOL    HW135951   4.231   3.794   9.343  2.7724 -2.9985  1.0765
 8163SOL    HW235952   4.351   3.852   9.271  0.5987 -0.5569  0.4538
 8164SOL     OW35953   1.211   0.979   9.673  0.3140 -0.0402  0.2988
 8164SOL    HW135954   1.208   0.962   9.767  3.4382 -0.2258  0.3480
 8164SOL    HW235955   1.298   1.015   9.655 -0.4320  0.7309 -1.7853
 8165SOL     OW35956   2.684   1.217   3.335  0.4914 -0.1870 -0.2818
 8165SOL    HW135957   2.679   1.123   3.351  0.8848 -0.3583 -1.1236
 8165SOL    HW235958   2.679   1.225   3.239  1.3466 -0.1155 -0.3232
 8166SOL     OW35959   0.808   3.824   7.177 -0.1973  0.2180  0.0947
 8166SOL    HW135960   0.740   3.792   7.118 -0.1367 -0.0677  0.1782
 8166SOL    HW235961   0.752   3.875   7.235 -0.2252 -1.6631  1.7562
 8167SOL     OW35962   1.381   1.487   7.604  0.6842  0.3310 -0.1334
 8167SOL    HW135963   1.474   1.461   7.604  0.9312  1.2148  2.1391
 8167SOL    HW235964   1.369   1.494   7.698 -3.1571 -1.8764 -0.4441
 8168SOL     OW35965   3.284   0.101   2.368 -0.4980  0.7853  0.3863
 8168SOL    HW135966   3.295   0.191   2.399 -1.2893  0.1470  2.5432
 8168SOL    HW235967   3.226   0.066   2.435 -2.3759  2.8827 -0.1495
 8169SOL     OW35968   4.429   3.287   3.226 -0.4728 -0.1666 -0.0913
 8169SOL    HW135969   4.509   3.256   3.184 -0.0566 -1.3471  1.6009
 8169SOL    HW235970   4.445   3.259   3.315 -1.7351 -1.6318 -0.3201
 8170SOL     OW35971   4.345   4.232   7.597  0.4171 -0.0138 -0.0394
 8170SOL    HW135972   4.354   4.316   7.551  1.9626  0.0227  0.3124
 8170SOL    HW235973   4.251   4.226   7.610  0.3270  2.8757  0.6347
 8171SOL     OW35974   4.066   1.681   6.304 -0.1605 -0.7768 -0.8116
 8171SOL    HW135975   4.048   1.638   6.220 -3.0187  0.9046 -1.0323
 8171SOL    HW235976   4.154   1.644   6.314 -0.6113 -0.5280  3.7259
 8172SOL     OW35977   2.105   1.570   4.886  0.1210  0.2918 -0.2191
 8172SOL    HW135978   2.163   1.566   4.963  0.8587 -3.2485 -0.9657
 8172SOL    HW235979   2.132   1.498   4.829 -0.9583  0.9212 -1.5186
 8173SOL     OW35980   4.042   3.353   9.249  0.7615 -0.4048  1.1228
 8173SOL    HW135981   4.042   3.386   9.339 -0.6965  0.0669  0.9485
 8173SOL    HW235982   4.133   3.359   9.219 -0.0826  0.5574 -1.1895
 8174SOL     OW35983   1.689   1.765   2.228  0.2366  0.7686  0.5617
 8174SOL    HW135984   1.778   1.776   2.194  0.9825 -2.2929  1.5322
 8174SOL    HW235985   1.654   1.848   2.194  0.3311 -0.6045 -2.8744
 8175SOL     OW35986   0.405   3.800   7.401  0.7263 -0.2142  0.5853
 8175SOL    HW135987   0.382   3.815   7.492 -2.1049  0.5291 -0.2628
 8175SOL    HW235988   0.500   3.802   7.412  0.7773 -1.8568  0.4823
 8176SOL     OW35989   0.880   3.105   8.445 -0.4860  0.2797 -0.0719
 8176SOL    HW135990   0.899   3.072   8.357 -1.3162  1.2986 -0.6361
 8176SOL    HW235991   0.968   3.141   8.458 -0.0295 -0.5821 -0.7979
 8177SOL     OW35992   3.556   4.565   2.105 -0.1796 -0.6311 -0.0944
 8177SOL    HW135993   3.464   4.580   2.087  0.3348  0.7457 -1.5577
 8177SOL    HW235994   3.586   4.504   2.037  1.3452  0.1661 -0.1412
 8178SOL     OW35995   1.190   1.336   5.703  0.4112 -0.2759 -0.2909
 8178SOL    HW135996   1.252   1.334   5.776 -0.2021 -1.7428  0.1826
 8178SOL    HW235997   1.144   1.257   5.729 -2.0056  0.5710 -2.0355
 8179SOL     OW35998   2.947   1.753   7.005 -0.6605 -0.2498 -0.1778
 8179SOL    HW135999   3.026   1.807   7.000 -1.3604  0.9089  1.0146
 8179SOL    HW236000   2.975   1.665   6.980  1.1443  0.2194  0.2008
 8180SOL     OW36001   0.390   0.907   6.372  0.9466  0.4702  0.0183
 8180SOL    HW136002   0.459   0.903   6.438  1.8043  0.2458 -0.8922
 8180SOL    HW236003   0.446   0.950   6.308  0.7734 -0.3604 -0.6941
 8181SOL     OW36004   3.553   0.621   6.864 -0.2128  0.2256 -0.3649
 8181SOL    HW136005   3.629   0.673   6.886  0.2793  0.0421 -1.6342
 8181SOL    HW236006   3.527   0.574   6.944  1.8314 -1.1018 -0.4824
 8182SOL     OW36007   1.224   3.248   6.465 -0.0542  0.1578  0.1719
 8182SOL    HW136008   1.220   3.279   6.374 -0.2306 -0.7683 -0.1363
 8182SOL    HW236009   1.165   3.314   6.503 -0.0059  1.0389 -1.2621
 8183SOL     OW36010   3.892   4.195   3.521 -0.3056  0.2051  0.0412
 8183SOL    HW136011   3.807   4.204   3.478 -1.7325 -1.2894  2.5726
 8183SOL    HW236012   3.859   4.217   3.608 -0.4949 -1.5652  0.4139
 8184SOL     OW36013   0.422   3.031   2.108 -0.5307 -0.2890 -0.3481
 8184SOL    HW136014   0.375   3.108   2.140 -1.3007 -1.5322  1.5085
 8184SOL    HW236015   0.477   3.018   2.186  0.5144 -1.0115 -1.2142
 8185SOL     OW36016   0.717   1.836   1.723 -0.1017 -0.8075  0.3181
 8185SOL    HW136017   0.781   1.905   1.736  0.2431 -1.4085  1.8351
 8185SOL    HW236018   0.637   1.883   1.746 -0.4160 -0.0137 -2.4363
 8186SOL     OW36019   1.279   1.862   3.922  0.6853 -0.2925  0.2685
 8186SOL    HW136020   1.253   1.874   3.831 -0.9650  2.0061  1.0583
 8186SOL    HW236021   1.289   1.952   3.951 -2.5986 -0.9657  3.4785
 8187SOL     OW36022   2.821   3.318   9.218  0.0776  0.4285  0.3276
 8187SOL    HW136023   2.793   3.395   9.269 -0.0393  0.2549  0.5228
 8187SOL    HW236024   2.848   3.265   9.293  4.2301  2.4709  0.3095
 8188SOL     OW36025   0.713   2.573   2.790 -0.0185  0.1829 -0.1280
 8188SOL    HW136026   0.704   2.510   2.719  0.0444 -0.1993  0.2044
 8188SOL    HW236027   0.704   2.650   2.734  1.3453 -1.3603 -2.4847
 8189SOL     OW36028   0.040   3.148  12.540  0.1822 -0.5003 -0.5804
 8189SOL    HW136029   0.081   3.074  12.585  0.0056  0.8292  1.7667
 8189SOL    HW236030   4.680   3.157  12.580  1.1365  0.9828  1.0923
 8190SOL     OW36031   2.050   3.944   7.838  0.1349  0.0981 -0.3186
 8190SOL    HW136032   2.066   3.858   7.801  2.7032  0.6296 -0.4419
 8190SOL    HW236033   2.074   4.003   7.767 -0.1408 -0.2363 -0.6902
 8191SOL     OW36034   1.996   2.325   2.118  0.2179  0.1692  0.4306
 8191SOL    HW136035   2.037   2.290   2.039  2.6426  1.1028  1.2695
 8191SOL    HW236036   2.032   2.413   2.126  0.6361  0.1693 -1.5783
 8192SOL     OW36037   0.749   2.881  10.747  0.0696  0.4431  0.1907
 8192SOL    HW136038   0.804   2.952  10.715  0.8146 -0.2967 -0.1772
 8192SOL    HW236039   0.807   2.836  10.809  1.4267  1.0706 -0.6192
 8193SOL     OW36040   3.886   4.056   6.583 -0.0859  0.5002 -0.1465
 8193SOL    HW136041   3.865   4.047   6.490  1.7955 -1.4070 -0.3952
 8193SOL    HW236042   3.980   4.040   6.588 -0.1991 -0.1311 -0.0094
 8194SOL     OW36043   1.872   1.811   9.017 -0.2295  0.5197  0.2849
 8194SOL    HW136044   1.947   1.852   8.975  0.3143 -0.3370  0.4073
 8194SOL    HW236045   1.827   1.768   8.944 -1.0728  0.5757  0.7648
 8195SOL     OW36046   0.634   0.618   6.503  0.1952  0.3478  0.1263
 8195SOL    HW136047   0.606   0.639   6.414 -2.1750 -0.7091  0.6206
 8195SOL    HW236048   0.723   0.584   6.498  0.4009  0.5262  2.3403
 8196SOL     OW36049   0.764   4.468   6.231 -0.2365 -0.5234 -0.2967
 8196SOL    HW136050   0.777   4.426   6.316 -1.1711 -1.0817 -0.4347
 8196SOL    HW236051   0.856   4.480   6.207  0.7652 -0.7742  3.3437
 8197SOL     OW36052   1.979   2.576   2.824  0.1380  0.4003 -0.7098
 8197SOL    HW136053   2.000   2.653   2.876  0.9536 -1.8050  2.2299
 8197SOL    HW236054   2.056   2.522   2.845 -0.1320  0.5867  0.7185
 8198SOL     OW36055   1.735   0.936  13.299  0.0321 -0.3154 -0.3573
 8198SOL    HW136056   1.811   0.950  13.356 -0.7705 -2.1324  1.1418
 8198SOL    HW236057   1.689   0.864  13.341 -1.8099  1.0094 -0.1109
 8199SOL     OW36058   4.486   2.451  11.074  0.2449  0.2543  0.2992
 8199SOL    HW136059   4.538   2.395  11.132 -1.3267 -0.7626  0.7413
 8199SOL    HW236060   4.457   2.398  11.000 -3.1411  1.9075  0.4258
 8200SOL     OW36061   1.516   2.188   3.512  0.0068 -0.5923 -0.3438
 8200SOL    HW136062   1.539   2.131   3.439  1.0928  2.2061 -2.1869
 8200SOL    HW236063   1.540   2.135   3.588 -1.8505 -0.6230  0.2234
 8201SOL     OW36064   0.063   2.154   2.434  0.1768 -0.4074  0.4770
 8201SOL    HW136065   0.055   2.242   2.397  2.6330 -0.1905  0.4593
 8201SOL    HW236066   4.698   2.129   2.449  0.0935  0.7406  1.9421
 8202SOL     OW36067   3.302   4.591   4.118  0.7683  0.1245 -0.4558
 8202SOL    HW136068   3.248   4.520   4.151 -0.0520  0.4398 -1.1406
 8202SOL    HW236069   3.357   4.609   4.195  2.1935 -1.5922 -1.0793
 8203SOL     OW36070   0.924   2.287   5.667 -0.5518  0.3391 -0.0683
 8203SOL    HW136071   0.843   2.337   5.680 -0.2925  0.5545  0.6848
 8203SOL    HW236072   0.989   2.356   5.680 -0.7679 -0.1260  3.4469
 8204SOL     OW36073   2.343   0.315   3.844 -0.0514 -0.0941  0.2604
 8204SOL    HW136074   2.358   0.225   3.870  0.7161 -0.1545 -0.3921
 8204SOL    HW236075   2.416   0.359   3.888 -0.4728  0.5636  0.3005
 8205SOL     OW36076   1.416   2.438  11.432  0.0406 -0.1581 -0.4816
 8205SOL    HW136077   1.422   2.463  11.340  1.7057  1.0380 -0.0562
 8205SOL    HW236078   1.469   2.358  11.433 -3.1129 -2.2558 -1.8614
 8206SOL     OW36079   4.080   0.759   4.303  0.0878 -0.7296 -0.1827
 8206SOL    HW136080   4.163   0.807   4.299  0.7841 -1.9873 -0.8944
 8206SOL    HW236081   4.027   0.806   4.239  3.7346  1.1672 -1.7835
 8207SOL     OW36082   0.831   1.824   0.159  0.0336  0.1875 -0.2395
 8207SOL    HW136083   0.831   1.800   0.067  0.2990 -3.6473  0.7896
 8207SOL    HW236084   0.773   1.901   0.156  0.1893  0.3592  1.0480
 8208SOL     OW36085   4.114   1.964   8.854  0.2755  0.0125  0.4432
 8208SOL    HW136086   4.173   2.029   8.816  0.4888 -0.4398 -0.0078
 8208SOL    HW236087   4.153   1.935   8.936  0.1116 -2.1205 -0.2249
 8209SOL     OW36088   0.269   2.077   1.831  0.2770  0.2328  0.1795
 8209SOL    HW136089   0.263   2.156   1.884 -0.2291  0.4247 -0.1595
 8209SOL    HW236090   0.183   2.060   1.792  1.3950 -1.2193 -1.6995
 8210SOL     OW36091   0.837   1.102   1.996  0.5243 -0.7905 -0.5643
 8210SOL    HW136092   0.864   1.052   1.919 -0.3522 -0.8742 -0.8188
 8210SOL    HW236093   0.743   1.110   1.981  0.5036  0.7971  0.4434
 8211SOL     OW36094   1.719   2.289   2.240 -0.4068  0.6827 -0.4730
 8211SOL    HW136095   1.743   2.353   2.308 -0.2329 -2.1881  2.1402
 8211SOL    HW236096   1.794   2.306   2.183  0.3382  1.9554  0.8647
 8212SOL     OW36097   4.339   0.509   8.418 -0.3150 -0.3455 -0.0351
 8212SOL    HW136098   4.409   0.477   8.476  0.3242  0.0277 -0.6044
 8212SOL    HW236099   4.388   0.575   8.369  0.5568 -0.7059  0.3422
 8213SOL     OW36100   1.498   0.640   6.558  0.5165  0.1056  0.5613
 8213SOL    HW136101   1.531   0.645   6.468  0.7458  3.5783  0.8158
 8213SOL    HW236102   1.411   0.600   6.558  0.3467  0.5066  2.2385
 8214SOL     OW36103   4.323   4.004  13.058  0.2450  0.0365 -0.4282
 8214SOL    HW136104   4.418   3.994  13.054  0.1955 -0.8104  0.4288
 8214SOL    HW236105   4.319   4.099  13.052 -0.1604  0.0281 -0.2978
 8215SOL     OW36106   1.984   4.530   1.830 -0.1363  0.3914 -0.1607
 8215SOL    HW136107   1.949   4.619   1.841  2.9468  1.3762  1.7527
 8215SOL    HW236108   2.079   4.544   1.832 -0.2743  0.9080  2.0664
 8216SOL     OW36109   0.309   0.986   3.147 -0.5523  0.2499 -0.4228
 8216SOL    HW136110   0.382   0.948   3.196  0.5515  1.3612 -1.1886
 8216SOL    HW236111   0.291   1.065   3.197 -0.0484 -0.7591  1.3316
 8217SOL     OW36112   2.075   1.736  13.256 -0.7457  0.6048  0.0523
 8217SOL    HW136113   2.124   1.763  13.333 -4.2333  3.1958  1.3280
 8217SOL    HW236114   2.108   1.646  13.251 -5.9890 -1.3537  0.5231
 8218SOL     OW36115   1.262   0.688   2.834  0.0566 -0.0233 -0.0379
 8218SOL    HW136116   1.265   0.644   2.919 -1.6910  0.7722  0.4337
 8218SOL    HW236117   1.168   0.704   2.832 -0.0557 -0.7294 -0.4685
 8219SOL     OW36118   0.280   0.971   8.740 -0.3355  0.3285 -0.1936
 8219SOL    HW136119   0.232   0.896   8.706 -0.9090  0.9452 -0.7547
 8219SOL    HW236120   0.285   1.022   8.659  2.2601 -1.8736 -1.3912
 8220SOL     OW36121   4.562   2.619   6.351 -0.3306 -0.5791  0.6970
 8220SOL    HW136122   4.620   2.560   6.399 -0.4047 -0.4371  0.9583
 8220SOL    HW236123   4.569   2.576   6.265  1.4137 -2.2309  1.6588
 8221SOL     OW36124   2.310   2.393   5.093 -0.0917 -0.1209  0.8483
 8221SOL    HW136125   2.353   2.470   5.128 -1.1887  0.2300  1.4275
 8221SOL    HW236126   2.366   2.326   5.133  0.4349  0.1682  0.5824
 8222SOL     OW36127   4.485   0.253  10.381 -0.0993 -0.2086  0.0920
 8222SOL    HW136128   4.421   0.202  10.430 -0.2720  0.6249  0.7456
 8222SOL    HW236129   4.569   0.225  10.417 -0.6081  0.1929  1.5875
 8223SOL     OW36130   3.018   0.134  17.435 -0.2306  0.2150 -0.0724
 8223SOL    HW136131   2.983   0.046  17.450 -1.9156  1.2417  2.0771
 8223SOL    HW236132   2.966   0.153  17.357  0.5946  0.4114 -0.5737
 8224SOL     OW36133   1.900   2.889   5.724  0.4908 -0.3959  0.3347
 8224SOL    HW136134   1.841   2.913   5.796  0.7352 -0.0638  0.4248
 8224SOL    HW236135   1.836   2.849   5.665 -1.0686  2.1192  0.3079
 8225SOL     OW36136   2.805   2.266   0.603  0.2281  0.1598  0.0946
 8225SOL    HW136137   2.713   2.243   0.614  0.8649 -2.4267 -0.1078
 8225SOL    HW236138   2.829   2.263   0.695 -0.2739 -0.2302  0.2134
 8226SOL     OW36139   3.511   3.997   2.426  0.3456  0.0190  0.0865
 8226SOL    HW136140   3.554   4.023   2.508 -1.3876  1.7439  0.4427
 8226SOL    HW236141   3.443   4.064   2.419  1.1168  0.7567 -0.1672
 8227SOL     OW36142   2.852   4.400   4.015 -0.2871 -0.1274 -0.2765
 8227SOL    HW136143   2.828   4.387   3.923  1.1313 -0.7598 -0.5661
 8227SOL    HW236144   2.763   4.402   4.049 -0.1485  2.3635 -0.0816
 8228SOL     OW36145   3.800   1.043   8.883 -0.1461  0.8880  0.0946
 8228SOL    HW136146   3.723   1.029   8.937 -0.7351 -0.0047 -0.9602
 8228SOL    HW236147   3.857   0.977   8.922 -1.1521 -0.1916 -0.2544
 8229SOL     OW36148   2.552   4.654   4.219 -1.0207  0.0689  0.2352
 8229SOL    HW136149   2.547   4.670   4.125 -0.3611 -0.0480  0.1805
 8229SOL    HW236150   2.477   4.706   4.250 -1.2482  0.4218 -0.8995
 8230SOL     OW36151   1.920   0.690   8.483  0.1558 -0.8381 -0.3103
 8230SOL    HW136152   1.841   0.723   8.439 -0.5483 -0.4970  1.2174
 8230SOL    HW236153   1.956   0.766   8.529  1.0376 -0.1806 -2.0691
 8231SOL     OW36154   0.445   2.989   7.670  0.5495 -0.1403 -0.3004
 8231SOL    HW136155   0.381   2.920   7.654  0.2242 -0.2834  1.6774
 8231SOL    HW236156   0.504   2.945   7.732  1.7838 -0.3387 -1.5967
 8232SOL     OW36157   0.595   4.157  14.787  0.3509  0.4591  0.1454
 8232SOL    HW136158   0.531   4.196  14.845  1.3902 -0.8098  2.1379
 8232SOL    HW236159   0.677   4.202  14.810 -0.0512  1.9864 -1.3958
 8233SOL     OW36160   1.804   3.956   8.004  0.0069 -0.3449 -0.1789
 8233SOL    HW136161   1.877   3.902   8.035  1.4737  1.3146 -0.7064
 8233SOL    HW236162   1.849   4.013   7.942  0.4241 -2.3442 -1.7175
 8234SOL     OW36163   4.106   4.644   9.520 -0.0071  0.0602 -0.0536
 8234SOL    HW136164   4.169   4.634   9.448  3.4116  0.9765  2.7880
 8234SOL    HW236165   4.139   4.723   9.563  1.3206  0.7065 -2.2906
 8235SOL     OW36166   0.088   1.453  14.822  0.3638 -0.4731  0.6173
 8235SOL    HW136167   0.028   1.391  14.782 -0.7999  2.2314 -1.8647
 8235SOL    HW236168   0.134   1.417  14.898 -1.0159 -1.4884  0.9616
 8236SOL     OW36169   4.629   4.596  17.578  0.4241  0.1754  0.1591
 8236SOL    HW136170   4.716   4.615  17.544 -0.1255  0.3307 -1.1535
 8236SOL    HW236171   4.639   4.522  17.638 -1.6380 -0.5386 -0.3696
 8237SOL     OW36172   1.924   1.230   4.855 -0.2547 -0.4216  0.2587
 8237SOL    HW136173   1.847   1.280   4.882 -0.3046 -0.4265  0.1265
 8237SOL    HW236174   1.986   1.251   4.924 -2.4255 -0.3130  2.1659
 8238SOL     OW36175   2.857   1.945   7.717 -0.4133 -0.4675 -0.0306
 8238SOL    HW136176   2.944   1.974   7.692 -0.6534 -0.3261 -0.6959
 8238SOL    HW236177   2.876   1.931   7.810 -1.0547 -0.4769  0.1002
 8239SOL     OW36178   1.034   2.232  13.344 -0.1438  0.0685 -0.0427
 8239SOL    HW136179   1.097   2.164  13.366 -1.9883 -1.5463  0.1515
 8239SOL    HW236180   1.083   2.303  13.302 -3.8501  0.8211 -3.0456
 8240SOL     OW36181   0.914   3.853  17.127  0.2904 -0.1037  0.2871
 8240SOL    HW136182   1.006   3.833  17.143  0.8102 -0.2166 -2.8168
 8240SOL    HW236183   0.892   3.904  17.205  0.5724 -0.1509  0.3947
 8241SOL     OW36184   3.367   3.518  16.029 -0.3295 -0.0098 -0.5695
 8241SOL    HW136185   3.457   3.484  16.028 -0.6846 -0.9523  0.3127
 8241SOL    HW236186   3.385   3.600  15.981  1.1929 -0.0163 -0.0322
 8242SOL     OW36187   1.847   0.838   0.168 -0.2660  0.6345  0.3551
 8242SOL    HW136188   1.845   0.828   0.073  0.1607  0.5190  0.3559
 8242SOL    HW236189   1.928   0.789   0.182 -1.0414 -1.1264 -1.4264
 8243SOL     OW36190   2.288   1.827  13.665 -0.0164  0.3120  0.0152
 8243SOL    HW136191   2.221   1.891  13.640 -0.1804 -1.0411 -2.9874
 8243SOL    HW236192   2.352   1.839  13.596  1.1033 -2.3695  0.5758
 8244SOL     OW36193   2.175   2.211   0.105  0.1164  0.5177 -0.2334
 8244SOL    HW136194   2.206   2.127   0.141 -2.6841 -0.6051 -0.4021
 8244SOL    HW236195   2.082   2.191   0.096  0.1056  0.8236 -0.8445
 8245SOL     OW36196   0.873   4.326  13.774  0.1317 -0.1998  0.2579
 8245SOL    HW136197   0.951   4.278  13.747 -0.2619 -0.3759 -0.5467
 8245SOL    HW236198   0.896   4.370  13.857  0.4363 -1.5673  0.8956
 8246SOL     OW36199   1.400   1.283   4.697  0.5899  0.4378 -0.0739
 8246SOL    HW136200   1.491   1.273   4.725 -0.2894 -0.6024  2.4211
 8246SOL    HW236201   1.369   1.343   4.764 -0.8550 -0.5361  0.1297
 8247SOL     OW36202   1.170   0.834  10.212 -0.1453 -0.0165  0.0915
 8247SOL    HW136203   1.098   0.773  10.198  0.2053 -0.1426 -1.2151
 8247SOL    HW236204   1.135   0.881  10.288 -0.6884  0.4048 -0.4204
 8248SOL     OW36205   2.055   4.124   3.127  0.1894  0.0607 -0.5429
 8248SOL    HW136206   2.026   4.197   3.182 -0.6345 -0.2195 -0.6063
 8248SOL    HW236207   1.990   4.131   3.057 -0.4404  1.4692  0.1772
 8249SOL     OW36208   1.870   4.485   2.833 -0.0082  0.5707  0.2708
 8249SOL    HW136209   1.805   4.446   2.891 -0.7654 -1.8939 -2.2714
 8249SOL    HW236210   1.851   4.435   2.754 -0.4535 -0.7371  1.2050
 8250SOL     OW36211   4.030   1.692   8.299 -0.1029 -0.0030 -0.5749
 8250SOL    HW136212   4.070   1.731   8.221 -1.0004  1.4613 -0.3188
 8250SOL    HW236213   3.957   1.755   8.305  1.9422  2.0840  2.1787
 8251SOL     OW36214   2.318   2.978  10.609  0.4282  0.2443  0.3361
 8251SOL    HW136215   2.246   3.034  10.639  0.1155  1.3058 -2.4195
 8251SOL    HW236216   2.255   2.914  10.576  1.0478  0.3444 -1.0090
 8252SOL     OW36217   3.572   2.126  10.978 -0.1537  0.1146  0.0056
 8252SOL    HW136218   3.614   2.195  11.029  1.1877  0.5320 -1.6667
 8252SOL    HW236219   3.577   2.052  11.039  2.0991  1.6206  1.6674
 8253SOL     OW36220   2.836   3.973  10.266  0.1464  0.1141 -0.0869
 8253SOL    HW136221   2.890   4.030  10.321 -0.9545  0.9305  0.1547
 8253SOL    HW236222   2.815   4.034  10.195 -1.4319  0.6659  0.8389
 8254SOL     OW36223   2.780   3.372   0.800 -0.2905 -0.0771 -0.0763
 8254SOL    HW136224   2.703   3.391   0.747 -1.1650  0.8507  1.5011
 8254SOL    HW236225   2.738   3.330   0.875 -0.9478 -0.0726 -0.4468
 8255SOL     OW36226   2.603   3.170   6.226 -0.1199 -0.1745 -0.0018
 8255SOL    HW136227   2.597   3.227   6.149  2.3268  0.1906  0.0731
 8255SOL    HW236228   2.509   3.164   6.237 -0.2662  2.6141  0.3597
 8256SOL     OW36229   3.191   1.920  11.718 -0.0989  0.1931 -0.7175
 8256SOL    HW136230   3.179   2.011  11.745 -0.3011  0.0023 -0.1648
 8256SOL    HW236231   3.284   1.899  11.723  0.5684  2.8902 -2.1265
 8257SOL     OW36232   3.436   1.076   3.960 -0.1025 -0.2664 -0.5393
 8257SOL    HW136233   3.439   1.171   3.968 -1.8799 -0.2648  0.1316
 8257SOL    HW236234   3.518   1.065   3.913  0.0370  0.5200 -0.4869
 8258SOL     OW36235   1.669   1.151  15.781 -0.0618 -0.4461 -0.7879
 8258SOL    HW136236   1.589   1.162  15.832  1.9227 -0.0177  2.1722
 8258SOL    HW236237   1.725   1.207  15.834  1.1078 -2.1197 -0.2768
 8259SOL     OW36238   2.799   4.296   6.882  0.1073  0.0761 -0.1955
 8259SOL    HW136239   2.731   4.291   6.816  0.3912 -0.3413 -0.4575
 8259SOL    HW236240   2.819   4.388   6.896  1.0615 -0.1359 -0.1496
 8260SOL     OW36241   2.273   1.421   4.704 -0.0654  0.1137 -0.0500
 8260SOL    HW136242   2.299   1.328   4.703 -2.0023 -0.4106 -1.0351
 8260SOL    HW236243   2.360   1.459   4.713  0.6261 -1.2412 -0.9607
 8261SOL     OW36244   2.283   1.750   7.939 -0.7658 -0.7390  0.1192
 8261SOL    HW136245   2.371   1.767   7.903 -0.3315 -1.9764  0.6075
 8261SOL    HW236246   2.305   1.768   8.030 -0.8439 -0.8726  0.1633
 8262SOL     OW36247   0.449   1.030   9.182  0.0181  1.4118 -0.0011
 8262SOL    HW136248   0.446   1.005   9.274  0.5571 -0.2330 -0.4293
 8262SOL    HW236249   0.482   1.119   9.199  0.5540  0.8060  2.0593
 8263SOL     OW36250   2.272   0.028   9.544  0.7987 -0.3539  0.1047
 8263SOL    HW136251   2.215   0.031   9.620  1.3427  0.8667  0.4637
 8263SOL    HW236252   2.354   0.070   9.573 -0.8024  1.7010  1.6105
 8264SOL     OW36253   3.817   1.803   4.704 -0.0912 -0.3767  0.3360
 8264SOL    HW136254   3.786   1.719   4.736 -2.2928  1.1869  2.2723
 8264SOL    HW236255   3.813   1.844   4.790 -0.6159  1.0640 -0.3692
 8265SOL     OW36256   4.683   3.256   3.125 -0.2553  0.8912  0.0261
 8265SOL    HW136257   4.715   3.309   3.052 -0.1938 -1.1719 -1.4364
 8265SOL    HW236258   0.036   3.249   3.178  0.6592 -1.2280 -1.6219
 8266SOL     OW36259   3.615   4.149   8.829  0.6015  0.3715 -0.2702
 8266SOL    HW136260   3.567   4.204   8.891 -0.8786 -1.4485  0.1786
 8266SOL    HW236261   3.594   4.060   8.857 -1.6444  0.3662 -1.9378
 8267SOL     OW36262   3.296   4.553   2.356 -0.5515 -0.6820  0.6273
 8267SOL    HW136263   3.291   4.644   2.327 -2.8253 -1.1174 -0.3684
 8267SOL    HW236264   3.309   4.507   2.273  0.4075 -0.1057  0.4626
 8268SOL     OW36265   1.341   2.332   7.475  0.3396  0.0218 -0.2975
 8268SOL    HW136266   1.383   2.417   7.464  1.0406 -0.4410 -1.2072
 8268SOL    HW236267   1.249   2.358   7.465  0.3266 -0.0821 -0.4399
 8269SOL     OW36268   4.093   1.288  11.235 -0.4918  0.6902  0.1369
 8269SOL    HW136269   4.181   1.263  11.209  0.2248  1.1327  2.1547
 8269SOL    HW236270   4.073   1.316  11.146 -0.6749 -0.3486 -0.1565
 8270SOL     OW36271   1.730   4.548   4.637 -0.5551 -0.0348  0.3663
 8270SOL    HW136272   1.786   4.490   4.689 -0.3932 -0.6696 -0.5131
 8270SOL    HW236273   1.664   4.481   4.618 -1.0935  0.5619  0.1576
 8271SOL     OW36274   1.276   2.370  13.226 -0.2750  0.4268 -0.0052
 8271SOL    HW136275   1.214   2.442  13.211 -1.1730 -0.2168  0.5928
 8271SOL    HW236276   1.310   2.361  13.137  0.5007  3.3252  0.0011
 8272SOL     OW36277   3.310   3.611   8.089 -0.2062  0.4744  0.2464
 8272SOL    HW136278   3.334   3.647   8.003 -1.1081 -2.2391 -1.1131
 8272SOL    HW236279   3.331   3.518   8.084  0.6295  0.6589  0.2752
 8273SOL     OW36280   0.725   3.244   8.212 -0.0949  0.0784 -0.0214
 8273SOL    HW136281   0.705   3.310   8.279  3.2198  0.6626  0.3922
 8273SOL    HW236282   0.815   3.272   8.193 -0.8040  1.8234 -0.8371
 8274SOL     OW36283   1.984   1.456  17.446 -0.0482  0.0060  0.0614
 8274SOL    HW136284   2.075   1.445  17.418 -0.3432 -0.4036 -0.7293
 8274SOL    HW236285   1.951   1.542  17.420  1.6375  0.2367 -1.3989
 8275SOL     OW36286   0.975   0.939   6.709 -0.1067  0.0839 -0.0002
 8275SOL    HW136287   1.063   0.970   6.730 -0.0543 -0.4660  0.5692
 8275SOL    HW236288   0.933   0.936   6.795 -1.7588  3.2073 -0.6973
 8276SOL     OW36289   3.719   2.224   0.271 -0.0738 -0.3406  0.4178
 8276SOL    HW136290   3.669   2.146   0.249  0.4969 -0.5077 -0.3025
 8276SOL    HW236291   3.727   2.218   0.366  4.1182 -0.4030  0.0922
 8277SOL     OW36292   2.931   2.038   0.528 -0.5041 -0.5422 -0.5641
 8277SOL    HW136293   2.914   2.126   0.563  2.5735 -0.0562 -0.3640
 8277SOL    HW236294   2.862   1.985   0.569  1.9236 -1.9550  1.6747
 8278SOL     OW36295   2.127   4.218   8.732  0.1230  0.2639 -0.0872
 8278SOL    HW136296   2.175   4.143   8.767 -2.1915 -1.2546 -0.1412
 8278SOL    HW236297   2.114   4.190   8.641 -1.3983  1.2375 -0.1660
 8279SOL     OW36298   0.366   2.795  11.435  0.1075 -0.4829 -0.5917
 8279SOL    HW136299   0.441   2.764  11.384 -0.3340  1.1310 -2.2409
 8279SOL    HW236300   0.413   2.862  11.485 -0.9343 -1.2466  1.3843
 8280SOL     OW36301   2.416   0.278   5.034 -0.4713  0.2694  0.2922
 8280SOL    HW136302   2.431   0.190   5.000  0.8897  0.4803  0.3571
 8280SOL    HW236303   2.345   0.310   4.979  0.1268 -0.5533 -0.9631
 8281SOL     OW36304   2.730   2.640   3.574 -0.3228 -0.3732 -0.3717
 8281SOL    HW136305   2.772   2.719   3.540  0.6564 -0.2149  1.1923
 8281SOL    HW236306   2.797   2.574   3.590  1.4304  1.3482 -0.6527
 8282SOL     OW36307   2.874   1.839  14.861  0.3801  0.1508 -0.0419
 8282SOL    HW136308   2.884   1.817  14.954  0.6709  0.1347 -0.0771
 8282SOL    HW236309   2.791   1.795  14.844  0.0127  0.7970  0.0715
 8283SOL     OW36310   1.970   3.109   3.048 -0.1577  0.0259  0.0819
 8283SOL    HW136311   1.997   3.038   3.106 -0.7321 -0.4566 -0.2317
 8283SOL    HW236312   1.918   3.171   3.100 -0.1826  0.0746 -0.0001
 8284SOL     OW36313   0.768   3.475   4.399  0.1613 -0.7639  0.3478
 8284SOL    HW136314   0.727   3.417   4.335 -0.3981  0.3765 -0.3420
 8284SOL    HW236315   0.861   3.478   4.376 -0.1668 -0.6696 -1.0092
 8285SOL     OW36316   1.538   3.082  15.518 -0.0898  0.1269 -0.4169
 8285SOL    HW136317   1.608   3.146  15.507 -1.3657  1.5179 -0.3404
 8285SOL    HW236318   1.582   3.010  15.564  2.4303  0.7895 -1.8044
 8286SOL     OW36319   4.046   1.696   4.475  0.5373  0.1629 -0.0843
 8286SOL    HW136320   3.977   1.632   4.494  1.4438 -1.3590 -1.8766
 8286SOL    HW236321   3.996   1.741   4.407  2.1301  2.1506  0.0683
 8287SOL     OW36322   4.624   1.653   9.103 -0.2033 -0.6845 -0.4816
 8287SOL    HW136323   4.672   1.570   9.096  0.0519 -0.3042 -3.2743
 8287SOL    HW236324   4.627   1.689   9.015  2.4858 -0.0301 -0.1179
 8288SOL     OW36325   1.087   1.653   1.447  0.2944 -0.7274 -0.1341
 8288SOL    HW136326   1.024   1.707   1.399 -0.9474 -2.3336 -0.2995
 8288SOL    HW236327   1.073   1.684   1.536  0.1264  1.1803 -0.8232
 8289SOL     OW36328   0.469   1.193   8.871  0.2378 -0.0078 -0.0688
 8289SOL    HW136329   0.397   1.167   8.813 -0.4481  2.1375 -0.1914
 8289SOL    HW236330   0.538   1.190   8.804 -0.6028  1.5915 -1.0022
 8290SOL     OW36331   0.564   4.637   8.983 -0.5279  0.3970 -0.2354
 8290SOL    HW136332   0.567   4.599   9.070  1.9409 -1.2637 -1.0649
 8290SOL    HW236333   0.631   4.704   8.990  0.4910 -0.6963  0.4658
 8291SOL     OW36334   3.736   0.154   2.652  0.4246  0.0079 -0.7873
 8291SOL    HW136335   3.732   0.143   2.557 -0.2906 -0.5808 -0.6922
 8291SOL    HW236336   3.830   0.139   2.659  0.3790  0.1284 -0.0016
 8292SOL     OW36337   1.739   3.983  11.277 -0.2141 -0.8734 -0.2377
 8292SOL    HW136338   1.733   4.074  11.247 -0.2938 -1.1332 -0.9930
 8292SOL    HW236339   1.748   3.992  11.372 -1.6853 -0.6303 -0.1194
 8293SOL     OW36340   1.471   2.109   5.885  0.3194  0.3632 -0.3354
 8293SOL    HW136341   1.428   2.096   5.800  0.0093  1.9153 -0.4168
 8293SOL    HW236342   1.400   2.087   5.946  0.3703  2.6057  0.5359
 8294SOL     OW36343   2.654   2.530   6.761  0.4347  0.0980 -0.1850
 8294SOL    HW136344   2.611   2.531   6.847  1.5630 -0.9841  0.4071
 8294SOL    HW236345   2.740   2.498   6.790  0.2253  0.4476  0.8416
 8295SOL     OW36346   3.740   0.843   5.969  0.6562  0.0053  0.0148
 8295SOL    HW136347   3.803   0.896   5.921  1.7202 -1.9801 -0.7470
 8295SOL    HW236348   3.742   0.884   6.056 -1.7233 -1.6378  0.8776
 8296SOL     OW36349   2.276   0.272   2.579  0.4634 -0.0287  1.0361
 8296SOL    HW136350   2.264   0.177   2.587 -0.5345  0.2744  2.9942
 8296SOL    HW236351   2.190   0.307   2.602  0.5833  0.2743  1.0259
 8297SOL     OW36352   1.587   0.316   8.882 -0.0345  0.5351 -0.0302
 8297SOL    HW136353   1.603   0.364   8.801 -2.2173  0.0581 -0.7317
 8297SOL    HW236354   1.643   0.370   8.938  2.2348 -3.2788  1.3844
 8298SOL     OW36355   1.521   1.667   8.463  0.0240  0.3067  0.3230
 8298SOL    HW136356   1.483   1.749   8.433  0.9925  1.4966  2.3112
 8298SOL    HW236357   1.557   1.628   8.383 -0.9216 -0.1285  0.1091
 8299SOL     OW36358   0.421   4.181  11.386  0.4304 -0.5020  0.4248
 8299SOL    HW136359   0.500   4.228  11.413  0.1386 -0.5825  1.4090
 8299SOL    HW236360   0.382   4.242  11.323  1.5151  0.7485  0.9600
 8300SOL     OW36361   3.747   0.577  14.099 -0.1566  0.1844  0.6466
 8300SOL    HW136362   3.752   0.639  14.026  1.3412  0.1864  0.7569
 8300SOL    HW236363   3.799   0.510  14.055 -2.1297 -1.5712  0.9951
 8301SOL     OW36364   4.649   4.334  17.675 -0.5628  0.1608 -0.3566
 8301SOL    HW136365   4.699   4.310   0.047 -0.2220 -2.0476 -1.2557
 8301SOL    HW236366   4.558   4.332   0.001 -0.2465  1.4180  0.6094
 8302SOL     OW36367   3.088   1.644  11.758  0.2753 -0.1264 -0.0948
 8302SOL    HW136368   3.154   1.714  11.757 -0.9204  1.0060 -0.4391
 8302SOL    HW236369   3.015   1.686  11.803 -1.2702 -1.1000 -1.7107
 8303SOL     OW36370   2.448   1.954  16.095 -0.2589 -0.2390  0.2960
 8303SOL    HW136371   2.377   2.017  16.101 -1.5378 -1.7019  0.5069
 8303SOL    HW236372   2.506   1.998  16.032  2.3285 -2.2496  1.2746
 8304SOL     OW36373   2.597   0.712   2.678  0.4636  0.7524  0.0449
 8304SOL    HW136374   2.624   0.749   2.594 -2.0937  1.0668 -0.6343
 8304SOL    HW236375   2.622   0.781   2.739  1.1833  0.1121  0.4767
 8305SOL     OW36376   2.361   1.691  16.139 -0.2949 -0.3973 -0.1955
 8305SOL    HW136377   2.382   1.705  16.231  0.7815  0.2818 -0.5492
 8305SOL    HW236378   2.372   1.776  16.096  0.9577 -1.4197 -1.8845
 8306SOL     OW36379   2.660   1.773  10.201  0.0307 -0.5349  0.3425
 8306SOL    HW136380   2.742   1.790  10.246  0.0127 -1.1036  0.5990
 8306SOL    HW236381   2.629   1.706  10.263  0.8032 -1.1527  0.0651
 8307SOL     OW36382   2.985   1.604  16.980 -0.6600 -0.1797  0.3633
 8307SOL    HW136383   2.897   1.580  16.951  0.3542 -2.9935 -0.3210
 8307SOL    HW236384   2.983   1.558  17.064 -0.9199 -0.7436  0.0505
 8308SOL     OW36385   1.166   3.592   6.717  0.1799 -0.0744  0.1818
 8308SOL    HW136386   1.144   3.574   6.808  0.3251 -2.2507 -0.2019
 8308SOL    HW236387   1.169   3.687   6.724 -0.3385 -0.1523  1.5355
 8309SOL     OW36388   1.951   4.696   6.021  0.4697 -0.0724 -0.0743
 8309SOL    HW136389   1.916   0.002   5.938  2.2211  0.0894 -0.7561
 8309SOL    HW236390   2.042   4.715   5.997  0.1975  1.1301 -0.1832
 8310SOL     OW36391   2.848   3.089  13.552 -0.6806  0.1653 -0.1990
 8310SOL    HW136392   2.831   3.043  13.469 -0.1497 -1.3289  0.5253
 8310SOL    HW236393   2.775   3.151  13.551 -1.9827 -1.3265  2.7744
 8311SOL     OW36394   1.741   0.457  16.483  0.5111 -0.4652  0.3944
 8311SOL    HW136395   1.800   0.440  16.557  0.5758 -0.2363  0.3973
 8311SOL    HW236396   1.757   0.381  16.427 -0.0633 -0.3436  0.0677
 8312SOL     OW36397   4.200   0.856   5.297 -0.1486 -0.1153 -0.1276
 8312SOL    HW136398   4.164   0.768   5.308 -0.1740  0.1419  1.7589
 8312SOL    HW236399   4.217   0.887   5.386 -2.0687 -1.9029  0.8533
 8313SOL     OW36400   2.384   1.479  15.370  0.1637  0.1465 -0.1146
 8313SOL    HW136401   2.300   1.512  15.403  0.2740  0.3320 -0.0202
 8313SOL    HW236402   2.364   1.386  15.361 -2.3416  0.4561  2.1176
 8314SOL     OW36403   2.180   2.682   9.825  0.7092  0.0066 -0.8945
 8314SOL    HW136404   2.257   2.722   9.866  1.8346 -1.7685 -1.2910
 8314SOL    HW236405   2.165   2.728   9.742 -4.0214 -2.2372 -1.3091
 8315SOL     OW36406   1.392   1.051  12.459  0.8581 -0.5507  0.5226
 8315SOL    HW136407   1.440   0.980  12.416  1.4270 -1.0601  1.9887
 8315SOL    HW236408   1.459   1.118  12.476  0.4795  0.0234 -0.2403
 8316SOL     OW36409   1.515   0.690   5.574 -0.0626 -0.7500  0.1361
 8316SOL    HW136410   1.436   0.679   5.627  0.4114 -0.7867  0.8247
 8316SOL    HW236411   1.513   0.783   5.551  0.6621 -0.8935 -0.5255
 8317SOL     OW36412   1.607   0.823  14.388 -0.5360  0.1709 -0.0012
 8317SOL    HW136413   1.694   0.786  14.373 -0.6601  0.7841 -2.2536
 8317SOL    HW236414   1.605   0.823  14.483  1.0684  0.1854  0.0265
 8318SOL     OW36415   3.754   1.237   7.529 -0.1296 -0.0293  0.2604
 8318SOL    HW136416   3.757   1.217   7.435  3.4672  0.9617  0.1674
 8318SOL    HW236417   3.670   1.205   7.562 -0.2715 -0.6578 -0.6869
 8319SOL     OW36418   4.691   4.470   9.113 -0.0944 -0.2043 -0.2304
 8319SOL    HW136419   4.724   4.502   9.196  0.3915  3.8182 -1.9627
 8319SOL    HW236420   0.027   4.403   9.083  0.2749  0.7788 -1.6751
 8320SOL     OW36421   1.386   1.217   9.959  0.4501 -0.0929  0.7668
 8320SOL    HW136422   1.433   1.297   9.937 -1.7950  0.5980 -1.4989
 8320SOL    HW236423   1.427   1.194  10.043 -0.5550  0.1027  1.3153
 8321SOL     OW36424   1.665   0.078   6.406 -0.4548  0.1395 -0.0662
 8321SOL    HW136425   1.591   0.100   6.348 -1.7448 -0.2078  1.4358
 8321SOL    HW236426   1.716   0.013   6.358  0.2054  1.1179 -0.6844
 8322SOL     OW36427   0.781   4.445   7.766 -0.4088 -0.2040  0.0731
 8322SOL    HW136428   0.766   4.352   7.751 -0.3721 -0.5171  1.9755
 8322SOL    HW236429   0.700   4.487   7.738 -1.7244 -1.8168  1.4343
 8323SOL     OW36430   3.617   1.240   4.983 -0.0416 -0.0114 -0.4601
 8323SOL    HW136431   3.567   1.179   5.038 -0.8987  0.0039 -1.2264
 8323SOL    HW236432   3.702   1.195   4.985  0.3636  0.7109 -1.3697
 8324SOL     OW36433   2.483   1.240   9.204  0.0290 -0.0072 -0.7837
 8324SOL    HW136434   2.433   1.288   9.138 -0.2886  2.3298  1.1468
 8324SOL    HW236435   2.553   1.201   9.151  1.6447 -0.7278  1.8582
 8325SOL     OW36436   2.206   3.786  14.050  0.0394  0.2201  0.6692
 8325SOL    HW136437   2.216   3.753  14.139 -0.9726 -1.8061  0.0222
 8325SOL    HW236438   2.113   3.773  14.032  0.6980 -1.9448 -1.1090
 8326SOL     OW36439   1.705   2.645   2.549  0.0122  0.4433 -0.2724
 8326SOL    HW136440   1.764   2.575   2.520 -0.0249  0.0192  0.6663
 8326SOL    HW236441   1.673   2.678   2.466  2.9321  1.6677 -0.9228
 8327SOL     OW36442   3.315   0.690   7.734 -0.0419 -0.1594 -0.4433
 8327SOL    HW136443   3.403   0.721   7.712 -0.0974  0.1476 -0.2335
 8327SOL    HW236444   3.328   0.651   7.821 -3.4011  0.8645  0.4962
 8328SOL     OW36445   2.771   0.241   7.137  0.0905  0.1070  0.5068
 8328SOL    HW136446   2.712   0.316   7.131  0.5053  0.2325 -2.1838
 8328SOL    HW236447   2.710   0.169   7.153 -0.1284  0.5359  1.5981
 8329SOL     OW36448   4.601   1.852   9.282 -0.6074 -0.2929 -0.1123
 8329SOL    HW136449   4.614   1.786   9.214  2.2585 -0.6576  0.7876
 8329SOL    HW236450   4.561   1.806   9.356  0.0129 -0.4698  0.1172
 8330SOL     OW36451   1.519   4.055  11.914  0.0583 -0.1204 -0.6665
 8330SOL    HW136452   1.434   4.099  11.909  0.1114 -0.0256 -0.7620
 8330SOL    HW236453   1.559   4.132  11.955 -1.3791 -0.6354  1.6587
 8331SOL     OW36454   3.758   2.994   5.499 -0.1451 -0.9146 -0.5458
 8331SOL    HW136455   3.679   3.042   5.475 -0.1260 -1.4933 -1.7445
 8331SOL    HW236456   3.757   3.026   5.590  0.0342  0.0015 -0.8661
 8332SOL     OW36457   3.753   1.268   3.542 -0.0916 -0.4151 -0.0139
 8332SOL    HW136458   3.699   1.212   3.486  1.1952 -1.2804 -0.3864
 8332SOL    HW236459   3.839   1.225   3.538 -0.4750 -1.3036  1.4298
 8333SOL     OW36460   0.518   0.969   9.758 -0.7322 -0.3109 -0.0896
 8333SOL    HW136461   0.608   1.001   9.762 -0.7097 -0.6451  2.0568
 8333SOL    HW236462   0.518   0.922   9.841  0.6020 -0.6087 -0.2541
 8334SOL     OW36463   2.665   2.849   2.187  0.0188 -0.2235 -0.2360
 8334SOL    HW136464   2.592   2.845   2.124  0.3346 -2.0579 -0.4888
 8334SOL    HW236465   2.702   2.937   2.184 -1.3654  0.3868  1.1618
 8335SOL     OW36466   0.729   1.464   9.608  0.6026 -0.2554  0.5207
 8335SOL    HW136467   0.712   1.496   9.520 -2.2709 -2.2735  0.3469
 8335SOL    HW236468   0.765   1.542   9.649  0.1132  0.9393 -1.3237
 8336SOL     OW36469   1.894   2.270   1.473  0.5272 -0.0663  0.2170
 8336SOL    HW136470   1.845   2.207   1.526 -1.0565  0.3131 -0.8134
 8336SOL    HW236471   1.983   2.262   1.509  0.3030 -0.4330  0.6924
 8337SOL     OW36472   3.731   4.251   0.838  0.2316  0.3224  0.2466
 8337SOL    HW136473   3.646   4.291   0.858 -0.4842 -0.5564 -1.0496
 8337SOL    HW236474   3.716   4.158   0.857  0.7322 -0.4346 -3.1112
 8338SOL     OW36475   4.068   3.919  17.151  0.5493  0.2434  1.0344
 8338SOL    HW136476   4.080   3.868  17.232 -0.3340  1.4014  1.8823
 8338SOL    HW236477   3.995   3.877  17.106  2.6364  1.2336 -3.2867
 8339SOL     OW36478   0.772   0.460  10.095 -0.2132  0.1045  0.1993
 8339SOL    HW136479   0.720   0.539  10.087  1.1503  0.9925  0.1133
 8339SOL    HW236480   0.770   0.441  10.189 -1.0459 -0.0022  0.1603
 8340SOL     OW36481   0.135   4.098  12.919  0.4902  0.3880  0.6000
 8340SOL    HW136482   0.144   4.172  12.859 -1.1746  0.8938  0.9572
 8340SOL    HW236483   0.190   4.032  12.876 -0.5111  0.6775 -1.1458
 8341SOL     OW36484   2.822   4.627   3.635 -0.1100  0.3994 -0.5101
 8341SOL    HW136485   2.790   4.711   3.669 -1.6386 -1.1752  1.9144
 8341SOL    HW236486   2.749   4.585   3.589 -0.2132  0.5767 -0.5087
 8342SOL     OW36487   1.856   3.260   5.620 -0.7678 -0.5477  0.2549
 8342SOL    HW136488   1.861   3.315   5.697 -0.6833  3.2843 -2.4912
 8342SOL    HW236489   1.779   3.210   5.645 -0.5671 -1.4167 -0.8276
 8343SOL     OW36490   0.815   3.405   4.661  0.7421 -0.0047 -0.0040
 8343SOL    HW136491   0.793   3.436   4.573 -0.7604  0.9247  0.7114
 8343SOL    HW236492   0.898   3.357   4.652  0.9808  0.3090  0.5435
 8344SOL     OW36493   0.988   0.828   7.406 -0.6613  0.6085 -0.4509
 8344SOL    HW136494   1.050   0.887   7.449 -2.5003  1.7179  0.6870
 8344SOL    HW236495   1.037   0.747   7.393  0.3801  0.9333  1.4752
 8345SOL     OW36496   2.003   3.578  11.002 -0.5244 -0.0118 -0.1047
 8345SOL    HW136497   1.999   3.509  11.068 -0.7608  0.4028  0.3080
 8345SOL    HW236498   1.969   3.649  11.057 -1.3140  2.3091 -3.5848
 8346SOL     OW36499   4.048   1.063   6.129  0.3713 -0.2983  0.5058
 8346SOL    HW136500   3.997   1.079   6.208  1.6344  1.2616  0.9884
 8346SOL    HW236501   3.999   1.108   6.060  0.1485  0.4353  1.1424
 8347SOL     OW36502   2.511   1.802   3.757 -0.0636 -0.3738  0.3389
 8347SOL    HW136503   2.550   1.846   3.681 -0.6161  0.7670  0.7153
 8347SOL    HW236504   2.530   1.713   3.729 -1.1599 -0.8427  1.1000
 8348SOL     OW36505   3.022   1.595  13.343  0.1320 -0.5292  0.1235
 8348SOL    HW136506   3.021   1.594  13.247  1.7118 -2.0000  0.1237
 8348SOL    HW236507   3.029   1.689  13.360  2.9734 -0.5217 -1.0529
 8349SOL     OW36508   0.518   3.381   5.324 -0.0152 -0.3370  0.0999
 8349SOL    HW136509   0.466   3.451   5.284  1.9251  0.0267 -1.7830
 8349SOL    HW236510   0.607   3.404   5.297  0.4988 -0.0396  2.0520
 8350SOL     OW36511   2.664   2.599   5.770  0.1412 -0.9224  0.2735
 8350SOL    HW136512   2.602   2.658   5.813 -1.5590 -2.2105 -0.3961
 8350SOL    HW236513   2.628   2.518   5.806  0.1034  0.2846  2.9912
 8351SOL     OW36514   0.898   0.826   6.326 -0.2227 -0.4015 -0.5325
 8351SOL    HW136515   0.960   0.788   6.389 -0.3694  1.8767  0.9827
 8351SOL    HW236516   0.858   0.896   6.378 -0.1545 -0.5964 -0.2155
 8352SOL     OW36517   4.195   1.675   5.195 -0.0753  0.2152 -0.0575
 8352SOL    HW136518   4.269   1.625   5.161 -0.8925  0.0257 -1.5513
 8352SOL    HW236519   4.154   1.711   5.117  2.3414 -0.7446 -1.7717
 8353SOL     OW36520   2.751   0.734   6.401  0.1648  0.6438  0.2714
 8353SOL    HW136521   2.756   0.652   6.451  2.9372  1.1281  0.7857
 8353SOL    HW236522   2.779   0.698   6.317  1.5050 -1.9114  1.8180
 8354SOL     OW36523   3.315   3.659   2.197 -0.5662 -0.4869  0.4684
 8354SOL    HW136524   3.399   3.702   2.211 -0.1111 -1.4192  0.6033
 8354SOL    HW236525   3.248   3.728   2.197  1.0427  1.0429  3.9221
 8355SOL     OW36526   2.187   1.670   5.419 -0.7298 -0.3325  0.3134
 8355SOL    HW136527   2.104   1.629   5.442 -0.9243  0.8377  1.6729
 8355SOL    HW236528   2.249   1.627   5.478 -2.4022 -0.2750  2.1254
 8356SOL     OW36529   3.330   2.674   7.007 -0.6436  0.1887  0.4154
 8356SOL    HW136530   3.402   2.693   6.948  0.5474 -1.0576  1.4475
 8356SOL    HW236531   3.354   2.596   7.058  0.4000  1.1975  1.4825
 8357SOL     OW36532   3.647   4.059  17.412 -0.4678 -0.1476 -0.6211
 8357SOL    HW136533   3.557   4.092  17.404  0.6006  3.8012  3.3411
 8357SOL    HW236534   3.661   4.039  17.320  2.5559 -0.0740 -0.1729
 8358SOL     OW36535   3.928   2.708   7.384 -0.1774  0.1458 -0.3765
 8358SOL    HW136536   4.005   2.703   7.327 -0.2331  0.9348 -0.5150
 8358SOL    HW236537   3.865   2.742   7.320  1.1069  3.5741  0.2042
 8359SOL     OW36538   1.464   2.193   1.696 -0.2883  0.0263 -0.0066
 8359SOL    HW136539   1.434   2.118   1.645 -1.4551  0.9551 -0.6593
 8359SOL    HW236540   1.500   2.250   1.628  1.2662 -0.9252  0.0138
 8360SOL     OW36541   3.719   0.026   4.455 -0.1401 -0.1537 -0.1136
 8360SOL    HW136542   3.759   4.678   4.500  0.3896  0.1095 -0.1612
 8360SOL    HW236543   3.785   0.047   4.389  0.0325 -0.4955 -0.0509
 8361SOL     OW36544   2.356   0.384  15.125  0.5112  0.1601 -0.2889
 8361SOL    HW136545   2.357   0.462  15.181 -1.8451  1.8371 -2.5783
 8361SOL    HW236546   2.343   0.425  15.040  1.9166 -1.1985 -1.1515
 8362SOL     OW36547   3.394   2.009   7.970  0.4264  0.0766  0.4208
 8362SOL    HW136548   3.469   2.068   7.981  0.2882  0.6644 -1.6271
 8362SOL    HW236549   3.423   1.953   7.898 -1.0271  0.8109 -0.7388
 8363SOL     OW36550   2.939   0.524   9.303  0.7434  0.2564  0.3459
 8363SOL    HW136551   2.997   0.569   9.365  1.8104 -1.7496  0.8146
 8363SOL    HW236552   2.891   0.469   9.365  0.8165 -0.0674  0.1144
 8364SOL     OW36553   3.394   0.107  16.656 -0.5069  0.3771  0.2155
 8364SOL    HW136554   3.375   0.058  16.736  1.1253 -1.9745 -0.8608
 8364SOL    HW236555   3.487   0.086  16.649 -1.2213 -2.4934 -0.4878
 8365SOL     OW36556   2.532   4.380  12.740  0.0422 -0.3783  0.7307
 8365SOL    HW136557   2.615   4.339  12.714 -0.3607  0.1359 -1.2883
 8365SOL    HW236558   2.530   4.445  12.671  0.0067 -2.2056 -0.9902
 8366SOL     OW36559   3.155   0.578   0.407  0.1204  0.0203  0.0983
 8366SOL    HW136560   3.225   0.526   0.368 -0.2957 -0.5187  0.0623
 8366SOL    HW236561   3.140   0.542   0.495 -1.6563  0.2879 -0.0937
 8367SOL     OW36562   4.383   0.611   2.506  0.1923  0.1809  0.3309
 8367SOL    HW136563   4.367   0.595   2.413  0.1577  0.3465  0.3092
 8367SOL    HW236564   4.475   0.587   2.506 -0.6389 -2.9075 -2.7684
 8368SOL     OW36565   1.833   0.170   7.549 -0.3328  0.2691  0.5585
 8368SOL    HW136566   1.843   0.075   7.554 -1.5313  0.1490  0.8026
 8368SOL    HW236567   1.928   0.178   7.546 -0.6308  3.3019 -0.1998
 8369SOL     OW36568   2.265   1.407   6.649  0.0731 -0.5909  0.0504
 8369SOL    HW136569   2.334   1.399   6.715  0.8129  1.1056 -0.5186
 8369SOL    HW236570   2.188   1.397   6.705  0.2600  1.1156  0.6128
 8370SOL     OW36571   2.242   3.024   2.446 -0.6406 -0.3328  0.1153
 8370SOL    HW136572   2.233   3.011   2.351 -1.1253  1.5055 -0.0813
 8370SOL    HW236573   2.196   3.105   2.464  1.9320  1.3010 -0.5928
 8371SOL     OW36574   3.549   3.427  17.132 -0.1511  0.3995  0.1049
 8371SOL    HW136575   3.518   3.348  17.086  1.8187 -0.5056  0.3404
 8371SOL    HW236576   3.508   3.408  17.216  1.2380 -3.4812 -0.0685
 8372SOL     OW36577   4.134   2.429  17.263 -0.3863  0.0291  0.5275
 8372SOL    HW136578   4.160   2.361  17.201  0.3504  1.8397 -1.1527
 8372SOL    HW236579   4.087   2.384  17.334  2.6522 -0.7054  2.0419
 8373SOL     OW36580   4.378   3.208  15.404 -0.1137  1.2422 -0.3418
 8373SOL    HW136581   4.324   3.235  15.330  0.4469  1.0194 -0.8306
 8373SOL    HW236582   4.395   3.288  15.454  0.3903  0.8039  0.1997
 8374SOL     OW36583   4.615   2.173   2.865 -0.6546  0.0252  0.3385
 8374SOL    HW136584   4.610   2.199   2.957 -0.2879 -1.2698  0.7279
 8374SOL    HW236585   4.576   2.252   2.827 -0.4545  0.0189  0.1148
 8375SOL     OW36586   1.542   3.961   3.876 -0.5599 -0.8738 -0.0696
 8375SOL    HW136587   1.599   3.894   3.838 -0.0818 -0.3687 -0.2450
 8375SOL    HW236588   1.614   4.015   3.908  0.6831 -1.0951 -2.4952
 8376SOL     OW36589   1.184   1.769  14.276  0.1639  0.2391 -0.1965
 8376SOL    HW136590   1.092   1.791  14.289  0.0640  0.4831 -1.3131
 8376SOL    HW236591   1.225   1.845  14.317 -1.3712  2.0073 -1.9292
 8377SOL     OW36592   3.082   3.987  12.291  0.9839 -0.0621  0.0495
 8377SOL    HW136593   3.078   3.923  12.220 -1.8278 -1.8077  1.7888
 8377SOL    HW236594   3.075   3.932  12.368 -0.6365  1.1027  0.7438
 8378SOL     OW36595   0.261   2.134   4.047 -0.8333 -0.0103  0.2032
 8378SOL    HW136596   0.193   2.067   4.041 -0.7400 -0.1842  1.1415
 8378SOL    HW236597   0.210   2.215   4.051  0.8799  1.2099 -2.6327
 8379SOL     OW36598   1.474   2.409   6.808 -0.0022  0.0567  0.2267
 8379SOL    HW136599   1.563   2.373   6.802  0.2787  0.3899  2.1832
 8379SOL    HW236600   1.446   2.411   6.717  0.9043  1.4934 -0.0137
 8380SOL     OW36601   0.793   2.350   5.387 -0.2227 -0.1599  0.1444
 8380SOL    HW136602   0.781   2.425   5.328 -2.9035 -0.5664  0.1896
 8380SOL    HW236603   0.799   2.386   5.475 -0.5668  3.1818 -1.1842
 8381SOL     OW36604   2.759   1.456   4.944  0.4263  0.7714  0.5076
 8381SOL    HW136605   2.843   1.434   4.984  0.2845 -0.2630  0.2326
 8381SOL    HW236606   2.769   1.546   4.914  0.2729  1.0202  1.1984
 8382SOL     OW36607   4.165   2.790   0.698  0.7707 -0.4830 -0.5029
 8382SOL    HW136608   4.087   2.805   0.644  2.2397 -1.7992 -3.0031
 8382SOL    HW236609   4.203   2.878   0.700 -1.5676  0.5941 -3.5088
 8383SOL     OW36610   2.068   4.063   1.768 -0.2262 -0.2870 -0.4926
 8383SOL    HW136611   2.043   3.982   1.812 -0.8538  0.1675  0.0019
 8383SOL    HW236612   1.994   4.076   1.708 -1.9344  1.0291  1.8694
 8384SOL     OW36613   2.640   1.236  11.131 -0.2102  0.3098 -0.0001
 8384SOL    HW136614   2.633   1.319  11.178  1.1243  1.5572 -1.9873
 8384SOL    HW236615   2.547   1.217  11.120 -0.4511  0.0735  2.4981
 8385SOL     OW36616   4.010   2.598   8.686 -0.1458 -0.4027  0.2558
 8385SOL    HW136617   3.990   2.561   8.772  1.5165  0.6593  1.1045
 8385SOL    HW236618   4.042   2.687   8.706  1.4327 -0.6729 -1.0684
 8386SOL     OW36619   0.776   1.705   0.425  0.5656 -0.3229  0.2765
 8386SOL    HW136620   0.808   1.701   0.334  1.2749 -1.9239  0.5936
 8386SOL    HW236621   0.790   1.798   0.444 -0.8782 -0.0486 -0.0076
 8387SOL     OW36622   2.010   3.672  15.732 -0.1863 -0.4152 -0.4735
 8387SOL    HW136623   2.085   3.616  15.751  0.0105  0.6928  1.9524
 8387SOL    HW236624   2.030   3.748  15.787  2.3895 -0.8089 -0.8855
 8388SOL     OW36625   2.749   0.326   0.234 -0.3726 -0.4669  0.0708
 8388SOL    HW136626   2.770   0.411   0.274 -0.7244  0.3870 -1.5312
 8388SOL    HW236627   2.655   0.343   0.231 -0.1775  0.4063 -1.1424
 8389SOL     OW36628   1.866   1.670   2.978  0.0719  0.2313  0.7178
 8389SOL    HW136629   1.826   1.583   2.973  2.2079 -0.6054 -1.5170
 8389SOL    HW236630   1.855   1.700   2.888 -0.2546  0.4585  0.8349
 8390SOL     OW36631   2.206   4.617   9.287  0.0005  0.2143 -0.1986
 8390SOL    HW136632   2.198   4.675   9.363 -0.7549 -0.1718  0.0159
 8390SOL    HW236633   2.271   4.552   9.315 -0.6823 -0.2330  0.3603
 8391SOL     OW36634   2.114   2.433   7.889  0.1212 -0.1132  0.1957
 8391SOL    HW136635   2.189   2.420   7.831 -1.4347 -1.9437 -1.3969
 8391SOL    HW236636   2.126   2.525   7.914  1.5291  0.2433 -1.8186
 8392SOL     OW36637   4.180   2.231   1.798  0.0475 -0.5699 -0.3574
 8392SOL    HW136638   4.190   2.256   1.707 -0.8388  1.8853  0.2175
 8392SOL    HW236639   4.099   2.277   1.821  1.7041  2.4924 -0.6631
 8393SOL     OW36640   0.772   1.472  11.325  0.2875  0.3836 -0.5831
 8393SOL    HW136641   0.695   1.471  11.268 -1.3227 -2.8882  1.6208
 8393SOL    HW236642   0.796   1.563  11.307  2.0839 -0.5153 -2.7237
 8394SOL     OW36643   2.501   1.172   6.482 -0.1466  0.9778  0.1279
 8394SOL    HW136644   2.440   1.106   6.449 -0.0963 -0.7748  3.5046
 8394SOL    HW236645   2.583   1.138   6.445 -0.2945  1.8406 -0.9752
 8395SOL     OW36646   3.208   2.290   6.089 -0.5071 -0.3024  0.2808
 8395SOL    HW136647   3.147   2.275   6.017 -0.6009  0.1230  0.2660
 8395SOL    HW236648   3.291   2.267   6.048 -0.8171 -0.7897 -0.0702
 8396SOL     OW36649   3.202   4.046   1.334 -0.0697 -0.3339  0.4295
 8396SOL    HW136650   3.281   4.084   1.295  0.0664 -0.0701  0.9720
 8396SOL    HW236651   3.240   4.028   1.420 -0.0253  1.4957  0.7921
 8397SOL     OW36652   2.183   1.667   8.558 -0.2145 -0.6455  0.0868
 8397SOL    HW136653   2.185   1.574   8.581 -0.7553 -0.2367  1.7533
 8397SOL    HW236654   2.097   1.673   8.517 -0.3084 -3.5388 -0.1335
 8398SOL     OW36655   4.484   3.528  16.474 -0.7134  0.0523 -0.1804
 8398SOL    HW136656   4.490   3.576  16.391 -1.0709  0.5376  0.0741
 8398SOL    HW236657   4.568   3.482  16.479 -1.3516 -1.2105 -1.1636
 8399SOL     OW36658   1.954   4.481   4.891  0.3298  0.1315 -0.5087
 8399SOL    HW136659   2.009   4.445   4.821  0.9337  0.9386 -0.4450
 8399SOL    HW236660   2.011   4.471   4.967  0.3374  2.3558 -0.2245
 8400SOL     OW36661   0.354   2.176   9.060  0.2944 -0.2943 -0.7521
 8400SOL    HW136662   0.431   2.163   9.116 -0.9118 -2.2709  0.4722
 8400SOL    HW236663   0.290   2.145   9.125 -1.9670  1.1467 -2.3016
 8401SOL     OW36664   0.875   3.334   6.380  0.6202  0.7364 -0.2092
 8401SOL    HW136665   0.823   3.380   6.447  1.5045 -0.9657  1.6535
 8401SOL    HW236666   0.952   3.324   6.436 -1.2934  0.6576  2.4690
 8402SOL     OW36667   0.801   2.985   6.066 -0.1877  0.2452  0.4216
 8402SOL    HW136668   0.839   3.071   6.048 -0.3011  0.1125 -0.4689
 8402SOL    HW236669   0.760   2.959   5.983  1.6573  1.1906 -0.7782
 8403SOL     OW36670   1.914   3.416   1.949  0.3499 -0.8264 -0.4183
 8403SOL    HW136671   1.996   3.465   1.960 -0.9209  0.7402  2.0697
 8403SOL    HW236672   1.854   3.460   2.009  0.5105 -2.4137  0.8916
 8404SOL     OW36673   2.635   1.328  15.406 -0.0723  0.1708 -0.5269
 8404SOL    HW136674   2.584   1.401  15.372 -0.2353  0.4875  0.3831
 8404SOL    HW236675   2.598   1.331  15.495 -1.1244  1.7348 -1.0083
 8405SOL     OW36676   4.253   1.529  16.444  0.1450  0.0763 -0.3992
 8405SOL    HW136677   4.348   1.523  16.437  0.0806 -0.8721 -0.4204
 8405SOL    HW236678   4.242   1.479  16.525 -2.3339  1.6865  0.2465
 8406SOL     OW36679   3.395   1.796   6.485 -0.8447  0.2851 -0.3245
 8406SOL    HW136680   3.403   1.882   6.527 -2.9717  1.9206 -3.2497
 8406SOL    HW236681   3.488   1.784   6.465  0.0338  1.8079  2.8044
 8407SOL     OW36682   2.166   2.101   7.774  0.0991 -0.0035  0.5403
 8407SOL    HW136683   2.161   2.011   7.741  0.9207  0.6205 -1.3395
 8407SOL    HW236684   2.260   2.121   7.774  0.2042 -0.4869 -0.7056
 8408SOL     OW36685   1.500   4.346   4.620 -0.4084 -0.5484 -0.2748
 8408SOL    HW136686   1.481   4.295   4.540 -1.1680  0.0325 -0.4659
 8408SOL    HW236687   1.414   4.374   4.653  0.0936 -0.2561  0.7813
 8409SOL     OW36688   3.033   4.276  12.017 -0.1343  0.3060 -0.0543
 8409SOL    HW136689   3.000   4.318  12.096 -3.3715 -1.4087 -0.4792
 8409SOL    HW236690   3.115   4.252  12.060 -0.6475  1.3052  1.4763
 8410SOL     OW36691   3.251   1.936   7.638  0.2893  0.1531  0.5843
 8410SOL    HW136692   3.272   2.027   7.619 -2.8628  0.7867  0.1988
 8410SOL    HW236693   3.318   1.909   7.701 -0.6044  0.3832  1.6322
 8411SOL     OW36694   1.387   3.804   5.419  0.5686 -0.1090 -0.3380
 8411SOL    HW136695   1.380   3.815   5.514  0.9510 -2.2391 -0.0654
 8411SOL    HW236696   1.430   3.718   5.420  1.6538  0.4108 -2.1711
 8412SOL     OW36697   1.144   2.960   7.667  0.0716  0.3193  0.7008
 8412SOL    HW136698   1.231   2.998   7.683 -0.0054  0.2722  1.2398
 8412SOL    HW236699   1.139   2.893   7.735  1.6760  2.3436  2.8261
 8413SOL     OW36700   3.499   3.146  15.339 -0.3238 -0.1646 -0.1549
 8413SOL    HW136701   3.569   3.173  15.399 -0.0123 -1.0113 -0.1295
 8413SOL    HW236702   3.477   3.219  15.282  0.9738 -1.1068 -1.8636
 8414SOL     OW36703   3.970   2.699   4.358 -0.2117  0.6579 -0.6918
 8414SOL    HW136704   4.005   2.779   4.397 -1.4961  0.6394  0.4987
 8414SOL    HW236705   4.018   2.638   4.415  0.0857  1.1294 -0.4375
 8415SOL     OW36706   4.134   2.711   1.712 -0.1565  0.3441 -0.0068
 8415SOL    HW136707   4.137   2.751   1.625 -0.1313  1.2239  0.3984
 8415SOL    HW236708   4.119   2.621   1.685  0.9147  0.0518  0.3818
 8416SOL     OW36709   3.899   1.547   1.158 -0.1597  0.1164  0.1405
 8416SOL    HW136710   3.850   1.628   1.167 -1.1746 -0.6461  1.5397
 8416SOL    HW236711   3.833   1.480   1.175  0.8144 -0.7804  0.4532
 8417SOL     OW36712   1.152   0.956  17.535  0.4753 -0.5346  0.2764
 8417SOL    HW136713   1.111   0.973  17.619 -1.6347 -1.8299 -0.4869
 8417SOL    HW236714   1.093   0.886  17.506  0.3059  0.6099 -2.0868
 8418SOL     OW36715   0.199   2.314   0.414 -0.0635  0.1002 -0.1794
 8418SOL    HW136716   0.201   2.365   0.495  0.7800 -0.5902  0.2469
 8418SOL    HW236717   0.260   2.359   0.356 -0.2571  2.1420  1.1971
 8419SOL     OW36718   3.172   3.929   6.892  0.3647 -0.2867  0.0085
 8419SOL    HW136719   3.102   3.990   6.913  1.3576 -0.3880  3.6440
 8419SOL    HW236720   3.130   3.845   6.912  0.2689 -0.4806 -1.0310
 8420SOL     OW36721   4.572   3.340   5.239 -0.4077 -0.2519  0.0640
 8420SOL    HW136722   4.602   3.284   5.310  1.1038  0.7421  0.2129
 8420SOL    HW236723   4.481   3.313   5.236  0.2985 -2.6469  0.3317
 8421SOL     OW36724   0.504   1.438   4.478  0.1248  0.4039 -0.2838
 8421SOL    HW136725   0.594   1.469   4.486  0.6191 -0.9335 -0.6602
 8421SOL    HW236726   0.514   1.352   4.518 -1.4479  0.5733  0.4783
 8422SOL     OW36727   3.190   3.620   0.917 -0.7975 -0.3572  0.2738
 8422SOL    HW136728   3.121   3.641   0.980 -1.5495  1.3844 -1.1290
 8422SOL    HW236729   3.147   3.544   0.878 -2.3169  0.6736 -0.0241
 8423SOL     OW36730   2.497   4.018   4.222  0.6705 -0.2047  0.4049
 8423SOL    HW136731   2.512   3.945   4.162 -0.5829 -0.2211  0.1216
 8423SOL    HW236732   2.456   3.968   4.293  1.7244  0.7202  1.6585
 8424SOL     OW36733   2.614   4.406  17.335  0.4642  0.1193  0.2951
 8424SOL    HW136734   2.568   4.420  17.252 -2.5691  0.0396  1.9442
 8424SOL    HW236735   2.704   4.411  17.304  0.5102 -2.1052  0.0354
 8425SOL     OW36736   2.432   3.577  10.873 -0.4242 -0.1775 -0.8292
 8425SOL    HW136737   2.418   3.582  10.967  1.5159  3.9678 -0.7884
 8425SOL    HW236738   2.346   3.608  10.846 -0.9729 -0.8057  0.1993
 8426SOL     OW36739   0.064   0.165  15.661 -0.1471  0.5037  0.7182
 8426SOL    HW136740   0.095   0.244  15.705 -0.0918 -0.0163  1.6257
 8426SOL    HW236741   0.001   0.123  15.720 -1.3478  2.4407  0.8097
 8427SOL     OW36742   1.721   0.319   8.205  0.5208  0.4913  0.7645
 8427SOL    HW136743   1.641   0.274   8.231 -0.2364  2.2044  1.4344
 8427SOL    HW236744   1.699   0.404   8.245  0.7152 -0.2533  2.4526
 8428SOL     OW36745   0.532   4.061   5.244 -0.5711 -0.3550  0.4429
 8428SOL    HW136746   0.505   4.006   5.169  0.0719 -0.1714  0.0748
 8428SOL    HW236747   0.450   4.068   5.291 -0.8897  1.1517 -0.3420
 8429SOL     OW36748   3.010   3.334  10.457 -0.5639  0.0363 -0.3574
 8429SOL    HW136749   3.034   3.249  10.420 -1.1960 -0.8199  1.1838
 8429SOL    HW236750   3.064   3.342  10.536  0.9823 -1.0772 -1.2995
 8430SOL     OW36751   1.712   2.016   6.762 -0.2532  0.1903  0.1935
 8430SOL    HW136752   1.768   2.030   6.686  4.0218  1.1588  3.4852
 8430SOL    HW236753   1.735   1.925   6.780 -1.6035  0.0426  1.1489
 8431SOL     OW36754   4.714   3.497   7.422  0.4867 -0.3521 -0.3793
 8431SOL    HW136755   4.699   3.405   7.404  0.7602 -0.8223  1.8763
 8431SOL    HW236756   0.057   3.518   7.359  1.1669  0.9863  0.8109
 8432SOL     OW36757   4.297   4.303   1.150  0.5341 -0.0546  0.0796
 8432SOL    HW136758   4.219   4.280   1.099  1.2620  0.9498 -1.4771
 8432SOL    HW236759   4.286   4.249   1.229  0.4165  0.1802  0.2265
 8433SOL     OW36760   0.908   4.507   1.609  0.2274 -0.5346 -0.2945
 8433SOL    HW136761   0.907   4.532   1.702  2.2775 -0.5629 -0.2729
 8433SOL    HW236762   0.874   4.418   1.618  1.5989 -1.1173 -1.0019
 8434SOL     OW36763   1.250   4.577   8.937 -0.1196 -0.3701 -0.4042
 8434SOL    HW136764   1.174   4.519   8.949  0.0529 -0.5385 -0.1354
 8434SOL    HW236765   1.220   4.650   8.882  2.5615  2.6706  2.2193
 8435SOL     OW36766   2.261   0.260   3.383  0.0524  0.4802  0.6127
 8435SOL    HW136767   2.194   0.270   3.316  0.4376  0.5726  0.2418
 8435SOL    HW236768   2.336   0.302   3.341  1.5108 -1.5706  1.1499
 8436SOL     OW36769   0.856   1.580   6.617 -0.2556 -0.2078  0.2821
 8436SOL    HW136770   0.766   1.562   6.645  0.7391 -1.9556  2.4188
 8436SOL    HW236771   0.884   1.489   6.625 -1.5723 -0.6298  0.0118
 8437SOL     OW36772   2.755   3.440   2.478 -0.3061  0.0378  0.2211
 8437SOL    HW136773   2.831   3.416   2.531 -0.3162  0.0980  0.2634
 8437SOL    HW236774   2.721   3.351   2.466  2.3783 -1.0430  0.7998
 8438SOL     OW36775   0.108   1.627   5.681 -0.1047 -0.4936  0.2061
 8438SOL    HW136776   0.174   1.563   5.655  0.4724 -0.2946  1.1725
 8438SOL    HW236777   0.162   1.690   5.730  1.0710 -0.7751 -0.7152
 8439SOL     OW36778   3.663   3.108   5.160  0.5950  0.5418 -0.4912
 8439SOL    HW136779   3.568   3.102   5.148  0.2505  2.1458  1.4064
 8439SOL    HW236780   3.670   3.179   5.223 -0.7163  0.7291 -0.5481
 8440SOL     OW36781   3.090   3.472  15.908  0.2812  0.1942 -0.1579
 8440SOL    HW136782   3.104   3.455  16.001 -0.6082 -0.5173 -0.1553
 8440SOL    HW236783   3.176   3.504  15.882  0.4116 -0.6841 -0.8057
 8441SOL     OW36784   2.817   3.747  13.782 -0.1789  0.2343 -0.7657
 8441SOL    HW136785   2.797   3.748  13.689  0.4128  0.9957 -0.8919
 8441SOL    HW236786   2.752   3.807  13.819 -0.5045 -0.2127 -0.6115
 8442SOL     OW36787   2.544   3.354   6.422 -0.0310  0.0244 -0.1850
 8442SOL    HW136788   2.573   3.417   6.356  2.5008 -0.8438  0.0835
 8442SOL    HW236789   2.566   3.279   6.368  0.0244  0.9071 -1.3790
 8443SOL     OW36790   3.358   2.111   6.668  0.2137  0.0882 -0.1777
 8443SOL    HW136791   3.402   2.087   6.750  1.0119 -3.1801 -1.5914
 8443SOL    HW236792   3.401   2.191   6.637 -1.8047  1.1144 -0.3336
 8444SOL     OW36793   3.039   3.994   5.513  0.1138  0.3597 -0.3933
 8444SOL    HW136794   3.070   4.023   5.427 -0.1888 -0.4071 -0.7614
 8444SOL    HW236795   3.079   4.056   5.573 -0.8563  0.6101 -0.0188
 8445SOL     OW36796   1.566   0.648   2.214  0.5252  0.2906  0.4919
 8445SOL    HW136797   1.619   0.688   2.145 -1.5759 -0.9650 -1.8777
 8445SOL    HW236798   1.614   0.677   2.291  0.6089 -2.8094  1.6051
 8446SOL     OW36799   1.549   3.176  17.497 -0.1587 -0.2433 -0.0961
 8446SOL    HW136800   1.542   3.263  17.535  1.6109 -0.7877  1.4892
 8446SOL    HW236801   1.580   3.130  17.575  1.7822 -0.7056 -1.1350
 8447SOL     OW36802   4.701   2.853   4.687 -0.1630  0.1005 -0.2560
 8447SOL    HW136803   0.054   2.862   4.633 -0.0779 -3.5775 -0.7777
 8447SOL    HW236804   4.680   2.942   4.713  1.6499  0.6463 -0.6557
 8448SOL     OW36805   2.104   1.023   8.065 -0.6129  0.3649  0.6003
 8448SOL    HW136806   2.184   1.032   8.117 -0.1796  1.8983 -0.3192
 8448SOL    HW236807   2.132   0.942   8.021  0.5180  1.5210 -0.8075
 8449SOL     OW36808   2.950   1.286   8.497  0.1018 -0.2249  0.6254
 8449SOL    HW136809   2.931   1.290   8.590 -0.0305  2.3546  0.4848
 8449SOL    HW236810   2.978   1.375   8.475 -1.3419  0.3957  1.2611
 8450SOL     OW36811   1.089   2.886   1.419 -0.0304 -0.3277 -0.2262
 8450SOL    HW136812   1.051   2.798   1.408  0.6487 -0.6881  0.3178
 8450SOL    HW236813   1.041   2.930   1.349  0.3050 -0.7262 -0.7135
 8451SOL     OW36814   3.032   1.148   6.399 -0.4524  0.1903 -0.0534
 8451SOL    HW136815   3.000   1.064   6.433  0.4944  0.8240  2.3927
 8451SOL    HW236816   2.985   1.131   6.317  0.1866 -0.0806 -0.3671
 8452SOL     OW36817   3.628   0.980  11.557  0.2604 -0.3302 -0.5383
 8452SOL    HW136818   3.652   0.924  11.483  0.3632  2.7631 -2.8638
 8452SOL    HW236819   3.697   1.047  11.555 -2.0738  2.1197  1.5223
 8453SOL     OW36820   3.853   3.072   4.446  0.5694  0.2657  0.2407
 8453SOL    HW136821   3.765   3.034   4.436  0.2915  1.2592 -1.0573
 8453SOL    HW236822   3.834   3.129   4.520 -0.2162 -0.3754  0.5346
 8454SOL     OW36823   4.467   2.065   3.177 -0.3457  0.0835 -0.5008
 8454SOL    HW136824   4.384   2.095   3.213  0.4276  1.2784  0.2620
 8454SOL    HW236825   4.503   2.151   3.158  1.2138 -1.2874 -3.7667
 8455SOL     OW36826   0.948   0.174   4.920  0.6570  0.9884 -0.2776
 8455SOL    HW136827   0.916   0.142   4.836  2.1170 -0.7472 -0.1671
 8455SOL    HW236828   0.894   0.252   4.936 -0.1418  0.4301 -0.2688
 8456SOL     OW36829   1.998   2.954   9.999 -0.1944  0.0936 -0.0319
 8456SOL    HW136830   1.935   2.928   9.931 -1.9170 -2.7624  2.6523
 8456SOL    HW236831   1.952   2.915  10.074 -1.3767 -0.1067 -0.8507
 8457SOL     OW36832   0.885   0.299   3.263  0.4641 -0.0906  0.6697
 8457SOL    HW136833   0.950   0.279   3.196  0.6937 -0.5493  1.0199
 8457SOL    HW236834   0.806   0.280   3.212  0.0343 -0.5983  1.5160
 8458SOL     OW36835   0.009   0.250   7.892  0.1642 -0.1186  0.4107
 8458SOL    HW136836   4.709   0.340   7.872  1.2185  0.7094  2.8075
 8458SOL    HW236837   4.683   0.240   7.972 -1.1989  0.4173 -0.4100
 8459SOL     OW36838   0.375   4.659   7.785  0.1379  0.0686  0.8821
 8459SOL    HW136839   0.398   0.011   7.735  0.8767 -0.4112  0.4675
 8459SOL    HW236840   0.290   4.686   7.818 -0.4221  0.2591 -0.7360
 8460SOL     OW36841   1.201   2.478  13.502  0.0620 -0.1314  0.5186
 8460SOL    HW136842   1.236   2.410  13.444  0.6776  1.1016 -0.5361
 8460SOL    HW236843   1.137   2.440  13.563 -1.2461 -1.4252 -1.6556
 8461SOL     OW36844   1.693   1.751  14.145  0.1625 -0.2209 -0.6139
 8461SOL    HW136845   1.617   1.765  14.088 -1.1340  0.0776  1.1902
 8461SOL    HW236846   1.693   1.656  14.151  1.3594 -0.0228  2.5326
 8462SOL     OW36847   4.641   2.842   2.273 -0.2159  0.3997 -0.2113
 8462SOL    HW136848   4.557   2.874   2.241  0.4897  1.2365 -1.2021
 8462SOL    HW236849   4.703   2.883   2.213 -1.4976 -0.4567 -2.0976
 8463SOL     OW36850   0.343   3.124   8.023 -0.6551 -0.1267  0.4611
 8463SOL    HW136851   0.283   3.164   8.085 -0.9288 -0.5469  0.4690
 8463SOL    HW236852   0.303   3.037   8.013 -1.3545  0.2944 -0.4131
 8464SOL     OW36853   2.286   3.620   7.427 -0.4996 -0.4898 -0.5696
 8464SOL    HW136854   2.269   3.670   7.347 -0.3084  0.8046  0.1906
 8464SOL    HW236855   2.280   3.527   7.407  1.6251 -1.2041  2.1451
 8465SOL     OW36856   0.399   3.413   2.824  0.0206 -0.0887 -0.1577
 8465SOL    HW136857   0.435   3.476   2.887 -1.8303 -0.7990  1.6036
 8465SOL    HW236858   0.395   3.332   2.875  0.3676 -0.3466 -0.5393
 8466SOL     OW36859   0.327   1.550  14.722  0.6474 -0.0958  0.2697
 8466SOL    HW136860   0.232   1.552  14.733  0.6506 -0.7658  0.4352
 8466SOL    HW236861   0.338   1.493  14.646 -1.1688  0.1682 -0.2046
 8467SOL     OW36862   0.471   3.951   3.457 -0.4141 -0.2443  0.1343
 8467SOL    HW136863   0.527   3.936   3.533  2.1602  0.9957 -1.4902
 8467SOL    HW236864   0.415   3.875   3.445  2.7217 -2.8635  1.8688
 8468SOL     OW36865   0.086   3.484   5.155  0.2521  0.3904  0.1551
 8468SOL    HW136866   0.025   3.433   5.208  0.4882  0.2995  0.3392
 8468SOL    HW236867   0.127   3.424   5.093 -0.0801  0.2231  0.1020
 8469SOL     OW36868   0.016   4.597   5.394  0.3617  0.2651 -0.5509
 8469SOL    HW136869   4.669   4.627   5.339  0.3369  0.2198 -0.5429
 8469SOL    HW236870   0.080   4.668   5.393 -0.3070  0.8828  0.0921
 8470SOL     OW36871   0.779   1.963   2.263 -0.4651  0.2640 -0.3532
 8470SOL    HW136872   0.857   1.936   2.312  0.9430  0.5978 -2.4161
 8470SOL    HW236873   0.719   1.891   2.281  3.2954 -2.2343  2.1326
 8471SOL     OW36874   4.081   1.826  16.863 -0.9242  0.6031 -0.0635
 8471SOL    HW136875   4.010   1.869  16.816 -1.2025 -0.6208 -0.7792
 8471SOL    HW236876   4.137   1.802  16.789  0.1971 -2.8060  1.9064
 8472SOL     OW36877   2.819   4.365   1.150  0.2308  0.0120  0.2218
 8472SOL    HW136878   2.901   4.328   1.182  0.6643 -0.1207 -1.0288
 8472SOL    HW236879   2.849   4.381   1.060  1.0380  1.3489  0.7337
 8473SOL     OW36880   0.561   0.748  16.704 -0.0014  0.5606 -0.5396
 8473SOL    HW136881   0.576   0.825  16.759  2.1402  0.1924 -0.6273
 8473SOL    HW236882   0.475   0.719  16.735 -0.0075  0.4651 -0.6482
 8474SOL     OW36883   2.813   2.861   7.556 -0.0014 -0.5399  0.4970
 8474SOL    HW136884   2.745   2.804   7.591  0.3125 -2.4103 -1.9161
 8474SOL    HW236885   2.785   2.854   7.464  1.3121 -0.3922  0.0846
 8475SOL     OW36886   3.531   3.091   7.861  0.1404  0.5113 -0.5904
 8475SOL    HW136887   3.460   3.117   7.802  0.8356  0.0144 -1.6412
 8475SOL    HW236888   3.582   3.168   7.837  2.9307 -1.1334 -0.0095
 8476SOL     OW36889   0.740   0.926   0.348  0.0165 -0.7588  0.2086
 8476SOL    HW136890   0.730   0.831   0.353 -0.4437 -0.7766 -0.9999
 8476SOL    HW236891   0.645   0.940   0.341 -0.1898 -1.2361  1.8902
 8477SOL     OW36892   0.322   1.702   2.593 -1.0416  0.4949  0.3610
 8477SOL    HW136893   0.364   1.676   2.674  0.9962  3.0651  0.1220
 8477SOL    HW236894   0.324   1.619   2.543  0.7602 -1.0183  2.9708
 8478SOL     OW36895   0.338   3.991   6.917 -0.0377 -0.0305 -0.4405
 8478SOL    HW136896   0.325   3.902   6.885 -0.4088 -0.0206 -0.3242
 8478SOL    HW236897   0.325   3.971   7.009 -2.2724  1.2532 -0.4614
 8479SOL     OW36898   3.009   3.814   9.145  0.4089 -0.8095 -0.0284
 8479SOL    HW136899   3.074   3.786   9.209  1.0502  3.0173  1.0417
 8479SOL    HW236900   2.965   3.731   9.128  1.7901 -1.1817 -1.7603
 8480SOL     OW36901   0.696   3.327  16.255 -0.1116  0.4107  0.6435
 8480SOL    HW136902   0.629   3.274  16.212  2.1626 -0.8487 -1.3359
 8480SOL    HW236903   0.756   3.347  16.183 -0.4806 -2.1242 -0.3614
 8481SOL     OW36904   3.392   2.326  10.835  0.2124 -0.5715 -0.2578
 8481SOL    HW136905   3.455   2.381  10.881  0.1021 -0.2817 -0.4517
 8481SOL    HW236906   3.348   2.389  10.778  0.9503  0.5163  0.3724
 8482SOL     OW36907   4.296   3.492  11.537 -0.3285  0.7038 -0.3130
 8482SOL    HW136908   4.223   3.545  11.505 -0.5434 -0.3060 -1.4608
 8482SOL    HW236909   4.273   3.403  11.512  0.0038  0.4540  0.2686
 8483SOL     OW36910   2.173   4.028   6.294  0.5771 -0.3151 -0.7789
 8483SOL    HW136911   2.098   4.018   6.236  0.2771 -2.0582 -0.0833
 8483SOL    HW236912   2.176   3.936   6.321  2.0183  0.0444  0.2623
 8484SOL     OW36913   3.105   0.262   9.634 -0.1875 -0.7751  0.6651
 8484SOL    HW136914   3.059   0.336   9.675  3.2545  0.2809  2.6249
 8484SOL    HW236915   3.192   0.297   9.617  0.3142 -1.9667  0.8447
 8485SOL     OW36916   4.176   0.752   4.911 -0.2408  0.0568  0.7471
 8485SOL    HW136917   4.267   0.768   4.935  1.3295 -4.8530 -1.9920
 8485SOL    HW236918   4.129   0.821   4.957  1.4585  1.5047  0.2779
 8486SOL     OW36919   3.579   2.967   2.049  0.5454  0.1961  0.1830
 8486SOL    HW136920   3.643   3.031   2.079  0.7561 -0.5916  1.3992
 8486SOL    HW236921   3.501   3.021   2.059  0.2113  0.0243 -1.4182
 8487SOL     OW36922   1.500   0.901   2.638  0.1571  0.1824 -0.2214
 8487SOL    HW136923   1.417   0.883   2.595  0.6188 -1.2672 -0.5100
 8487SOL    HW236924   1.483   0.979   2.692  1.1471 -0.0268  0.3991
 8488SOL     OW36925   0.312   0.664  16.804 -0.1383  0.4742 -0.0601
 8488SOL    HW136926   0.270   0.623  16.879 -2.2411  2.7550  0.0151
 8488SOL    HW236927   0.241   0.690  16.745  1.3032  1.6956 -1.2675
 8489SOL     OW36928   1.270   1.785   8.010 -0.2769  0.1705  0.2770
 8489SOL    HW136929   1.240   1.865   8.053 -0.4831  0.8351 -1.1087
 8489SOL    HW236930   1.195   1.726   8.005 -0.3806  0.4687 -1.6242
 8490SOL     OW36931   1.340   1.102   8.272 -0.6414  0.5695  0.0642
 8490SOL    HW136932   1.364   1.023   8.225  3.5459  2.0575 -0.3001
 8490SOL    HW236933   1.245   1.087   8.275  0.0306 -4.1240 -1.5418
 8491SOL     OW36934   0.205   0.384  16.915  0.1638  0.3766  0.4058
 8491SOL    HW136935   0.263   0.321  16.957  0.9827  0.1580 -1.0488
 8491SOL    HW236936   0.224   0.379  16.821  2.7409 -0.1333  0.9763
 8492SOL     OW36937   1.982   3.856   3.815 -0.4938 -0.2581  0.2210
 8492SOL    HW136938   1.908   3.907   3.845 -0.3980 -0.1891  0.3390
 8492SOL    HW236939   2.010   3.820   3.899  3.3003  0.4014 -0.7694
 8493SOL     OW36940   3.346   2.912   7.298  0.4289 -0.2889  0.4872
 8493SOL    HW136941   3.285   2.884   7.367 -0.1483  0.7202  0.3845
 8493SOL    HW236942   3.407   2.840   7.279 -1.1937 -1.7486  0.7577
 8494SOL     OW36943   0.777   1.532   4.423 -0.8075  0.2581 -0.2161
 8494SOL    HW136944   0.794   1.607   4.367  1.4534  0.8081  1.1769
 8494SOL    HW236945   0.821   1.462   4.375  1.7916  2.0458 -0.4356
 8495SOL     OW36946   0.065   4.455   7.032 -0.1553  0.7271 -0.0353
 8495SOL    HW136947   0.115   4.499   7.100  1.7061 -2.6625  0.8039
 8495SOL    HW236948   0.141   4.411   6.993 -1.4064 -1.3246 -0.1908
 8496SOL     OW36949   1.985   2.513   2.568  0.2998  0.5278 -0.3155
 8496SOL    HW136950   1.972   2.539   2.659 -2.1395 -0.5903 -0.3472
 8496SOL    HW236951   2.064   2.560   2.542  0.5263 -1.6367 -3.5987
 8497SOL     OW36952   3.610   4.642   6.593  0.2665  0.4404  0.0090
 8497SOL    HW136953   3.580   0.002   6.565 -0.1097  0.4026  0.2837
 8497SOL    HW236954   3.643   4.657   6.681 -0.7889  0.4858  0.3974
 8498SOL     OW36955   2.255   1.491   9.605  0.2246 -0.2425  0.5232
 8498SOL    HW136956   2.263   1.503   9.511 -1.8639  0.8261  0.4606
 8498SOL    HW236957   2.170   1.447   9.605 -0.3113  0.8148 -1.7640
 8499SOL     OW36958   1.955   2.326   7.354 -0.3503 -0.3269 -0.0074
 8499SOL    HW136959   2.040   2.289   7.331  0.9569  1.9548  1.1050
 8499SOL    HW236960   1.940   2.287   7.440 -1.0366 -0.3647 -0.1448
 8500SOL     OW36961   1.328   1.977  13.171  0.1612  0.1114  0.3523
 8500SOL    HW136962   1.279   1.978  13.253 -1.5312  0.8259 -0.6729
 8500SOL    HW236963   1.403   1.930  13.207 -0.8212 -0.5071  1.6123
 8501SOL     OW36964   2.315   4.149   0.638 -0.3610  0.6952  0.8415
 8501SOL    HW136965   2.356   4.177   0.556 -0.7878 -0.1431  0.3388
 8501SOL    HW236966   2.384   4.102   0.685 -0.5560  1.2422  1.6779
 8502SOL     OW36967   0.261   2.566   2.831 -0.8045  0.0136 -0.2571
 8502SOL    HW136968   0.192   2.574   2.765  0.3287  0.6414 -1.3438
 8502SOL    HW236969   0.343   2.560   2.782  1.4299  0.5723  3.4157
 8503SOL     OW36970   1.954   2.810   9.333 -0.2761  0.0531  0.2070
 8503SOL    HW136971   2.011   2.877   9.296  0.4842 -0.1127  1.0666
 8503SOL    HW236972   1.900   2.869   9.386  0.8677  0.9121  0.4114
 8504SOL     OW36973   1.017   4.084   4.195 -0.0972  0.4856  0.3606
 8504SOL    HW136974   0.962   4.067   4.272  0.8058  1.4962  1.2367
 8504SOL    HW236975   1.102   4.098   4.236 -0.4903  2.7044  0.4152
 8505SOL     OW36976   0.632   3.711   4.412 -0.2889 -0.0059 -0.3105
 8505SOL    HW136977   0.673   3.626   4.428  0.4529  0.6575  1.3282
 8505SOL    HW236978   0.682   3.733   4.334  1.9565 -0.5280  0.9753
 8506SOL     OW36979   4.720   2.392   6.470  0.4023 -0.1812  0.0685
 8506SOL    HW136980   0.062   2.345   6.421  0.2921  0.0004 -0.2584
 8506SOL    HW236981   4.649   2.327   6.474  0.4669 -0.2433  0.2044
 8507SOL     OW36982   3.511   0.407   4.274  0.5336  0.3308  0.5235
 8507SOL    HW136983   3.448   0.432   4.206  1.2277  0.8654  0.0651
 8507SOL    HW236984   3.596   0.432   4.237  0.2282  2.1813  1.0496
 8508SOL     OW36985   2.134   1.881   5.564 -0.0842  0.0387  0.4680
 8508SOL    HW136986   2.153   1.810   5.503 -0.2589 -0.7644  1.3513
 8508SOL    HW236987   2.069   1.933   5.516  0.6210  1.2056  0.7717
 8509SOL     OW36988   4.092   3.830  13.035 -0.3672  0.1865 -0.6352
 8509SOL    HW136989   4.171   3.884  13.035  0.0646 -0.4369  0.5853
 8509SOL    HW236990   4.067   3.831  13.127 -0.4119  2.3997 -0.6731
 8510SOL     OW36991   0.613   3.446   6.885 -0.9150 -0.3072  0.0491
 8510SOL    HW136992   0.519   3.450   6.900 -0.7104  0.6977  1.0017
 8510SOL    HW236993   0.612   3.506   6.810 -0.2408  0.2296  0.4719
 8511SOL     OW36994   4.724   4.268   5.043 -0.4095  0.7270  0.4894
 8511SOL    HW136995   4.671   4.194   5.012 -0.8138 -0.1226  3.2384
 8511SOL    HW236996   4.680   4.277   5.127 -0.0041  0.8508  0.6913
 8512SOL     OW36997   1.433   1.887   8.377  0.5031  0.2904  0.3043
 8512SOL    HW136998   1.468   1.918   8.294  1.4916  1.1705  1.0363
 8512SOL    HW236999   1.417   1.968   8.426 -1.2623 -0.6528  1.3112
 8513SOL     OW37000   2.441   2.116   7.698 -0.3366  0.1177  0.5135
 8513SOL    HW137001   2.502   2.160   7.758  0.2237  0.2257 -0.1354
 8513SOL    HW237002   2.506   2.069   7.646 -0.0886 -1.4216  2.2249
 8514SOL     OW37003   3.829   4.355   5.408 -0.5520 -0.7989  0.3135
 8514SOL    HW137004   3.796   4.360   5.318 -0.7012 -0.0032  0.4146
 8514SOL    HW237005   3.909   4.302   5.398 -0.5862 -0.6176 -0.9040
 8515SOL     OW37006   2.189   0.170   6.970  0.2734 -0.1585 -0.0445
 8515SOL    HW137007   2.144   0.254   6.982  0.7015  0.0024  0.4508
 8515SOL    HW237008   2.188   0.146   7.062  0.6592 -0.2342 -0.0598
 8516SOL     OW37009   1.120   2.447   7.010  0.1248 -0.0484  0.4440
 8516SOL    HW137010   1.157   2.482   6.929 -0.8139 -0.9281 -0.3723
 8516SOL    HW237011   1.119   2.356   6.982  1.2232 -0.1558  0.7740
 8517SOL     OW37012   1.447   0.562   3.516  0.3521 -0.1664  0.5229
 8517SOL    HW137013   1.529   0.513   3.522 -0.0133 -1.0301 -1.3116
 8517SOL    HW237014   1.463   0.635   3.575 -1.5840  1.4385 -0.9213
 8518SOL     OW37015   0.547   0.737  16.044  0.0299 -0.4069 -0.5223
 8518SOL    HW137016   0.562   0.643  16.037 -1.3355 -0.8786  3.2694
 8518SOL    HW237017   0.458   0.744  16.077  0.7745 -0.5224  1.4795
 8519SOL     OW37018   2.963   2.367   2.155  0.2002  0.1771  0.2877
 8519SOL    HW137019   2.918   2.284   2.170  1.1703 -0.2424  0.9068
 8519SOL    HW237020   2.885   2.413   2.123  0.7768  0.8997 -0.0988
 8520SOL     OW37021   4.400   2.968   7.921 -0.7021  0.1068 -0.3199
 8520SOL    HW137022   4.459   2.946   7.993  1.1917 -1.2499 -2.2823
 8520SOL    HW237023   4.332   2.900   7.921  0.4234 -1.0448 -1.8624
 8521SOL     OW37024   1.692   3.479   1.787 -0.3958 -0.4122  0.2064
 8521SOL    HW137025   1.667   3.436   1.705  0.7344 -1.5257  0.4392
 8521SOL    HW237026   1.783   3.455   1.808  0.0851  2.3681  1.2719
 8522SOL     OW37027   0.385   1.499   2.392 -0.0605  0.2135  0.1914
 8522SOL    HW137028   0.371   1.405   2.402  0.6788 -0.1443 -2.1375
 8522SOL    HW237029   0.351   1.512   2.304 -0.5632 -0.2144  0.3242
 8523SOL     OW37030   1.458   1.302   8.814 -0.4900 -0.0522  0.2744
 8523SOL    HW137031   1.400   1.373   8.840 -0.6159 -0.3958  0.9388
 8523SOL    HW237032   1.398   1.253   8.757  0.0979 -0.7794  0.2734
 8524SOL     OW37033   3.821   4.470   4.562  0.3358  0.4996  0.0966
 8524SOL    HW137034   3.800   4.424   4.481  0.3853  0.0623  0.3329
 8524SOL    HW237035   3.788   4.400   4.618  1.2284 -0.6639 -0.8367
 8525SOL     OW37036   2.661   0.800   5.190 -0.7058 -0.0531  0.1602
 8525SOL    HW137037   2.611   0.733   5.235 -1.8344 -0.0870 -1.1519
 8525SOL    HW237038   2.654   0.763   5.102  2.4682  2.5233 -1.1818
 8526SOL     OW37039   0.262   0.107   9.462  0.2607 -0.3403  0.9740
 8526SOL    HW137040   0.252   0.189   9.509 -0.0315  0.4606 -0.4752
 8526SOL    HW237041   0.341   0.067   9.499  0.6415 -0.7526 -0.2454
 8527SOL     OW37042   1.797   1.233  15.049 -0.5971  0.0123  0.0495
 8527SOL    HW137043   1.820   1.326  15.046 -0.4964 -0.0268 -0.5230
 8527SOL    HW237044   1.759   1.213  15.134  1.7483 -2.8278  0.4359
 8528SOL     OW37045   4.239   4.045   6.997 -0.1878  0.2860 -0.4611
 8528SOL    HW137046   4.184   3.975   7.033  0.5343 -0.0609 -0.0180
 8528SOL    HW237047   4.173   4.111   6.975  1.3557  2.1584  0.5089
 8529SOL     OW37048   4.092   0.748   0.086 -0.1042 -0.0094 -0.5742
 8529SOL    HW137049   4.052   0.688   0.024  0.6674 -2.0833  0.9307
 8529SOL    HW237050   4.084   0.697   0.167  4.0093 -1.0441 -0.7919
 8530SOL     OW37051   4.651   0.402  16.856 -0.7091 -0.3939  0.5233
 8530SOL    HW137052   0.009   0.363  16.881 -1.3201 -1.9030  0.2522
 8530SOL    HW237053   4.682   0.485  16.822 -3.1008 -0.4337 -1.7905
 8531SOL     OW37054   0.884   3.994  15.753  0.1286  0.8461 -0.1448
 8531SOL    HW137055   0.910   4.053  15.823 -0.6099  1.0636 -0.0581
 8531SOL    HW237056   0.789   3.988  15.765  0.5221 -0.2906  2.2902
 8532SOL     OW37057   1.248   0.674   5.656 -0.2435  0.5930  0.5071
 8532SOL    HW137058   1.208   0.589   5.672  0.2806 -0.0048 -1.4031
 8532SOL    HW237059   1.224   0.723   5.735 -1.6080 -0.3312  0.6568
 8533SOL     OW37060   0.381   1.079   7.389 -0.0662 -0.6027  0.0382
 8533SOL    HW137061   0.311   1.096   7.452 -0.1066 -0.3382 -0.0787
 8533SOL    HW237062   0.391   0.987   7.412  1.8484 -0.9081 -2.0808
 8534SOL     OW37063   2.876   0.065   0.699  0.4472  0.0272  0.0941
 8534SOL    HW137064   2.827   0.023   0.628 -0.2419  1.4891 -0.2962
 8534SOL    HW237065   2.944   0.107   0.646  0.3053 -0.1170 -0.2037
 8535SOL     OW37066   3.378   4.658   3.225  0.0755 -0.4383  0.2508
 8535SOL    HW137067   3.473   4.659   3.235  0.2900 -1.4364 -1.7689
 8535SOL    HW237068   3.352   4.597   3.294  0.8947 -0.6504  0.3661
 8536SOL     OW37069   3.715   0.160   9.377  0.1176  0.1865 -0.3544
 8536SOL    HW137070   3.720   0.089   9.441  0.6047 -0.6923 -1.3869
 8536SOL    HW237071   3.646   0.123   9.323  1.4068  1.7488 -3.0335
 8537SOL     OW37072   2.378   3.026   7.531  0.2103  0.1438 -0.2110
 8537SOL    HW137073   2.349   3.055   7.445  2.1550  0.8074 -0.6512
 8537SOL    HW237074   2.303   3.063   7.577 -0.2571  0.6239 -1.3839
 8538SOL     OW37075   1.728   2.165  17.357  0.4507  0.2314  0.0715
 8538SOL    HW137076   1.801   2.156  17.296  0.2202  0.1015 -0.1866
 8538SOL    HW237077   1.680   2.226  17.301 -0.6983 -0.2285  0.5615
 8539SOL     OW37078   0.413   1.571   4.096 -0.1528  0.5794  0.2920
 8539SOL    HW137079   0.495   1.530   4.122 -0.2774  0.4006  0.3985
 8539SOL    HW237080   0.426   1.576   4.001 -3.2231  1.3161 -0.0922
 8540SOL     OW37081   0.320   4.586   8.875  0.5344  0.2776  0.7416
 8540SOL    HW137082   0.289   4.662   8.925 -1.3532  1.8969 -2.8794
 8540SOL    HW237083   0.411   4.578   8.902  0.5972  1.1692  0.7977
 8541SOL     OW37084   3.811   2.998   8.249  0.1945 -0.2034  0.0250
 8541SOL    HW137085   3.716   2.999   8.258  0.0102 -0.6175 -1.9013
 8541SOL    HW237086   3.834   2.907   8.234  1.0220  0.1007 -0.5569
 8542SOL     OW37087   3.850   3.182   0.614  0.1713 -0.3167  0.3185
 8542SOL    HW137088   3.779   3.246   0.605 -0.3142 -0.9144 -0.1652
 8542SOL    HW237089   3.810   3.115   0.670 -1.0613  0.4709  0.3820
 8543SOL     OW37090   4.015   2.474   2.159 -0.5586  0.0858 -0.2373
 8543SOL    HW137091   4.046   2.529   2.087 -1.4455 -2.1992 -2.3648
 8543SOL    HW237092   3.937   2.524   2.183 -1.1108 -0.6643 -0.4586
 8544SOL     OW37093   0.890   2.838   1.147 -0.5849 -0.1026 -0.8661
 8544SOL    HW137094   0.880   2.744   1.161  0.0186 -0.1704 -0.8817
 8544SOL    HW237095   0.804   2.872   1.171 -0.6854 -0.9521 -0.0271
 8545SOL     OW37096   0.193   3.978   3.985  0.6221  0.4492  0.1039
 8545SOL    HW137097   0.123   3.918   4.009  0.1509  0.1098 -2.1360
 8545SOL    HW237098   0.166   4.050   4.043 -3.9510  0.3278 -1.8521
 8546SOL     OW37099   1.933   3.298  13.936 -0.0778 -0.4150  0.6184
 8546SOL    HW137100   2.008   3.349  13.967  0.4579 -0.0350 -1.2932
 8546SOL    HW237101   1.867   3.317  14.003 -1.0466 -0.4177 -0.3375
 8547SOL     OW37102   4.590   4.507   7.643 -0.4685 -0.0143  0.0313
 8547SOL    HW137103   4.607   4.601   7.634  0.8146 -0.1223  1.3654
 8547SOL    HW237104   4.517   4.490   7.584 -0.5434  2.7045 -0.6700
 8548SOL     OW37105   1.743   0.520   0.401 -0.7347 -0.2929 -0.3451
 8548SOL    HW137106   1.735   0.614   0.420 -2.4531 -0.5615  0.2717
 8548SOL    HW237107   1.808   0.517   0.331  3.2903 -0.8849  3.4080
 8549SOL     OW37108   4.356   1.860   7.916  0.5225  0.2603  0.1328
 8549SOL    HW137109   4.332   1.847   8.008 -0.3976  0.8794 -0.0242
 8549SOL    HW237110   4.443   1.819   7.920  0.0791 -0.3632  3.3186
 8550SOL     OW37111   1.669   2.181   6.403 -0.9102  0.1895 -0.3620
 8550SOL    HW137112   1.578   2.166   6.429 -1.2335 -0.1148 -1.6862
 8550SOL    HW237113   1.657   2.211   6.313 -0.2732  1.8736  0.1263
 8551SOL     OW37114   0.624   3.385  11.381 -0.9442 -0.0658  0.3120
 8551SOL    HW137115   0.588   3.389  11.469  0.4867  0.2548  0.8895
 8551SOL    HW237116   0.567   3.313  11.355 -0.5323 -0.4899  0.5918
 8552SOL     OW37117   0.681   0.840   5.567 -0.3153 -0.4234 -0.1708
 8552SOL    HW137118   0.727   0.789   5.501  0.5847 -1.0008  0.8837
 8552SOL    HW237119   0.630   0.775   5.616  0.1058 -0.0752  0.7349
 8553SOL     OW37120   3.484   2.862   2.508  0.4074  0.5199  0.1274
 8553SOL    HW137121   3.576   2.882   2.526  0.1920 -1.3298  3.2600
 8553SOL    HW237122   3.445   2.949   2.511 -1.6810 -0.4551  0.7673
 8554SOL     OW37123   3.152   2.488   7.451 -0.5221  0.6248 -0.6290
 8554SOL    HW137124   3.089   2.429   7.495  0.6641 -1.6527 -1.9795
 8554SOL    HW237125   3.107   2.569   7.474 -1.5857 -0.5683  1.5730
 8555SOL     OW37126   4.507   2.518   8.665 -0.1735  0.1915  0.2119
 8555SOL    HW137127   4.473   2.607   8.672 -2.5073 -0.5567 -1.6728
 8555SOL    HW237128   4.576   2.526   8.731 -0.2753 -0.6856  0.4204
 8556SOL     OW37129   4.625   3.687   3.649 -0.4175  0.3902  0.3492
 8556SOL    HW137130   4.698   3.629   3.624 -0.0330  0.9425  0.1733
 8556SOL    HW237131   4.585   3.720   3.568  0.9395 -3.5403 -1.9186
 8557SOL     OW37132   2.386   4.387  15.630  0.8294 -0.4095  0.4538
 8557SOL    HW137133   2.395   4.482  15.636  0.7765 -0.3758 -0.0301
 8557SOL    HW237134   2.432   4.370  15.548  1.2050 -2.5424  1.0986
 8558SOL     OW37135   4.192   3.748   3.882  0.1396  0.2342  0.0371
 8558SOL    HW137136   4.168   3.691   3.809  2.2929  2.0793 -2.1193
 8558SOL    HW237137   4.280   3.718   3.904  0.7102  1.3742 -0.6935
 8559SOL     OW37138   0.861   1.898  14.416  0.5026 -0.3532  0.2073
 8559SOL    HW137139   0.835   1.954  14.343  0.9452 -0.4521 -0.0308
 8559SOL    HW237140   0.916   1.954  14.471  0.5315 -0.9843  0.8160
 8560SOL     OW37141   1.774   0.927   6.263  0.2034 -0.2988  0.2939
 8560SOL    HW137142   1.820   0.843   6.269  1.2359  0.2125 -0.5033
 8560SOL    HW237143   1.851   0.983   6.250  0.0931 -0.6196 -1.7798
 8561SOL     OW37144   3.881   0.780  16.410 -0.6350 -0.0657  0.0284
 8561SOL    HW137145   3.951   0.741  16.464 -1.5400 -0.8126  0.6741
 8561SOL    HW237146   3.880   0.874  16.427  0.3780  0.4969 -3.0555
 8562SOL     OW37147   1.283   2.666   3.838 -0.1991 -0.0080  0.3155
 8562SOL    HW137148   1.327   2.582   3.832 -0.2577 -0.1154  1.3110
 8562SOL    HW237149   1.347   2.702   3.900  0.7483  0.5217 -0.9569
 8563SOL     OW37150   2.644   0.425   1.939  0.1527  0.0302 -0.1554
 8563SOL    HW137151   2.585   0.369   1.990 -0.4598 -0.2148 -1.1267
 8563SOL    HW237152   2.591   0.428   1.859  1.7035 -0.9892 -1.2250
 8564SOL     OW37153   2.658   2.162   1.777 -0.2475  0.1251  1.0210
 8564SOL    HW137154   2.697   2.183   1.692 -2.4469  2.6206  0.6158
 8564SOL    HW237155   2.684   2.071   1.792 -0.3245 -0.3070 -1.5367
 8565SOL     OW37156   2.329   3.838  10.624 -0.3076  0.2430  0.2302
 8565SOL    HW137157   2.298   3.779  10.692  1.7750 -1.2349 -0.1222
 8565SOL    HW237158   2.416   3.848  10.663  0.2929 -1.7687 -0.5914
 8566SOL     OW37159   2.576   0.424   7.065  0.3289  0.1627  0.0288
 8566SOL    HW137160   2.514   0.361   7.028  0.5347  0.0072 -0.0546
 8566SOL    HW237161   2.517   0.486   7.106 -1.3037 -0.9566 -0.6196
 8567SOL     OW37162   1.484   1.008   5.754 -0.1608 -0.0146 -0.1646
 8567SOL    HW137163   1.442   1.036   5.673  0.1691  2.0493  0.3818
 8567SOL    HW237164   1.423   1.038   5.822 -1.2240 -0.9638 -0.6857
 8568SOL     OW37165   2.942   3.010   1.707  0.3378  0.3113 -0.2181
 8568SOL    HW137166   2.977   2.956   1.778 -0.7539  0.8914  0.7423
 8568SOL    HW237167   2.874   2.952   1.674 -1.2551  2.4269 -0.6420
 8569SOL     OW37168   3.445   1.198  13.596  0.5483  0.0884 -0.1068
 8569SOL    HW137169   3.395   1.116  13.594 -1.7120  1.4532  0.2928
 8569SOL    HW237170   3.519   1.180  13.539 -0.0930 -0.1143 -0.8805
 8570SOL     OW37171   3.374   0.246  11.276  0.1083 -0.6646 -0.0813
 8570SOL    HW137172   3.463   0.209  11.281  0.1043 -0.8893 -1.9745
 8570SOL    HW237173   3.373   0.325  11.330  0.9217 -0.5335 -0.2576
 8571SOL     OW37174   4.246   4.232   6.392  0.3622 -0.8330  0.1946
 8571SOL    HW137175   4.276   4.250   6.303  0.7520  1.3682  0.7938
 8571SOL    HW237176   4.256   4.314   6.440  0.9528  0.4811 -2.2228
 8572SOL     OW37177   1.250   1.878   2.890  0.4232 -0.0546 -0.2690
 8572SOL    HW137178   1.311   1.829   2.835 -0.2847  1.9179 -2.7979
 8572SOL    HW237179   1.179   1.889   2.828 -0.9385 -2.8238  0.7590
 8573SOL     OW37180   0.583   3.973   5.635 -0.0501 -0.0523 -0.1192
 8573SOL    HW137181   0.606   3.915   5.708  0.6127 -0.2534 -0.4882
 8573SOL    HW237182   0.487   3.967   5.630  0.0399 -0.8320 -0.9149
 8574SOL     OW37183   2.722   2.147   7.004 -0.3633 -0.3921 -0.3386
 8574SOL    HW137184   2.721   2.052   6.990  0.7577 -0.2004 -1.6633
 8574SOL    HW237185   2.627   2.157   7.002 -0.2231  1.0124  0.3278
 8575SOL     OW37186   2.949   4.663   6.539 -0.2166  0.3073  0.1916
 8575SOL    HW137187   2.860   4.693   6.521 -0.4125  0.9892  2.2519
 8575SOL    HW237188   2.995   4.687   6.459  1.5206 -0.7813  0.8664
 8576SOL     OW37189   1.847   2.388   6.534 -0.6066 -0.0886  0.5547
 8576SOL    HW137190   1.802   2.312   6.498 -3.4372  1.4417  0.8596
 8576SOL    HW237191   1.804   2.455   6.481  2.2379  1.3735  0.0730
 8577SOL     OW37192   1.078   0.630   9.367  0.4837  0.8292  0.0492
 8577SOL    HW137193   1.112   0.718   9.380  0.5962  1.1388 -2.2664
 8577SOL    HW237194   1.023   0.643   9.290  0.0358 -1.1168  0.0399
 8578SOL     OW37195   1.265   1.066   4.782  0.1091 -0.2575 -0.2833
 8578SOL    HW137196   1.231   1.098   4.865 -3.6515 -0.3784 -1.8049
 8578SOL    HW237197   1.311   1.143   4.748  3.7984 -0.8688  3.3436
 8579SOL     OW37198   3.543   2.500   5.196 -0.3583 -0.2190 -0.0557
 8579SOL    HW137199   3.454   2.466   5.197 -0.2825 -0.4443 -0.4333
 8579SOL    HW237200   3.527   2.587   5.232  1.5959  0.5103 -0.9652
 8580SOL     OW37201   3.481   2.754  12.994  0.0254  0.3653 -0.1511
 8580SOL    HW137202   3.426   2.821  12.954 -1.2193 -0.6086 -0.0634
 8580SOL    HW237203   3.564   2.799  13.011 -1.0652  1.0910  3.1317
 8581SOL     OW37204   4.564   3.245  12.375 -0.0335  0.0804 -0.0935
 8581SOL    HW137205   4.622   3.179  12.413  1.1469  0.2143 -1.6494
 8581SOL    HW237206   4.540   3.194  12.298  0.0728 -0.3933  0.1878
 8582SOL     OW37207   2.232   3.854   6.792 -0.1298 -0.6478 -0.2941
 8582SOL    HW137208   2.308   3.799   6.811  0.6840  0.3021 -0.8620
 8582SOL    HW237209   2.166   3.793   6.757  0.7833 -0.7846 -1.7630
 8583SOL     OW37210   4.115   1.841   2.467  0.2343  0.3061  0.3704
 8583SOL    HW137211   4.103   1.849   2.372  1.9232 -0.2981  0.1092
 8583SOL    HW237212   4.048   1.777   2.493 -0.3113  0.9144  0.4516
 8584SOL     OW37213   3.122   3.188   4.752  0.2161  0.0911 -0.4157
 8584SOL    HW137214   3.160   3.243   4.820 -0.0515 -1.3117  0.8653
 8584SOL    HW237215   3.127   3.102   4.794  0.6441  0.4746  0.3183
 8585SOL     OW37216   0.068   1.452  17.184  0.7077 -0.0625  0.7539
 8585SOL    HW137217   0.091   1.542  17.160  2.0501 -0.6121 -0.0242
 8585SOL    HW237218   0.066   1.403  17.102 -1.3232 -1.6544  1.7619
 8586SOL     OW37219   3.579   3.800  14.003 -0.3029 -0.4582 -0.1285
 8586SOL    HW137220   3.572   3.848  13.921  0.8212  1.5865  0.9451
 8586SOL    HW237221   3.575   3.874  14.064 -0.5829 -2.0239  1.7770
 8587SOL     OW37222   4.621   0.396   8.966 -0.0383 -0.6502  0.0192
 8587SOL    HW137223   4.716   0.405   8.978  0.0473 -1.2374 -0.2435
 8587SOL    HW237224   4.579   0.435   9.043  1.6804 -0.9018  1.0837
 8588SOL     OW37225   2.434   3.070  14.965 -0.1945 -0.8212 -0.6481
 8588SOL    HW137226   2.399   3.159  14.966 -0.9163 -1.0695 -2.9942
 8588SOL    HW237227   2.390   3.031  15.041 -1.0969  0.3268 -0.5761
 8589SOL     OW37228   1.317   2.321   2.996 -0.0788 -0.2624 -0.2799
 8589SOL    HW137229   1.328   2.279   2.911  1.3005 -1.8315  0.6659
 8589SOL    HW237230   1.398   2.372   2.999 -0.0992 -0.2488  0.0411
 8590SOL     OW37231   0.145   0.188   0.315 -0.7891  0.0933  0.0081
 8590SOL    HW137232   0.178   0.259   0.370  1.3842 -0.7177 -0.2642
 8590SOL    HW237233   0.050   0.200   0.314 -0.8607 -0.4514  0.6185
 8591SOL     OW37234   3.906   0.760   7.213 -0.6968  0.1712 -0.0251
 8591SOL    HW137235   3.878   0.741   7.123 -0.5582 -2.8775  0.5805
 8591SOL    HW237236   3.904   0.672   7.250  1.5477  0.2296  0.2307
 8592SOL     OW37237   2.206   1.170   8.915  0.1798  0.0775  0.0703
 8592SOL    HW137238   2.266   1.099   8.892  0.2592 -0.0541  0.6917
 8592SOL    HW237239   2.122   1.126   8.904  0.9718 -1.2520 -0.6643
 8593SOL     OW37240   1.589   3.157   4.922 -0.0164 -0.4765 -0.7501
 8593SOL    HW137241   1.654   3.146   4.992  1.9800  0.4245 -2.4454
 8593SOL    HW237242   1.580   3.065   4.896  0.2087 -0.0061 -2.5026
 8594SOL     OW37243   0.113   2.401   5.786  0.5002  0.0046  0.7798
 8594SOL    HW137244   0.037   2.362   5.743 -0.2859  1.4002  0.9015
 8594SOL    HW237245   0.094   2.494   5.795 -1.5144 -0.2999 -0.3110
 8595SOL     OW37246   0.295   4.446   6.615  0.0933 -0.1628  0.4987
 8595SOL    HW137247   0.251   4.529   6.630  0.5105 -0.1072  1.4246
 8595SOL    HW237248   0.377   4.459   6.662  0.3618  0.9051 -0.2695
 8596SOL     OW37249   3.022   0.690   3.384  1.0263 -0.2957  0.3548
 8596SOL    HW137250   3.082   0.654   3.319  1.8830  0.9886  0.4461
 8596SOL    HW237251   3.081   0.730   3.448 -0.0605 -0.3365  1.3855
 8597SOL     OW37252   2.514   1.708  15.327 -0.0012  0.1605  0.4586
 8597SOL    HW137253   2.515   1.680  15.235 -0.6026 -0.5721  0.6713
 8597SOL    HW237254   2.472   1.631  15.365 -2.0151 -0.3681 -2.8661
 8598SOL     OW37255   4.567   0.712   4.752 -0.4262 -0.4850  0.5523
 8598SOL    HW137256   4.586   0.793   4.799 -2.7158  0.6193 -0.4131
 8598SOL    HW237257   4.486   0.734   4.705  1.3325 -1.7348 -3.0556
 8599SOL     OW37258   0.003   2.088   9.256 -0.3636  0.2340 -0.6691
 8599SOL    HW137259   4.694   2.002   9.277 -0.2624  0.3892  0.1670
 8599SOL    HW237260   4.687   2.139   9.325  0.3041 -0.2065  0.0704
 8600SOL     OW37261   3.395   4.248   2.396 -0.4162  0.2950  0.1868
 8600SOL    HW137262   3.488   4.270   2.402 -0.4459  0.0274  1.6540
 8600SOL    HW237263   3.364   4.312   2.332 -1.6766  0.0833  0.5869
 8601SOL     OW37264   3.920   0.974   5.384  0.6275 -0.0637 -0.0306
 8601SOL    HW137265   3.891   0.967   5.293  0.4196 -1.8206  0.1698
 8601SOL    HW237266   3.838   1.013   5.414  0.0818 -1.0825 -0.2126
 8602SOL     OW37267   2.136   2.673   8.215  0.1650 -0.1139  0.4417
 8602SOL    HW137268   2.167   2.685   8.125  1.7078  1.4661  1.1695
 8602SOL    HW237269   2.153   2.580   8.233  0.9354  0.1280  0.9361
 8603SOL     OW37270   4.251   1.952  15.919  0.4037 -0.4634  0.8115
 8603SOL    HW137271   4.291   1.994  15.842  1.4871 -0.3979  1.4119
 8603SOL    HW237272   4.322   1.953  15.984  1.5668 -1.9264 -0.4328
 8604SOL     OW37273   3.691   3.823   9.769 -0.1041  0.3874 -0.5703
 8604SOL    HW137274   3.739   3.906   9.768  1.8201 -0.7343 -2.2303
 8604SOL    HW237275   3.679   3.804   9.676 -2.6275  1.3571 -0.4352
 8605SOL     OW37276   2.464   4.282   6.810  0.2784  0.2296  0.2579
 8605SOL    HW137277   2.443   4.201   6.764  0.2984 -0.3262  1.2170
 8605SOL    HW237278   2.520   4.325   6.745  0.9615 -0.9026  0.1017
 8606SOL     OW37279   1.550   2.808   2.370 -0.1109  0.6722 -0.0517
 8606SOL    HW137280   1.496   2.865   2.315  0.7670  1.4138 -0.1419
 8606SOL    HW237281   1.634   2.853   2.361  1.3539 -1.7859  1.4532
 8607SOL     OW37282   1.324   3.471  14.295 -0.1725 -0.0034 -0.6256
 8607SOL    HW137283   1.384   3.491  14.223  0.3417 -0.3373 -0.2865
 8607SOL    HW237284   1.378   3.496  14.370  0.2723  2.6422 -1.8330
 8608SOL     OW37285   4.192   4.190   6.684  0.1225  0.4921  0.2118
 8608SOL    HW137286   4.285   4.210   6.681  0.1826  0.3586  1.2264
 8608SOL    HW237287   4.149   4.250   6.622  0.6377 -0.9090 -1.5001
 8609SOL     OW37288   0.160   3.423   3.900  0.6175  0.6245 -0.1037
 8609SOL    HW137289   0.172   3.402   3.807  0.6322  0.3013 -0.0285
 8609SOL    HW237290   0.190   3.339   3.934 -0.6310 -0.2481 -1.1371
 8610SOL     OW37291   0.625   2.152   3.211  0.1522  0.5494  0.1952
 8610SOL    HW137292   0.574   2.097   3.271  1.4955 -2.1986 -1.1424
 8610SOL    HW237293   0.682   2.080   3.183 -0.7501  0.0765 -0.3912
 8611SOL     OW37294   1.130   2.363   3.901  0.0951  0.6780 -0.3623
 8611SOL    HW137295   1.067   2.305   3.857  0.4406  0.8198 -1.0395
 8611SOL    HW237296   1.071   2.404   3.964 -0.1728 -0.1586 -0.0622
 8612SOL     OW37297   3.760   1.929   7.887  0.0784 -0.0146  0.1987
 8612SOL    HW137298   3.672   1.907   7.855  0.3377  1.1264 -1.2760
 8612SOL    HW237299   3.786   1.978   7.809 -0.6514 -2.0780 -1.3669
 8613SOL     OW37300   2.629   3.714   1.009 -0.1237  0.1690 -0.0010
 8613SOL    HW137301   2.615   3.620   1.014  1.5996 -0.0181  1.2601
 8613SOL    HW237302   2.573   3.734   0.934 -2.2789  0.5041  1.6611
 8614SOL     OW37303   1.257   2.096   9.532 -0.0843 -0.1536  0.5782
 8614SOL    HW137304   1.273   2.108   9.626  2.9081  0.1925  0.0118
 8614SOL    HW237305   1.340   2.056   9.507  0.8222  0.7502  2.1174
 8615SOL     OW37306   1.953   2.990  15.631  0.0723  0.6075 -0.5225
 8615SOL    HW137307   1.899   2.944  15.695  1.1050  2.0679  1.4185
 8615SOL    HW237308   1.940   2.936  15.553 -0.3752 -0.6028  0.3992
 8616SOL     OW37309   1.687   2.355   0.831 -0.6355 -0.3495  0.1416
 8616SOL    HW137310   1.619   2.357   0.764  0.8442 -1.6548 -1.3816
 8616SOL    HW237311   1.728   2.270   0.818 -0.3651  0.0071 -1.3289
 8617SOL     OW37312   3.248   3.063   2.748 -0.2253 -0.3185  0.0053
 8617SOL    HW137313   3.318   3.117   2.785 -0.5545 -2.1644  3.3389
 8617SOL    HW237314   3.189   3.047   2.822  1.1881 -0.1187  1.1619
 8618SOL     OW37315   4.214   3.240   1.973  0.0158 -0.2056 -0.1568
 8618SOL    HW137316   4.119   3.227   1.965  0.1412 -1.3365  0.2618
 8618SOL    HW237317   4.207   3.304   2.045  2.3520 -1.1402  0.9021
 8619SOL     OW37318   3.983   3.304   0.836 -0.7869 -0.0806  0.0477
 8619SOL    HW137319   4.068   3.274   0.869 -0.1640  1.2094 -0.3523
 8619SOL    HW237320   3.965   3.259   0.754  0.2259 -1.2768  0.4820
 8620SOL     OW37321   1.642   4.041   6.702 -0.5599  1.0107 -0.4159
 8620SOL    HW137322   1.694   4.081   6.771  0.5876 -1.0647 -0.1109
 8620SOL    HW237323   1.573   4.108   6.697  0.6375  2.1535 -1.6727
 8621SOL     OW37324   0.619   1.201   7.906  0.3099  0.1836 -0.2910
 8621SOL    HW137325   0.644   1.164   7.822  0.8230 -2.4274  1.0025
 8621SOL    HW237326   0.638   1.293   7.892  2.2707  0.3098  3.0297
 8622SOL     OW37327   3.158   0.291  15.266  0.3100 -0.6597 -0.0724
 8622SOL    HW137328   3.236   0.332  15.303 -1.3107  0.4173  2.1649
 8622SOL    HW237329   3.175   0.305  15.173  2.2998  0.5247  0.4694
 8623SOL     OW37330   3.749   3.160  17.169  0.3305 -0.3555  0.5595
 8623SOL    HW137331   3.786   3.215  17.238  0.6299 -0.0505  0.1523
 8623SOL    HW237332   3.690   3.105  17.221 -1.6886  0.9315 -0.3414
 8624SOL     OW37333   0.873   4.064  14.911  0.2651 -0.3900 -0.4911
 8624SOL    HW137334   0.921   4.004  14.853  1.0491 -0.1448 -0.0932
 8624SOL    HW237335   0.933   4.135  14.889 -1.6496  1.6601  0.9116
 8625SOL     OW37336   2.693   3.197  14.007  0.0657  0.4005 -0.4186
 8625SOL    HW137337   2.695   3.214  13.913  0.0315  0.4826 -0.4043
 8625SOL    HW237338   2.718   3.104  14.009  0.1190  0.3879 -1.3897
 8626SOL     OW37339   2.605   1.380   6.299  0.0388 -0.2837  0.1816
 8626SOL    HW137340   2.524   1.422   6.271 -0.1919 -0.6825  0.2492
 8626SOL    HW237341   2.576   1.318   6.367 -0.7094  0.8246  0.8794
 8627SOL     OW37342   3.420   2.373   9.085 -0.1047  0.0746  0.2706
 8627SOL    HW137343   3.455   2.350   9.171  1.3153  2.0139  0.1960
 8627SOL    HW237344   3.405   2.467   9.089  1.4325  0.3578 -0.4875
 8628SOL     OW37345   2.933   1.936   2.525 -0.1152  0.3399  0.4700
 8628SOL    HW137346   3.005   1.879   2.551  0.4010 -0.0945 -1.9423
 8628SOL    HW237347   2.873   1.908   2.594  0.8074 -1.6336  0.4578
 8629SOL     OW37348   1.510   3.691   8.488  0.0122  0.5519 -0.2046
 8629SOL    HW137349   1.442   3.757   8.502 -0.7156 -0.5251  1.2581
 8629SOL    HW237350   1.572   3.712   8.558 -1.1963  2.2548  0.3581
 8630SOL     OW37351   1.262   2.021   5.700  0.3329  0.0769  0.2089
 8630SOL    HW137352   1.296   1.963   5.768  1.1227  3.1566  2.4806
 8630SOL    HW237353   1.175   2.044   5.731  1.1026  2.4402  0.6813
 8631SOL     OW37354   3.873   2.299   3.498  0.1859 -0.1020 -0.0639
 8631SOL    HW137355   3.831   2.223   3.539 -1.4819  0.7793 -0.1511
 8631SOL    HW237356   3.941   2.324   3.560 -0.5434 -0.2987  0.8052
 8632SOL     OW37357   0.016   0.312  13.360 -0.5223 -0.4351 -0.6660
 8632SOL    HW137358   0.104   0.316  13.321 -0.6829 -0.4742 -1.0269
 8632SOL    HW237359   0.013   0.351  13.447  0.1958 -1.1749 -0.3084
 8633SOL     OW37360   1.381   1.543   3.483 -0.1831 -0.4605 -0.6239
 8633SOL    HW137361   1.331   1.523   3.562  0.6187 -0.2691 -0.0632
 8633SOL    HW237362   1.330   1.502   3.413 -1.1652  2.3119 -1.5289
 8634SOL     OW37363   2.656   4.249   7.582 -0.0289  0.1338  0.0444
 8634SOL    HW137364   2.698   4.164   7.599 -0.6768  0.2431  2.1706
 8634SOL    HW237365   2.577   4.225   7.533 -1.6317  0.4630  2.4218
 8635SOL     OW37366   2.327   4.211   3.441  0.0062 -0.5908 -0.5300
 8635SOL    HW137367   2.317   4.175   3.353 -2.1437  0.9708 -0.9200
 8635SOL    HW237368   2.418   4.183   3.453  0.0395 -0.0679  0.5095
 8636SOL     OW37369   1.374   1.478  13.441  0.2706 -0.0041 -0.0420
 8636SOL    HW137370   1.368   1.525  13.357 -1.3809 -0.0007  0.0808
 8636SOL    HW237371   1.402   1.393  13.406 -2.4773 -0.5132 -0.9801
 8637SOL     OW37372   3.689   3.109  10.054 -0.4416 -0.6031  0.0302
 8637SOL    HW137373   3.691   3.199  10.021  3.9430 -0.0567  1.8673
 8637SOL    HW237374   3.779   3.082  10.071 -0.7620 -2.1693 -0.7114
 8638SOL     OW37375   2.317   4.135  14.913  0.1436 -0.6322  0.1244
 8638SOL    HW137376   2.352   4.051  14.884  2.5795  0.3434  0.1740
 8638SOL    HW237377   2.318   4.139  15.008 -2.3015  2.3801  0.0062
 8639SOL     OW37378   2.871   4.538   5.594  0.1409  0.1951 -0.0905
 8639SOL    HW137379   2.901   4.551   5.504  1.0958  3.3467  0.6588
 8639SOL    HW237380   2.926   4.466   5.623 -0.9856 -1.1201 -1.2418
 8640SOL     OW37381   1.126   0.608   7.187  0.0981  0.1051  0.8470
 8640SOL    HW137382   1.093   0.550   7.256  0.4590 -2.2431 -0.9559
 8640SOL    HW237383   1.217   0.626   7.210  0.0458  2.4408 -0.7497
 8641SOL     OW37384   0.288   2.003   8.458 -0.0790  0.2487 -0.1474
 8641SOL    HW137385   0.313   1.919   8.420 -2.4915  0.7132 -2.7524
 8641SOL    HW237386   0.351   1.996   8.529  0.3132  0.2277 -0.4959
 8642SOL     OW37387   1.865   2.418   7.740 -0.0311 -0.0650 -0.2373
 8642SOL    HW137388   1.925   2.488   7.712 -1.0245  0.1408 -1.8218
 8642SOL    HW237389   1.877   2.420   7.835 -0.2895  0.2530 -0.2112
 8643SOL     OW37390   2.741   4.117  16.588 -0.0404 -0.4754  0.3953
 8643SOL    HW137391   2.651   4.134  16.616 -0.1707 -2.0312  0.9388
 8643SOL    HW237392   2.761   4.187  16.526 -0.3407  0.0420  0.8904
 8644SOL     OW37393   3.846   0.362  16.208  0.1454  0.3136  0.2680
 8644SOL    HW137394   3.805   0.449  16.202  2.4594  1.2081 -2.7983
 8644SOL    HW237395   3.927   0.395  16.248  0.2997  0.0719  0.1541
 8645SOL     OW37396   0.516   3.518   7.964  0.1311  0.6103 -0.6571
 8645SOL    HW137397   0.596   3.559   7.998  1.3438 -2.6666  0.4441
 8645SOL    HW237398   0.541   3.427   7.977 -1.3747  0.5682  1.8811
 8646SOL     OW37399   3.264   2.753  12.152  0.3075  0.0576  0.6670
 8646SOL    HW137400   3.237   2.756  12.060 -0.2406 -0.2977  0.8148
 8646SOL    HW237401   3.185   2.782  12.198 -0.7530 -0.2816 -0.9155
 8647SOL     OW37402   1.896   3.987  14.588 -0.2712  0.1342  0.1208
 8647SOL    HW137403   1.850   3.923  14.644  1.4438  0.6600  2.1218
 8647SOL    HW237404   1.916   3.935  14.510  1.1759 -1.5278  1.5874
 8648SOL     OW37405   2.220   2.252   8.906 -0.6215  0.0384 -0.3431
 8648SOL    HW137406   2.277   2.178   8.885  0.8821  1.0808  0.0423
 8648SOL    HW237407   2.287   2.307   8.947  0.4225  0.1469 -2.1788
 8649SOL     OW37408   0.984   4.018   7.305 -0.3987 -0.1853 -0.1220
 8649SOL    HW137409   1.057   3.965   7.273  0.7939  0.9698  0.6628
 8649SOL    HW237410   0.935   3.949   7.349 -0.6213 -0.3085 -0.5658
 8650SOL     OW37411   4.403   0.615  17.550 -0.2942 -0.7488  0.2288
 8650SOL    HW137412   4.482   0.666  17.567 -0.3111 -0.2833 -1.0965
 8650SOL    HW237413   4.395   0.563  17.630  2.6896  0.8329  1.5809
 8651SOL     OW37414   4.562   0.972   4.053 -0.1303 -0.0762 -0.7785
 8651SOL    HW137415   4.566   1.057   4.096  1.6760 -0.6237  0.1355
 8651SOL    HW237416   4.609   0.993   3.972  3.3656  1.8455  1.7587
 8652SOL     OW37417   3.187   0.287   4.210  0.4284 -0.4602 -0.3252
 8652SOL    HW137418   3.182   0.338   4.129 -1.0378  1.9229  1.2856
 8652SOL    HW237419   3.166   0.346   4.282  3.7786  0.3475 -0.0145
 8653SOL     OW37420   0.913   2.151   7.654  0.5035 -0.7813  0.3006
 8653SOL    HW137421   0.868   2.114   7.578  0.0082 -2.4740  1.4404
 8653SOL    HW237422   0.860   2.111   7.723 -1.6160 -0.5281 -1.1727
 8654SOL     OW37423   4.593   3.687   0.658 -0.3007 -0.2943  0.6389
 8654SOL    HW137424   4.550   3.602   0.654  1.7562 -1.3808  1.5656
 8654SOL    HW237425   4.677   3.670   0.615 -0.3014  0.7985  0.2127
 8655SOL     OW37426   3.288   1.228   8.685 -0.4847  0.0741 -0.3881
 8655SOL    HW137427   3.271   1.225   8.591  0.2412  1.0944 -0.5544
 8655SOL    HW237428   3.282   1.321   8.706  1.9607  0.0987  0.2071
 8656SOL     OW37429   4.301   2.801   9.425 -0.6764 -0.1925 -0.1602
 8656SOL    HW137430   4.330   2.883   9.466 -0.0119 -1.4184  1.8733
 8656SOL    HW237431   4.298   2.840   9.338 -0.5171 -1.8959 -0.9089
 8657SOL     OW37432   1.413   2.632   4.938 -0.2140 -0.3894 -0.0927
 8657SOL    HW137433   1.427   2.538   4.930 -1.4936 -0.6889  1.2812
 8657SOL    HW237434   1.490   2.647   4.992 -0.2152  0.4940 -0.3270
 8658SOL     OW37435   4.585   2.561   4.930  0.6657 -0.1488  0.2489
 8658SOL    HW137436   4.604   2.528   5.018  2.7390 -0.4813 -0.3296
 8658SOL    HW237437   4.521   2.500   4.895  2.1569 -0.3998 -2.0267
 8659SOL     OW37438   1.444   4.305   8.122  0.5694  0.6608 -0.4255
 8659SOL    HW137439   1.517   4.258   8.162 -0.9272 -1.0611  0.3254
 8659SOL    HW237440   1.479   4.391   8.103  1.2021  0.4867 -0.0436
 8660SOL     OW37441   3.169   4.318  15.538  0.6222 -0.2192 -0.5914
 8660SOL    HW137442   3.099   4.288  15.480  0.8227 -5.9183  2.0906
 8660SOL    HW237443   3.202   4.391  15.487 -0.6726  0.2518 -0.7594
 8661SOL     OW37444   4.176   0.869   8.786  0.4062  0.1137 -0.2731
 8661SOL    HW137445   4.105   0.836   8.840 -0.0952  0.1680 -0.9041
 8661SOL    HW237446   4.192   0.959   8.813  1.1234  0.2193 -1.0455
 8662SOL     OW37447   1.212   1.768  10.478 -0.1506  0.0580 -0.4083
 8662SOL    HW137448   1.270   1.752  10.552 -0.3801 -1.9486 -0.6771
 8662SOL    HW237449   1.258   1.735  10.402  1.2267  0.8058  0.0882
 8663SOL     OW37450   4.435   1.287   8.080 -0.7507 -0.0734 -0.2835
 8663SOL    HW137451   4.396   1.201   8.093 -1.2231 -0.2252 -2.6656
 8663SOL    HW237452   4.455   1.323   8.167 -1.4271 -0.3877  0.0017
 8664SOL     OW37453   2.211   3.021   8.531  0.2718 -0.0093 -0.2941
 8664SOL    HW137454   2.298   3.053   8.556  1.1891 -0.8906 -2.3182
 8664SOL    HW237455   2.218   2.931   8.564  0.6741  0.5867  1.2835
 8665SOL     OW37456   2.862   0.342   3.771 -0.1364  0.0869 -0.3199
 8665SOL    HW137457   2.923   0.268   3.777 -0.7384 -0.3165  0.8540
 8665SOL    HW237458   2.884   0.356   3.679  0.3238  2.4820  0.1626
 8666SOL     OW37459   0.358   4.422   7.125 -0.3128 -0.1782 -0.4305
 8666SOL    HW137460   0.449   4.433   7.098 -0.0035 -0.5478  0.4830
 8666SOL    HW237461   0.353   4.470   7.207  4.5569  1.4678 -1.0883
 8667SOL     OW37462   3.898   1.531   7.918 -0.2437 -0.1542  0.5525
 8667SOL    HW137463   3.849   1.453   7.891 -1.0743  0.3039  0.7190
 8667SOL    HW237464   3.906   1.588   7.841 -0.7643 -0.7619  0.0386
 8668SOL     OW37465   1.436   3.551   8.253  0.3291  0.0665 -0.6927
 8668SOL    HW137466   1.345   3.525   8.245  0.1993 -0.3354  1.9050
 8668SOL    HW237467   1.438   3.604   8.333  0.4826 -0.1468 -0.5534
 8669SOL     OW37468   3.019   3.733   1.585 -0.7041  0.4019 -0.1142
 8669SOL    HW137469   2.985   3.813   1.545  0.7107  1.5199  0.9208
 8669SOL    HW237470   2.996   3.743   1.677 -0.1566  3.5813 -0.3030
 8670SOL     OW37471   1.898   2.242   8.847 -0.2769  0.1706 -0.2209
 8670SOL    HW137472   1.958   2.171   8.869  1.2569  1.2920 -0.8047
 8670SOL    HW237473   1.942   2.319   8.882 -0.2578  1.0080 -2.1022
 8671SOL     OW37474   0.402   2.204  11.324 -0.0290 -0.1263 -0.3356
 8671SOL    HW137475   0.421   2.226  11.415  0.1939  0.5488 -0.5481
 8671SOL    HW237476   0.377   2.112  11.330  2.6656 -0.8802 -0.5785
 8672SOL     OW37477   4.365   0.245   0.693  0.0094 -0.2766 -0.0301
 8672SOL    HW137478   4.281   0.215   0.657 -0.3155  2.0444 -1.1917
 8672SOL    HW237479   4.330   0.303   0.760  0.6067 -0.3956  0.3781
 8673SOL     OW37480   0.553   2.505   7.826 -0.0310  0.2868  0.2597
 8673SOL    HW137481   0.562   2.599   7.842 -0.3588  0.0574  1.7744
 8673SOL    HW237482   0.557   2.497   7.731 -1.1545 -2.2412  0.4438
 8674SOL     OW37483   3.431   4.470   8.882  0.1569  0.4728 -0.1379
 8674SOL    HW137484   3.459   4.402   8.943 -2.6429 -0.6118 -0.0618
 8674SOL    HW237485   3.349   4.438   8.845  1.1486 -1.8945 -0.2877
 8675SOL     OW37486   3.878   0.476  10.580  0.7296  0.0249 -0.5715
 8675SOL    HW137487   3.892   0.536  10.507  1.7745  2.4746  1.6409
 8675SOL    HW237488   3.968   0.465  10.612  1.8223  0.6719 -3.4090
 8676SOL     OW37489   3.409   1.827   9.071  0.3263 -0.3316  0.5687
 8676SOL    HW137490   3.341   1.885   9.106  2.2634 -0.2256  4.1523
 8676SOL    HW237491   3.372   1.828   8.983 -0.7419 -0.2858  1.0221
 8677SOL     OW37492   0.052   1.225  15.264  0.1771  0.0161 -0.2714
 8677SOL    HW137493   0.143   1.200  15.250  0.1516 -0.6820  0.7945
 8677SOL    HW237494   0.009   1.142  15.241 -0.0967  0.1344 -0.1857
 8678SOL     OW37495   3.215   3.409   2.173  0.0849  0.0840 -0.3014
 8678SOL    HW137496   3.129   3.443   2.149 -0.5042 -1.9516 -1.0422
 8678SOL    HW237497   3.273   3.485   2.181 -2.8233  2.3267 -0.5812
 8679SOL     OW37498   3.590   0.082   6.817  0.3754  0.6056 -0.6028
 8679SOL    HW137499   3.505   0.090   6.861  0.3131  1.0090 -0.7982
 8679SOL    HW237500   3.638   0.154   6.857 -1.5709  1.9815 -0.7580
 8680SOL     OW37501   3.034   4.369   6.370 -0.4370 -0.0443 -0.5137
 8680SOL    HW137502   3.103   4.329   6.423  1.7788  1.4297 -2.2810
 8680SOL    HW237503   3.051   4.463   6.374 -2.5213  0.2914  0.3230
 8681SOL     OW37504   0.621   0.085   4.640 -0.5188 -0.4626  0.0830
 8681SOL    HW137505   0.627   0.124   4.727  0.0765  0.4282 -0.3668
 8681SOL    HW237506   0.534   0.045   4.634  0.2941 -1.7647 -3.1586
 8682SOL     OW37507   1.512   1.285   1.687  0.5047 -0.4956  0.1329
 8682SOL    HW137508   1.498   1.316   1.777 -0.3685  1.0991 -0.5558
 8682SOL    HW237509   1.455   1.348   1.643  2.2126  1.2563  0.4675
 8683SOL     OW37510   0.717   1.314  11.825 -0.6556 -0.2113  0.0480
 8683SOL    HW137511   0.689   1.301  11.735  0.2817 -2.5441  0.0991
 8683SOL    HW237512   0.781   1.382  11.802  1.1375 -2.0907 -0.5609
 8684SOL     OW37513   3.942   0.818  13.174  0.2160  0.5682 -0.2996
 8684SOL    HW137514   3.959   0.872  13.251  1.3260 -1.0245  0.5734
 8684SOL    HW237515   3.959   0.731  13.211  1.6288  0.4841 -1.1144
 8685SOL     OW37516   0.305   3.925   7.187  0.0610  0.0857 -0.0076
 8685SOL    HW137517   0.347   3.868   7.251 -0.9964 -0.8903 -0.1891
 8685SOL    HW237518   0.223   3.886   7.214 -0.0182  1.6265  2.0314
 8686SOL     OW37519   2.119   0.126  10.432  0.2328 -0.0658  0.3646
 8686SOL    HW137520   2.072   0.138  10.515 -1.1070  0.6323 -0.4890
 8686SOL    HW237521   2.189   0.188  10.450 -1.2302  1.2743  1.4495
 8687SOL     OW37522   0.563   4.714   0.956 -0.4072 -0.6952 -0.0781
 8687SOL    HW137523   0.531   4.635   1.000 -0.1755  1.0648  3.2658
 8687SOL    HW237524   0.626   4.676   0.895 -1.0297  0.9011 -1.6971
 8688SOL     OW37525   2.447   4.641   6.367 -0.0550  0.3023 -0.7367
 8688SOL    HW137526   2.522   4.667   6.312  1.0979 -0.9665  0.2262
 8688SOL    HW237527   2.420   4.717   6.417  0.3719 -2.0419  3.0217
 8689SOL     OW37528   0.680   2.202   2.860 -0.1007  0.0163 -0.0593
 8689SOL    HW137529   0.592   2.165   2.868 -0.7638  1.1735 -2.1658
 8689SOL    HW237530   0.735   2.124   2.871  0.5118  0.5016  0.3557
 8690SOL     OW37531   1.599   4.047   9.380  0.2264  0.5644 -0.6396
 8690SOL    HW137532   1.685   4.021   9.412  1.6112 -0.2239 -4.9629
 8690SOL    HW237533   1.602   4.138   9.352  1.1770 -0.2498 -3.1586
 8691SOL     OW37534   4.101   1.141   8.034 -0.1274  0.1071 -0.5876
 8691SOL    HW137535   4.100   1.230   8.067 -0.9521 -1.3219  3.2985
 8691SOL    HW237536   4.035   1.095   8.087  1.1627  0.2944  1.1924
 8692SOL     OW37537   0.271   2.812   6.785 -0.2475  0.7616  0.1388
 8692SOL    HW137538   0.211   2.801   6.712 -1.8949  2.1936  1.2769
 8692SOL    HW237539   0.229   2.761   6.854  1.9847 -2.7720 -1.1434
 8693SOL     OW37540   2.168   0.777   5.524  0.1080 -0.3442  0.0514
 8693SOL    HW137541   2.130   0.690   5.520 -0.7820  0.1270 -1.9243
 8693SOL    HW237542   2.104   0.835   5.482  0.6069 -0.1041 -0.3741
 8694SOL     OW37543   1.816   0.078   4.625  0.1321 -0.0728 -0.6110
 8694SOL    HW137544   1.874   0.027   4.568 -0.5383 -0.8696 -0.5696
 8694SOL    HW237545   1.761   0.007   4.658 -2.4872  1.5057 -1.6430
 8695SOL     OW37546   0.581   0.148  17.665  0.1643  0.3071  0.6893
 8695SOL    HW137547   0.602   0.058  17.641 -0.2909 -0.0868  1.7757
 8695SOL    HW237548   0.563   0.139   0.053  1.2415  0.4897  0.9203
 8696SOL     OW37549   3.428   3.534   5.833  0.0691  0.2348  0.1191
 8696SOL    HW137550   3.342   3.562   5.863 -0.3380 -2.0625  1.1152
 8696SOL    HW237551   3.452   3.480   5.908 -0.1183 -1.4030 -1.0027
 8697SOL     OW37552   4.649   0.048   7.601  0.3208 -0.0588  0.4264
 8697SOL    HW137553   4.588   0.103   7.650  1.5171  0.7013  1.0567
 8697SOL    HW237554   4.664   0.107   7.527  0.6622 -1.0096 -0.2622
 8698SOL     OW37555   4.307   2.302   7.699  0.3873  0.2357  0.4814
 8698SOL    HW137556   4.225   2.286   7.653  0.4945  0.8153  0.0958
 8698SOL    HW237557   4.299   2.236   7.768 -0.6475  0.0966  0.2284
 8699SOL     OW37558   4.446   1.906   7.184 -0.8767 -0.1180  0.4081
 8699SOL    HW137559   4.351   1.916   7.172 -0.6636 -0.0050 -1.2302
 8699SOL    HW237560   4.439   1.862   7.269  1.3513  2.0564  1.7138
 8700SOL     OW37561   3.678   2.649   8.712  0.4932  0.3149 -0.0460
 8700SOL    HW137562   3.587   2.653   8.744  0.1524  0.3207 -0.9946
 8700SOL    HW237563   3.716   2.630   8.798  0.1060  0.4081  0.1464
 8701SOL     OW37564   1.592   3.078   5.658 -0.0611  0.1523  0.3326
 8701SOL    HW137565   1.561   3.023   5.586  0.1768 -0.3070  0.5831
 8701SOL    HW237566   1.609   3.017   5.730 -0.5068 -1.2838 -0.7963
 8702SOL     OW37567   2.571   3.980  10.537  0.1006  0.1680  0.3671
 8702SOL    HW137568   2.636   3.926  10.492 -0.3241  1.5424 -1.9011
 8702SOL    HW237569   2.589   3.950  10.626  2.7378  2.0178  0.4725
 8703SOL     OW37570   2.484   0.226   2.077  0.0645 -0.4490 -0.2970
 8703SOL    HW137571   2.390   0.208   2.088 -0.3473  1.2899 -0.9209
 8703SOL    HW237572   2.523   0.154   2.126 -2.7527 -1.4089  0.5379
 8704SOL     OW37573   1.451   0.784   3.652  0.3421  0.7932 -0.7429
 8704SOL    HW137574   1.534   0.832   3.658  1.1901 -0.5559 -1.8272
 8704SOL    HW237575   1.429   0.776   3.745  0.2687 -0.6132 -0.8780
 8705SOL     OW37576   1.999   2.965   3.305 -0.1754  0.1672  0.1784
 8705SOL    HW137577   2.006   2.869   3.298 -0.6225  0.3502 -2.6952
 8705SOL    HW237578   2.081   2.991   3.346 -1.7478  0.8763  2.8564
 8706SOL     OW37579   3.717   1.223   7.265  0.1909  0.3995 -0.2969
 8706SOL    HW137580   3.803   1.181   7.265  0.1078  0.2772 -3.5251
 8706SOL    HW237581   3.731   1.310   7.227  2.2477  0.0461 -0.3555
 8707SOL     OW37582   1.361   3.493   6.996  0.4432 -0.2303  0.2089
 8707SOL    HW137583   1.358   3.422   7.061 -2.9038  0.7555  1.1527
 8707SOL    HW237584   1.391   3.562   7.055  1.1397 -0.9659  0.7068
 8708SOL     OW37585   1.176   2.390  16.262 -0.6082  0.0249 -0.4901
 8708SOL    HW137586   1.160   2.299  16.235 -3.1938  0.4816 -0.5580
 8708SOL    HW237587   1.086   2.420  16.279 -0.1902  0.3408  1.1309
 8709SOL     OW37588   1.648   1.061  11.722  0.2918  0.3582 -0.2983
 8709SOL    HW137589   1.673   1.114  11.647 -0.1748 -0.5977 -1.1316
 8709SOL    HW237590   1.608   0.985  11.680  0.0246 -0.0491  0.6939
 8710SOL     OW37591   3.258   3.105   8.877  0.2497 -0.1334 -0.5499
 8710SOL    HW137592   3.338   3.132   8.923  0.5563  1.0265 -1.7661
 8710SOL    HW237593   3.270   3.135   8.787 -0.3054  0.1168 -0.5389
 8711SOL     OW37594   0.867   2.025   7.188 -0.2975 -0.4362 -0.0193
 8711SOL    HW137595   0.881   1.982   7.273  0.7753 -0.4545 -0.2001
 8711SOL    HW237596   0.868   1.948   7.131  0.6810 -0.4151 -0.0432
 8712SOL     OW37597   4.725   4.644   8.825  0.8581 -0.3351  0.0182
 8712SOL    HW137598   0.028   4.553   8.827 -0.7583 -0.8440  0.0116
 8712SOL    HW237599   0.046   4.678   8.902  0.3581  0.0354  0.1585
 8713SOL     OW37600   2.128   1.723  11.949 -0.0300  0.0147 -0.7416
 8713SOL    HW137601   2.130   1.659  12.019  1.5410 -1.6706 -2.3218
 8713SOL    HW237602   2.137   1.675  11.867  0.3286 -0.1125 -0.6284
 8714SOL     OW37603   1.876   2.566   7.228  0.0700  0.3434 -0.1615
 8714SOL    HW137604   1.836   2.524   7.152 -0.0261 -0.2697  0.2244
 8714SOL    HW237605   1.915   2.490   7.270 -0.2351  2.2026  3.4459
 8715SOL     OW37606   2.573   2.996   8.353 -0.2372  0.0686 -0.1475
 8715SOL    HW137607   2.558   3.027   8.442 -1.2379  0.5285 -0.4674
 8715SOL    HW237608   2.533   2.910   8.349  0.9690 -0.5281  0.7443
 8716SOL     OW37609   0.196   0.119  16.141 -0.2279 -0.1233  0.2984
 8716SOL    HW137610   0.194   0.137  16.047 -1.7801  2.1473  0.7563
 8716SOL    HW237611   0.104   0.136  16.161 -0.0357 -0.8135  1.7761
 8717SOL     OW37612   1.157   1.136  11.957 -0.0026  0.0038  0.5054
 8717SOL    HW137613   1.167   1.040  11.962  0.3192  0.0593  0.9604
 8717SOL    HW237614   1.225   1.166  11.897  1.5113 -2.0610  1.1792
 8718SOL     OW37615   1.673   2.428   7.071 -0.1050  0.8694  0.3729
 8718SOL    HW137616   1.670   2.371   6.994 -1.3244  3.1357 -1.2421
 8718SOL    HW237617   1.666   2.375   7.151  3.9019  1.0610  0.8375
 8719SOL     OW37618   0.958   2.408   5.076 -0.2495 -0.2008 -0.3664
 8719SOL    HW137619   0.913   2.459   5.144  4.0818  0.7031  1.7937
 8719SOL    HW237620   1.039   2.389   5.123  0.3759  0.5357 -1.1285
 8720SOL     OW37621   2.415   0.814  16.681 -0.0721 -0.0256 -0.1503
 8720SOL    HW137622   2.358   0.751  16.724 -1.0026 -0.3673 -1.8520
 8720SOL    HW237623   2.362   0.888  16.650  2.0776  0.4542 -2.6525
 8721SOL     OW37624   1.830   0.852   8.079 -0.2897 -0.4682 -0.1805
 8721SOL    HW137625   1.783   0.801   8.012  2.1942 -3.3372  0.2656
 8721SOL    HW237626   1.884   0.784   8.119  0.1096  0.2425  0.5021
 8722SOL     OW37627   4.293   2.436   9.708  0.6908  0.1412 -0.1107
 8722SOL    HW137628   4.353   2.474   9.644 -0.4055  0.2259 -1.0844
 8722SOL    HW237629   4.292   2.515   9.761 -0.9830 -0.7122  1.1232
 8723SOL     OW37630   3.614   1.940  14.384  0.1749 -0.1281 -0.0038
 8723SOL    HW137631   3.648   1.893  14.308 -0.2932 -0.2852 -0.1158
 8723SOL    HW237632   3.536   1.887  14.403 -0.8364  1.3380 -0.0900
 8724SOL     OW37633   3.120   2.200   7.806  0.2404 -0.5785  0.1220
 8724SOL    HW137634   3.116   2.260   7.731  1.7023 -0.9426 -0.2352
 8724SOL    HW237635   3.041   2.224   7.855 -0.4008  0.9026 -1.6307
 8725SOL     OW37636   0.512   4.504   3.860  0.5009 -0.0542  0.3432
 8725SOL    HW137637   0.519   4.412   3.883  1.5604 -0.5456 -1.9051
 8725SOL    HW237638   0.604   4.520   3.840 -0.1930  0.7836 -2.3204
 8726SOL     OW37639   0.831   3.436   8.671 -0.6053 -0.0793  0.3694
 8726SOL    HW137640   0.842   3.366   8.607 -1.8209  0.5638 -0.5399
 8726SOL    HW237641   0.755   3.487   8.643  0.8186  1.6998 -0.2334
 8727SOL     OW37642   3.652   1.882  16.905  0.0114 -0.9831  0.0997
 8727SOL    HW137643   3.575   1.938  16.912  0.6242 -0.4773  2.7685
 8727SOL    HW237644   3.665   1.859  16.997 -1.1802  0.0466  0.5295
 8728SOL     OW37645   2.134   1.075   0.717 -0.3510 -0.3384 -0.2667
 8728SOL    HW137646   2.138   1.124   0.799  0.4039  0.6342 -0.8943
 8728SOL    HW237647   2.201   1.009   0.733  1.1375  1.1762 -0.3698
 8729SOL     OW37648   2.290   0.668   8.370  0.0874 -0.0529  0.1366
 8729SOL    HW137649   2.351   0.686   8.442 -1.9462  0.4263  1.7725
 8729SOL    HW237650   2.219   0.636   8.426  0.7181  0.7232  1.3770
 8730SOL     OW37651   0.370   1.196   9.715 -0.4057  0.2960  0.0209
 8730SOL    HW137652   0.337   1.143   9.787  0.4793  0.7794  0.7775
 8730SOL    HW237653   0.446   1.147   9.682 -1.2368 -0.6800 -0.4557
 8731SOL     OW37654   2.621   3.638   2.182 -0.2436  0.1652 -0.5524
 8731SOL    HW137655   2.658   3.590   2.256 -0.2913  2.4811  0.9693
 8731SOL    HW237656   2.609   3.571   2.114 -0.1708 -2.0818  1.6504
 8732SOL     OW37657   2.559   4.607   6.944 -0.1615 -0.0724  0.7584
 8732SOL    HW137658   2.483   4.599   6.887 -0.1070  0.1798  0.6490
 8732SOL    HW237659   2.640   4.611   6.893 -0.4605 -0.5765  0.2460
 8733SOL     OW37660   4.174   2.221  12.059  0.0949 -0.0202 -0.3651
 8733SOL    HW137661   4.168   2.125  12.061 -1.5061  0.0966  0.2680
 8733SOL    HW237662   4.144   2.253  12.144  0.0429 -1.9703  0.3524
 8734SOL     OW37663   1.229   4.539   8.307 -0.4029 -0.1399 -0.3564
 8734SOL    HW137664   1.290   4.482   8.353 -0.2230  0.6339  0.3554
 8734SOL    HW237665   1.292   4.566   8.240 -2.5955 -1.0540 -2.8237
 8735SOL     OW37666   2.872   3.874   7.538 -0.0236 -0.1533 -0.0117
 8735SOL    HW137667   2.859   3.937   7.609  0.7380 -2.0518  1.8536
 8735SOL    HW237668   2.879   3.928   7.460 -2.2859 -0.9555 -0.7452
 8736SOL     OW37669   2.569   3.855  11.044 -0.3585  0.0250 -0.0296
 8736SOL    HW137670   2.519   3.912  11.103 -3.6559 -1.8169 -1.0247
 8736SOL    HW237671   2.535   3.774  11.082 -1.7939 -0.9448 -3.3562
 8737SOL     OW37672   3.780   3.306  14.510  0.1666  0.6618 -0.0685
 8737SOL    HW137673   3.800   3.379  14.568  0.3646 -1.6993  2.8762
 8737SOL    HW237674   3.806   3.234  14.568  2.0195  0.4680 -1.1263
 8738SOL     OW37675   4.417   0.237   2.477 -0.0372  0.1789 -0.3601
 8738SOL    HW137676   4.412   0.166   2.541  3.5428 -2.1755 -2.7388
 8738SOL    HW237677   4.461   0.301   2.534  0.0348 -0.0862 -0.1153
 8739SOL     OW37678   3.019   3.070   6.095  0.0692 -0.9435  0.5904
 8739SOL    HW137679   3.001   2.977   6.108  2.5086 -1.2013  2.1428
 8739SOL    HW237680   3.067   3.097   6.174  0.6490 -0.0872 -0.0534
 8740SOL     OW37681   1.175   4.567  17.549 -0.0421  0.4620 -0.2093
 8740SOL    HW137682   1.206   4.531  17.632 -0.8992 -2.5969 -1.2242
 8740SOL    HW237683   1.260   4.593  17.513  0.3615 -0.2154  0.2482
 8741SOL     OW37684   1.035   0.931   2.934  0.5975 -0.1715 -0.0076
 8741SOL    HW137685   0.961   0.935   2.995  1.7543  1.7721  1.2634
 8741SOL    HW237686   1.009   0.862   2.874  2.2164 -2.1275  1.5684
 8742SOL     OW37687   1.747   2.780   7.412  0.1174 -0.3009 -0.1868
 8742SOL    HW137688   1.689   2.784   7.488  0.4479 -1.3871  0.1116
 8742SOL    HW237689   1.684   2.756   7.345 -0.0338  1.8625 -0.8364
 8743SOL     OW37690   2.410   0.334   7.957  0.1791  0.3549  0.0596
 8743SOL    HW137691   2.315   0.324   7.949 -0.1529  2.5810  0.9858
 8743SOL    HW237692   2.423   0.401   7.890  1.3125  0.1828  0.1103
 8744SOL     OW37693   1.459   1.580   1.632  0.1820  0.0439 -0.2651
 8744SOL    HW137694   1.442   1.580   1.538 -1.2253  0.3388  0.0044
 8744SOL    HW237695   1.376   1.570   1.679  0.1531  2.4064  0.1537
 8745SOL     OW37696   1.410   1.607   6.951 -0.0864  0.1536 -0.3196
 8745SOL    HW137697   1.450   1.693   6.965 -0.1725  0.1138  0.1868
 8745SOL    HW237698   1.475   1.562   6.896 -0.8280 -1.9062  0.4676
 8746SOL     OW37699   0.179   0.391  13.918  0.1521 -0.1188 -0.1213
 8746SOL    HW137700   0.262   0.350  13.945  0.1281  0.0233  0.1630
 8746SOL    HW237701   0.204   0.413  13.828  0.0687  1.3153  0.2068
 8747SOL     OW37702   0.061   4.011   1.509 -0.5525  0.0394 -0.0245
 8747SOL    HW137703   0.151   3.978   1.503  0.8777  3.8955 -0.0750
 8747SOL    HW237704   0.021   3.939   1.463  0.1050 -0.4435  0.1533
 8748SOL     OW37705   2.750   4.229   2.189 -0.0144 -0.2087  0.0463
 8748SOL    HW137706   2.841   4.199   2.185  0.1793  0.5909 -1.4533
 8748SOL    HW237707   2.721   4.231   2.098  1.2784  0.0654 -0.3536
 8749SOL     OW37708   2.972   3.547   2.258  0.1672  0.0150  0.2047
 8749SOL    HW137709   2.988   3.473   2.317  2.0323  0.3788  0.1800
 8749SOL    HW237710   2.877   3.536   2.258 -0.2032  3.2506  0.3240
 8750SOL     OW37711   2.957   2.195   4.753  0.3462 -0.6127  0.2768
 8750SOL    HW137712   2.985   2.245   4.676 -0.5638 -0.0273  0.3298
 8750SOL    HW237713   2.963   2.260   4.823  1.6429  0.8569 -1.2126
 8751SOL     OW37714   1.870   1.121   8.187  0.2213  0.1910 -0.2000
 8751SOL    HW137715   1.850   1.037   8.146 -0.1975 -0.8205  2.0740
 8751SOL    HW237716   1.960   1.128   8.155  0.3755  2.2930  0.7075
 8752SOL     OW37717   0.346   4.235   5.653  0.3389  0.0083 -0.0616
 8752SOL    HW137718   0.322   4.142   5.652 -1.1172  0.3948 -1.5426
 8752SOL    HW237719   0.306   4.262   5.736  2.4463  0.8764  0.6634
 8753SOL     OW37720   3.400   0.736  12.448  0.0112  1.0914 -0.2094
 8753SOL    HW137721   3.485   0.778  12.455  1.0690 -1.2415  1.0298
 8753SOL    HW237722   3.355   0.772  12.525  0.7899  0.2324  0.6402
 8754SOL     OW37723   2.719   4.026   0.999 -0.3983  0.0943 -0.2487
 8754SOL    HW137724   2.722   4.018   0.904 -1.1210  0.6661 -0.3254
 8754SOL    HW237725   2.671   4.108   1.011 -1.9528 -1.1006  1.6092
 8755SOL     OW37726   3.406   3.359  12.929  0.1854 -0.4905  0.3270
 8755SOL    HW137727   3.462   3.415  12.874 -1.1560 -0.9036 -1.4628
 8755SOL    HW237728   3.427   3.388  13.018  1.4684  2.1468 -0.8292
 8756SOL     OW37729   2.858   0.199   9.801  0.8133 -0.3957 -0.3889
 8756SOL    HW137730   2.788   0.200   9.736 -0.6384 -1.1665  1.1809
 8756SOL    HW237731   2.834   0.256   9.874 -0.1289  0.1957 -1.1584
 8757SOL     OW37732   1.142   0.067  15.281  0.2648  0.2025 -0.0612
 8757SOL    HW137733   1.103   0.035  15.363  3.0108 -2.0142  0.3779
 8757SOL    HW237734   1.113   0.004  15.215  0.9624  1.0696 -1.1897
 8758SOL     OW37735   3.674   1.267   0.354 -0.5897  0.0351 -0.3407
 8758SOL    HW137736   3.680   1.210   0.278 -2.7335  0.2120 -0.6435
 8758SOL    HW237737   3.589   1.242   0.390  1.4856 -0.5246  4.1726
 8759SOL     OW37738   1.811   0.549   9.915  0.1320  0.1625 -0.2420
 8759SOL    HW137739   1.879   0.612   9.936  0.1547  0.0438  0.0455
 8759SOL    HW237740   1.783   0.589   9.832 -0.3715  0.2225 -0.0428
 8760SOL     OW37741   0.993   3.898   6.137 -0.1982 -1.0538  0.3656
 8760SOL    HW137742   1.016   3.991   6.137  0.2158 -1.1556 -0.8803
 8760SOL    HW237743   1.056   3.863   6.201  0.3516 -0.6030  0.0668
 8761SOL     OW37744   3.091   2.386   0.875 -0.8431  0.1604 -0.1019
 8761SOL    HW137745   3.009   2.338   0.880  0.1915 -1.5792  0.0538
 8761SOL    HW237746   3.061   2.477   0.885  0.3778  0.4168  1.2414
 8762SOL     OW37747   3.016   2.799   5.370  0.1131  0.1655 -0.2069
 8762SOL    HW137748   3.005   2.827   5.461 -0.1692 -1.0829  0.1464
 8762SOL    HW237749   3.110   2.786   5.359  0.1502  0.3556 -0.1166
 8763SOL     OW37750   1.297   0.077   4.072  0.2557  0.1770  0.1708
 8763SOL    HW137751   1.209   0.110   4.091  0.2149  0.1503  0.0256
 8763SOL    HW237752   1.345   0.147   4.116 -1.1293 -0.5966  2.8959
 8764SOL     OW37753   1.325   4.441  13.059 -0.2290  0.1294  0.2957
 8764SOL    HW137754   1.269   4.461  13.134  0.5352 -0.6607  1.0910
 8764SOL    HW237755   1.312   4.347  13.049 -0.7292  0.3382 -0.9578
 8765SOL     OW37756   0.710   0.705   6.824  0.0898 -0.0478 -0.2169
 8765SOL    HW137757   0.700   0.697   6.919  1.1062  0.6851 -0.0389
 8765SOL    HW237758   0.804   0.689   6.812 -0.2353 -1.4559 -0.7915
 8766SOL     OW37759   2.050   2.875   3.678 -0.1438  0.0036  0.0293
 8766SOL    HW137760   2.073   2.961   3.711 -1.7594  0.6109 -0.4181
 8766SOL    HW237761   1.976   2.890   3.619  0.7117  0.9404 -0.8109
 8767SOL     OW37762   3.908   3.294   7.598 -0.2281  0.4200 -0.7303
 8767SOL    HW137763   3.970   3.224   7.582 -1.0802 -0.0865 -1.7593
 8767SOL    HW237764   3.945   3.363   7.543 -0.6270  0.7004 -0.6500
 8768SOL     OW37765   3.009   0.751  14.800  0.1682  0.1413 -0.2001
 8768SOL    HW137766   3.069   0.755  14.874 -0.6253 -4.1682  0.6915
 8768SOL    HW237767   3.058   0.718  14.725  0.4487  0.4838 -0.1672
 8769SOL     OW37768   4.306   4.595   5.632 -0.4690  0.2851  0.1366
 8769SOL    HW137769   4.300   4.614   5.725  0.9776 -0.9982  0.4956
 8769SOL    HW237770   4.267   4.509   5.613  0.6879 -0.2140 -0.0072
 8770SOL     OW37771   3.754   2.444   2.759  0.6705  0.0089 -0.1239
 8770SOL    HW137772   3.779   2.529   2.723  1.4024  0.4402  1.4098
 8770SOL    HW237773   3.805   2.394   2.695  0.7735  1.2671 -1.0467
 8771SOL     OW37774   4.036   2.956   2.227  0.7603  0.1342 -0.3687
 8771SOL    HW137775   4.017   3.034   2.175 -0.6363  0.9748  1.3763
 8771SOL    HW237776   4.097   3.006   2.281  1.5553 -1.9822  0.6911
 8772SOL     OW37777   3.454   2.002   3.075  0.4546 -0.1678  0.5488
 8772SOL    HW137778   3.540   1.986   3.115  1.6317  1.4781 -1.3464
 8772SOL    HW237779   3.473   1.968   2.988 -1.1356 -0.2011  0.2212
 8773SOL     OW37780   1.958   3.856   0.743 -0.3090 -0.6799  0.0058
 8773SOL    HW137781   1.947   3.869   0.837 -2.2037  0.9878 -0.4344
 8773SOL    HW237782   1.983   3.947   0.728  3.2854 -1.0885  3.5919
 8774SOL     OW37783   2.526   2.308   0.343  0.0185 -0.1514  0.7172
 8774SOL    HW137784   2.570   2.248   0.282 -2.6337 -0.2592 -1.1309
 8774SOL    HW237785   2.535   2.385   0.287  0.5130  0.2162  1.3129
 8775SOL     OW37786   4.412   0.273   5.549 -0.8461 -0.5257 -0.1114
 8775SOL    HW137787   4.399   0.364   5.576 -0.3659 -0.8810  1.2943
 8775SOL    HW237788   4.421   0.226   5.631 -2.4291  2.1367  1.5787
 8776SOL     OW37789   4.416   2.751   2.713 -0.2256 -0.1915 -0.0119
 8776SOL    HW137790   4.407   2.728   2.621 -1.1091  1.3002 -0.2862
 8776SOL    HW237791   4.414   2.662   2.751 -1.1119  0.0472  0.4998
 8777SOL     OW37792   0.578   4.579  13.756 -0.6291 -0.2996  0.2147
 8777SOL    HW137793   0.622   4.648  13.706  4.2088 -2.7114  1.1735
 8777SOL    HW237794   0.522   4.637  13.807  1.2084  1.1003  0.6380
 8778SOL     OW37795   0.019   2.648   1.945 -0.1422 -0.5578 -0.4003
 8778SOL    HW137796   0.066   2.731   1.932 -3.7238  1.7035  0.9723
 8778SOL    HW237797   4.655   2.676   1.926 -0.5913 -1.6362  0.1420
 8779SOL     OW37798   0.835   3.931   8.279 -0.1745 -0.4913  0.0341
 8779SOL    HW137799   0.906   3.947   8.342  0.9704 -0.3298 -1.2909
 8779SOL    HW237800   0.793   4.017   8.285 -0.9797 -0.7647 -1.5480
 8780SOL     OW37801   1.136   3.893   5.823 -0.3086 -0.2260  0.2279
 8780SOL    HW137802   1.047   3.887   5.858  0.1921 -1.9743  1.2023
 8780SOL    HW237803   1.186   3.849   5.892 -0.0246  1.1318  0.9054
 8781SOL     OW37804   1.477   0.691   9.824 -0.2225  0.4576 -0.3131
 8781SOL    HW137805   1.496   0.742   9.745 -2.3593  3.7493  1.2585
 8781SOL    HW237806   1.393   0.665   9.784 -0.6430 -0.8136  1.4114
 8782SOL     OW37807   0.058   0.367   4.093 -0.1003  0.2832  0.1770
 8782SOL    HW137808   0.152   0.374   4.109  0.0382 -1.6615  0.1635
 8782SOL    HW237809   0.031   0.455   4.065 -1.5536 -1.0119 -2.4052
 8783SOL     OW37810   0.391   0.906   9.449 -0.1085  0.0847  0.0392
 8783SOL    HW137811   0.439   0.905   9.532  0.9267  1.1142 -0.5421
 8783SOL    HW237812   0.391   0.814   9.423 -2.3135  0.0472  0.1587
 8784SOL     OW37813   4.701   0.590   2.775 -0.4220  0.2124  0.4861
 8784SOL    HW137814   0.059   0.574   2.818  0.0319 -0.5068 -0.6673
 8784SOL    HW237815   4.690   0.681   2.800  3.2414  1.2073 -1.6647
 8785SOL     OW37816   4.719   1.264   1.092 -0.5585 -0.1810 -0.1567
 8785SOL    HW137817   4.670   1.195   1.049 -0.1367 -1.6022  1.5983
 8785SOL    HW237818   0.047   1.303   1.023 -0.8613  0.4807 -0.0166
 8786SOL     OW37819   0.357   1.130   2.273 -0.3643 -0.3802 -0.2206
 8786SOL    HW137820   0.369   1.071   2.199 -0.3452  0.9143 -1.2607
 8786SOL    HW237821   0.406   1.202   2.232  1.4851 -1.2978  0.3874
 8787SOL     OW37822   1.081   2.356  13.703  0.1112 -0.4322  0.2089
 8787SOL    HW137823   1.091   2.398  13.788 -0.4152 -1.6520  0.8768
 8787SOL    HW237824   0.987   2.343  13.690  0.3313 -1.8486  0.0358
 8788SOL     OW37825   4.164   4.369   8.653  0.6524  0.1897  0.7127
 8788SOL    HW137826   4.214   4.331   8.581  0.1272  2.4793 -0.8564
 8788SOL    HW237827   4.228   4.386   8.722  2.4041 -1.6058 -0.5093
 8789SOL     OW37828   3.475   3.715   7.112  0.1053 -0.1155 -0.1456
 8789SOL    HW137829   3.432   3.764   7.182  1.2556  1.5638 -0.6170
 8789SOL    HW237830   3.535   3.664   7.167  1.8068 -0.9398 -2.7501
 8790SOL     OW37831   2.568   1.417   0.635 -0.4047  0.7630  0.2210
 8790SOL    HW137832   2.613   1.364   0.701  1.0388 -0.7354 -1.9935
 8790SOL    HW237833   2.555   1.350   0.568 -0.2352 -0.5111  1.4641
 8791SOL     OW37834   1.140   0.045   3.672 -0.0522 -0.1295  0.3807
 8791SOL    HW137835   1.218   0.090   3.704  0.4228 -0.8828  0.2846
 8791SOL    HW237836   1.183   4.713   3.609  1.2073 -1.6884  2.6548
 8792SOL     OW37837   4.624   0.580  10.076 -0.8029  0.6559 -0.2488
 8792SOL    HW137838   4.632   0.600  10.169  1.1384  1.7454 -0.6552
 8792SOL    HW237839   4.652   0.489  10.064  1.5490  1.4148 -0.3572
 8793SOL     OW37840   1.678   2.918   5.913 -0.1961  0.6589  0.1598
 8793SOL    HW137841   1.696   2.825   5.926  1.5483  0.7545 -1.6348
 8793SOL    HW237842   1.583   2.926   5.900 -0.4373 -2.0827  0.2382
 8794SOL     OW37843   1.521   4.635   4.067  0.0647 -0.3553 -0.0367
 8794SOL    HW137844   1.527   4.541   4.049  0.8892 -0.2971 -0.1090
 8794SOL    HW237845   1.431   4.663   4.054 -0.1750 -0.9420  0.3304
 8795SOL     OW37846   1.049   0.523   8.994  0.2442 -0.5802  0.0633
 8795SOL    HW137847   1.079   0.554   8.909 -0.8978 -0.0992 -0.1563
 8795SOL    HW237848   1.005   0.592   9.044 -1.8968 -0.7202 -1.6444
 8796SOL     OW37849   2.728   4.310  17.641 -0.0787  0.5423  1.0516
 8796SOL    HW137850   2.779   4.391  17.639 -1.1540  1.1614 -1.5749
 8796SOL    HW237851   2.770   4.259   0.005 -2.2897 -2.3467  0.2637
 8797SOL     OW37852   0.670   2.593   8.321  0.4918 -0.2857  0.0713
 8797SOL    HW137853   0.611   2.526   8.286  1.6371 -1.2162 -0.1163
 8797SOL    HW237854   0.629   2.614   8.404 -2.1276 -0.7937 -1.0842
 8798SOL     OW37855   3.097   4.675   3.639 -0.7692  0.1858  0.2373
 8798SOL    HW137856   3.078   0.032   3.595  1.0143  0.4933  0.0155
 8798SOL    HW237857   3.011   4.645   3.667 -0.7637 -0.0793 -0.0342
 8799SOL     OW37858   2.501   4.687   5.893 -0.4029  0.2959 -0.6068
 8799SOL    HW137859   2.528   4.708   5.982  1.2152 -2.2229 -0.4990
 8799SOL    HW237860   2.585   4.654   5.861  0.1437 -0.0420  1.2120
 8800SOL     OW37861   4.135   2.008   4.883  0.1206 -0.4164  0.1660
 8800SOL    HW137862   4.185   2.089   4.876  1.1964 -0.8987  2.2692
 8800SOL    HW237863   4.070   2.013   4.813 -0.9436  3.0425  1.3992
 8801SOL     OW37864   2.378   0.915  10.068 -0.3914  0.8305  0.2649
 8801SOL    HW137865   2.407   0.836  10.021  0.2836  1.8760 -1.0802
 8801SOL    HW237866   2.336   0.884  10.148 -0.8862  1.4891  0.2526
 8802SOL     OW37867   1.681   0.284   5.639 -0.7068 -0.2122 -0.0910
 8802SOL    HW137868   1.725   0.359   5.680  2.0092 -0.9498 -1.6579
 8802SOL    HW237869   1.597   0.322   5.615  0.7373  2.2634 -1.1542
 8803SOL     OW37870   4.697   3.811   1.932  0.4131  0.2142 -0.1210
 8803SOL    HW137871   4.605   3.837   1.931  0.5970  0.8575 -0.7257
 8803SOL    HW237872   0.012   3.878   1.876  3.5630 -2.2768 -0.8116
 8804SOL     OW37873   3.128   1.056  14.698 -0.0024  0.4723 -0.6219
 8804SOL    HW137874   3.092   1.003  14.768  2.1053 -0.2853 -0.1303
 8804SOL    HW237875   3.159   1.133  14.747 -1.1765  0.1215  0.6646
 8805SOL     OW37876   2.533   3.334   1.654 -0.5907 -0.0144  0.4883
 8805SOL    HW137877   2.626   3.318   1.669 -1.0026 -0.8672  2.1511
 8805SOL    HW237878   2.513   3.298   1.568 -2.0383 -2.1869  1.7064
 8806SOL     OW37879   4.217   2.554   1.371 -0.0016  0.1877 -0.1012
 8806SOL    HW137880   4.249   2.468   1.343 -0.4853  0.1018 -0.3996
 8806SOL    HW237881   4.130   2.553   1.330 -1.0877  0.4101  2.1353
 8807SOL     OW37882   4.142   3.809   7.115  0.8430  0.4381  0.0472
 8807SOL    HW137883   4.200   3.733   7.118  0.2425 -0.0490 -0.9549
 8807SOL    HW237884   4.114   3.801   7.206 -0.3249  0.2935 -0.3322
 8808SOL     OW37885   0.824   0.195   6.678 -0.6568 -0.9859 -0.0012
 8808SOL    HW137886   0.744   0.247   6.681  0.9818  1.5970 -0.7508
 8808SOL    HW237887   0.836   0.198   6.583 -2.0163 -2.0059 -0.1950
 8809SOL     OW37888   1.195   3.994  15.851 -0.0957  0.1187 -0.1356
 8809SOL    HW137889   1.110   4.030  15.875 -0.6310 -0.5866 -0.9730
 8809SOL    HW237890   1.181   3.973  15.759  0.8123 -0.0935 -0.2267
 8810SOL     OW37891   1.424   2.557  11.680  0.4667 -0.0075 -0.1121
 8810SOL    HW137892   1.423   2.532  11.587  0.8774 -0.8088  0.0986
 8810SOL    HW237893   1.404   2.474  11.722 -1.5857 -0.5810 -2.2417
 8811SOL     OW37894   3.815   2.492   4.568 -0.8939  0.1477 -0.1607
 8811SOL    HW137895   3.901   2.532   4.568 -0.4150 -0.8924  3.7256
 8811SOL    HW237896   3.760   2.570   4.576  0.7877  1.3008  0.0926
 8812SOL     OW37897   4.023   1.216  17.229 -0.2484 -0.2547  0.3405
 8812SOL    HW137898   4.008   1.168  17.311  1.3736  1.3257  1.5569
 8812SOL    HW237899   3.933   1.233  17.200  0.5103  0.6227 -1.4392
 8813SOL     OW37900   2.561   1.896   1.944 -0.2835  0.1028 -0.1005
 8813SOL    HW137901   2.538   1.824   1.884  0.7148  0.0514 -0.4289
 8813SOL    HW237902   2.643   1.926   1.905  1.3361 -3.5259  0.4946
 8814SOL     OW37903   2.293   1.831   5.037  0.1131  0.1156 -0.1663
 8814SOL    HW137904   2.320   1.834   4.946  1.1571 -1.9162  0.0854
 8814SOL    HW237905   2.298   1.737   5.056  0.1471  0.2540  0.5020
 8815SOL     OW37906   3.901   1.100   6.388 -0.3430  0.2649  0.0870
 8815SOL    HW137907   3.916   1.194   6.398 -0.1547  0.5702 -2.8580
 8815SOL    HW237908   3.810   1.095   6.416 -1.1123 -1.3975 -2.6019
 8816SOL     OW37909   3.450   0.550   2.506  0.4276 -0.1987  0.0216
 8816SOL    HW137910   3.526   0.520   2.557 -1.0582 -1.6407  1.4092
 8816SOL    HW237911   3.499   0.572   2.427 -0.7144 -1.4107 -1.0290
 8817SOL     OW37912   1.810   1.769   5.392  0.0903  0.5675 -0.0580
 8817SOL    HW137913   1.726   1.812   5.379  0.8789  2.0161 -0.3860
 8817SOL    HW237914   1.861   1.847   5.413  1.5306 -0.5049  0.4468
 8818SOL     OW37915   2.814   3.462  17.072 -0.0306  0.0978 -0.0274
 8818SOL    HW137916   2.888   3.476  17.012  0.3132 -0.6901  0.2179
 8818SOL    HW237917   2.858   3.456  17.157 -0.2506 -0.1222  0.0686
 8819SOL     OW37918   2.997   2.138   7.421 -0.3460  0.2405  0.6014
 8819SOL    HW137919   2.924   2.084   7.390 -1.6131  1.4641  1.4828
 8819SOL    HW237920   3.054   2.149   7.344  1.9559  0.8015  2.3896
 8820SOL     OW37921   4.599   1.369   6.982  0.1413  0.4286  0.5191
 8820SOL    HW137922   4.599   1.292   7.039  0.4889  0.1250  0.1120
 8820SOL    HW237923   4.690   1.398   6.993 -0.3064  1.0724  2.4514
 8821SOL     OW37924   0.881   0.372   0.741  0.1522 -0.0838 -0.5285
 8821SOL    HW137925   0.839   0.458   0.739 -5.1254 -2.6724 -1.7256
 8821SOL    HW237926   0.863   0.347   0.650 -4.5959  1.8650 -0.1336
 8822SOL     OW37927   4.387   1.585   8.509 -0.4715  0.6487 -0.0580
 8822SOL    HW137928   4.446   1.649   8.471  0.7753 -1.0580 -0.9865
 8822SOL    HW237929   4.306   1.636   8.507 -0.5626  0.4603 -1.0343
 8823SOL     OW37930   1.719   2.291   6.806  1.1953 -0.3340  0.1224
 8823SOL    HW137931   1.737   2.203   6.772  0.1571 -0.4168 -0.2246
 8823SOL    HW237932   1.796   2.342   6.780  2.3167 -3.5320 -2.8739
 8824SOL     OW37933   0.197   2.433   7.573  0.0655  0.1526  0.3514
 8824SOL    HW137934   0.207   2.456   7.665 -1.5095 -2.0323  1.0826
 8824SOL    HW237935   0.287   2.420   7.543  0.1776  1.6778  0.0317
 8825SOL     OW37936   3.151   2.431   4.666 -0.0140  0.0575  0.1531
 8825SOL    HW137937   3.162   2.386   4.582 -1.3475 -0.3903  0.2162
 8825SOL    HW237938   3.138   2.521   4.639 -2.1121  0.0958  1.3130
 8826SOL     OW37939   4.376   1.633   9.994  0.3685  0.0681 -0.3166
 8826SOL    HW137940   4.339   1.584  10.068 -0.6784  0.9051 -0.2883
 8826SOL    HW237941   4.357   1.575   9.921 -0.9666  0.2533 -0.1193
 8827SOL     OW37942   4.331   4.496   7.513 -0.7272 -0.4919 -1.0215
 8827SOL    HW137943   4.369   4.510   7.426 -0.6172  1.7645 -0.6113
 8827SOL    HW237944   4.242   4.529   7.504  0.3977  2.1933 -2.3987
 8828SOL     OW37945   0.063   2.954   3.528 -0.5880  0.3684  0.1803
 8828SOL    HW137946   0.019   2.869   3.525 -1.7818  0.9692  0.7366
 8828SOL    HW237947   0.086   2.938   3.619  0.0383  0.5891  0.0623
 8829SOL     OW37948   0.936   1.143   3.974  0.1495 -0.4915 -0.2909
 8829SOL    HW137949   0.868   1.201   3.942 -0.3823 -1.4511 -0.9018
 8829SOL    HW237950   0.982   1.202   4.034 -1.5555  0.9835 -0.4414
 8830SOL     OW37951   3.169   2.048   2.341  0.1165 -0.0173  0.0778
 8830SOL    HW137952   3.200   2.103   2.269  0.8839 -0.4174  0.1029
 8830SOL    HW237953   3.130   1.977   2.289  1.4269 -0.5535 -0.1869
 8831SOL     OW37954   1.388   1.365   5.884 -0.0047 -0.3116  0.2764
 8831SOL    HW137955   1.378   1.280   5.929 -0.4932 -0.5220 -0.2277
 8831SOL    HW237956   1.482   1.372   5.895  0.1033 -0.8651 -0.2924
 8832SOL     OW37957   0.816   0.868   4.237 -0.2118 -0.7021  0.2792
 8832SOL    HW137958   0.769   0.796   4.195  0.0469 -1.1630  0.7846
 8832SOL    HW237959   0.907   0.847   4.214  0.6843  0.2753  2.9172
 8833SOL     OW37960   3.910   0.425   4.925 -0.3315 -0.2832  0.2475
 8833SOL    HW137961   3.984   0.482   4.946  0.1870 -1.1931  0.9007
 8833SOL    HW237962   3.858   0.490   4.879  1.6684 -1.3957 -3.5708
 8834SOL     OW37963   0.701   4.380   3.572 -0.0521  0.7143  0.7826
 8834SOL    HW137964   0.608   4.373   3.593 -0.5923  0.3929 -1.7302
 8834SOL    HW237965   0.732   4.291   3.554 -1.1465  0.3186  0.8675
 8835SOL     OW37966   1.593   0.906   3.003  0.0803  0.1816 -0.1660
 8835SOL    HW137967   1.639   0.839   2.952  2.2331  0.8774  0.8655
 8835SOL    HW237968   1.650   0.925   3.078  0.2975  0.9961 -0.5501
 8836SOL     OW37969   2.676   3.888   2.383  0.2272  0.8481  0.0290
 8836SOL    HW137970   2.615   3.878   2.457 -0.7123 -0.8356 -0.9847
 8836SOL    HW237971   2.645   3.815   2.330  0.1495 -1.8660  3.7893
 8837SOL     OW37972   2.258   4.084   5.211 -0.8235  0.6541 -0.0184
 8837SOL    HW137973   2.337   4.073   5.264 -1.4674 -1.3141  0.4987
 8837SOL    HW237974   2.282   4.072   5.119  2.1369  0.1120  0.8303
 8838SOL     OW37975   2.994   4.470  15.951  0.0862  0.0547 -0.3636
 8838SOL    HW137976   2.936   4.429  15.887  0.6576 -0.4464 -0.5686
 8838SOL    HW237977   3.078   4.451  15.909  0.5578  0.8291  0.2316
 8839SOL     OW37978   4.335   3.318   0.536  0.3379  0.8559  0.7197
 8839SOL    HW137979   4.249   3.310   0.496  0.9436 -2.6678  0.1100
 8839SOL    HW237980   4.316   3.386   0.601 -0.2984  0.6677  0.7285
 8840SOL     OW37981   2.173   2.649   2.411  0.3189 -0.5927  0.6910
 8840SOL    HW137982   2.150   2.598   2.333  1.3445 -1.4464  0.9383
 8840SOL    HW237983   2.268   2.651   2.403  0.2173 -0.8580 -0.5506
 8841SOL     OW37984   2.209   0.828   5.815  0.5514  0.6866  0.4539
 8841SOL    HW137985   2.172   0.866   5.735  0.1563  3.3719  1.9033
 8841SOL    HW237986   2.283   0.884   5.839  1.4177 -0.5021  0.5517
 8842SOL     OW37987   0.206   4.648   0.289  0.0300 -0.6786  0.2119
 8842SOL    HW137988   0.273   4.670   0.225  1.5908 -3.1272  1.0074
 8842SOL    HW237989   0.201   4.722   0.350 -2.9982 -1.9263  1.5185
 8843SOL     OW37990   3.584   4.260   6.684 -0.0471 -0.2522  0.2068
 8843SOL    HW137991   3.532   4.197   6.733 -1.8621 -0.5765 -2.1591
 8843SOL    HW237992   3.560   4.336   6.737 -1.2785 -1.7480  1.7796
 8844SOL     OW37993   0.849   4.284   7.228  0.2353 -0.6714 -0.5410
 8844SOL    HW137994   0.914   4.352   7.246  0.6033 -1.1962  0.1453
 8844SOL    HW237995   0.900   4.203   7.242 -0.4288 -1.1504 -0.9089
 8845SOL     OW37996   3.444   3.220   9.053 -0.3957 -0.2436  0.6051
 8845SOL    HW137997   3.510   3.243   9.118 -1.3971 -0.1809  1.6091
 8845SOL    HW237998   3.435   3.285   8.984 -0.9981 -0.7891  0.1663
 8846SOL     OW37999   4.555   4.162   6.128 -0.5136 -0.3748  0.1342
 8846SOL    HW138000   4.507   4.081   6.145 -0.1713 -0.2612  1.6077
 8846SOL    HW238001   4.640   4.126   6.105 -0.9748 -0.1062 -1.9542
 8847SOL     OW38002   1.684   0.487   5.146 -0.3244 -0.4019  0.2476
 8847SOL    HW138003   1.658   0.530   5.227 -0.9384 -1.4461  0.6067
 8847SOL    HW238004   1.599   0.482   5.103 -0.6514  0.5315  0.7862
 8848SOL     OW38005   3.364   1.549   8.259 -0.5595 -0.7443 -0.0151
 8848SOL    HW138006   3.438   1.609   8.268  0.7661 -2.1494 -1.3217
 8848SOL    HW238007   3.409   1.464   8.262 -0.4638 -0.6233  1.6842
 8849SOL     OW38008   3.675   0.706   5.642 -0.1894  0.2096  0.5915
 8849SOL    HW138009   3.627   0.640   5.593  0.0764  0.2236  0.3116
 8849SOL    HW238010   3.616   0.721   5.715 -1.1804  0.1599 -0.2038
 8850SOL     OW38011   0.459   4.229  15.007  0.4492  0.0996  0.0108
 8850SOL    HW138012   0.472   4.323  14.998 -2.3269  0.4041 -0.6777
 8850SOL    HW238013   0.537   4.201  15.054  0.7550  1.7834  0.5074
 8851SOL     OW38014   1.458   0.700   4.982 -0.3188 -0.6764 -0.4146
 8851SOL    HW138015   1.435   0.615   5.020 -1.5651 -0.3360 -0.3947
 8851SOL    HW238016   1.407   0.713   4.901  0.7323  2.9113 -0.4965
 8852SOL     OW38017   4.367   0.387   3.043 -0.2725 -0.2048 -0.5406
 8852SOL    HW138018   4.415   0.462   3.079 -0.6070 -0.6565  0.8623
 8852SOL    HW238019   4.415   0.377   2.961  1.7306 -1.0649  0.7238
 8853SOL     OW38020   2.434   2.564   5.299 -0.7548 -0.0472 -0.2025
 8853SOL    HW138021   2.489   2.562   5.377 -1.2318  1.6571  0.1841
 8853SOL    HW238022   2.472   2.637   5.249  0.4453 -0.2785  0.3768
 8854SOL     OW38023   0.080   3.491   6.222  0.3400  0.5467  0.1486
 8854SOL    HW138024   4.725   3.536   6.198 -0.2860 -1.3750 -1.3600
 8854SOL    HW238025   0.114   3.554   6.286 -1.1053  1.2482  0.2442
 8855SOL     OW38026   2.808   0.763   3.227  0.5177  0.1247  0.2619
 8855SOL    HW138027   2.871   0.794   3.162  1.8360 -0.8234  1.0838
 8855SOL    HW238028   2.871   0.758   3.298  2.7672 -0.3956 -1.7641
 8856SOL     OW38029   3.023   4.439  13.250 -0.4374  0.7479  0.0267
 8856SOL    HW138030   2.974   4.378  13.304 -1.1101  0.0464 -1.3889
 8856SOL    HW238031   2.979   4.457  13.167 -0.9135  2.3865  0.6350
 8857SOL     OW38032   0.085   0.725   3.983  0.2874  0.2981 -0.6116
 8857SOL    HW138033   0.151   0.676   3.933 -2.0290 -1.9879 -1.4351
 8857SOL    HW238034   0.130   0.731   4.067 -0.6783 -0.0599 -0.0704
 8858SOL     OW38035   3.382   2.830   0.700 -0.1716  0.1463 -0.2856
 8858SOL    HW138036   3.417   2.904   0.750  1.9862 -2.4272  1.9492
 8858SOL    HW238037   3.297   2.864   0.670 -0.0760  0.3999 -0.2689
 8859SOL     OW38038   1.217   0.505   6.572  0.6749  0.7909 -0.0792
 8859SOL    HW138039   1.170   0.474   6.650  0.5696  1.9313  0.3092
 8859SOL    HW238040   1.254   0.422   6.541  1.5379  1.6360 -1.3235
 8860SOL     OW38041   1.890   4.278   8.860  0.2022  0.4869 -0.1979
 8860SOL    HW138042   1.876   4.371   8.879 -1.1729 -0.1350  1.8169
 8860SOL    HW238043   1.983   4.274   8.836  0.4587  0.0906  0.8507
 8861SOL     OW38044   3.351   3.989   8.398  0.0042 -0.3670  0.0870
 8861SOL    HW138045   3.292   4.060   8.372  0.6193 -0.0632 -0.4740
 8861SOL    HW238046   3.435   4.022   8.367 -1.0872  1.3990 -0.9815
 8862SOL     OW38047   0.065   1.540   7.887 -0.2601 -0.0234 -0.0215
 8862SOL    HW138048   0.010   1.464   7.864  0.2598 -0.6689  0.8808
 8862SOL    HW238049   0.129   1.543   7.815 -0.0757 -1.5306  0.0773
 8863SOL     OW38050   2.331   3.318  14.964 -0.0897  0.3807 -0.0036
 8863SOL    HW138051   2.387   3.343  15.038  1.3765  0.4668 -1.1600
 8863SOL    HW238052   2.380   3.341  14.886  1.5011 -2.5249  0.1469
 8864SOL     OW38053   0.440   2.442   5.975  0.2302 -0.2756 -0.4179
 8864SOL    HW138054   0.507   2.473   5.914  0.8697 -0.6882  0.0864
 8864SOL    HW238055   0.426   2.524   6.022  0.5269  0.0250 -0.8563
 8865SOL     OW38056   2.104   0.673   1.511 -0.2485 -0.2935  0.2246
 8865SOL    HW138057   2.156   0.647   1.435 -1.2276  1.2022 -0.9647
 8865SOL    HW238058   2.032   0.718   1.467 -0.5705  0.3670  1.4125
 8866SOL     OW38059   3.747   0.455   4.150 -0.1049  0.8444 -0.2818
 8866SOL    HW138060   3.805   0.464   4.226  0.7880 -3.0568 -0.4886
 8866SOL    HW238061   3.797   0.500   4.081  0.2897 -1.3678 -1.4235
 8867SOL     OW38062   3.985   4.529   6.775  0.1289  0.4645 -0.7309
 8867SOL    HW138063   3.946   4.524   6.862  0.0671 -0.1179 -0.7975
 8867SOL    HW238064   3.938   4.464   6.724 -1.2249  0.4821  0.5038
 8868SOL     OW38065   2.777   3.377   4.877 -0.2212 -0.1523 -0.2038
 8868SOL    HW138066   2.833   3.428   4.818  1.7266 -0.6641  1.2265
 8868SOL    HW238067   2.793   3.401   4.968  0.5107 -1.6438  0.0543
 8869SOL     OW38068   2.025   3.033   8.119 -0.1120 -0.0118  0.1832
 8869SOL    HW138069   1.950   3.008   8.065  0.2908  0.6989 -0.7097
 8869SOL    HW238070   2.038   3.117   8.075 -0.3063 -0.4846 -0.7599
 8870SOL     OW38071   1.965   3.992  11.476  0.0027  0.2756  0.5210
 8870SOL    HW138072   2.026   3.990  11.550  2.1674  0.5354 -1.2673
 8870SOL    HW238073   2.024   4.002  11.402 -0.0090  0.1571  0.4952
 8871SOL     OW38074   1.063   3.924   8.459  0.1133  0.3231  0.6362
 8871SOL    HW138075   1.117   3.971   8.523  0.1693 -1.7018  2.0705
 8871SOL    HW238076   1.124   3.884   8.398 -0.9283 -0.4750  0.1106
 8872SOL     OW38077   1.017   1.363  13.689 -0.0419  0.6340  0.1005
 8872SOL    HW138078   1.048   1.449  13.661 -0.8139  0.5921 -0.9072
 8872SOL    HW238079   1.095   1.310  13.673  0.5282  1.7044 -0.6821
 8873SOL     OW38080   1.817   0.047   3.730 -0.3036 -0.1736 -0.3219
 8873SOL    HW138081   1.792   0.072   3.818  4.5184  1.7293  0.5246
 8873SOL    HW238082   1.738   4.726   3.702 -0.5997 -0.4437  0.9830
 8874SOL     OW38083   0.588   4.114   4.600  0.4246  0.0048 -0.1541
 8874SOL    HW138084   0.524   4.046   4.579  0.3538  1.1115 -3.4746
 8874SOL    HW238085   0.543   4.195   4.576 -0.0947  0.0590  1.0111
 8875SOL     OW38086   2.029   1.999   7.406  0.3906 -0.0384 -0.2967
 8875SOL    HW138087   2.113   2.002   7.451  0.8742  0.3974 -1.2350
 8875SOL    HW238088   1.982   2.039   7.479 -0.9690 -1.1319 -0.5842
 8876SOL     OW38089   3.159   0.883  17.215 -0.5426 -0.3030 -0.1951
 8876SOL    HW138090   3.202   0.890  17.130 -2.6135  0.1500 -1.2103
 8876SOL    HW238091   3.079   0.834  17.193 -0.1631 -1.1762  0.3718
 8877SOL     OW38092   0.017   1.286   4.245  0.5191 -0.8610  0.0024
 8877SOL    HW138093   4.663   1.250   4.284  1.3074 -2.3372  0.2458
 8877SOL    HW238094   0.078   1.215   4.261  0.3761 -0.9193  0.2858
 8878SOL     OW38095   3.195   1.823   2.487  0.4834  0.1711  0.4716
 8878SOL    HW138096   3.217   1.905   2.442  1.1004  0.4802  1.3269
 8878SOL    HW238097   3.281   1.813   2.527 -0.1266  1.9399  2.2207
 8879SOL     OW38098   2.912   1.827  10.317 -0.0627  0.0423  0.3175
 8879SOL    HW138099   2.935   1.916  10.341 -0.2126  0.2476 -0.2811
 8879SOL    HW238100   2.973   1.818  10.244  2.2610  0.6865  2.1876
 8880SOL     OW38101   1.194   0.519  10.011 -0.8005 -0.1345 -0.2921
 8880SOL    HW138102   1.282   0.542  10.041 -0.8597  0.4114 -0.5401
 8880SOL    HW238103   1.222   0.459   9.943  0.7905 -0.1716  0.3995
 8881SOL     OW38104   3.778   4.442   3.985  0.1218 -0.0622  0.3880
 8881SOL    HW138105   3.711   4.502   4.017  0.3048  0.2600  0.1600
 8881SOL    HW238106   3.735   4.359   4.007 -3.0676  0.9140 -2.1586
 8882SOL     OW38107   0.049   0.736   7.280 -0.3004  0.5600 -0.2723
 8882SOL    HW138108   0.019   0.790   7.207  1.1254 -0.4930 -1.6486
 8882SOL    HW238109   0.123   0.778   7.322 -1.0234 -1.8787  3.4613
 8883SOL     OW38110   0.545   2.949   6.983 -0.3944 -0.1434  0.4293
 8883SOL    HW138111   0.582   3.003   7.053 -0.8654  0.8144 -0.0530
 8883SOL    HW238112   0.572   2.862   7.013  0.0374 -0.6981 -1.5875
 8884SOL     OW38113   0.728   4.164   5.076  0.1273  0.6223 -0.3811
 8884SOL    HW138114   0.666   4.176   5.005 -2.5598  0.4388  1.9454
 8884SOL    HW238115   0.662   4.144   5.142  1.0546  1.0452  0.6622
 8885SOL     OW38116   3.488   2.484   4.728 -0.5473  0.4548  0.1583
 8885SOL    HW138117   3.398   2.451   4.724  0.1824 -1.3842 -1.1616
 8885SOL    HW238118   3.537   2.440   4.659 -4.3974 -0.4842 -2.0070
 8886SOL     OW38119   1.863   0.552   4.747  0.1927 -0.0339 -0.1717
 8886SOL    HW138120   1.835   0.461   4.756  0.8267 -0.2870 -0.7913
 8886SOL    HW238121   1.786   0.595   4.710 -0.1187  0.7149  1.3642
 8887SOL     OW38122   2.305   2.942   5.931  0.1982 -1.1199 -0.1345
 8887SOL    HW138123   2.388   2.902   5.905  1.2525  0.5865  0.5738
 8887SOL    HW238124   2.242   2.872   5.943 -1.2994 -0.0451 -1.6518
 8888SOL     OW38125   0.501   0.541   0.885 -0.3529 -0.7073 -0.6121
 8888SOL    HW138126   0.427   0.599   0.900  0.6717 -0.3810  3.2138
 8888SOL    HW238127   0.571   0.586   0.932  0.9923 -2.9614 -0.4912
 8889SOL     OW38128   0.065   4.693  16.786 -0.5211  0.4658  0.0663
 8889SOL    HW138129   0.056   4.605  16.749 -0.4208 -0.5093  2.3641
 8889SOL    HW238130   4.696   4.702  16.796 -0.7811 -0.0763 -1.7758
 8890SOL     OW38131   3.697   2.951   6.844  0.8103 -0.5034  0.2901
 8890SOL    HW138132   3.766   3.013   6.869  0.5515 -0.7414  1.6004
 8890SOL    HW238133   3.642   3.013   6.796 -1.0353 -1.4365  1.1908
 8891SOL     OW38134   2.409   2.182   9.130 -0.0324  0.4433 -0.0948
 8891SOL    HW138135   2.433   2.118   9.063 -0.8650  0.3507 -0.3002
 8891SOL    HW238136   2.452   2.260   9.092 -0.1089  0.4473 -0.1736
 8892SOL     OW38137   1.139   0.344   6.860  0.3096  0.1429  0.0278
 8892SOL    HW138138   1.195   0.284   6.810 -0.9539  1.1187 -2.5531
 8892SOL    HW238139   1.176   0.355   6.947  0.9985  1.1046 -0.3830
 8893SOL     OW38140   2.807   1.456   7.087 -0.0421  0.2833  0.3267
 8893SOL    HW138141   2.878   1.440   7.025 -0.6902 -3.1184  0.4498
 8893SOL    HW238142   2.841   1.526   7.142  2.0169 -0.3586 -0.1285
 8894SOL     OW38143   1.021   2.879   4.453 -0.0952 -0.5677  0.1538
 8894SOL    HW138144   1.034   2.820   4.378 -1.1520 -0.3925 -0.1659
 8894SOL    HW238145   1.027   2.812   4.521 -0.6564  0.6169  1.3505
 8895SOL     OW38146   1.647   1.926   9.132  0.1480 -0.1091  0.3622
 8895SOL    HW138147   1.731   1.902   9.094 -0.1766 -0.4982 -0.1101
 8895SOL    HW238148   1.645   2.020   9.112 -0.7871  0.1695  1.6988
 8896SOL     OW38149   3.590   1.706  15.672  0.2373  0.2107 -0.4095
 8896SOL    HW138150   3.512   1.705  15.616  0.5013 -0.2056 -0.7742
 8896SOL    HW238151   3.662   1.715  15.609  1.0472 -1.0197  0.3344
 8897SOL     OW38152   3.437   3.083   0.865 -0.5490  0.3908  0.3061
 8897SOL    HW138153   3.455   3.168   0.906  0.8185 -0.5594  1.6656
 8897SOL    HW238154   3.356   3.105   0.819 -0.1187 -0.7124 -0.9697
 8898SOL     OW38155   4.569   1.946   4.532 -0.3855 -0.0924  0.1399
 8898SOL    HW138156   4.535   1.864   4.566  0.1073 -0.5029 -0.3642
 8898SOL    HW238157   4.559   1.915   4.442 -1.0576  1.3154 -0.2762
 8899SOL     OW38158   4.591   2.922   6.633  0.0072 -0.1958 -0.2028
 8899SOL    HW138159   4.520   2.880   6.680 -2.2664  0.3712 -3.1010
 8899SOL    HW238160   4.546   2.925   6.548  1.4811  1.9108 -0.9049
 8900SOL     OW38161   3.183   0.091   8.580 -0.0940 -0.2876 -0.1288
 8900SOL    HW138162   3.193   0.074   8.674 -1.7088 -0.0427  0.0840
 8900SOL    HW238163   3.215   0.008   8.546  2.4910  0.5181  0.3319
 8901SOL     OW38164   2.950   0.239   8.016  0.4091 -0.6463 -0.4250
 8901SOL    HW138165   2.946   0.148   8.045 -1.0519 -0.1666  0.8970
 8901SOL    HW238166   2.933   0.245   7.922  1.4644 -0.8381 -0.6194
 8902SOL     OW38167   0.781   3.809   4.143  0.2099  0.3137 -0.1800
 8902SOL    HW138168   0.794   3.773   4.055  1.3399 -3.0986  1.3988
 8902SOL    HW238169   0.873   3.820   4.168 -0.2458 -0.2009  1.7001
 8903SOL     OW38170   3.125   0.163   1.330 -0.4357 -0.4121  0.4404
 8903SOL    HW138171   3.117   0.098   1.401  1.0868  0.4421  1.3827
 8903SOL    HW238172   3.042   0.211   1.332 -1.0971 -1.5406 -0.2704
 8904SOL     OW38173   0.759   1.626   4.683 -1.1571  0.4169 -0.1624
 8904SOL    HW138174   0.756   1.708   4.634 -0.7190  0.4263 -0.1736
 8904SOL    HW238175   0.757   1.572   4.604 -1.7449  0.7497 -0.3764
 8905SOL     OW38176   1.974   2.306   4.692 -0.9086  0.1970 -0.0991
 8905SOL    HW138177   2.002   2.232   4.746 -0.0839  0.2858 -0.4017
 8905SOL    HW238178   2.061   2.344   4.678  0.5080 -1.8937  2.9849
 8906SOL     OW38179   3.516   3.577   4.586  0.2323  0.5888  0.1654
 8906SOL    HW138180   3.469   3.500   4.618 -2.8132  1.8294 -1.3765
 8906SOL    HW238181   3.443   3.638   4.592  0.2723  0.7338 -0.8221
 8907SOL     OW38182   3.722   1.556   4.241 -0.7437  0.1094  0.1363
 8907SOL    HW138183   3.636   1.553   4.200 -0.0292 -0.6331 -1.3276
 8907SOL    HW238184   3.771   1.596   4.169  1.4335 -1.0452  0.9722
 8908SOL     OW38185   0.741   2.014   3.997 -0.3788  1.0106 -0.2460
 8908SOL    HW138186   0.747   2.044   3.906  1.9207 -0.6938 -0.6673
 8908SOL    HW238187   0.718   1.923   3.982  0.1907  0.9263 -0.6253
 8909SOL     OW38188   4.718   3.109  10.647 -0.3021  0.3454  0.0362
 8909SOL    HW138189   0.057   3.178  10.636 -1.3287  1.7103  2.5385
 8909SOL    HW238190   0.039   3.028  10.629 -1.8527 -0.5716  0.1376
 8910SOL     OW38191   3.772   3.181  13.873 -0.8332  0.3437 -0.0661
 8910SOL    HW138192   3.823   3.218  13.945  0.6439  2.3629 -2.1597
 8910SOL    HW238193   3.691   3.158  13.919  0.6148 -1.1355  1.7499
 8911SOL     OW38194   0.882   3.836   7.515 -0.4140  0.3711 -0.4760
 8911SOL    HW138195   0.872   3.879   7.600 -0.2642  0.5237 -0.5376
 8911SOL    HW238196   0.812   3.771   7.514  0.8050 -1.0262  1.7745
 8912SOL     OW38197   3.707   0.090   5.635  0.5220  1.2782 -0.3409
 8912SOL    HW138198   3.780   0.120   5.582  1.4143 -2.1166 -1.0164
 8912SOL    HW238199   3.746   0.023   5.691  0.0194  1.6871  0.5100
 8913SOL     OW38200   2.860   3.820  15.914 -0.0464  0.1382  0.2018
 8913SOL    HW138201   2.824   3.732  15.920 -1.9432  0.7663 -1.8056
 8913SOL    HW238202   2.798   3.873  15.863  0.7012 -1.3491 -2.2706
 8914SOL     OW38203   3.842   1.468   6.802 -0.3204  0.1219  0.1107
 8914SOL    HW138204   3.874   1.457   6.891 -1.2766  2.9788  0.8062
 8914SOL    HW238205   3.915   1.441   6.746  1.8941  2.2694  1.9973
 8915SOL     OW38206   3.017   1.821   4.632  0.1604  0.6043 -0.3387
 8915SOL    HW138207   3.087   1.828   4.698  0.3595  0.9237 -0.5853
 8915SOL    HW238208   2.982   1.736   4.658 -2.0445  2.0085  1.2242
 8916SOL     OW38209   0.100   1.196  12.104  0.1246 -0.5745  0.2802
 8916SOL    HW138210   0.188   1.232  12.108 -0.1182  0.0111  0.2918
 8916SOL    HW238211   0.128   1.104  12.107 -2.7075 -1.4246  0.9412
 8917SOL     OW38212   0.470   1.900   5.602  0.6820  0.2637 -0.1145
 8917SOL    HW138213   0.553   1.948   5.604  1.6137 -1.2929 -2.2105
 8917SOL    HW238214   0.447   1.897   5.510 -1.9858 -0.8549  0.5862
 8918SOL     OW38215   0.926   3.197   3.541 -0.1328  0.3498 -0.3813
 8918SOL    HW138216   1.015   3.224   3.521 -0.1190  0.7697  0.2550
 8918SOL    HW238217   0.941   3.103   3.549 -1.4584  0.2773  1.2825
 8919SOL     OW38218   2.331   3.403   7.998  0.9808 -0.4977  0.3243
 8919SOL    HW138219   2.306   3.476   7.942 -2.0916 -2.1570 -0.4991
 8919SOL    HW238220   2.423   3.402   7.972  0.4386 -2.2525 -1.5212
 8920SOL     OW38221   4.057   1.965   2.218 -0.6517 -0.0209 -0.3726
 8920SOL    HW138222   4.122   1.918   2.166  0.7330 -0.3380  1.6512
 8920SOL    HW238223   3.981   1.969   2.160 -0.8458 -1.2245 -0.1947
 8921SOL     OW38224   1.392   3.015   2.291  0.1919  0.6581 -0.2499
 8921SOL    HW138225   1.391   3.035   2.384 -1.1126  0.9927 -0.3382
 8921SOL    HW238226   1.304   2.983   2.271  0.6961 -0.4933 -0.6046
 8922SOL     OW38227   3.702   1.176   2.444 -0.6007  0.3284 -0.4481
 8922SOL    HW138228   3.758   1.099   2.436 -2.6355 -1.1761 -0.2388
 8922SOL    HW238229   3.681   1.173   2.538  1.9821  1.6677  0.1759
 8923SOL     OW38230   2.654   3.577   0.624  0.0235  0.8314 -0.3958
 8923SOL    HW138231   2.606   3.536   0.695 -0.7723  1.0656 -0.7938
 8923SOL    HW238232   2.607   3.660   0.627  0.0208  0.8839 -1.6085
 8924SOL     OW38233   0.430   1.910   2.372  0.0206 -0.2214 -0.2175
 8924SOL    HW138234   0.425   1.844   2.441 -3.1229 -0.5732 -0.7523
 8924SOL    HW238235   0.446   1.854   2.295 -0.5247 -1.8710  0.8767
 8925SOL     OW38236   0.605   2.509  10.073 -0.2759  0.7391  0.3271
 8925SOL    HW138237   0.524   2.561  10.075  0.6934  2.3116 -1.1868
 8925SOL    HW238238   0.598   2.475  10.162 -2.2810 -2.5285 -1.0873
 8926SOL     OW38239   2.140   1.574  16.010 -0.0548  0.2351 -0.2808
 8926SOL    HW138240   2.215   1.584  16.069 -0.1712 -0.6235 -0.0011
 8926SOL    HW238241   2.088   1.649  16.040  0.5776  0.6188 -0.1410
 8927SOL     OW38242   3.950   0.238   5.874 -0.6624 -0.4431  0.4603
 8927SOL    HW138243   3.965   0.149   5.907 -3.0678 -1.3706 -0.9490
 8927SOL    HW238244   3.955   0.279   5.960 -2.1657  1.6262 -0.4573
 8928SOL     OW38245   1.548   2.744   6.970 -0.5696  0.1189  0.6910
 8928SOL    HW138246   1.638   2.735   6.938 -1.0832 -3.2852  0.1721
 8928SOL    HW238247   1.537   2.657   7.008  0.3375 -0.9840 -1.5674
 8929SOL     OW38248   4.380   2.538   5.553  0.2610 -0.3264 -0.3763
 8929SOL    HW138249   4.369   2.469   5.488  0.4977  0.3355 -1.1134
 8929SOL    HW238250   4.460   2.497   5.588  0.4356  0.7793  0.5033
 8930SOL     OW38251   0.530   0.891   3.298 -0.4553  0.1221  0.2449
 8930SOL    HW138252   0.624   0.874   3.311 -0.6929 -0.8598  0.6886
 8930SOL    HW238253   0.503   0.804   3.271 -3.4097  1.5251 -1.2039
 8931SOL     OW38254   4.431   3.854  16.994  0.4953 -0.3118  0.9333
 8931SOL    HW138255   4.410   3.946  16.985  0.3564 -0.6511 -2.1390
 8931SOL    HW238256   4.353   3.802  16.973 -0.8619  1.9232  0.5398
 8932SOL     OW38257   2.961   1.076   2.364  0.7252  0.1245  0.3402
 8932SOL    HW138258   2.929   1.021   2.436  2.3528 -1.3684 -0.0657
 8932SOL    HW238259   2.880   1.126   2.356 -0.1338 -1.2659  0.1570
 8933SOL     OW38260   0.483   3.484   4.996  0.5368 -0.2625  0.0000
 8933SOL    HW138261   0.480   3.476   4.901  1.4044 -1.1869  0.0453
 8933SOL    HW238262   0.577   3.482   5.010  0.8894  0.2880 -2.2167
 8934SOL     OW38263   1.566   1.811   6.956  0.0505 -0.7510  0.6318
 8934SOL    HW138264   1.658   1.791   6.974  0.9611  1.2130 -1.8911
 8934SOL    HW238265   1.568   1.906   6.965  0.4093 -0.8753  1.8612
 8935SOL     OW38266   2.857   2.775  15.893 -0.1190  0.2591  0.1781
 8935SOL    HW138267   2.876   2.711  15.825 -1.0167 -1.1890  1.2937
 8935SOL    HW238268   2.878   2.860  15.853 -0.0762 -0.1473 -0.6572
 8936SOL     OW38269   1.010   1.764   3.470  0.2058  0.5228  0.0812
 8936SOL    HW138270   1.015   1.781   3.376  0.1207  2.0853  0.3621
 8936SOL    HW238271   1.015   1.668   3.471 -0.8406  0.4702  0.1144
 8937SOL     OW38272   4.451   0.355   7.094 -0.7452 -0.0326  0.1270
 8937SOL    HW138273   4.474   0.264   7.110  0.7456  0.4226  0.5472
 8937SOL    HW238274   4.530   0.392   7.053 -0.2498 -0.2728  0.8707
 8938SOL     OW38275   3.636   2.486   8.302 -0.4575 -0.5173  0.0337
 8938SOL    HW138276   3.673   2.474   8.215 -1.2934 -0.7993 -0.2768
 8938SOL    HW238277   3.701   2.448   8.362 -0.5955  0.9485  1.1089
 8939SOL     OW38278   0.932   1.342   2.523  0.2441  0.4449 -0.6523
 8939SOL    HW138279   0.982   1.262   2.536  1.3461  1.2814  0.1821
 8939SOL    HW238280   0.848   1.298   2.509  1.0182 -0.7425 -1.5911
 8940SOL     OW38281   4.314   1.084   2.247  0.1541  0.5336 -0.0599
 8940SOL    HW138282   4.353   1.101   2.332 -1.2503  1.2626  0.4364
 8940SOL    HW238283   4.363   1.010   2.210 -1.2063 -0.1223 -0.5762
 8941SOL     OW38284   2.785   2.090   5.732 -0.6429  0.3633  0.3042
 8941SOL    HW138285   2.759   2.076   5.641 -0.6297 -1.5754  0.6069
 8941SOL    HW238286   2.878   2.108   5.719 -0.4584 -1.3768 -0.7958
 8942SOL     OW38287   4.676   0.946   7.154 -0.3842  0.5689 -0.5267
 8942SOL    HW138288   4.711   0.947   7.065  0.9223 -4.9953 -0.0478
 8942SOL    HW238289   4.641   1.035   7.164  1.0869  0.8207  2.2243
 8943SOL     OW38290   4.133   3.047   8.606 -0.3244 -0.1007 -0.1252
 8943SOL    HW138291   4.220   3.084   8.597 -0.2200 -0.3919 -0.3208
 8943SOL    HW238292   4.115   3.009   8.520  1.3391 -2.3738  0.5135
 8944SOL     OW38293   0.396   2.844  15.895  0.1928  0.5497  0.1168
 8944SOL    HW138294   0.431   2.924  15.933  0.7778 -0.3987  1.5708
 8944SOL    HW238295   0.479   2.805  15.869 -0.2817  0.3308 -1.0809
 8945SOL     OW38296   2.276   1.469   4.403 -0.0796 -0.0568  0.6930
 8945SOL    HW138297   2.265   1.550   4.353  0.7580 -0.3889 -0.0359
 8945SOL    HW238298   2.268   1.504   4.491 -0.4243  1.3869  0.0758
 8946SOL     OW38299   1.013   1.363  11.026 -0.1492 -0.1443 -0.4033
 8946SOL    HW138300   1.019   1.344  10.932 -1.6550 -1.2341 -0.2885
 8946SOL    HW238301   1.010   1.458  11.032 -0.0966 -0.4357  4.1097
 8947SOL     OW38302   2.694   2.288   3.443  0.2744 -0.0666 -0.2265
 8947SOL    HW138303   2.603   2.272   3.469 -0.0011 -2.5695 -2.6938
 8947SOL    HW238304   2.664   2.315   3.356 -1.0461  3.1704  1.2268
 8948SOL     OW38305   3.586   4.039  17.688 -0.6847  0.1665  0.3685
 8948SOL    HW138306   3.607   4.007  17.600  1.8605  1.3577  0.5725
 8948SOL    HW238307   3.599   4.133  17.680 -0.5890  0.3690  2.8917
 8949SOL     OW38308   2.243   2.601   3.273  0.2502  0.0949 -0.3115
 8949SOL    HW138309   2.329   2.609   3.314 -1.3080  0.9350  2.8001
 8949SOL    HW238310   2.270   2.630   3.186  0.1428  3.0341  0.6237
 8950SOL     OW38311   1.135   0.297  13.666 -0.3987 -0.2037 -0.2236
 8950SOL    HW138312   1.103   0.225  13.720  1.2648 -0.3194  0.6245
 8950SOL    HW238313   1.221   0.258  13.651  0.2537  1.9331 -1.9913
 8951SOL     OW38314   2.516   1.688   3.030 -0.5630  0.6807  0.4704
 8951SOL    HW138315   2.510   1.669   3.123  1.8372  0.0683  0.4897
 8951SOL    HW238316   2.444   1.747   3.005 -0.9300  0.9055  2.0825
 8952SOL     OW38317   4.387   2.467   1.622 -0.2723  0.0928  0.6482
 8952SOL    HW138318   4.311   2.422   1.585 -1.3310  1.1175  1.5705
 8952SOL    HW238319   4.397   2.534   1.555 -0.8433  0.2171  0.6841
 8953SOL     OW38320   0.616   0.397   8.108  0.0935  0.4837 -0.1041
 8953SOL    HW138321   0.522   0.408   8.125 -0.2688 -0.1836 -1.7380
 8953SOL    HW238322   0.632   0.351   8.191  0.1998  2.0286  0.7275
 8954SOL     OW38323   3.026   1.496   6.904  0.3400  0.3771 -0.0998
 8954SOL    HW138324   2.981   1.470   6.823  1.4152 -1.5120 -0.0834
 8954SOL    HW238325   3.100   1.436   6.901  0.3694  0.3803  0.8649
 8955SOL     OW38326   3.459   2.131  15.311  0.2272 -0.1577  0.6158
 8955SOL    HW138327   3.447   2.142  15.217 -1.5993  0.7973  0.9537
 8955SOL    HW238328   3.465   2.223  15.336 -0.7135 -0.4128  1.8175
 8956SOL     OW38329   2.156   4.113   8.472 -0.3063  0.3756 -0.7187
 8956SOL    HW138330   2.250   4.123   8.456  0.2978 -1.5442  1.5797
 8956SOL    HW238331   2.134   4.028   8.433 -0.6082  0.0761  0.0998
 8957SOL     OW38332   3.318   0.363   8.811 -0.6403 -0.1256 -0.5575
 8957SOL    HW138333   3.370   0.441   8.826 -0.9636 -0.7035  3.7311
 8957SOL    HW238334   3.364   0.312   8.744  1.5352 -0.2547  1.0484
 8958SOL     OW38335   0.473   4.519   2.244  0.0861  0.2917  0.0418
 8958SOL    HW138336   0.515   4.504   2.160 -1.7946 -1.8999 -0.4959
 8958SOL    HW238337   0.546   4.515   2.307 -0.4301  3.6628  0.8144
 8959SOL     OW38338   0.869   1.323   5.840 -0.1292  0.0888  0.5262
 8959SOL    HW138339   0.898   1.411   5.815 -0.6100  0.1486  0.1781
 8959SOL    HW238340   0.948   1.272   5.820  0.7843  1.5665  0.2994
 8960SOL     OW38341   1.472   2.918   1.708 -0.6250  0.4634  0.0891
 8960SOL    HW138342   1.447   2.958   1.625 -1.1479 -1.3098 -0.6073
 8960SOL    HW238343   1.403   2.940   1.770 -0.6045  0.4266  0.1251
 8961SOL     OW38344   4.107   4.402  14.885 -0.0027  1.1233  0.0471
 8961SOL    HW138345   4.035   4.463  14.905 -1.9192 -1.1548  0.1624
 8961SOL    HW238346   4.068   4.373  14.802  2.6073 -0.0186 -0.7632
 8962SOL     OW38347   4.232   1.198   7.306 -0.3793  0.0128  0.1240
 8962SOL    HW138348   4.284   1.118   7.313  1.8801  1.5008  0.3988
 8962SOL    HW238349   4.156   1.169   7.356 -0.0123  1.1899  1.3426
 8963SOL     OW38350   1.409   0.605   1.694  0.1279 -0.3578  0.4996
 8963SOL    HW138351   1.425   0.537   1.628  0.5979 -0.6056  0.8744
 8963SOL    HW238352   1.392   0.684   1.642  0.3447 -1.1689 -0.7972
 8964SOL     OW38353   2.161   0.683   8.751 -0.4474  0.3935  0.1982
 8964SOL    HW138354   2.071   0.704   8.727 -0.4111 -0.5802 -0.8413
 8964SOL    HW238355   2.206   0.762   8.722 -1.8792  0.2644 -2.3617
 8965SOL     OW38356   0.722   3.567  11.216  0.0668 -0.4097  0.5075
 8965SOL    HW138357   0.688   3.505  11.281 -0.8508 -0.1712  0.2677
 8965SOL    HW238358   0.752   3.641  11.269 -0.4125  0.1821 -0.0433
 8966SOL     OW38359   1.081   1.453   5.489  0.1779  0.8816  0.0937
 8966SOL    HW138360   1.081   1.538   5.533 -0.0570  0.1356  1.5533
 8966SOL    HW238361   1.118   1.404   5.562 -3.0385 -3.0104 -0.8641
 8967SOL     OW38362   1.692   3.825   8.649 -0.3721  0.2784  0.3588
 8967SOL    HW138363   1.690   3.919   8.664  0.3024 -0.2608  3.7452
 8967SOL    HW238364   1.722   3.790   8.733 -1.6463 -0.4843  0.5016
 8968SOL     OW38365   1.456   2.608   7.940  0.0752  0.2557 -0.3618
 8968SOL    HW138366   1.525   2.665   7.905  1.6173 -0.9019  0.7657
 8968SOL    HW238367   1.452   2.636   8.032  2.4226  0.4987 -0.3167
 8969SOL     OW38368   3.404   2.354   7.758 -0.1173  0.1916 -0.6345
 8969SOL    HW138369   3.479   2.411   7.774  0.2110 -0.3262 -0.3207
 8969SOL    HW238370   3.330   2.394   7.803 -0.3446 -0.0739 -0.7747
 8970SOL     OW38371   0.680   1.017  13.744 -0.0796 -0.2322 -0.4849
 8970SOL    HW138372   0.670   1.044  13.835 -3.3100  2.0611 -1.5080
 8970SOL    HW238373   0.731   1.095  13.720  0.9042 -0.6368  0.3018
 8971SOL     OW38374   3.642   4.486   8.666 -0.3417  0.1953  0.4553
 8971SOL    HW138375   3.718   4.508   8.719  1.5697  0.3630 -2.3476
 8971SOL    HW238376   3.593   4.455   8.742 -1.9144 -0.2979 -0.7596
 8972SOL     OW38377   3.418   3.211   2.911 -0.3748  0.3054  0.0863
 8972SOL    HW138378   3.411   3.184   3.003  1.7240 -0.4755  0.0110
 8972SOL    HW238379   3.448   3.300   2.931 -0.9527  0.3214  0.8914
 8973SOL     OW38380   4.014   0.151  10.451 -0.2472  0.5702  0.0444
 8973SOL    HW138381   3.929   0.149  10.407 -0.0764 -2.7921 -0.1127
 8973SOL    HW238382   4.071   0.108  10.388  0.5413  0.7933  0.5968
 8974SOL     OW38383   2.632   0.060   5.435 -0.2106  0.0062 -0.1526
 8974SOL    HW138384   2.605   4.710   5.384 -0.9520 -0.3009  0.7045
 8974SOL    HW238385   2.582   0.051   5.516  1.2898  2.5283  1.0532
 8975SOL     OW38386   4.517   4.276   4.156 -0.1226  0.0480  0.1953
 8975SOL    HW138387   4.437   4.242   4.116  0.2563 -0.9264  0.2459
 8975SOL    HW238388   4.515   4.363   4.116  1.7369  0.0416  0.1002
 8976SOL     OW38389   4.718   3.766  10.743  0.0272  0.3055 -0.1659
 8976SOL    HW138390   0.009   3.732  10.830 -0.5288  1.6879  0.4956
 8976SOL    HW238391   4.640   3.822  10.749  1.2772  2.1037 -0.6849
 8977SOL     OW38392   2.226   3.341   7.357 -0.0656  0.5517  0.3926
 8977SOL    HW138393   2.235   3.253   7.322  1.9198  0.2579  1.6681
 8977SOL    HW238394   2.149   3.324   7.411  0.8800 -1.0889  1.2073
 8978SOL     OW38395   3.605   0.960   9.059  0.2149 -0.4910 -0.6792
 8978SOL    HW138396   3.512   0.958   9.037 -0.0761  1.8320  0.3413
 8978SOL    HW238397   3.614   0.867   9.078 -1.6951 -0.5536 -0.0538
 8979SOL     OW38398   3.472   1.384   6.634  0.3166  0.5085  0.1444
 8979SOL    HW138399   3.428   1.376   6.550 -0.2571 -1.8789  0.6701
 8979SOL    HW238400   3.555   1.347   6.606  0.5713  1.1244  0.0987
 8980SOL     OW38401   4.267   0.245   8.613 -0.3917  0.5735  0.4783
 8980SOL    HW138402   4.230   0.226   8.526 -0.3366  1.5145  0.2520
 8980SOL    HW238403   4.241   0.335   8.634 -4.3984 -0.6756  0.8499
 8981SOL     OW38404   0.636   2.707  12.552 -0.3157  0.2985  0.4392
 8981SOL    HW138405   0.622   2.782  12.610  1.4361 -0.6395  2.0519
 8981SOL    HW238406   0.729   2.706  12.532 -0.4712  4.2506 -0.5688
 8982SOL     OW38407   1.880   4.347   5.257 -0.8096  0.3381  0.0654
 8982SOL    HW138408   1.873   4.427   5.309  0.7411  0.1976  0.5126
 8982SOL    HW238409   1.802   4.359   5.203 -1.5341  0.1792  1.0797
 8983SOL     OW38410   2.232   0.335   7.319  0.8098 -0.0409 -0.3277
 8983SOL    HW138411   2.171   0.373   7.383  0.5843 -0.3477 -0.3569
 8983SOL    HW238412   2.183   0.253   7.307  3.0743 -1.5643  0.7124
 8984SOL     OW38413   3.029   2.086   3.593 -0.6010 -0.2470  0.3463
 8984SOL    HW138414   2.948   2.067   3.639 -1.3536  0.0650 -0.8735
 8984SOL    HW238415   3.001   2.130   3.513  2.4658  0.6772 -0.2255
 8985SOL     OW38416   3.607   2.171   4.663  0.0437  0.4650  0.4413
 8985SOL    HW138417   3.593   2.243   4.601 -0.2315 -0.5086 -0.6434
 8985SOL    HW238418   3.577   2.093   4.615  1.5241  0.0380  0.2293
 8986SOL     OW38419   1.478   1.913   1.942  0.2800  0.7031 -0.3330
 8986SOL    HW138420   1.435   1.870   2.015  0.4867 -0.3427 -0.8376
 8986SOL    HW238421   1.518   1.839   1.898 -1.6530 -0.5255 -0.0076
 8987SOL     OW38422   0.253   3.800   4.638  0.4686 -0.2418 -0.4723
 8987SOL    HW138423   0.310   3.832   4.568  0.0953 -0.2376 -0.7734
 8987SOL    HW238424   0.254   3.705   4.626  1.4688 -0.0730 -1.6451
 8988SOL     OW38425   0.869   0.082   5.952  0.2446 -0.3387  0.5358
 8988SOL    HW138426   0.831   0.039   6.028  0.9387  0.2067  1.1866
 8988SOL    HW238427   0.902   0.007   5.902  1.4274 -0.5687  1.6668
 8989SOL     OW38428   0.019   4.035  16.834  0.2399  0.1515  0.0282
 8989SOL    HW138429   0.086   4.016  16.900 -0.1560 -2.5691 -0.3672
 8989SOL    HW238430   4.690   4.096  16.883  1.3973 -0.3047  1.9410
 8990SOL     OW38431   2.941   2.427  16.218  0.0647 -0.4884 -0.1321
 8990SOL    HW138432   2.915   2.519  16.213 -2.9600 -1.4253 -1.7130
 8990SOL    HW238433   2.884   2.397  16.147  1.4975  0.4170 -1.6628
 8991SOL     OW38434   1.076   1.284   7.975 -0.1568 -0.2001  0.7276
 8991SOL    HW138435   1.049   1.228   7.902 -0.2147 -0.4474  0.9419
 8991SOL    HW238436   1.002   1.274   8.034  1.4130  1.2313  2.9395
 8992SOL     OW38437   0.171   2.635   8.774  0.2133  0.1140  0.1265
 8992SOL    HW138438   0.100   2.628   8.838  0.1154 -0.7204 -0.0785
 8992SOL    HW238439   0.240   2.575   8.800  0.0503  0.5053  1.4759
 8993SOL     OW38440   0.409   1.294   9.221  0.6757  0.6649  0.0166
 8993SOL    HW138441   0.484   1.348   9.196  1.4890 -0.3804  0.2181
 8993SOL    HW238442   0.378   1.336   9.301 -2.3942  1.0073 -1.3714
 8994SOL     OW38443   0.820   4.274   5.432 -0.3653  0.7032  0.2275
 8994SOL    HW138444   0.772   4.254   5.513  0.8500 -2.5651  0.1514
 8994SOL    HW238445   0.773   4.203   5.388  0.9791 -0.3575  0.4968
 8995SOL     OW38446   0.875   0.854   8.494  0.0184 -0.3362 -0.5327
 8995SOL    HW138447   0.866   0.797   8.570 -0.5016  1.0862  0.4608
 8995SOL    HW238448   0.817   0.818   8.427 -0.0496 -2.0896  0.4706
 8996SOL     OW38449   2.330   2.728   3.755  0.6990 -0.2864  0.2781
 8996SOL    HW138450   2.377   2.773   3.826  0.4258  3.2305 -1.8024
 8996SOL    HW238451   2.339   2.797   3.690 -2.4084  0.4014  0.5389
 8997SOL     OW38452   3.966   0.814   5.601 -0.5662 -0.1243 -0.1075
 8997SOL    HW138453   3.882   0.770   5.601 -0.4449 -0.3553 -0.3463
 8997SOL    HW238454   3.969   0.858   5.516 -0.2084  0.1083  0.0220
 8998SOL     OW38455   1.027   0.322   2.018  0.3147  0.1784 -0.0171
 8998SOL    HW138456   1.101   0.352   1.965 -0.2061  0.2264 -0.7248
 8998SOL    HW238457   1.046   0.230   2.034  0.2871  0.3418  0.9615
 8999SOL     OW38458   2.570   4.619   2.566 -0.3347 -0.5340 -0.0498
 8999SOL    HW138459   2.487   4.571   2.561  0.2669 -1.7393  1.4513
 8999SOL    HW238460   2.644   4.559   2.572  0.1725  0.2728  1.6161
 9000SOL     OW38461   3.350   4.458   6.110 -0.6696  0.5955  0.6713
 9000SOL    HW138462   3.421   4.514   6.078 -0.9735  0.4481 -0.2588
 9000SOL    HW238463   3.405   4.384   6.135  1.1053  1.1897 -1.4205
 9001SOL     OW38464   4.546   4.248   8.818  0.4088  0.2107 -0.0018
 9001SOL    HW138465   4.473   4.305   8.843 -0.7120 -1.6711  0.9601
 9001SOL    HW238466   4.519   4.214   8.733 -0.4519 -3.3101  1.7086
 9002SOL     OW38467   4.466   3.637   3.095  0.0263 -0.1241 -0.0402
 9002SOL    HW138468   4.504   3.601   3.015 -0.4773 -0.0310 -0.3237
 9002SOL    HW238469   4.423   3.557   3.126  0.0008  0.5325  1.6514
 9003SOL     OW38470   2.322   1.208  13.405 -0.0271 -0.0311  0.1638
 9003SOL    HW138471   2.354   1.297  13.416  0.6061 -0.2339  0.0020
 9003SOL    HW238472   2.228   1.211  13.422  0.4524 -1.1523  3.1160
 9004SOL     OW38473   0.024   2.557   3.875 -0.2389 -0.4821  0.2627
 9004SOL    HW138474   4.660   2.571   3.846  0.0793  1.0646  0.0083
 9004SOL    HW238475   0.058   2.548   3.786 -1.3846 -1.4263 -0.0938
 9005SOL     OW38476   3.995   3.761   8.136 -0.6903 -0.0332  0.1591
 9005SOL    HW138477   3.910   3.771   8.178 -0.6788 -0.5040  0.2901
 9005SOL    HW238478   4.002   3.667   8.152  1.3520 -0.0771 -0.9664
 9006SOL     OW38479   3.661   3.162   1.296  0.3749  0.8185 -0.7259
 9006SOL    HW138480   3.737   3.112   1.324  0.5527  0.1093 -2.4417
 9006SOL    HW238481   3.678   3.177   1.203 -2.1004 -1.3338 -1.5124
 9007SOL     OW38482   2.572   0.167   2.454 -0.1178 -0.5240  0.0606
 9007SOL    HW138483   2.598   0.089   2.503 -0.0797 -0.7635 -0.3305
 9007SOL    HW238484   2.536   0.128   2.374  2.0369 -1.8976 -0.2343
 9008SOL     OW38485   1.119   1.212   6.165  0.3764  0.3208  0.0024
 9008SOL    HW138486   1.092   1.300   6.137  2.0579  1.7783  2.9818
 9008SOL    HW238487   1.092   1.209   6.257  0.8214  2.9190  0.2195
 9009SOL     OW38488   1.123   0.737  13.147 -0.4386 -0.1257  0.0566
 9009SOL    HW138489   1.184   0.669  13.118 -0.4255 -1.2050  2.6106
 9009SOL    HW238490   1.089   0.756  13.060  0.7225 -2.3439 -0.8647
 9010SOL     OW38491   2.133   0.691   7.614  0.5537 -0.0201 -0.4968
 9010SOL    HW138492   2.092   0.743   7.544  1.1747 -2.1044 -2.3723
 9010SOL    HW238493   2.222   0.681   7.582  0.8991 -0.0386  0.4771
 9011SOL     OW38494   3.221   3.961   8.125  0.3976  0.1963  0.3335
 9011SOL    HW138495   3.250   3.922   8.207 -0.9894  0.7566  1.0888
 9011SOL    HW238496   3.126   3.956   8.128  0.4443 -0.2555  0.9038
 9012SOL     OW38497   4.568   3.828  15.082  0.0649  0.0953  0.1207
 9012SOL    HW138498   4.557   3.762  15.150  1.0272 -1.8860 -1.6748
 9012SOL    HW238499   4.478   3.859  15.097  0.3035  0.3013  1.1656
 9013SOL     OW38500   0.103   4.335   7.513 -0.0625 -0.7550  0.1872
 9013SOL    HW138501   0.088   4.405   7.575  0.4560 -0.7118  0.2639
 9013SOL    HW238502   0.035   4.277   7.549  1.3523 -0.3957  3.4147
 9014SOL     OW38503   0.662   2.629   8.998 -0.2248  0.1093  0.5144
 9014SOL    HW138504   0.748   2.602   9.029 -0.1602  1.5810  1.5832
 9014SOL    HW238505   0.648   2.552   8.943  2.3548 -0.5155  0.7242
 9015SOL     OW38506   0.644   4.684   5.131  0.2651  0.0298  0.3716
 9015SOL    HW138507   0.672   4.620   5.065  0.4000  0.6724 -0.1965
 9015SOL    HW238508   0.654   4.630   5.209  1.0785 -0.9063 -0.3698
 9016SOL     OW38509   2.806   0.711   9.023  0.4868 -0.0114 -0.3795
 9016SOL    HW138510   2.786   0.618   9.015  0.8731 -0.2008  0.8665
 9016SOL    HW238511   2.901   0.719   9.018  0.4159  1.2627  0.2306
 9017SOL     OW38512   3.204   2.948   4.902 -0.1302 -0.2358 -0.5186
 9017SOL    HW138513   3.239   2.859   4.891 -0.7246 -0.5511  0.1446
 9017SOL    HW238514   3.139   2.924   4.968  0.9596 -1.2097  0.2046
 9018SOL     OW38515   1.957   3.967   1.484 -0.0401  0.3550 -0.5971
 9018SOL    HW138516   1.937   3.907   1.555 -0.8367  0.1668 -0.9902
 9018SOL    HW238517   2.051   3.951   1.475  0.0107  0.5853 -0.4975
 9019SOL     OW38518   0.700   2.012  13.781 -0.2343  0.0198 -0.1267
 9019SOL    HW138519   0.718   2.105  13.765 -3.2603  0.5451 -0.4800
 9019SOL    HW238520   0.764   1.996  13.850 -2.2420 -0.2874  1.6763
 9020SOL     OW38521   0.332   0.352   6.649  0.2126  0.1679  0.0321
 9020SOL    HW138522   0.278   0.382   6.576  1.2514 -2.5457 -1.8351
 9020SOL    HW238523   0.377   0.435   6.668 -2.2783  1.5442 -0.0418
 9021SOL     OW38524   1.041   0.498   2.976  0.0129  0.1646 -0.5139
 9021SOL    HW138525   1.083   0.482   2.892 -1.4903 -1.6774 -0.9023
 9021SOL    HW238526   1.087   0.435   3.032 -1.9841 -1.5410 -0.8096
 9022SOL     OW38527   4.480   1.661   4.619  0.0736  0.1324 -0.0768
 9022SOL    HW138528   4.390   1.628   4.626  0.2778 -0.8607 -2.0155
 9022SOL    HW238529   4.493   1.698   4.706  1.7462  0.2008 -0.3549
 9023SOL     OW38530   1.977   0.951   5.386  0.3967 -0.1548 -0.3347
 9023SOL    HW138531   1.946   0.914   5.303  1.7325  0.7176 -1.2252
 9023SOL    HW238532   2.035   1.025   5.364 -1.3730  1.6191  1.0157
 9024SOL     OW38533   0.945   4.508   8.979 -0.3230  0.5510  0.4357
 9024SOL    HW138534   0.902   4.431   9.015  2.3870 -1.1891 -0.0329
 9024SOL    HW238535   0.887   4.535   8.908 -0.0717 -2.6174 -0.9572
 9025SOL     OW38536   3.150   3.677   5.509 -0.2003  0.8432 -0.3679
 9025SOL    HW138537   3.117   3.635   5.430 -0.8864 -0.5410  0.6390
 9025SOL    HW238538   3.066   3.702   5.547 -0.4705 -0.7223  0.0739
 9026SOL     OW38539   1.225   2.575  12.194  0.5513 -0.1057 -0.4631
 9026SOL    HW138540   1.155   2.515  12.171  1.8282 -0.8140 -2.4127
 9026SOL    HW238541   1.296   2.512  12.208 -0.3710 -0.7696  1.2007
 9027SOL     OW38542   3.632   0.344   5.776  0.0788  0.0312 -0.1665
 9027SOL    HW138543   3.686   0.269   5.754  0.8774  0.8079 -0.8674
 9027SOL    HW238544   3.611   0.375   5.688 -2.0689  0.6937  0.5807
 9028SOL     OW38545   2.171   1.243   7.749  0.0848  0.1764  0.0763
 9028SOL    HW138546   2.262   1.270   7.753  0.2873 -0.6266  1.0307
 9028SOL    HW238547   2.160   1.262   7.656  1.4023  0.0137 -0.1134
 9029SOL     OW38548   2.716   0.804  17.583 -0.1873 -0.1242  0.2945
 9029SOL    HW138549   2.674   0.839  17.661  0.4593  0.0699  0.5609
 9029SOL    HW238550   2.649   0.743  17.553  0.8941 -1.3760  0.3885
 9030SOL     OW38551   2.042   4.582  10.601  0.1589 -0.2011  0.1165
 9030SOL    HW138552   1.975   4.624  10.547  2.4813  0.2505 -2.4192
 9030SOL    HW238553   2.030   4.638  10.678  1.0488 -2.1318  1.6614
 9031SOL     OW38554   3.647   2.678   4.035  0.7879 -0.1664 -0.0262
 9031SOL    HW138555   3.713   2.609   4.036  1.8131  0.8407  1.6691
 9031SOL    HW238556   3.624   2.697   3.944  2.5407  3.3446  0.2656
 9032SOL     OW38557   1.743   3.148   5.138 -0.5503  0.3915 -0.2712
 9032SOL    HW138558   1.684   3.161   5.212  0.9384 -0.9391  1.1633
 9032SOL    HW238559   1.810   3.216   5.149  0.1281 -0.5196  1.2414
 9033SOL     OW38560   2.056   1.607  10.806 -0.0402  0.5295 -0.5324
 9033SOL    HW138561   2.137   1.643  10.769  0.1903 -0.0767 -0.6235
 9033SOL    HW238562   2.095   1.568  10.884 -1.3157  0.0318 -0.1537
 9034SOL     OW38563   2.459   3.890  14.906 -0.3717  0.5518 -0.1467
 9034SOL    HW138564   2.507   3.834  14.845  1.4278  0.4512  1.3379
 9034SOL    HW238565   2.394   3.827  14.935  1.2062 -1.5673 -1.2419
 9035SOL     OW38566   2.739   2.759   7.905 -0.0372  0.2410 -0.4535
 9035SOL    HW138567   2.668   2.810   7.866 -0.0967 -0.8811 -1.8232
 9035SOL    HW238568   2.691   2.723   7.980  0.9047  1.3577  0.6913
 9036SOL     OW38569   0.424   3.523   7.147 -0.1055 -0.5729 -0.4717
 9036SOL    HW138570   0.361   3.500   7.079 -0.3832 -1.5456  0.1273
 9036SOL    HW238571   0.410   3.445   7.200  0.2826  0.1749  0.7391
 9037SOL     OW38572   4.609   1.834   0.678  0.1232 -0.0846 -0.1962
 9037SOL    HW138573   4.540   1.891   0.711 -0.0380 -0.8806  0.8409
 9037SOL    HW238574   4.681   1.837   0.742  1.6669 -1.3004 -1.8780
 9038SOL     OW38575   3.002   4.290   9.925 -0.2289 -0.1851  0.2354
 9038SOL    HW138576   2.958   4.374   9.932 -1.2844 -0.7511  0.3464
 9038SOL    HW238577   3.082   4.332   9.891 -1.6240  1.3553 -1.1435
 9039SOL     OW38578   2.171   3.299   7.077  0.3010 -0.4694  0.1322
 9039SOL    HW138579   2.115   3.221   7.081  0.0497 -0.3243 -0.5270
 9039SOL    HW238580   2.199   3.289   6.986 -2.3272  2.8513 -1.0811
 9040SOL     OW38581   3.478   0.663   7.269  0.2909  0.3516  0.3857
 9040SOL    HW138582   3.458   0.587   7.213 -0.4804 -0.0050  1.1395
 9040SOL    HW238583   3.516   0.627   7.350  1.5125  0.6482 -0.0592
 9041SOL     OW38584   4.503   0.686   8.324  0.3079 -0.6914 -0.0224
 9041SOL    HW138585   4.540   0.755   8.379  1.2157 -1.2671  0.0952
 9041SOL    HW238586   4.470   0.742   8.254 -2.0124 -0.9471  0.8745
 9042SOL     OW38587   0.866   0.450  11.277 -0.9037 -0.1764  0.6318
 9042SOL    HW138588   0.852   0.365  11.235 -0.2800  0.2432 -0.4447
 9042SOL    HW238589   0.948   0.481  11.238 -2.0774  3.8324  1.3732
 9043SOL     OW38590   0.976   3.388   3.256 -0.0128  0.8359 -0.3582
 9043SOL    HW138591   0.894   3.431   3.231 -1.2058 -1.2165  0.0353
 9043SOL    HW238592   0.943   3.318   3.313  2.5240  1.7863  2.2609
 9044SOL     OW38593   2.733   4.608   4.427  0.5039  0.3068  0.1838
 9044SOL    HW138594   2.679   4.623   4.349  1.5041 -1.0892 -0.7806
 9044SOL    HW238595   2.780   4.691   4.434 -1.5728  1.5329 -0.6041
 9045SOL     OW38596   3.633   3.310   6.416  0.3224 -0.1055  0.2462
 9045SOL    HW138597   3.541   3.308   6.390  0.4090  1.0513 -0.1425
 9045SOL    HW238598   3.653   3.402   6.404 -0.1796 -0.0524 -0.1886
 9046SOL     OW38599   2.488   3.041  11.477  0.5493  0.2256 -0.0944
 9046SOL    HW138600   2.558   3.007  11.533 -0.0411  1.5255  1.4260
 9046SOL    HW238601   2.415   3.019  11.534  0.1402  1.3468 -0.1944
 9047SOL     OW38602   1.228   2.307  14.052  0.4466  0.1398  0.3487
 9047SOL    HW138603   1.147   2.355  14.036  0.1304 -1.0317 -1.5651
 9047SOL    HW238604   1.290   2.376  14.028 -0.4143  0.9246  0.3981
 9048SOL     OW38605   1.904   4.144   8.338 -0.6413  0.3724 -0.4019
 9048SOL    HW138606   1.965   4.070   8.335  0.4526  1.2613  0.2936
 9048SOL    HW238607   1.922   4.178   8.425 -0.7883  0.0180 -0.2332
 9049SOL     OW38608   2.318   0.411  13.090  0.1535 -0.0311  0.1773
 9049SOL    HW138609   2.375   0.349  13.044 -1.5650 -1.0351 -0.6311
 9049SOL    HW238610   2.246   0.417  13.027 -1.1040  0.3625  1.6696
 9050SOL     OW38611   4.166   3.586   8.420 -0.4842 -0.1230  0.6060
 9050SOL    HW138612   4.257   3.561   8.407  0.1070  2.0307  0.5908
 9050SOL    HW238613   4.118   3.549   8.346 -1.1674  2.1894 -0.1029
 9051SOL     OW38614   1.649   2.322  12.217  0.0791  0.1298 -0.1402
 9051SOL    HW138615   1.728   2.342  12.267  0.7967 -0.6007 -0.9835
 9051SOL    HW238616   1.674   2.235  12.184  1.2884 -0.2747  1.8765
 9052SOL     OW38617   1.067   2.944  14.134 -0.4780 -0.3443  0.0144
 9052SOL    HW138618   0.974   2.921  14.130 -0.5502 -0.2093  0.8461
 9052SOL    HW238619   1.104   2.891  14.063  0.5443  0.8696 -0.3491
 9053SOL     OW38620   1.645   3.236   5.382  0.3429  0.5433 -0.1234
 9053SOL    HW138621   1.606   3.297   5.319  0.6125  1.6835  0.8417
 9053SOL    HW238622   1.605   3.276   5.459  0.4381  1.4900 -0.5659
 9054SOL     OW38623   4.163   0.459   4.561  0.4320  0.3789  0.0055
 9054SOL    HW138624   4.235   0.450   4.499 -0.6889 -0.3289 -1.2117
 9054SOL    HW238625   4.113   0.377   4.557 -0.2084  0.8480 -1.4400
 9055SOL     OW38626   3.490   3.979   6.511 -0.0020  0.0082  0.4747
 9055SOL    HW138627   3.485   4.071   6.482 -0.0237 -0.0162  0.4012
 9055SOL    HW238628   3.583   3.959   6.521 -0.1232 -0.2685  1.0105
 9056SOL     OW38629   2.515   3.849   7.187 -0.0603  0.3504  0.3020
 9056SOL    HW138630   2.540   3.757   7.191  0.1713  0.3441 -1.4355
 9056SOL    HW238631   2.420   3.840   7.186 -0.2181  1.9159  0.4108
 9057SOL     OW38632   3.244   3.766   3.737 -0.0917  0.5099 -0.9027
 9057SOL    HW138633   3.203   3.694   3.785 -0.2948  0.2160 -1.5096
 9057SOL    HW238634   3.322   3.714   3.717  0.3570  0.2840  1.5232
 9058SOL     OW38635   3.363   3.263   2.382 -0.8510  0.3747 -0.1973
 9058SOL    HW138636   3.308   3.191   2.412 -2.0661  2.0700  1.6085
 9058SOL    HW238637   3.293   3.315   2.342  0.0843  1.1187 -0.8796
 9059SOL     OW38638   4.365   3.599  13.766  0.3399 -0.1140 -0.2247
 9059SOL    HW138639   4.327   3.517  13.733  1.7762 -1.1539  0.6636
 9059SOL    HW238640   4.446   3.606  13.716  0.5549  2.5055  0.5268
 9060SOL     OW38641   2.457   3.208   4.147 -0.3098  0.1341 -0.2880
 9060SOL    HW138642   2.456   3.230   4.240 -0.5698 -2.6741  0.3686
 9060SOL    HW238643   2.409   3.284   4.113 -1.1904  1.1068  3.0352
 9061SOL     OW38644   3.470   0.727   5.267  0.0204 -0.2200 -0.0339
 9061SOL    HW138645   3.546   0.673   5.245 -1.1654 -1.5342 -0.8740
 9061SOL    HW238646   3.409   0.656   5.247 -1.0491  1.1826 -1.7349
 9062SOL     OW38647   4.534   1.267   3.511 -0.0694 -0.0868 -0.4235
 9062SOL    HW138648   4.549   1.207   3.584 -0.1428 -2.4313 -2.3768
 9062SOL    HW238649   4.535   1.209   3.435 -0.3527  0.2541 -0.6890
 9063SOL     OW38650   2.776   1.300   5.231  0.0740 -0.2451 -0.3567
 9063SOL    HW138651   2.864   1.286   5.196  0.9245  0.6285  1.4709
 9063SOL    HW238652   2.731   1.224   5.194  0.1895  0.1613 -1.3338
 9064SOL     OW38653   4.654   4.491   6.206 -0.1089  0.2013 -0.0838
 9064SOL    HW138654   4.701   4.479   6.124 -0.9640 -1.3806 -0.3401
 9064SOL    HW238655   4.576   4.534   6.171 -0.2106 -1.5657 -2.0244
 9065SOL     OW38656   2.018   2.690   3.369  0.0386  0.1398 -0.1614
 9065SOL    HW138657   1.952   2.655   3.308 -0.7218  0.5326  0.4417
 9065SOL    HW238658   2.099   2.665   3.325 -0.0865  1.7433 -1.2940
 9066SOL     OW38659   1.496   3.242   0.139  0.3110  0.3582 -0.4907
 9066SOL    HW138660   1.476   3.282   0.224 -0.6689 -0.0620 -0.5239
 9066SOL    HW238661   1.528   3.323   0.098 -3.0893  0.9799 -1.9053
 9067SOL     OW38662   0.938   2.295   1.012  0.2410  0.1392 -0.2273
 9067SOL    HW138663   0.893   2.376   0.988 -0.6493  0.0562  1.1634
 9067SOL    HW238664   0.985   2.310   1.094 -1.0746  0.5739  0.4492
 9068SOL     OW38665   2.600   2.029   0.609  0.6575 -0.1349  0.4871
 9068SOL    HW138666   2.543   1.953   0.602  0.1781  0.2655 -0.0152
 9068SOL    HW238667   2.684   1.983   0.613 -0.1228 -1.4890  1.0296
 9069SOL     OW38668   0.561   4.053  16.873 -0.2096  0.4844  0.7930
 9069SOL    HW138669   0.477   4.021  16.842  0.4793 -1.1538  0.5980
 9069SOL    HW238670   0.551   4.148  16.875  0.6334  0.5972 -0.4847
 9070SOL     OW38671   2.473   0.165   8.764 -0.2389  0.5418  0.2750
 9070SOL    HW138672   2.541   0.227   8.792 -0.5353  0.7527  0.5322
 9070SOL    HW238673   2.520   0.082   8.759  0.1594  0.8460 -0.8726
 9071SOL     OW38674   0.700   0.576   3.522  0.2821 -0.1375  0.2892
 9071SOL    HW138675   0.734   0.627   3.448 -1.0918 -0.3741 -0.5191
 9071SOL    HW238676   0.753   0.496   3.518 -0.3042 -0.5116  0.0244
 9072SOL     OW38677   3.339   3.749   0.723  0.4525  0.0566 -0.3732
 9072SOL    HW138678   3.309   3.701   0.800  2.3134 -0.7984 -0.1840
 9072SOL    HW238679   3.259   3.744   0.671 -0.4888 -2.9169  1.3542
 9073SOL     OW38680   4.625   4.319   3.439 -0.1777 -0.3265 -0.0796
 9073SOL    HW138681   4.582   4.342   3.521 -1.6932 -0.4672 -0.8212
 9073SOL    HW238682   4.571   4.244   3.411 -0.9728 -0.2348  1.2289
 9074SOL     OW38683   2.937   3.671   4.598  0.3971 -0.6062  0.4897
 9074SOL    HW138684   2.874   3.605   4.571  2.1519 -2.1305  0.0644
 9074SOL    HW238685   2.969   3.703   4.513 -0.8974 -0.0010  0.2303
 9075SOL     OW38686   2.221   0.703  13.828 -0.0560  0.2836  0.2666
 9075SOL    HW138687   2.133   0.670  13.842  0.0748 -0.1438  0.0857
 9075SOL    HW238688   2.248   0.657  13.748  1.3972 -1.1768  1.6078
 9076SOL     OW38689   2.122   4.518   3.434  0.5878  0.2398 -0.1691
 9076SOL    HW138690   2.163   4.432   3.446  0.5770  0.0151 -1.7118
 9076SOL    HW238691   2.197   4.571   3.408 -2.2373  5.0741  1.6080
 9077SOL     OW38692   3.010   0.653   7.770  0.2098  0.3845 -0.2543
 9077SOL    HW138693   3.020   0.566   7.730  1.0782  0.3572  0.0092
 9077SOL    HW238694   3.096   0.694   7.761  0.6356  0.1111  2.4822
 9078SOL     OW38695   3.190   2.453   2.946  0.3017  0.0888  0.8706
 9078SOL    HW138696   3.161   2.490   2.863  0.1397 -0.5787  0.6267
 9078SOL    HW238697   3.121   2.388   2.962 -0.5680  0.8232  0.0619
 9079SOL     OW38698   3.116   2.070   8.854 -0.3242  0.3314 -0.0881
 9079SOL    HW138699   3.103   2.085   8.760  0.4156 -2.4855 -0.6370
 9079SOL    HW238700   3.173   2.144   8.874 -0.5747 -0.0317  1.9381
 9080SOL     OW38701   0.874   1.369  14.519 -0.0085 -0.6066  0.0370
 9080SOL    HW138702   0.968   1.354  14.518  0.8712  4.7740  1.0392
 9080SOL    HW238703   0.863   1.441  14.456 -2.2415  0.0496  1.1830
 9081SOL     OW38704   4.576   4.512   3.060  0.2443  0.1055 -0.5224
 9081SOL    HW138705   4.615   4.548   3.139 -1.3465 -1.4154  0.9477
 9081SOL    HW238706   4.635   4.437   3.056  2.2908  1.6300  0.7892
 9082SOL     OW38707   4.228   1.352  16.633  0.0996  0.1553  0.2415
 9082SOL    HW138708   4.160   1.323  16.694 -0.4574  0.4439 -0.2526
 9082SOL    HW238709   4.210   1.295  16.559  0.7496 -1.3703  1.2479
 9083SOL     OW38710   4.363   0.400  11.848  0.2424  0.8912  0.2759
 9083SOL    HW138711   4.351   0.434  11.759 -2.6120 -2.5219 -0.6662
 9083SOL    HW238712   4.319   0.476  11.887 -1.8538  0.4614 -1.2686
 9084SOL     OW38713   1.529   4.446  13.986  0.5730 -0.3629 -1.3638
 9084SOL    HW138714   1.590   4.519  13.981  0.1684  0.1275  0.8693
 9084SOL    HW238715   1.586   4.381  14.028 -1.0978  0.1866  1.7428
 9085SOL     OW38716   4.296   2.098   7.861  0.0655 -0.1778  0.0983
 9085SOL    HW138717   4.314   2.006   7.882 -1.6817 -0.6705 -0.5540
 9085SOL    HW238718   4.366   2.131   7.916 -0.1478  0.5649 -0.0801
 9086SOL     OW38719   0.192   2.219   8.314 -0.2556  0.1966  0.2331
 9086SOL    HW138720   0.238   2.297   8.345 -1.0678  1.5596 -2.0470
 9086SOL    HW238721   0.214   2.155   8.383  0.5976 -0.0890 -0.3050
 9087SOL     OW38722   3.645   2.611   2.512  0.3707  0.5540  0.1747
 9087SOL    HW138723   3.729   2.621   2.558  0.2190 -0.5267  0.6830
 9087SOL    HW238724   3.629   2.703   2.489  0.9608  1.2812  2.7043
 9088SOL     OW38725   2.071   0.469  12.557  0.2121 -0.4036  0.1886
 9088SOL    HW138726   2.166   0.460  12.545  0.3169  1.5292 -0.4733
 9088SOL    HW238727   2.046   0.381  12.529  1.6475 -0.7328 -0.0920
 9089SOL     OW38728   2.476   2.471   6.978  0.0469 -0.2086 -0.1257
 9089SOL    HW138729   2.387   2.500   6.956 -0.6648 -2.1985  0.1928
 9089SOL    HW238730   2.473   2.388   6.932 -0.0573 -0.3415  0.1244
 9090SOL     OW38731   1.713   3.234   3.699  0.3358 -0.0691 -0.4730
 9090SOL    HW138732   1.736   3.216   3.791 -0.2157 -1.4841 -0.6112
 9090SOL    HW238733   1.759   3.317   3.688 -0.2438  0.6779  2.5419
 9091SOL     OW38734   1.631   1.047   8.864  0.6747  0.3882 -0.5162
 9091SOL    HW138735   1.557   1.081   8.915  0.3842  0.9325 -1.2798
 9091SOL    HW238736   1.619   1.098   8.783 -1.1889 -0.5478 -0.8287
 9092SOL     OW38737   3.714   0.027  12.068 -0.0647  0.3192  0.5678
 9092SOL    HW138738   3.787   0.042  12.007 -0.8412 -1.1031 -0.7246
 9092SOL    HW238739   3.763   4.708  12.136 -0.4804 -1.1358 -0.0987
 9093SOL     OW38740   1.843   3.308  10.762  0.0239  0.8604  0.1405
 9093SOL    HW138741   1.797   3.239  10.714  0.1284  0.9481 -0.0864
 9093SOL    HW238742   1.776   3.353  10.813 -0.5236  0.2881 -0.0823
 9094SOL     OW38743   3.026   0.475   6.687  0.1904  0.9031 -0.3438
 9094SOL    HW138744   2.935   0.447   6.694  1.7173 -3.4854  2.2741
 9094SOL    HW238745   3.024   0.509   6.777  2.6198 -1.9263  0.7722
 9095SOL     OW38746   2.701   2.873  13.998  0.1483 -0.1397  0.0231
 9095SOL    HW138747   2.749   2.906  13.922 -0.4823  1.8278  0.4802
 9095SOL    HW238748   2.780   2.846  14.045  0.7478  0.9362 -0.3970
 9096SOL     OW38749   1.548   0.558   2.724  0.0119  0.2606 -0.6209
 9096SOL    HW138750   1.522   0.482   2.777  0.5422  0.9915  0.6954
 9096SOL    HW238751   1.470   0.613   2.735  0.6355  0.7341  1.3748
 9097SOL     OW38752   4.316   3.065   0.726  0.6421  0.5767 -0.2554
 9097SOL    HW138753   4.247   3.098   0.668 -0.2328  0.9158  0.9862
 9097SOL    HW238754   4.310   3.125   0.800 -1.2483 -0.9262  0.8150
 9098SOL     OW38755   0.894   3.842  11.751  0.1477 -0.1331 -0.0426
 9098SOL    HW138756   0.837   3.852  11.827 -1.0620 -1.0501 -0.8191
 9098SOL    HW238757   0.865   3.759  11.713  1.4772 -0.1746 -0.9478
 9099SOL     OW38758   3.687   0.144  16.129 -0.3691  0.0797  0.3555
 9099SOL    HW138759   3.658   0.131  16.038  1.0702 -1.0167  0.0507
 9099SOL    HW238760   3.746   0.219  16.120  2.3145 -2.0867 -0.1140
 9100SOL     OW38761   0.249   0.509   2.716  0.2083  0.2471 -0.0701
 9100SOL    HW138762   0.310   0.576   2.685  1.5174 -0.2574  1.3856
 9100SOL    HW238763   0.173   0.556   2.682  1.0940  0.2269 -2.0295
 9101SOL     OW38764   4.104   3.783   7.897 -0.5307 -0.3151 -0.0017
 9101SOL    HW138765   4.062   3.779   7.983  0.6560  0.9545  0.6462
 9101SOL    HW238766   4.110   3.688   7.893  0.3647 -0.1854 -1.4808
 9102SOL     OW38767   3.135   1.579   3.183 -0.4259 -0.2637  0.1892
 9102SOL    HW138768   3.049   1.615   3.163 -0.5921 -0.9299 -0.2685
 9102SOL    HW238769   3.150   1.611   3.272 -1.9495  1.2070 -0.0724
 9103SOL     OW38770   1.082   0.547   8.073 -0.5346 -0.1391 -0.0148
 9103SOL    HW138771   1.085   0.643   8.073 -1.4461 -0.1145  1.1025
 9103SOL    HW238772   0.998   0.532   8.029 -0.9791  2.4906 -0.0668
 9104SOL     OW38773   2.491   0.623  15.879 -0.4674  0.8336 -0.3110
 9104SOL    HW138774   2.559   0.657  15.821  0.2185  0.5555  0.3261
 9104SOL    HW238775   2.422   0.690  15.877 -0.3987  0.8815 -0.9477
 9105SOL     OW38776   0.213   2.008  11.437  0.3278 -0.2493 -0.1734
 9105SOL    HW138777   0.144   2.036  11.377  1.2511  0.9184 -0.7018
 9105SOL    HW238778   0.172   1.944  11.494 -0.7645  0.9394  0.3702
 9106SOL     OW38779   2.325   3.214   3.252 -0.6752 -0.9925  0.2615
 9106SOL    HW138780   2.365   3.262   3.325  1.3337 -2.7067  0.2996
 9106SOL    HW238781   2.328   3.126   3.290 -0.0511 -0.2733  1.8680
 9107SOL     OW38782   0.972   4.322   8.308  0.1475 -0.4048  0.8550
 9107SOL    HW138783   1.049   4.267   8.311 -0.6659 -1.3924  3.8309
 9107SOL    HW238784   1.000   4.408   8.342  0.1947  0.4140 -1.2611
 9108SOL     OW38785   2.276   2.766   8.590  0.1424 -0.2873  0.1026
 9108SOL    HW138786   2.238   2.681   8.568 -1.5709  0.9331 -1.5897
 9108SOL    HW238787   2.351   2.728   8.636  1.5098 -0.4790 -2.2762
 9109SOL     OW38788   3.312   0.388  17.401 -0.7488 -0.0785 -0.9126
 9109SOL    HW138789   3.222   0.419  17.395 -0.7697 -0.5681 -2.9833
 9109SOL    HW238790   3.353   0.446  17.465 -0.3207 -1.1378 -0.2249
 9110SOL     OW38791   0.578   2.229   6.608  0.1814 -0.7403 -0.2530
 9110SOL    HW138792   0.493   2.234   6.565 -0.9715 -0.8486  1.9882
 9110SOL    HW238793   0.614   2.318   6.607  2.9065 -1.7900  2.1734
 9111SOL     OW38794   0.077   1.484   9.423  0.0209  0.2523  0.2441
 9111SOL    HW138795   0.137   1.410   9.436  1.2360  1.2269  0.1961
 9111SOL    HW238796   0.131   1.562   9.405 -0.6823  0.5002 -0.8159
 9112SOL     OW38797   1.170   3.263   4.883  0.0074  0.7137  0.3772
 9112SOL    HW138798   1.183   3.293   4.793 -0.7135 -1.8961 -0.6131
 9112SOL    HW238799   1.213   3.177   4.885 -2.3427 -0.5114 -0.9302
 9113SOL     OW38800   0.849   1.591   2.998 -0.0740  0.0845  0.3311
 9113SOL    HW138801   0.795   1.560   2.925  1.2737 -1.4716 -0.0132
 9113SOL    HW238802   0.815   1.532   3.065  0.8732 -0.4062  0.3871
 9114SOL     OW38803   4.439   1.585  15.114  0.2054  0.3021  0.0425
 9114SOL    HW138804   4.465   1.592  15.206 -3.0264 -0.2686  0.9836
 9114SOL    HW238805   4.461   1.492  15.108 -1.5264  0.0126 -1.7434
 9115SOL     OW38806   4.666   1.527   4.109 -0.3578  0.1532  0.5939
 9115SOL    HW138807   0.026   1.561   4.134 -0.8176  2.3687 -0.8556
 9115SOL    HW238808   4.684   1.436   4.134  1.1945  0.4141  0.4367
 9116SOL     OW38809   2.189   3.596   6.531 -0.1659  0.0914  0.0550
 9116SOL    HW138810   2.210   3.505   6.552 -2.8885 -0.1010  2.1038
 9116SOL    HW238811   2.117   3.609   6.594 -2.0695  1.2376 -2.3596
 9117SOL     OW38812   2.550   1.364   2.465  0.0199 -0.2000 -0.2795
 9117SOL    HW138813   2.521   1.377   2.375 -0.7157  3.2857  0.4768
 9117SOL    HW238814   2.599   1.445   2.476 -0.2102  0.0679 -1.2640
 9118SOL     OW38815   3.288   1.266  14.551  0.7796  0.0810 -0.0941
 9118SOL    HW138816   3.340   1.296  14.476  0.5140 -0.6311 -0.5561
 9118SOL    HW238817   3.362   1.275  14.611 -0.5987  1.3322  1.3877
 9119SOL     OW38818   3.487   3.331  14.813 -0.4973  0.4080 -0.4107
 9119SOL    HW138819   3.405   3.380  14.802 -0.4868  0.3553 -0.7244
 9119SOL    HW238820   3.526   3.352  14.729  1.8872 -0.9202  0.3595
 9120SOL     OW38821   0.495   0.332   1.754 -0.1016 -0.0490  0.0165
 9120SOL    HW138822   0.410   0.365   1.783 -0.2759 -0.0285 -0.5137
 9120SOL    HW238823   0.555   0.397   1.791  0.7042 -0.3016 -0.8418
 9121SOL     OW38824   4.298   4.695   2.554  0.0918  0.1263 -0.3742
 9121SOL    HW138825   4.267   0.017   2.631 -2.2885 -2.8632  0.5285
 9121SOL    HW238826   4.381   4.656   2.582  0.6843  1.1548 -0.6881
 9122SOL     OW38827   2.002   0.123   5.452 -0.6608 -0.1078  0.5264
 9122SOL    HW138828   2.023   0.033   5.425  0.1396 -0.1112  1.1429
 9122SOL    HW238829   1.948   0.166   5.386  0.3417  1.1937  0.5577
 9123SOL     OW38830   3.013   3.119   6.767 -0.2591  0.5284 -0.4329
 9123SOL    HW138831   2.920   3.102   6.752  0.1995 -0.0644 -2.5354
 9123SOL    HW238832   3.062   3.067   6.703 -0.6045  0.5223 -0.6917
 9124SOL     OW38833   1.708   3.963  16.361 -0.1561 -0.3479 -0.1776
 9124SOL    HW138834   1.680   4.033  16.301  0.1145  0.7053  0.9115
 9124SOL    HW238835   1.705   4.007  16.446 -2.1909 -0.7132 -0.0797
 9125SOL     OW38836   1.189   0.027   3.066 -0.1955  0.2294  0.1242
 9125SOL    HW138837   1.103   4.711   3.058 -0.0969 -0.0853  0.7206
 9125SOL    HW238838   1.250   4.688   3.030 -0.9773  0.5910 -1.8706
 9126SOL     OW38839   4.529   2.023  10.950  0.1419 -0.0836  0.0611
 9126SOL    HW138840   4.484   2.085  10.892  3.5800  0.7615 -1.7315
 9126SOL    HW238841   4.617   2.058  10.953 -0.0078  0.3503 -0.6540
 9127SOL     OW38842   3.750   2.650   7.580 -0.6196 -0.2257 -0.1364
 9127SOL    HW138843   3.816   2.653   7.510 -1.4782 -3.1220 -1.0525
 9127SOL    HW238844   3.802   2.628   7.658 -0.8622 -1.7850 -0.4230
 9128SOL     OW38845   1.056   2.075   9.040 -0.6160  0.1334 -0.3465
 9128SOL    HW138846   1.143   2.042   9.063 -0.4999  0.8974  0.3024
 9128SOL    HW238847   1.081   2.156   8.996 -1.6734 -0.9035 -2.8751
 9129SOL     OW38848   1.969   4.635   7.532  0.0081  0.4684  0.1113
 9129SOL    HW138849   1.931   4.574   7.595 -0.6454  0.0587 -0.6786
 9129SOL    HW238850   2.055   4.650   7.572 -0.8790 -2.1655  2.9639
 9130SOL     OW38851   0.032   3.881   8.500 -0.6893 -0.3120 -0.1669
 9130SOL    HW138852   0.032   3.819   8.427  1.2413  0.0976 -0.5222
 9130SOL    HW238853   0.046   3.965   8.457 -1.3128  0.2231  0.6873
 9131SOL     OW38854   3.170   0.683   4.966  0.0338  0.0942  0.8561
 9131SOL    HW138855   3.196   0.686   4.874 -0.3897  3.0048  0.8353
 9131SOL    HW238856   3.079   0.711   4.974 -0.5980 -1.5181 -0.5180
 9132SOL     OW38857   1.055   4.139  11.236  0.9828 -0.1174 -0.2549
 9132SOL    HW138858   1.120   4.141  11.306  1.9139  1.0242 -1.1435
 9132SOL    HW238859   0.970   4.118  11.276  0.6584  0.1282 -0.8063
 9133SOL     OW38860   0.613   0.639   8.987  0.2938 -0.1421  0.3579
 9133SOL    HW138861   0.645   0.679   9.068  0.0810  2.7214 -0.9721
 9133SOL    HW238862   0.547   0.702   8.956 -0.7608 -1.0987  0.6500
 9134SOL     OW38863   0.992   2.748  12.745 -0.0276 -0.2602  0.0525
 9134SOL    HW138864   0.910   2.745  12.794  0.7380 -1.5961  1.2526
 9134SOL    HW238865   1.040   2.828  12.767  0.6112 -0.1700 -1.6564
 9135SOL     OW38866   3.068   0.818   7.198 -0.3976  0.1991  0.7481
 9135SOL    HW138867   3.082   0.875   7.123  2.4024 -1.7879 -0.2526
 9135SOL    HW238868   3.155   0.818   7.238  0.0667 -1.2272 -0.3021
 9136SOL     OW38869   1.045   3.389   6.590  0.4764 -0.2432 -0.2154
 9136SOL    HW138870   1.100   3.454   6.633  1.1496  1.1216 -3.1928
 9136SOL    HW238871   0.979   3.354   6.650  1.5759 -1.5628  0.2242
 9137SOL     OW38872   0.167   0.730   4.254 -0.4397 -0.1433  0.1323
 9137SOL    HW138873   0.246   0.687   4.288 -1.3319 -0.8070  1.3856
 9137SOL    HW238874   0.099   0.682   4.302 -1.4287 -0.1169 -1.2715
 9138SOL     OW38875   0.499   3.065   7.406  0.7076 -0.2272 -0.3275
 9138SOL    HW138876   0.491   3.061   7.502 -1.8954  0.1792 -0.5116
 9138SOL    HW238877   0.583   3.022   7.388  0.4355 -0.5356 -0.8658
 9139SOL     OW38878   0.123   1.781  13.802 -0.7462 -0.0289  0.4975
 9139SOL    HW138879   0.071   1.860  13.816 -0.9171  0.2987 -1.8398
 9139SOL    HW238880   0.146   1.746  13.888 -0.9543  1.4886  1.1660
 9140SOL     OW38881   2.891   3.479   5.683  0.0317  0.3909  0.6822
 9140SOL    HW138882   2.854   3.515   5.602  0.9581  0.3674  0.2486
 9140SOL    HW238883   2.891   3.560   5.734 -0.5497  1.8307 -1.5786
 9141SOL     OW38884   1.077   3.732   3.677  0.3665  0.3337 -0.0570
 9141SOL    HW138885   1.013   3.757   3.610 -0.6540  4.1222  2.3271
 9141SOL    HW238886   1.033   3.650   3.701  1.1429 -0.0029  0.2084
 9142SOL     OW38887   2.054   4.472   3.804  0.5572 -0.0567  0.4348
 9142SOL    HW138888   2.046   4.551   3.751  0.4159 -0.3974 -0.0519
 9142SOL    HW238889   2.105   4.501   3.880  0.1283 -1.4073  1.2493
 9143SOL     OW38890   3.613   4.637   7.528  0.9519 -0.0884  0.1482
 9143SOL    HW138891   3.598   4.553   7.484 -0.7327  0.9002 -1.1840
 9143SOL    HW238892   3.648   4.689   7.456 -2.8432 -0.1734 -1.8095
 9144SOL     OW38893   1.362   0.022   0.123 -0.0698 -0.0738 -0.1081
 9144SOL    HW138894   1.415   0.042   0.046  0.1681  1.3514  0.4248
 9144SOL    HW238895   1.331   0.108   0.151  3.5170  0.4408  2.2495
 9145SOL     OW38896   1.874   4.434   0.996  0.7621  0.0276  0.2531
 9145SOL    HW138897   1.783   4.420   0.971  1.4189 -2.5225 -0.6365
 9145SOL    HW238898   1.889   4.529   0.995  0.9353 -0.0443 -3.1719
 9146SOL     OW38899   3.928   2.323   1.869  0.4535 -0.4325  0.0645
 9146SOL    HW138900   3.878   2.376   1.931  1.5026  0.7185 -0.0792
 9146SOL    HW238901   3.907   2.375   1.792  0.8912 -1.6683 -0.8939
 9147SOL     OW38902   2.672   1.872  11.434 -0.3309  0.0290  0.2382
 9147SOL    HW138903   2.656   1.781  11.410 -0.6838  0.9772 -3.0305
 9147SOL    HW238904   2.742   1.897  11.373 -2.0202 -1.9139 -2.4703
 9148SOL     OW38905   1.294   4.007   2.575  0.1448  0.8601 -0.3405
 9148SOL    HW138906   1.226   4.069   2.602 -1.2747 -0.9905  0.3624
 9148SOL    HW238907   1.346   4.061   2.516  0.0769  0.7889 -0.4675
 9149SOL     OW38908   3.561   2.424  11.390  0.0396 -0.7094 -0.2621
 9149SOL    HW138909   3.508   2.404  11.314  0.6411  2.2784 -1.4936
 9149SOL    HW238910   3.619   2.496  11.364  0.1631 -1.2671 -1.5375
 9150SOL     OW38911   2.512   3.716   6.102  0.1658  0.5004  0.4877
 9150SOL    HW138912   2.558   3.750   6.025 -3.4464  1.5060 -1.2157
 9150SOL    HW238913   2.473   3.635   6.070  0.2747  0.7670 -0.3152
 9151SOL     OW38914   4.221   0.506  15.296  0.8138  0.5270 -0.0822
 9151SOL    HW138915   4.283   0.470  15.359  0.4399  0.9765  0.5373
 9151SOL    HW238916   4.205   0.594  15.329  0.5461  0.9157 -1.2254
 9152SOL     OW38917   1.464   1.296  14.251  0.0636  0.7067 -0.3839
 9152SOL    HW138918   1.461   1.203  14.274 -1.0622  0.6094 -0.9259
 9152SOL    HW238919   1.399   1.327  14.314  0.5903  1.3026 -0.1420
 9153SOL     OW38920   1.469   1.693  13.690  0.1343  0.4274 -0.8147
 9153SOL    HW138921   1.379   1.695  13.724  0.0356 -0.0526 -1.0492
 9153SOL    HW238922   1.480   1.598  13.688 -0.0857  0.3627  2.5951
 9154SOL     OW38923   4.023   2.414   1.212  0.5732  0.0620 -0.0268
 9154SOL    HW138924   4.085   2.348   1.245  1.9214  1.2338 -0.2059
 9154SOL    HW238925   3.967   2.421   1.289  0.7481  1.6548 -0.0570
 9155SOL     OW38926   3.774   2.579   1.097  0.1717 -0.1503 -0.3702
 9155SOL    HW138927   3.693   2.551   1.140  0.6422  0.4612  0.9252
 9155SOL    HW238928   3.835   2.545   1.163  0.0056 -1.7622 -1.0703
 9156SOL     OW38929   0.681   4.703   6.142 -0.0040 -0.1885 -0.2985
 9156SOL    HW138930   0.682   4.610   6.166 -3.9831 -0.8652 -2.6809
 9156SOL    HW238931   0.671   0.014   6.230  1.6828  0.1187 -0.2329
 9157SOL     OW38932   1.882   2.095   6.169 -0.1962  0.8222 -0.0846
 9157SOL    HW138933   1.808   2.155   6.169  0.3033  1.4286  0.7804
 9157SOL    HW238934   1.957   2.154   6.170 -0.6091  1.3216  1.1510
 9158SOL     OW38935   1.111   1.264   9.157 -0.3269 -0.1091 -0.3115
 9158SOL    HW138936   1.159   1.306   9.228  0.2034 -0.4703 -0.4558
 9158SOL    HW238937   1.099   1.174   9.187 -1.4278 -0.2853 -1.2635
 9159SOL     OW38938   0.039   2.318   6.809 -0.0287 -0.2890 -0.0896
 9159SOL    HW138939   4.695   2.383   6.799  1.4168  1.3352  0.3112
 9159SOL    HW238940   0.012   2.270   6.888  1.6133 -1.8661 -0.5032
 9160SOL     OW38941   1.241   3.313   2.708  0.0598  0.1540 -0.1182
 9160SOL    HW138942   1.151   3.344   2.723  0.6349  0.8587  1.9252
 9160SOL    HW238943   1.293   3.387   2.739  1.7025 -0.8073 -0.6092
 9161SOL     OW38944   3.023   3.472   0.123 -0.4998  0.4265 -0.0761
 9161SOL    HW138945   2.982   3.549   0.084 -1.3261 -0.4039 -0.8654
 9161SOL    HW238946   3.010   3.481   0.217 -1.1940  1.0817 -0.2340
 9162SOL     OW38947   4.625   1.796   6.468  0.2084  0.2333  0.0487
 9162SOL    HW138948   4.608   1.702   6.459  0.4508  0.3998 -2.2946
 9162SOL    HW238949   4.535   1.821   6.488 -0.2233 -0.9426 -0.4288
 9163SOL     OW38950   1.468   3.494   6.313  0.1006 -0.3848 -0.2642
 9163SOL    HW138951   1.542   3.455   6.360 -2.1248 -2.2954  1.6544
 9163SOL    HW238952   1.417   3.531   6.385  1.1062  1.7094 -0.6398
 9164SOL     OW38953   3.447   3.600  15.668  0.4913 -0.4078 -0.3160
 9164SOL    HW138954   3.428   3.657  15.594 -2.2772  0.9044  1.4147
 9164SOL    HW238955   3.418   3.658  15.739 -1.9584 -1.1663 -0.6891
 9165SOL     OW38956   3.395   2.668  10.184 -0.1331  0.2518  0.4442
 9165SOL    HW138957   3.454   2.739  10.161 -1.0116 -0.2468 -3.4336
 9165SOL    HW238958   3.327   2.706  10.239  0.0591  0.4077  0.5688
 9166SOL     OW38959   0.107   2.448  13.736 -0.0965 -0.3475 -0.3122
 9166SOL    HW138960   0.142   2.373  13.784 -0.1952  0.3220  0.8046
 9166SOL    HW238961   0.185   2.454  13.681  0.8595 -0.6725  0.9985
 9167SOL     OW38962   3.279   2.761   8.556  0.2760  0.2913  0.4553
 9167SOL    HW138963   3.214   2.812   8.507  0.7967  0.7652  0.2610
 9167SOL    HW238964   3.360   2.752   8.506 -0.2821 -3.2178  0.1982
 9168SOL     OW38965   1.533   3.558   2.318  0.1808 -0.2333 -0.3737
 9168SOL    HW138966   1.520   3.509   2.237 -0.6814 -1.2095  0.3452
 9168SOL    HW238967   1.482   3.639   2.312  2.0006  0.9415  0.1175
 9169SOL     OW38968   2.682   3.152   2.546 -0.5817 -0.2279 -0.0650
 9169SOL    HW138969   2.732   3.115   2.619  3.0159 -0.2864 -2.6057
 9169SOL    HW238970   2.604   3.098   2.558 -0.7987  0.0161 -0.3905
 9170SOL     OW38971   2.275   0.373   8.281  0.3850 -0.4286 -0.0111
 9170SOL    HW138972   2.192   0.420   8.272  0.7274 -0.3719 -2.7758
 9170SOL    HW238973   2.262   0.311   8.353 -1.4821 -2.0327 -1.7416
 9171SOL     OW38974   4.240   1.464   7.794  0.2630 -0.9594 -0.4573
 9171SOL    HW138975   4.289   1.528   7.743  0.4828 -0.9715 -0.2611
 9171SOL    HW238976   4.182   1.421   7.731  0.4720 -1.9846  0.0509
 9172SOL     OW38977   2.901   2.722  17.086 -0.3640  0.7743  0.5398
 9172SOL    HW138978   2.815   2.708  17.126 -0.9103  1.8248 -0.2617
 9172SOL    HW238979   2.955   2.743  17.162  0.5491  1.7580 -0.3691
 9173SOL     OW38980   0.322   2.455   4.684  0.2509 -0.4633 -0.0512
 9173SOL    HW138981   0.370   2.534   4.708 -1.2500  0.3636  0.2216
 9173SOL    HW238982   0.349   2.395   4.753  2.6600 -1.4471 -1.8578
 9174SOL     OW38983   1.365   3.020   4.609 -0.2078 -0.8489 -0.3052
 9174SOL    HW138984   1.346   2.988   4.520  0.5918  0.1593 -0.8262
 9174SOL    HW238985   1.340   2.952   4.672 -2.1380 -1.0764 -1.3051
 9175SOL     OW38986   1.147   0.919  11.563  0.2074 -0.1840 -0.3105
 9175SOL    HW138987   1.179   0.905  11.474  3.2516 -0.2863  0.8049
 9175SOL    HW238988   1.097   0.999  11.549 -1.3108 -0.9388  0.8096
 9176SOL     OW38989   3.873   0.299   3.225  0.2180 -0.4481  0.0897
 9176SOL    HW138990   3.956   0.327   3.186 -0.3417  1.5507  0.3509
 9176SOL    HW238991   3.903   0.212   3.252 -0.6176 -0.8778 -0.3328
 9177SOL     OW38992   1.355   0.144   8.104 -0.2452  0.4725  0.5678
 9177SOL    HW138993   1.398   0.197   8.171 -3.2030  0.6026  2.3760
 9177SOL    HW238994   1.390   0.188   8.027 -0.0791  0.9584  0.9248
 9178SOL     OW38995   3.746   3.296  12.626 -0.0871  0.2115  0.0592
 9178SOL    HW138996   3.836   3.321  12.647  0.4173 -0.5896 -1.1173
 9178SOL    HW238997   3.756   3.201  12.623  1.2684  0.3394  0.1100
 9179SOL     OW38998   2.317   1.798   1.130  0.2462 -0.2151  0.0043
 9179SOL    HW138999   2.316   1.886   1.168  0.4114  0.8129 -2.3931
 9179SOL    HW239000   2.252   1.800   1.059 -0.0570  0.3212  0.2960
 9180SOL     OW39001   4.632   0.974  13.897 -0.7812  0.4104 -0.2131
 9180SOL    HW139002   4.682   0.941  13.823 -2.1632 -1.6636 -0.2212
 9180SOL    HW239003   4.590   1.047  13.853 -0.6316  0.7563  0.2239
 9181SOL     OW39004   2.689   4.442   1.364 -0.2256 -0.2400  0.0559
 9181SOL    HW139005   2.728   4.408   1.284 -1.0233  2.0323 -1.3072
 9181SOL    HW239006   2.598   4.421   1.347  0.1757 -2.2419  0.3990
 9182SOL     OW39007   1.363   3.142   0.902 -0.4425 -0.3197 -0.4751
 9182SOL    HW139008   1.406   3.086   0.966 -3.5781 -0.0395  1.9022
 9182SOL    HW239009   1.291   3.084   0.878 -1.1284  1.0955 -1.8704
 9183SOL     OW39010   1.234   3.394   8.737  0.5243  0.4821  0.0627
 9183SOL    HW139011   1.282   3.379   8.655 -0.7950  0.6939 -0.7465
 9183SOL    HW239012   1.172   3.461   8.708  1.4285  1.0287 -0.6018
 9184SOL     OW39013   1.017   0.632   4.153 -0.2319  0.1827 -0.8359
 9184SOL    HW139014   1.063   0.716   4.149 -0.3886  0.2880 -0.4690
 9184SOL    HW239015   0.982   0.632   4.064  0.6167 -0.5764 -1.1668
 9185SOL     OW39016   1.946   3.134  16.961  0.2595  0.2391  0.2660
 9185SOL    HW139017   1.993   3.194  17.019 -1.5278  0.5031  1.4639
 9185SOL    HW239018   1.901   3.083  17.029 -0.2264 -1.4581 -1.3535
 9186SOL     OW39019   2.904   3.264   2.006 -0.0105  0.3421 -0.0243
 9186SOL    HW139020   2.817   3.232   2.026 -0.2878  0.8322 -0.4181
 9186SOL    HW239021   2.902   3.258   1.910 -1.3732 -0.7145  0.0779
 9187SOL     OW39022   3.264   1.210  16.678 -0.1575 -0.6519 -0.4398
 9187SOL    HW139023   3.320   1.280  16.645 -0.2167 -0.4636 -0.1428
 9187SOL    HW239024   3.180   1.229  16.636  1.0271  0.1832 -2.3791
 9188SOL     OW39025   3.065   1.374   8.208  0.3876  0.3029  0.0052
 9188SOL    HW139026   3.039   1.451   8.159 -1.8700 -0.3063  0.2575
 9188SOL    HW239027   2.995   1.310   8.194 -1.4591  2.1196  1.0555
 9189SOL     OW39028   3.782   2.252  16.726 -0.1599  0.1993 -0.5821
 9189SOL    HW139029   3.714   2.313  16.754 -0.2031  1.3062 -3.0992
 9189SOL    HW239030   3.799   2.289  16.639  0.1850 -1.7315 -1.3364
 9190SOL     OW39031   0.778   4.623   3.474  0.0252 -0.0687  0.0773
 9190SOL    HW139032   0.743   4.546   3.519 -2.2407  2.9108  3.4020
 9190SOL    HW239033   0.736   4.608   3.390 -0.8052  2.2383  0.0735
 9191SOL     OW39034   2.690   0.182  17.423  0.5938  0.1352 -0.4690
 9191SOL    HW139035   2.735   0.165  17.506 -2.4006  0.2688  1.2010
 9191SOL    HW239036   2.639   0.257  17.452 -0.3997  0.0665 -2.0794
 9192SOL     OW39037   0.993   0.595  16.506 -0.3507 -0.2723 -0.0359
 9192SOL    HW139038   1.076   0.641  16.492 -0.8228  0.1662 -1.3867
 9192SOL    HW239039   0.940   0.650  16.563  0.8809  0.1864  0.6691
 9193SOL     OW39040   1.399   2.030  12.838  0.2627  0.2362  0.2291
 9193SOL    HW139041   1.446   1.953  12.807 -1.0903 -1.4440  2.3789
 9193SOL    HW239042   1.481   2.071  12.866 -0.5456  0.9802  1.4685
 9194SOL     OW39043   3.416   2.908  15.310  0.2525 -0.1627 -0.3720
 9194SOL    HW139044   3.443   2.999  15.317  2.4497 -0.7997 -0.4493
 9194SOL    HW239045   3.332   2.909  15.263 -0.5808 -0.4682  1.0973
 9195SOL     OW39046   0.124   2.883  10.556 -0.3283 -0.3048 -0.2123
 9195SOL    HW139047   0.212   2.855  10.533 -0.7289 -1.7945  0.0555
 9195SOL    HW239048   0.072   2.826  10.500 -1.5813  1.1528 -0.5336
 9196SOL     OW39049   0.084   4.147  11.759  0.7566 -0.3004 -0.4225
 9196SOL    HW139050   0.097   4.126  11.667 -0.5896  0.3259 -0.7540
 9196SOL    HW239051   0.154   4.207  11.786  1.1054 -0.1393 -1.7074
 9197SOL     OW39052   3.962   3.882   2.886 -0.2930  0.0667  0.6463
 9197SOL    HW139053   3.925   3.857   2.971  1.1763 -3.2617  0.3096
 9197SOL    HW239054   4.044   3.918   2.919 -0.0530 -0.1070  0.2455
 9198SOL     OW39055   4.564   2.338   8.445  0.3393 -0.3638  0.0104
 9198SOL    HW139056   4.519   2.377   8.521  0.8667  1.6571 -0.7095
 9198SOL    HW239057   4.497   2.355   8.379 -0.4076 -0.6654  0.6823
 9199SOL     OW39058   3.780   3.295   1.087 -0.2236  0.3898 -0.4909
 9199SOL    HW139059   3.825   3.356   1.145  1.9582 -0.5482 -1.1999
 9199SOL    HW239060   3.837   3.283   1.011 -1.1428  1.2997 -1.3208
 9200SOL     OW39061   0.681   4.589   8.128 -0.7752  0.0475  0.5408
 9200SOL    HW139062   0.662   4.558   8.039  2.6024  1.4277 -0.6597
 9200SOL    HW239063   0.667   4.683   8.115 -1.8932 -0.5755 -2.8600
 9201SOL     OW39064   3.945   4.117   5.263 -0.1996 -0.2505  0.9331
 9201SOL    HW139065   4.040   4.122   5.271 -0.2314  0.9884  0.5228
 9201SOL    HW239066   3.932   4.163   5.180  0.8047 -0.8207  0.4606
 9202SOL     OW39067   3.461   3.453  13.187 -0.6374  0.0038 -0.3087
 9202SOL    HW139068   3.439   3.546  13.186  2.4242  0.6861 -1.8739
 9202SOL    HW239069   3.503   3.451  13.274 -0.3537  1.9137 -0.4131
 9203SOL     OW39070   1.784   0.734   3.249 -0.6199  0.3624 -0.3871
 9203SOL    HW139071   1.721   0.664   3.236  1.9045 -2.0316  0.1813
 9203SOL    HW239072   1.737   0.780   3.318  0.0088 -0.0041  0.2903
 9204SOL     OW39073   3.402   3.963   7.925  0.4298 -0.4193  0.0140
 9204SOL    HW139074   3.464   3.924   7.986 -0.6281 -1.5181  0.3910
 9204SOL    HW239075   3.328   3.967   7.985 -0.2367  3.4147 -1.0449
 9205SOL     OW39076   0.432   4.418   2.549  0.5112 -0.2176 -0.3230
 9205SOL    HW139077   0.512   4.471   2.557 -0.5855  1.2146  1.0893
 9205SOL    HW239078   0.462   4.359   2.480  1.5024 -0.4572  0.2990
 9206SOL     OW39079   4.001   0.375   8.001 -0.1251 -0.0266  0.0528
 9206SOL    HW139080   4.071   0.407   8.058 -0.1649 -0.2713  0.2415
 9206SOL    HW239081   3.929   0.438   8.008  1.0533  1.4644 -1.4625
 9207SOL     OW39082   1.329   1.431   4.239  0.9920 -0.1295 -0.1264
 9207SOL    HW139083   1.354   1.519   4.211  0.0947  0.5775  1.3028
 9207SOL    HW239084   1.416   1.394   4.251  0.5581 -1.6501 -1.7371
 9208SOL     OW39085   4.029   3.511   3.387  0.3343 -0.2859  0.0500
 9208SOL    HW139086   4.081   3.433   3.408  0.7345  0.3202  1.2736
 9208SOL    HW239087   4.026   3.488   3.294 -0.2954 -0.5113  0.1269
 9209SOL     OW39088   2.412   1.684   7.580 -0.1502 -0.5350  0.6500
 9209SOL    HW139089   2.427   1.664   7.488  1.8640  2.2569  0.4139
 9209SOL    HW239090   2.335   1.627   7.593  0.7919 -2.0274 -0.2816
 9210SOL     OW39091   1.004   3.262   1.739  0.0822 -0.3778  0.8192
 9210SOL    HW139092   0.980   3.236   1.828  1.3647  1.0341  1.5877
 9210SOL    HW239093   1.052   3.185   1.708  1.3162  0.5804  0.3545
 9211SOL     OW39094   0.063   4.177   4.711  0.0065 -0.2431  0.8911
 9211SOL    HW139095   0.078   4.205   4.621  2.3016 -1.4632  0.8953
 9211SOL    HW239096   4.707   4.221   4.732  1.0658  1.2131  1.9281
 9212SOL     OW39097   2.877   0.122   2.675 -0.0642 -0.0172 -0.4819
 9212SOL    HW139098   2.880   0.057   2.605  0.2105 -0.6166  0.0840
 9212SOL    HW239099   2.911   0.197   2.627 -0.6164 -0.7155 -1.9448
 9213SOL     OW39100   0.379   3.639  10.464 -0.3251  0.2539 -0.2721
 9213SOL    HW139101   0.351   3.585  10.538  2.6002 -1.6210 -0.5139
 9213SOL    HW239102   0.296   3.668  10.426  0.3662  1.8523 -0.5415
 9214SOL     OW39103   1.783   2.116   0.744  0.3745  0.1867 -0.3801
 9214SOL    HW139104   1.793   2.044   0.807  1.3343 -0.1205 -0.8834
 9214SOL    HW239105   1.751   2.073   0.664 -1.5003  0.1971  0.3552
 9215SOL     OW39106   2.468   3.826   8.785 -0.6628 -0.1573  0.4643
 9215SOL    HW139107   2.376   3.833   8.811 -1.2052 -1.4883 -1.1352
 9215SOL    HW239108   2.494   3.917   8.795  2.5674 -1.0147 -0.0569
 9216SOL     OW39109   1.864   2.973  17.174  0.1127 -0.1287 -0.4748
 9216SOL    HW139110   1.855   2.881  17.198 -3.6214  0.6093  0.9423
 9216SOL    HW239111   1.789   3.003  17.225 -0.4372 -0.5295 -1.0306
 9217SOL     OW39112   4.431   4.623   9.028  0.3059  0.1010 -0.0183
 9217SOL    HW139113   4.423   4.717   9.046  1.5358  0.2803 -0.4035
 9217SOL    HW239114   4.521   4.594   9.045 -0.0468 -0.5227  0.7653
 9218SOL     OW39115   4.670   0.270   7.398  0.2053  0.4808  0.0920
 9218SOL    HW139116   4.600   0.336   7.403  0.2795  0.4705  1.4668
 9218SOL    HW239117   0.016   0.331   7.382  0.1240  0.7587  0.7600
 9219SOL     OW39118   0.645   2.592   4.478 -0.3393 -0.2265 -0.2407
 9219SOL    HW139119   0.711   2.532   4.513 -0.8573 -0.4113  0.4268
 9219SOL    HW239120   0.613   2.547   4.400  2.0905 -0.7471 -0.9282
 9220SOL     OW39121   1.306   3.948   4.663  0.0636  0.0202  0.5757
 9220SOL    HW139122   1.376   3.977   4.605  0.2433 -3.2393 -0.8447
 9220SOL    HW239123   1.321   4.000   4.742 -2.1498  2.1300 -0.4038
 9221SOL     OW39124   0.031   2.595  11.142 -0.0748 -0.1103 -0.3159
 9221SOL    HW139125   0.089   2.565  11.072  3.0462  1.5834  1.5723
 9221SOL    HW239126   0.063   2.681  11.169 -0.8390 -0.0879  0.5206
 9222SOL     OW39127   1.933   0.120   0.126 -0.2828 -0.4998  0.0504
 9222SOL    HW139128   2.024   0.095   0.138 -0.0800  0.2864  0.1951
 9222SOL    HW239129   1.899   0.032   0.137  0.2848 -0.6752  0.3929
 9223SOL     OW39130   1.996   0.675   9.479 -0.2943 -0.2400  0.3788
 9223SOL    HW139131   2.032   0.619   9.548  1.2142  1.7934  1.2351
 9223SOL    HW239132   2.062   0.744   9.471  0.8309 -1.5929 -2.0840
 9224SOL     OW39133   3.012   3.961  11.291  0.0537 -0.3221  0.2968
 9224SOL    HW139134   2.931   3.922  11.256 -0.0600 -0.8981  1.1784
 9224SOL    HW239135   3.074   3.941  11.221 -0.9867  1.0396 -0.9968
 9225SOL     OW39136   1.036   3.625   2.144  0.4944 -0.2532  0.2197
 9225SOL    HW139137   1.033   3.714   2.110  1.3257 -0.1099  0.5313
 9225SOL    HW239138   1.074   3.590   2.063  0.3678 -1.9691  0.9062
 9226SOL     OW39139   3.567   1.642  11.823 -0.0987  0.0357 -0.0792
 9226SOL    HW139140   3.525   1.556  11.817  0.9831 -0.5762  1.1516
 9226SOL    HW239141   3.485   1.693  11.829  0.1727  0.2030  1.9619
 9227SOL     OW39142   4.431   0.752   9.566 -0.2319  0.4655 -0.1524
 9227SOL    HW139143   4.524   0.753   9.590 -0.6838 -0.8731  1.6282
 9227SOL    HW239144   4.406   0.841   9.591 -1.8560 -0.0450  0.0596
 9228SOL     OW39145   2.696   3.539  10.890 -0.3586 -0.0902 -0.3306
 9228SOL    HW139146   2.712   3.450  10.859  0.4065 -0.7696  2.0153
 9228SOL    HW239147   2.602   3.558  10.883 -0.5261  0.4085  3.0780
 9229SOL     OW39148   2.188   2.704   7.943  0.6115 -0.2851  0.6029
 9229SOL    HW139149   2.201   2.797   7.959  0.6132 -0.2664  0.4932
 9229SOL    HW239150   2.210   2.706   7.850  0.9242  0.8321  0.7115
 9230SOL     OW39151   1.316   0.393   2.354  0.0356  0.0154  0.5517
 9230SOL    HW139152   1.240   0.391   2.412 -1.2254  0.6809 -1.0810
 9230SOL    HW239153   1.289   0.471   2.306 -1.4138  0.0204  1.3756
 9231SOL     OW39154   2.895   4.058   9.190  0.5069 -0.4740 -0.4359
 9231SOL    HW139155   2.905   4.050   9.285  0.1881 -0.1136 -0.3710
 9231SOL    HW239156   2.946   3.982   9.165  0.4127 -0.6888  0.0352
 9232SOL     OW39157   0.476   2.227   6.224 -0.0565 -0.2648 -0.2380
 9232SOL    HW139158   0.486   2.321   6.206  0.2338 -0.0673  0.9363
 9232SOL    HW239159   0.423   2.237   6.303  0.9537 -1.9431  0.6611
 9233SOL     OW39160   2.991   4.083   2.050 -0.0028 -0.3087  0.1276
 9233SOL    HW139161   3.025   3.994   2.036  2.2979  0.5966  0.0587
 9233SOL    HW239162   2.899   4.057   2.039 -0.1097  0.8557 -1.6655
 9234SOL     OW39163   4.650   3.744  15.366  0.2885  0.0500 -0.0248
 9234SOL    HW139164   4.570   3.747  15.417  1.0587 -0.8393  1.2484
 9234SOL    HW239165   4.674   3.836  15.363 -4.3920  1.2274 -0.6177
 9235SOL     OW39166   4.571   4.044   6.744  0.1209 -0.4612 -0.6198
 9235SOL    HW139167   4.608   4.062   6.831 -0.7363 -0.2802 -0.2877
 9235SOL    HW239168   4.604   4.120   6.696 -0.3609  0.2154  0.1016
 9236SOL     OW39169   3.754   2.847   6.511 -0.0558 -0.0057 -0.3250
 9236SOL    HW139170   3.835   2.867   6.466  0.6386 -0.1031  0.8865
 9236SOL    HW239171   3.771   2.886   6.597  4.9800  0.4135 -1.5491
 9237SOL     OW39172   0.379   1.483  13.063  0.0942  0.2638  0.3822
 9237SOL    HW139173   0.455   1.501  13.008 -1.0292 -0.3724 -1.3829
 9237SOL    HW239174   0.398   1.400  13.108 -1.2936 -0.2639  0.0022
 9238SOL     OW39175   1.646   2.239   1.349  0.0965 -0.1588 -0.0397
 9238SOL    HW139176   1.687   2.300   1.287  1.0068 -1.1968 -0.4486
 9238SOL    HW239177   1.714   2.244   1.417 -0.3965  0.8410  0.3838
 9239SOL     OW39178   0.730   3.998   2.050 -0.1782  0.1855  0.8161
 9239SOL    HW139179   0.669   3.928   2.072  2.1446 -1.5816  1.7367
 9239SOL    HW239180   0.677   4.077   2.043 -1.9598 -1.1342 -0.5667
 9240SOL     OW39181   0.257   2.393   4.294 -0.5536  0.0702 -0.2866
 9240SOL    HW139182   0.211   2.432   4.368  0.4049 -0.0359  0.3580
 9240SOL    HW239183   0.196   2.421   4.225 -0.3894  2.1553  0.4238
 9241SOL     OW39184   4.562   1.300   8.997 -0.0551  0.0705 -0.1231
 9241SOL    HW139185   4.652   1.324   9.016 -0.0654 -0.4915  0.6120
 9241SOL    HW239186   4.538   1.365   8.930 -2.8651 -0.2574  0.5842
 9242SOL     OW39187   0.404   2.756   2.529  0.0301  0.1087 -0.4015
 9242SOL    HW139188   0.381   2.663   2.532  2.2676 -0.4006  0.6857
 9242SOL    HW239189   0.346   2.801   2.467  1.3272  0.8298 -1.1058
 9243SOL     OW39190   4.094   2.155  16.734  0.1313 -0.1921 -0.1305
 9243SOL    HW139191   4.067   2.243  16.757 -1.5697 -0.1698 -2.1762
 9243SOL    HW239192   4.015   2.104  16.753 -0.4012  0.8078  0.3429
 9244SOL     OW39193   3.221   2.404  14.892  0.6987  0.0079  0.3015
 9244SOL    HW139194   3.283   2.434  14.958 -0.6621 -0.5477  1.8254
 9244SOL    HW239195   3.137   2.408  14.938  0.6609  1.7898  0.0525
 9245SOL     OW39196   3.522   0.350   4.794 -0.1188 -0.1676  0.6525
 9245SOL    HW139197   3.481   0.357   4.708  0.5956  1.0263  0.4135
 9245SOL    HW239198   3.581   0.275   4.784 -0.3729 -0.6008  2.4182
 9246SOL     OW39199   1.745   2.186  16.396  0.6446  0.6222 -0.2574
 9246SOL    HW139200   1.725   2.108  16.448 -0.1605  1.0455  0.0693
 9246SOL    HW239201   1.681   2.189  16.324  1.1695 -1.0303 -0.7922
 9247SOL     OW39202   3.954   2.723   6.828 -0.5925  0.0921 -0.1182
 9247SOL    HW139203   3.859   2.733   6.823 -0.6319  0.9218  2.3155
 9247SOL    HW239204   3.970   2.781   6.754 -0.9222 -1.5508 -1.4579
 9248SOL     OW39205   4.434   1.649   7.663 -0.1803  0.6140 -0.2778
 9248SOL    HW139206   4.504   1.591   7.631  0.8056  0.9631  1.2497
 9248SOL    HW239207   4.487   1.707   7.717 -0.2721 -0.3965  0.8912
 9249SOL     OW39208   2.488   0.268   1.159  0.1338  0.6740  0.6268
 9249SOL    HW139209   2.520   0.183   1.188  0.5885  0.5470 -0.2692
 9249SOL    HW239210   2.546   0.287   1.086 -1.3026  1.9478 -0.1863
 9250SOL     OW39211   2.923   0.262   8.677  0.3914  0.1146 -0.3769
 9250SOL    HW139212   2.977   0.325   8.724 -0.4779 -0.2027  1.0296
 9250SOL    HW239213   2.926   0.291   8.586  0.1379 -0.3207 -0.5297
 9251SOL     OW39214   0.856   1.274   4.323  0.2880 -0.5836 -0.2710
 9251SOL    HW139215   0.851   1.185   4.359  1.4365 -0.7781 -0.5850
 9251SOL    HW239216   0.894   1.262   4.236 -1.0466  0.9956 -1.0620
 9252SOL     OW39217   1.441   2.113   8.552 -0.4362  0.0795 -0.2958
 9252SOL    HW139218   1.454   2.208   8.559  0.6510 -0.4664  4.4684
 9252SOL    HW239219   1.478   2.086   8.635  1.5149  0.3077 -1.0965
 9253SOL     OW39220   2.731   1.167   7.704 -0.0980 -0.9649 -0.2174
 9253SOL    HW139221   2.782   1.208   7.634 -1.1849  0.0213 -0.4361
 9253SOL    HW239222   2.744   1.235   7.771  0.6772  1.4048 -2.7876
 9254SOL     OW39223   2.613   0.369   3.555  0.1582  0.1755 -0.4245
 9254SOL    HW139224   2.546   0.308   3.523  1.4501 -0.5560 -1.7421
 9254SOL    HW239225   2.683   0.369   3.490  2.7019  0.3108  2.3232
 9255SOL     OW39226   2.996   3.642   4.855  0.7716  0.6949 -0.4705
 9255SOL    HW139227   2.977   3.651   4.762  1.1557  0.6230 -0.5576
 9255SOL    HW239228   3.089   3.624   4.873  0.4443 -1.1211 -0.5760
 9256SOL     OW39229   2.521   3.902   7.769  0.2249 -0.1979  0.2903
 9256SOL    HW139230   2.460   3.831   7.749  1.0897 -0.6348 -0.8520
 9256SOL    HW239231   2.540   3.914   7.675 -2.9028  1.0011 -0.1603
 9257SOL     OW39232   3.573   0.562   6.374  0.3907 -0.0656 -0.2510
 9257SOL    HW139233   3.548   0.525   6.459 -1.0647  1.7194  0.0973
 9257SOL    HW239234   3.651   0.612   6.394  0.7652 -0.5361 -0.5148
 9258SOL     OW39235   2.628   2.838  17.570  0.7636  0.4002 -0.1593
 9258SOL    HW139236   2.557   2.774  17.574 -0.4576  1.8337  1.0213
 9258SOL    HW239237   2.581   2.921  17.576 -1.8633 -0.8566 -3.2388
 9259SOL     OW39238   1.635   2.811   3.072 -0.2031 -0.0888  0.0367
 9259SOL    HW139239   1.703   2.866   3.033 -1.6352  1.9800  0.4668
 9259SOL    HW239240   1.564   2.801   3.009  1.2973  0.1507 -1.7026
 9260SOL     OW39241   3.227   4.494   4.653 -0.1738 -0.2983 -0.1892
 9260SOL    HW139242   3.198   4.420   4.599 -0.4110  0.1278 -0.6406
 9260SOL    HW239243   3.151   4.526   4.701  0.0212  0.5369 -0.4404
 9261SOL     OW39244   1.676   2.632   5.044 -0.1369 -0.5054 -0.2234
 9261SOL    HW139245   1.708   2.573   5.113 -2.5031 -0.5366  0.8390
 9261SOL    HW239246   1.719   2.716   5.058 -0.2336 -0.5136  0.1105
 9262SOL     OW39247   2.939   4.109   4.154 -0.1765 -0.5008  0.5585
 9262SOL    HW139248   2.866   4.127   4.213 -1.9407 -0.1230 -1.7007
 9262SOL    HW239249   2.945   4.191   4.105  1.9027 -0.5454  0.7530
 9263SOL     OW39250   2.319   2.377   8.146  0.3066  0.7321 -0.2314
 9263SOL    HW139251   2.344   2.372   8.054  1.4041 -3.3545  0.2661
 9263SOL    HW239252   2.230   2.345   8.163  0.4845  0.9393  1.1496
 9264SOL     OW39253   3.450   0.072   5.567  0.1485 -0.1336 -0.1754
 9264SOL    HW139254   3.470   0.082   5.474  1.8808 -0.0120  0.2157
 9264SOL    HW239255   3.535   0.076   5.611  0.3601  0.2400 -0.6073
 9265SOL     OW39256   4.686   0.951   4.413  0.6249  0.0535  0.3224
 9265SOL    HW139257   0.005   0.919   4.334  1.8514  0.3727  0.9075
 9265SOL    HW239258   4.620   0.881   4.409 -1.2330  1.8059  0.1253
 9266SOL     OW39259   2.858   3.740   3.745  0.2643  0.4206 -0.3060
 9266SOL    HW139260   2.883   3.787   3.826  1.4147 -0.5039 -0.1175
 9266SOL    HW239261   2.849   3.808   3.678  1.3848 -1.2934 -2.1845
 9267SOL     OW39262   4.120   0.674   6.988  0.1341  0.6642 -0.0012
 9267SOL    HW139263   4.110   0.626   6.906 -1.2180  0.9988 -0.0213
 9267SOL    HW239264   4.093   0.756   6.947 -0.0393 -0.4871 -2.1675
 9268SOL     OW39265   2.972   0.015   9.991  0.0716  0.0666  0.1594
 9268SOL    HW139266   2.917   4.667   9.963 -0.3711  2.0122 -4.1540
 9268SOL    HW239267   2.944   0.089   9.937 -0.4537  1.8678  2.9151
 9269SOL     OW39268   2.611   0.484   5.701 -0.8921  0.4375 -0.4861
 9269SOL    HW139269   2.518   0.504   5.697 -0.6839  1.7382  0.7937
 9269SOL    HW239270   2.638   0.512   5.613  1.5224  0.0770  0.1333
 9270SOL     OW39271   4.600   1.203   7.226 -0.3132  0.1921  0.1751
 9270SOL    HW139272   4.657   1.194   7.303  1.8493  2.4058 -1.1444
 9270SOL    HW239273   4.540   1.266   7.266 -0.0563  1.1812 -1.0195
 9271SOL     OW39274   1.493   3.697   7.134  0.2300 -0.2383  0.0157
 9271SOL    HW139275   1.556   3.749   7.086 -1.7022 -0.4777 -2.7851
 9271SOL    HW239276   1.542   3.622   7.169 -1.5554 -1.8178 -0.8461
 9272SOL     OW39277   0.547   2.635  13.600 -0.5190  0.1000 -0.2288
 9272SOL    HW139278   0.544   2.609  13.692  0.0810 -0.8003 -0.4590
 9272SOL    HW239279   0.467   2.593  13.570 -0.3782  0.6284 -1.3626
 9273SOL     OW39280   4.053   4.318   9.766  0.2184 -0.3306  0.2194
 9273SOL    HW139281   4.089   4.405   9.752  0.7670 -0.8079 -1.3653
 9273SOL    HW239282   3.998   4.338   9.841  0.7206 -0.8041  0.7117
 9274SOL     OW39283   1.705   2.330   4.850  0.2487 -0.1321 -0.4346
 9274SOL    HW139284   1.796   2.309   4.831  0.0311 -0.7509 -0.7843
 9274SOL    HW239285   1.713   2.424   4.869  3.9165 -0.1891 -1.9005
 9275SOL     OW39286   1.943   0.889   5.119 -0.5117  0.3128  0.4820
 9275SOL    HW139287   1.905   0.966   5.077  0.7045 -0.1362 -1.4699
 9275SOL    HW239288   1.878   0.828   5.083  1.8999 -0.8675 -1.8879
 9276SOL     OW39289   3.122   1.488   5.553 -0.3113 -0.0802  0.3270
 9276SOL    HW139290   3.158   1.573   5.528 -1.1873  0.2037  0.0068
 9276SOL    HW239291   3.180   1.439   5.495 -0.4937  0.0675  0.0174
 9277SOL     OW39292   4.041   3.371   5.228  0.4589 -0.8055  0.8298
 9277SOL    HW139293   4.095   3.330   5.161 -1.8215 -1.2013 -0.7539
 9277SOL    HW239294   4.055   3.462   5.200 -0.9800  0.2804  3.6497
 9278SOL     OW39295   2.570   2.925   4.420 -0.1768 -1.0718  0.0880
 9278SOL    HW139296   2.517   2.869   4.477  1.1067 -0.0352  2.2903
 9278SOL    HW239297   2.654   2.879   4.425  0.6526  0.2852 -1.3723
 9279SOL     OW39298   2.042   4.401   4.366 -0.5280  0.1459  0.2555
 9279SOL    HW139299   2.049   4.495   4.385 -1.1151 -0.3659  2.9957
 9279SOL    HW239300   1.948   4.402   4.348 -0.2379  0.2588 -1.2594
 9280SOL     OW39301   1.941   3.498   6.954  0.1155 -0.2831  0.3446
 9280SOL    HW139302   1.975   3.422   7.002 -2.5704 -0.0572  2.5594
 9280SOL    HW239303   1.847   3.490   6.966  0.0627 -0.9012 -0.5527
 9281SOL     OW39304   2.940   2.072   7.140  0.9782  0.3472  0.1657
 9281SOL    HW139305   2.886   2.134   7.092  0.5212 -0.4586 -0.3544
 9281SOL    HW239306   2.871   2.036   7.195  0.4401  0.5192 -0.4000
 9282SOL     OW39307   2.975   0.830   3.030 -0.5473  0.2646 -0.1392
 9282SOL    HW139308   3.029   0.765   2.983  1.6048  0.7170  1.7023
 9282SOL    HW239309   2.988   0.901   2.967 -1.1825  0.6991  0.2319
 9283SOL     OW39310   2.586   3.823   3.361  0.4331 -0.0871  0.2936
 9283SOL    HW139311   2.533   3.827   3.440 -0.8949 -2.2878 -0.5004
 9283SOL    HW239312   2.534   3.763   3.308 -0.4747  0.7744  0.2025
 9284SOL     OW39313   3.850   1.179   8.432  0.2233  0.2805  0.1068
 9284SOL    HW139314   3.883   1.142   8.514 -1.5403  0.9942  1.1439
 9284SOL    HW239315   3.911   1.248   8.408  1.1690  0.0143  1.7688
 9285SOL     OW39316   3.865   1.814   9.022  0.1579 -0.4477  0.0640
 9285SOL    HW139317   3.878   1.758   8.945 -1.1909  0.6094 -0.9422
 9285SOL    HW239318   3.796   1.766   9.068 -2.2302  1.4492 -1.5112
 9286SOL     OW39319   2.475   4.327   5.483 -0.2510 -0.4467  0.0601
 9286SOL    HW139320   2.381   4.333   5.499 -0.3984  0.9428 -1.3155
 9286SOL    HW239321   2.500   4.304   5.572  2.6010 -2.4770 -1.2522
 9287SOL     OW39322   0.318   1.138   0.448  0.2266 -0.2758  0.0381
 9287SOL    HW139323   0.293   1.173   0.363 -0.6893 -0.5064  0.2138
 9287SOL    HW239324   0.377   1.069   0.418  1.6340 -0.3014  2.7717
 9288SOL     OW39325   3.390   3.221   5.791  0.0127  0.0002  0.8619
 9288SOL    HW139326   3.448   3.228   5.867  2.1429 -1.4799 -0.6396
 9288SOL    HW239327   3.306   3.218   5.837  0.0641 -0.5366  0.9149
 9289SOL     OW39328   2.489   4.166  16.664  0.5166  0.3893  0.2404
 9289SOL    HW139329   2.454   4.190  16.578  0.6486  1.1657  0.4075
 9289SOL    HW239330   2.421   4.118  16.711  0.5643 -1.6916 -1.7594
 9290SOL     OW39331   3.335   1.052   9.189 -0.1047  0.3298 -0.1448
 9290SOL    HW139332   3.347   1.126   9.248 -1.1048  0.1312  0.2997
 9290SOL    HW239333   3.304   1.088   9.105 -2.0668 -0.9937  0.0306
 9291SOL     OW39334   0.140   3.250  11.760 -0.0144  0.4873  0.2201
 9291SOL    HW139335   0.147   3.191  11.835  2.1323  2.2056  1.3608
 9291SOL    HW239336   0.052   3.283  11.778 -1.9651 -3.6417 -1.7239
 9292SOL     OW39337   2.093   2.333   6.717 -0.2313 -0.2665  0.0372
 9292SOL    HW139338   2.024   2.284   6.673  0.0626  1.3145 -2.2136
 9292SOL    HW239339   2.164   2.271   6.696  0.3405  1.1529 -2.2531
 9293SOL     OW39340   0.718   1.090  14.425  0.0609  0.5500 -0.1023
 9293SOL    HW139341   0.628   1.116  14.403  0.7547  1.7100 -1.6365
 9293SOL    HW239342   0.752   1.164  14.475 -1.0826 -0.1989  1.7773
 9294SOL     OW39343   4.571   0.618   4.062 -0.3459 -0.0298 -0.5229
 9294SOL    HW139344   4.533   0.604   3.975  1.2702 -1.7394 -0.9521
 9294SOL    HW239345   4.659   0.646   4.037 -0.3602  1.3815  1.0419
 9295SOL     OW39346   1.172   1.449  16.607  0.7898  0.4223  0.3332
 9295SOL    HW139347   1.095   1.498  16.638 -1.8715 -1.4091 -3.4123
 9295SOL    HW239348   1.133   1.367  16.575 -0.0764  1.5756 -1.5146
 9296SOL     OW39349   4.388   0.668   6.217  0.5517 -0.0350  0.4626
 9296SOL    HW139350   4.328   0.742   6.225  0.4236  0.0669 -1.3648
 9296SOL    HW239351   4.364   0.616   6.294  0.9815 -1.0420 -0.0748
 9297SOL     OW39352   1.860   3.753  11.199  0.3770 -0.6197  0.4893
 9297SOL    HW139353   1.819   3.839  11.201 -0.2962 -0.9313 -0.1749
 9297SOL    HW239354   1.911   3.763  11.279  1.0953  2.6179 -0.3455
 9298SOL     OW39355   1.989   3.754   4.095  0.8584  0.1811  0.2186
 9298SOL    HW139356   1.992   3.694   4.170 -1.8806  0.3601  0.4907
 9298SOL    HW239357   1.935   3.826   4.127  0.4372  1.4840 -3.4447
 9299SOL     OW39358   1.238   1.418   3.296 -0.7566  0.1439 -0.1873
 9299SOL    HW139359   1.169   1.387   3.238 -0.5614  1.3829 -1.1033
 9299SOL    HW239360   1.283   1.465   3.225 -0.5777 -0.3826 -0.4237
 9300SOL     OW39361   0.915   3.253   5.374  1.0044 -0.1623  0.3081
 9300SOL    HW139362   0.863   3.184   5.414 -0.5810  0.6424 -0.3429
 9300SOL    HW239363   0.961   3.197   5.312 -0.3698 -0.9608 -0.0049
 9301SOL     OW39364   0.396   4.521   8.266  0.6699 -0.2800  0.8306
 9301SOL    HW139365   0.345   4.440   8.269  0.6746 -0.3014  0.2650
 9301SOL    HW239366   0.484   4.487   8.252  1.1708  1.6306 -0.6946
 9302SOL     OW39367   3.443   2.314   6.521  0.7968 -0.1169  0.9001
 9302SOL    HW139368   3.385   2.335   6.448  1.8281 -0.8880 -0.1270
 9302SOL    HW239369   3.499   2.392   6.518 -0.6897  0.8961 -0.3045
 9303SOL     OW39370   3.021   4.004  10.036  0.2799  0.5137 -0.3638
 9303SOL    HW139371   3.035   3.921  10.082 -0.9459 -0.0031 -0.9394
 9303SOL    HW239372   3.015   3.973   9.946  0.8485  0.0537 -0.2485
 9304SOL     OW39373   2.504   0.572   5.048 -0.2058 -0.2170 -0.6925
 9304SOL    HW139374   2.437   0.635   5.023 -0.5607 -0.1883  0.3194
 9304SOL    HW239375   2.492   0.517   4.971 -0.0443 -3.0317  1.2794
 9305SOL     OW39376   4.680   4.394   4.369  0.0026 -0.6608  0.1760
 9305SOL    HW139377   4.662   4.407   4.276  1.5788  3.5556  0.4844
 9305SOL    HW239378   4.654   4.473   4.416 -0.7493 -0.5166 -0.4931
 9306SOL     OW39379   2.357   4.464   5.122 -0.5915  0.1407 -0.3692
 9306SOL    HW139380   2.345   4.556   5.145 -3.9519  0.1804 -2.2330
 9306SOL    HW239381   2.272   4.419   5.131 -1.2538  0.9068 -2.8061
 9307SOL     OW39382   4.658   2.001   0.095 -0.1704 -0.2015 -0.0796
 9307SOL    HW139383   0.008   2.032   0.145  0.2388  0.7192 -1.2657
 9307SOL    HW239384   4.671   2.047   0.012  1.8429  0.5314  0.6350
 9308SOL     OW39385   1.217   0.484  13.110 -0.7379  0.4979  0.0604
 9308SOL    HW139386   1.133   0.508  13.150 -0.1238  3.2597 -0.3659
 9308SOL    HW239387   1.278   0.451  13.176  0.7527  0.1085 -1.5131
 9309SOL     OW39388   3.561   3.273   6.000 -0.0446  0.0676  0.0945
 9309SOL    HW139389   3.648   3.288   6.036  0.0953 -0.9288  0.1685
 9309SOL    HW239390   3.505   3.231   6.065 -0.0208 -3.9274 -2.4728
 9310SOL     OW39391   0.900   2.738  10.923  0.0124  0.1493  0.4691
 9310SOL    HW139392   0.992   2.764  10.919 -0.3252  0.6060 -4.1420
 9310SOL    HW239393   0.902   2.659  10.868 -0.3736  1.5156 -1.5175
 9311SOL     OW39394   4.580   2.444   4.612 -0.4675 -0.0462  0.1028
 9311SOL    HW139395   4.604   2.518   4.668 -2.3007 -0.0156  0.8496
 9311SOL    HW239396   4.497   2.425   4.656  0.0430  0.2614  1.2030
 9312SOL     OW39397   0.990   1.269   4.680 -0.0349  0.5358 -0.1566
 9312SOL    HW139398   1.068   1.308   4.640 -1.1843 -0.0775 -3.0121
 9312SOL    HW239399   0.961   1.211   4.609  0.3008 -0.1976  0.3105
 9313SOL     OW39400   3.329   4.575  13.427 -0.7408  0.1171 -0.5200
 9313SOL    HW139401   3.289   4.509  13.484  3.8673 -0.7479  1.7634
 9313SOL    HW239402   3.398   4.526  13.382 -1.9393 -0.2399 -1.9441
 9314SOL     OW39403   4.423   3.423  16.704  0.5189  0.0508 -0.5534
 9314SOL    HW139404   4.452   3.470  16.626  1.3102  1.8610  0.8178
 9314SOL    HW239405   4.364   3.373  16.648 -1.2114  1.9494 -0.4437
 9315SOL     OW39406   3.133   4.293  17.206  0.8050 -0.1544  0.2263
 9315SOL    HW139407   3.154   4.355  17.137 -1.2541 -0.9113 -1.0670
 9315SOL    HW239408   3.210   4.319  17.258 -1.2430 -0.2530  3.3010
 9316SOL     OW39409   0.731   3.964   3.068 -0.3147  0.0892  0.0179
 9316SOL    HW139410   0.695   3.927   2.988  0.1037 -0.5558  0.1271
 9316SOL    HW239411   0.650   3.989   3.113 -1.2894 -0.7124 -1.2993
 9317SOL     OW39412   4.270   2.782   1.172  0.2207 -0.3616  0.1801
 9317SOL    HW139413   4.299   2.872   1.155  2.6562 -1.0766  0.6191
 9317SOL    HW239414   4.202   2.775   1.105 -0.1966  1.2491  0.4339
 9318SOL     OW39415   3.505   4.723   6.143  0.4825  0.3144 -0.2159
 9318SOL    HW139416   3.553   0.068   6.100  0.6621  0.3676  0.0764
 9318SOL    HW239417   3.423   0.046   6.141  0.4614  0.3417  1.5759
 9319SOL     OW39418   2.806   3.688  14.531  0.5843  0.0805 -0.4536
 9319SOL    HW139419   2.900   3.671  14.527  0.4023 -1.1998  0.5288
 9319SOL    HW239420   2.769   3.656  14.449  0.1344 -0.8821  0.1142
 9320SOL     OW39421   0.746   2.772   5.123 -0.0430  0.3042  0.3445
 9320SOL    HW139422   0.802   2.719   5.180 -0.0597 -0.2953 -0.1985
 9320SOL    HW239423   0.757   2.722   5.043  0.0285 -1.7858  1.6636
 9321SOL     OW39424   3.792   3.379   8.777  0.3806 -0.5125  0.2608
 9321SOL    HW139425   3.808   3.295   8.733  2.5533 -1.3095  2.5523
 9321SOL    HW239426   3.786   3.352   8.869  0.9054  0.3611  0.5511
 9322SOL     OW39427   3.135   3.642   6.956 -0.1733  0.6793 -0.6978
 9322SOL    HW139428   3.099   3.584   7.023  2.2106  0.3172  0.2577
 9322SOL    HW239429   3.227   3.625   6.978 -0.5609  1.7572  1.8287
 9323SOL     OW39430   0.321   2.927   2.853  0.4685  0.0696 -0.0815
 9323SOL    HW139431   0.287   2.889   2.934  1.3385  0.0648  0.2799
 9323SOL    HW239432   0.340   2.846   2.806  2.6981  2.2207 -2.9141
 9324SOL     OW39433   3.387   3.867   4.942  0.4808  0.1146 -0.1032
 9324SOL    HW139434   3.480   3.843   4.938 -0.0174 -1.5691 -1.5623
 9324SOL    HW239435   3.390   3.958   4.912 -0.0280  0.0153 -0.4633
 9325SOL     OW39436   1.947   1.522   5.409 -0.6861  0.8172 -0.0306
 9325SOL    HW139437   1.899   1.605   5.397 -2.2229  0.1831  1.8467
 9325SOL    HW239438   1.902   1.475   5.339 -0.2350  1.4591 -0.7502
 9326SOL     OW39439   3.530   4.052  12.865  0.1304 -0.0503  0.3391
 9326SOL    HW139440   3.620   4.084  12.867  1.0212 -2.4490 -0.6412
 9326SOL    HW239441   3.498   4.131  12.821  0.1569  0.3947  1.1195
 9327SOL     OW39442   0.008   0.518   7.598  0.1855 -0.3539 -0.0230
 9327SOL    HW139443   4.661   0.491   7.542 -2.2501  0.1961  2.8939
 9327SOL    HW239444   4.703   0.606   7.617 -1.3879 -1.0737  0.7735
 9328SOL     OW39445   3.666   2.677   8.046 -1.0740 -0.1859 -0.4437
 9328SOL    HW139446   3.712   2.688   8.129 -0.2073  1.0899 -1.0998
 9328SOL    HW239447   3.704   2.745   7.992  0.6325 -0.5596  0.2951
 9329SOL     OW39448   0.142   3.694   1.678  0.2387  0.0999 -0.9976
 9329SOL    HW139449   0.155   3.635   1.603 -1.4828 -2.0301  0.4047
 9329SOL    HW239450   0.171   3.777   1.639  1.3440  0.1283 -0.1326
 9330SOL     OW39451   0.209   1.055   5.204  0.2205  0.2854  0.5073
 9330SOL    HW139452   0.243   1.032   5.290 -0.2979  1.5824  1.0609
 9330SOL    HW239453   0.203   0.965   5.174  0.3262  0.4010  0.1355
 9331SOL     OW39454   0.094   0.103   5.693 -0.2145 -0.3542  0.3382
 9331SOL    HW139455   0.092   0.171   5.759 -1.8701  0.0006 -0.0959
 9331SOL    HW239456   0.005   0.077   5.672  0.0748  0.2391 -1.6054
 9332SOL     OW39457   2.469   1.602   4.777 -0.9542 -0.1270  0.4039
 9332SOL    HW139458   2.436   1.671   4.720 -1.8590 -1.0945 -0.2408
 9332SOL    HW239459   2.557   1.638   4.793 -0.1000 -1.8590 -0.3394
 9333SOL     OW39460   0.389   1.225   2.944 -0.7300  0.3709  0.4220
 9333SOL    HW139461   0.378   1.226   2.849  2.0060 -2.5927  0.0850
 9333SOL    HW239462   0.301   1.202   2.972  0.2712 -1.4951  1.9867
 9334SOL     OW39463   2.052   3.716   9.188 -0.7831 -0.4839 -0.4278
 9334SOL    HW139464   2.040   3.701   9.094 -0.6385  1.2392 -0.7329
 9334SOL    HW239465   2.068   3.625   9.214 -1.9239 -0.4676  0.3249
 9335SOL     OW39466   0.181   2.899   8.028 -0.1222 -0.4805  0.7017
 9335SOL    HW139467   0.086   2.911   8.028 -0.3820 -2.5558  1.5110
 9335SOL    HW239468   0.202   2.856   8.110  0.1195 -2.7811 -0.5613
 9336SOL     OW39469   2.618   2.646  17.197  0.0463  0.4935  0.1026
 9336SOL    HW139470   2.539   2.691  17.226 -1.5686 -1.8060 -0.6893
 9336SOL    HW239471   2.578   2.574  17.148  0.1760  0.1561  0.4805
 9337SOL     OW39472   2.865   4.699   4.706  0.3490 -0.1665  0.4077
 9337SOL    HW139473   2.804   0.008   4.770 -0.0117 -1.2299  0.6488
 9337SOL    HW239474   2.900   4.621   4.749 -1.3229 -0.0387  1.9814
 9338SOL     OW39475   2.176   0.360   6.427  0.0025  0.6334  0.0106
 9338SOL    HW139476   2.101   0.409   6.461 -0.2850  0.4961 -0.4248
 9338SOL    HW239477   2.186   0.403   6.342  0.2674  0.3570 -0.0965
 9339SOL     OW39478   3.616   1.146  16.603  0.1810 -0.3110 -1.2812
 9339SOL    HW139479   3.562   1.214  16.643  1.4727  1.4253 -2.4859
 9339SOL    HW239480   3.552   1.084  16.568  1.0847 -0.4712 -2.6408
 9340SOL     OW39481   3.278   3.558   7.309 -0.3010  0.7797  0.2440
 9340SOL    HW139482   3.221   3.630   7.336 -2.5576 -1.2802  0.9616
 9340SOL    HW239483   3.222   3.511   7.248 -2.6622  1.6867  1.6860
 9341SOL     OW39484   1.861   3.038   6.118 -0.1180 -0.4456  0.4490
 9341SOL    HW139485   1.849   2.956   6.167 -2.2630  0.0248  0.6837
 9341SOL    HW239486   1.780   3.055   6.070 -1.1674  1.2513  2.8368
 9342SOL     OW39487   1.633   2.247   7.268  0.1026  0.1242 -0.5356
 9342SOL    HW139488   1.684   2.220   7.344  1.4888 -1.0872 -1.8713
 9342SOL    HW239489   1.566   2.179   7.257  1.4127 -1.0135 -1.5852
 9343SOL     OW39490   0.069   3.417   2.891  0.1626 -0.1872 -0.0718
 9343SOL    HW139491   0.138   3.439   2.828  0.4717 -1.1065 -0.0517
 9343SOL    HW239492   4.715   3.439   2.843 -0.1607 -1.1076  0.0557
 9344SOL     OW39493   2.457   0.456   6.682  0.6955  0.6325  0.0426
 9344SOL    HW139494   2.469   0.388   6.749 -0.2911 -0.4409 -0.8724
 9344SOL    HW239495   2.364   0.473   6.697  1.1260  0.5157  2.7976
 9345SOL     OW39496   0.265   3.939   2.056  0.1230  0.3043 -0.5766
 9345SOL    HW139497   0.340   3.981   2.014  0.5436  0.3029  0.1709
 9345SOL    HW239498   0.268   3.852   2.016  0.4168 -0.0173  0.1564
 9346SOL     OW39499   3.275   0.766   5.687  0.0395  0.0162  0.0364
 9346SOL    HW139500   3.238   0.699   5.745  0.7969 -0.4180  0.0174
 9346SOL    HW239501   3.207   0.778   5.621 -2.1715  0.2324  2.3594
 9347SOL     OW39502   1.663   4.207   9.899  0.0001 -0.0867  0.8906
 9347SOL    HW139503   1.620   4.233   9.817  2.4662 -0.4035 -0.5035
 9347SOL    HW239504   1.590   4.185   9.957 -0.4058 -4.2160 -1.1879
 9348SOL     OW39505   1.166   4.359   6.397 -0.6997  0.2557  0.2806
 9348SOL    HW139506   1.126   4.445   6.383  2.5150  2.4135  4.3730
 9348SOL    HW239507   1.210   4.365   6.482  0.8138 -1.4186 -0.3927
 9349SOL     OW39508   0.069   3.182   7.556  0.3240  0.6579 -0.1997
 9349SOL    HW139509   0.094   3.185   7.648  0.7343  0.3681 -0.3037
 9349SOL    HW239510   0.063   3.088   7.539  0.4209  1.2246 -3.2897
 9350SOL     OW39511   0.153   3.138   0.756  0.4004  0.7114  0.2344
 9350SOL    HW139512   0.212   3.179   0.819 -0.7936  0.5362  1.4673
 9350SOL    HW239513   0.205   3.137   0.675  2.3551 -0.0243  1.4899
 9351SOL     OW39514   2.980   1.157  15.739 -0.3247 -0.1944 -0.3018
 9351SOL    HW139515   2.925   1.093  15.784 -0.4296  1.5155  2.0274
 9351SOL    HW239516   3.044   1.180  15.807 -0.5252 -1.8490  0.4397
 9352SOL     OW39517   2.832   4.453   7.611  0.0491 -0.3486  0.1544
 9352SOL    HW139518   2.766   4.385   7.628 -0.1614 -0.1485  0.1279
 9352SOL    HW239519   2.803   4.487   7.527 -0.7903 -1.3920  0.0183
 9353SOL     OW39520   0.716   1.611   5.940  0.2231 -0.1439 -0.7944
 9353SOL    HW139521   0.697   1.622   6.033 -1.5432  0.6484 -1.2387
 9353SOL    HW239522   0.806   1.579   5.932  0.5484  1.0869 -2.0720
 9354SOL     OW39523   0.632   4.264   8.046  0.0262  0.6622 -0.0189
 9354SOL    HW139524   0.587   4.317   7.980  1.1772 -2.5934 -3.3881
 9354SOL    HW239525   0.724   4.266   8.019  0.5959 -2.1600  1.7031
 9355SOL     OW39526   0.332   3.710   6.872 -0.0371  0.1601  0.0335
 9355SOL    HW139527   0.246   3.709   6.915  0.9131  0.0428  1.9493
 9355SOL    HW239528   0.316   3.633   6.817  1.1401  0.4558 -0.7175
 9356SOL     OW39529   0.798   1.953   3.182 -0.7908  0.2168 -0.5002
 9356SOL    HW139530   0.870   1.901   3.217 -0.3155 -1.2863 -3.7735
 9356SOL    HW239531   0.741   1.886   3.146  0.8448 -0.7360 -1.2937
 9357SOL     OW39532   4.052   2.888   3.606 -0.3458  0.2021  0.4659
 9357SOL    HW139533   4.006   2.834   3.670 -1.2322 -0.9166 -1.1113
 9357SOL    HW239534   4.096   2.934   3.678  0.5934 -1.4609  0.9492
 9358SOL     OW39535   1.356   3.969   2.835 -0.0539  0.0179 -0.1636
 9358SOL    HW139536   1.283   3.937   2.887 -0.7108  1.4008 -0.2201
 9358SOL    HW239537   1.315   3.995   2.753  1.6275  2.5540 -0.2177
 9359SOL     OW39538   2.655   4.054   0.706 -0.3314  0.1534 -0.5640
 9359SOL    HW139539   2.697   4.129   0.664 -2.0809  0.4917 -1.7494
 9359SOL    HW239540   2.667   3.979   0.648 -1.2623  0.9551 -1.7994
 9360SOL     OW39541   0.319   3.238   6.743  0.7256  0.2773 -0.4310
 9360SOL    HW139542   0.390   3.180   6.715  0.0186 -0.2014 -1.2305
 9360SOL    HW239543   0.247   3.199   6.695  1.5363 -1.2756 -0.3785
 9361SOL     OW39544   0.136   0.206   5.966 -0.5577  0.4470  0.2630
 9361SOL    HW139545   0.201   0.136   5.973 -0.5200  0.5981  1.4069
 9361SOL    HW239546   0.051   0.163   5.972 -0.5856  0.1525 -2.1487
 9362SOL     OW39547   1.378   1.312   2.473  0.6510 -0.4403 -0.3415
 9362SOL    HW139548   1.393   1.255   2.549  0.1555  1.2229  1.0072
 9362SOL    HW239549   1.343   1.384   2.526  0.5067 -0.9672  0.2841
 9363SOL     OW39550   0.083   3.567   3.496  0.4663 -0.1721 -0.0138
 9363SOL    HW139551   0.081   3.548   3.402  1.8577 -0.1260 -0.0597
 9363SOL    HW239552   0.127   3.494   3.541  2.5099  1.5266  0.7380
 9364SOL     OW39553   2.495   0.072  12.542 -0.1926  0.0195 -0.2034
 9364SOL    HW139554   2.477   0.005  12.608 -1.3984  0.7723  0.2360
 9364SOL    HW239555   2.412   0.065  12.496  0.5435  1.6970 -1.8215
 9365SOL     OW39556   2.569   2.425  16.392  0.1291 -0.4654  0.6728
 9365SOL    HW139557   2.586   2.368  16.467  2.4706 -2.1292 -1.1036
 9365SOL    HW239558   2.517   2.493  16.435  0.5904 -0.2998  0.9657
 9366SOL     OW39559   0.681   4.538   5.651 -0.5822 -0.1611  0.4318
 9366SOL    HW139560   0.671   4.445   5.674 -0.4497 -0.5279 -1.0121
 9366SOL    HW239561   0.677   4.529   5.556  2.8820 -2.6223  0.5022
 9367SOL     OW39562   1.649   1.468   8.256 -0.0533  0.3758  0.0239
 9367SOL    HW139563   1.585   1.531   8.223  0.4050  0.8919  0.1174
 9367SOL    HW239564   1.607   1.400   8.307  0.2862 -0.0527 -0.2659
 9368SOL     OW39565   2.741   0.208   5.755 -0.2610  0.0434 -1.0900
 9368SOL    HW139566   2.693   0.291   5.757 -0.5357 -0.2101  1.8123
 9368SOL    HW239567   2.694   0.150   5.695 -0.5506 -0.2595 -0.5571
 9369SOL     OW39568   4.098   3.816   5.692  0.0014  0.1641  0.5580
 9369SOL    HW139569   4.187   3.837   5.666 -0.2160 -0.6534 -0.8215
 9369SOL    HW239570   4.100   3.722   5.677 -1.6696  0.2322 -0.1523
 9370SOL     OW39571   0.465   4.551   3.230 -0.0572  0.3141 -0.1890
 9370SOL    HW139572   0.374   4.559   3.200 -0.8182 -0.5551  1.8885
 9370SOL    HW239573   0.479   4.459   3.204  3.0692  0.6589  0.3117
 9371SOL     OW39574   0.053   1.332  15.537 -0.3273 -0.4419  0.2767
 9371SOL    HW139575   0.049   1.304  15.446 -1.1750 -1.1218  0.5213
 9371SOL    HW239576   0.147   1.335  15.553 -0.7199  2.0708  2.1533
 9372SOL     OW39577   2.602   3.795  14.682 -0.2572  0.2588 -0.5452
 9372SOL    HW139578   2.633   3.886  14.677 -0.1142  0.2823  0.9997
 9372SOL    HW239579   2.657   3.755  14.614 -0.0414  0.9656 -0.7965
 9373SOL     OW39580   2.980   4.035   4.493 -0.6423 -0.0772  0.6223
 9373SOL    HW139581   2.890   4.008   4.477  0.6399 -3.3509 -1.1213
 9373SOL    HW239582   3.022   4.033   4.406 -0.1849  0.5777  0.8297
 9374SOL     OW39583   1.240   3.075   5.654  0.0584  0.0018  0.3708
 9374SOL    HW139584   1.254   3.034   5.569  0.9122  0.2982  0.3645
 9374SOL    HW239585   1.224   3.167   5.632 -0.2360 -0.4036 -1.1357
 9375SOL     OW39586   3.916   0.183   2.071 -0.0465  0.0754  0.1006
 9375SOL    HW139587   3.829   0.144   2.082  0.4644 -0.5416  2.0506
 9375SOL    HW239588   3.898   0.274   2.094 -0.3726 -0.1161  0.6001
 9376SOL     OW39589   2.038   4.218   6.463  0.3890  0.7481 -0.0157
 9376SOL    HW139590   2.115   4.165   6.443  1.9024  2.3300  1.6446
 9376SOL    HW239591   1.981   4.200   6.388 -1.0422  1.6425  0.8453
 9377SOL     OW39592   1.328   3.120   5.212 -0.3329 -0.8840  0.0497
 9377SOL    HW139593   1.378   3.196   5.241  1.1704 -1.6234 -0.6358
 9377SOL    HW239594   1.237   3.135   5.239 -0.1131 -2.8061  1.7669
 9378SOL     OW39595   2.864   3.155   0.095  0.3642 -0.6972  0.6641
 9378SOL    HW139596   2.809   3.232   0.087 -0.3231 -1.2820 -0.2153
 9378SOL    HW239597   2.811   3.082   0.063 -0.5926  0.5502 -0.5639
 9379SOL     OW39598   2.465   0.959   8.218  0.0429 -0.2252  0.6166
 9379SOL    HW139599   2.509   0.876   8.202 -0.2428 -0.6091  1.8249
 9379SOL    HW239600   2.517   0.996   8.289 -0.0899  1.0511  0.0642
 9380SOL     OW39601   3.582   2.498  10.997  0.4763 -0.4193  0.1287
 9380SOL    HW139602   3.519   2.534  11.061  0.8569  3.0947 -1.4538
 9380SOL    HW239603   3.612   2.421  11.046 -0.6623 -0.8124  0.2196
 9381SOL     OW39604   1.609   3.980   2.374 -0.4172 -0.2852 -0.0859
 9381SOL    HW139605   1.556   3.900   2.371 -0.5456 -0.1800 -0.6383
 9381SOL    HW239606   1.545   4.048   2.393 -0.6090 -0.7770  1.0259
 9382SOL     OW39607   4.689   3.200   4.534 -0.0975 -0.5870 -0.0038
 9382SOL    HW139608   0.013   3.175   4.612 -1.5927  0.7433  1.3911
 9382SOL    HW239609   4.717   3.290   4.547 -0.3783 -0.6592  1.1144
 9383SOL     OW39610   2.178   4.139   3.657 -0.8524  0.1721 -0.3078
 9383SOL    HW139611   2.226   4.189   3.722 -0.8689  1.6121 -1.4016
 9383SOL    HW239612   2.234   4.152   3.580 -1.4953 -1.1623 -1.0226
 9384SOL     OW39613   2.445   3.941   6.258 -0.7597  0.1094 -0.7062
 9384SOL    HW139614   2.461   3.869   6.196 -1.3020 -0.8113  0.2129
 9384SOL    HW239615   2.365   3.898   6.289 -1.1892  0.8704 -0.7645
 9385SOL     OW39616   3.068   0.001  16.847  0.0866  0.3554  0.0528
 9385SOL    HW139617   3.066   4.695  16.757 -0.9684 -2.6135  1.1305
 9385SOL    HW239618   3.013   0.079  16.843 -1.2185 -0.4750  2.0205
 9386SOL     OW39619   0.509   4.231   2.370 -0.7154  0.2797  0.1633
 9386SOL    HW139620   0.448   4.163   2.399 -0.2055 -0.7423 -1.1929
 9386SOL    HW239621   0.527   4.188   2.287  1.1008  1.7560 -0.1917
 9387SOL     OW39622   4.536   4.454   7.096  0.6815  0.5646  0.9808
 9387SOL    HW139623   4.628   4.479   7.091  0.3221  1.4237 -1.3063
 9387SOL    HW239624   4.517   4.388   7.030 -2.6155  0.7779  1.7032
 9388SOL     OW39625   0.372   4.328   1.901 -0.1225 -0.5400 -0.4273
 9388SOL    HW139626   0.458   4.370   1.912  0.8240 -2.4851 -0.4111
 9388SOL    HW239627   0.333   4.375   1.827  2.0651 -0.5620 -1.5991
 9389SOL     OW39628   4.180   1.535  15.718 -0.2555  0.4443  0.2430
 9389SOL    HW139629   4.205   1.573  15.803 -2.9429  0.2405  1.1278
 9389SOL    HW239630   4.258   1.556  15.666  0.0265 -2.1986 -0.4285
 9390SOL     OW39631   0.172   0.818  16.323 -0.3619  0.4167 -0.1777
 9390SOL    HW139632   0.107   0.872  16.278  0.8452  1.1232 -1.0897
 9390SOL    HW239633   0.241   0.882  16.302 -0.4294  0.0688 -1.4206
 9391SOL     OW39634   3.708   1.659   5.692  0.6335 -0.3278 -0.0918
 9391SOL    HW139635   3.742   1.613   5.615  0.1655 -2.1484  0.7815
 9391SOL    HW239636   3.622   1.618   5.707  0.5361  0.0046  0.2474
 9392SOL     OW39637   2.148   2.251   3.223 -0.8927 -0.2615  0.1268
 9392SOL    HW139638   2.235   2.239   3.187 -1.4715  1.3614 -1.8011
 9392SOL    HW239639   2.152   2.345   3.211 -0.5245 -0.0913  1.5655
 9393SOL     OW39640   0.654   4.529   0.763 -0.0448  0.1652  0.3851
 9393SOL    HW139641   0.590   4.472   0.722  0.0186  1.0371 -0.9558
 9393SOL    HW239642   0.699   4.554   0.682 -0.3189  4.4465  1.5258
 9394SOL     OW39643   2.381   3.003   3.373  0.4437  0.3989 -0.2001
 9394SOL    HW139644   2.428   2.927   3.339  1.3831  0.3457  1.2113
 9394SOL    HW239645   2.399   3.002   3.467 -0.9677  1.5781  0.0815
 9395SOL     OW39646   0.453   4.595  10.891  0.1067 -0.5315 -0.2186
 9395SOL    HW139647   0.457   4.499  10.888 -0.5110 -0.5895  0.7221
 9395SOL    HW239648   0.537   4.614  10.932 -0.8291 -0.6477  1.7412
 9396SOL     OW39649   2.965   3.030  12.176  0.1303 -0.4620 -0.0718
 9396SOL    HW139650   2.876   3.024  12.142 -0.2112  0.5855  0.6509
 9396SOL    HW239651   2.975   2.937  12.200 -2.3380 -1.1500 -1.7424
 9397SOL     OW39652   1.577   4.626   1.140 -0.1882 -0.0926 -0.5862
 9397SOL    HW139653   1.534   4.571   1.206  0.8263 -0.2316 -0.0510
 9397SOL    HW239654   1.515   4.614   1.068 -2.1645  0.5789  0.9809
 9398SOL     OW39655   2.589   2.028   2.942  0.5154  0.5303  0.7338
 9398SOL    HW139656   2.558   1.943   2.972 -0.8949  0.9633  0.4697
 9398SOL    HW239657   2.532   2.057   2.871  2.0360 -0.1040 -0.7614
 9399SOL     OW39658   3.842   0.750   0.918 -0.1587  0.3836  0.2088
 9399SOL    HW139659   3.799   0.780   0.998 -0.0023 -0.8162  0.7413
 9399SOL    HW239660   3.898   0.682   0.955 -0.4661 -0.3938 -0.7686
 9400SOL     OW39661   3.292   1.076   3.307 -0.0493  0.6971 -0.6037
 9400SOL    HW139662   3.272   1.081   3.213 -2.9548  2.3186  0.1173
 9400SOL    HW239663   3.292   0.981   3.319  0.8404  0.4525 -2.5063
 9401SOL     OW39664   0.967   3.774  13.287 -0.6627  0.2057 -0.2432
 9401SOL    HW139665   1.032   3.708  13.312 -0.2258  0.2311 -1.3013
 9401SOL    HW239666   0.977   3.822  13.369  0.7877 -1.0967  0.3490
 9402SOL     OW39667   1.817   2.756   4.402  0.6983 -0.1432 -0.5662
 9402SOL    HW139668   1.795   2.687   4.340 -1.9143  0.9844 -0.8756
 9402SOL    HW239669   1.737   2.747   4.454  0.4008  0.7770 -0.8726
 9403SOL     OW39670   2.652   2.367   2.884  0.3065  0.7097 -0.4183
 9403SOL    HW139671   2.695   2.446   2.851  1.0864 -0.5710 -2.4653
 9403SOL    HW239672   2.687   2.301   2.825  1.0635  1.1427 -0.4562
 9404SOL     OW39673   0.122   0.860   0.511  0.1397  0.1722  0.5650
 9404SOL    HW139674   0.039   0.841   0.554  0.4547  0.7671  1.4560
 9404SOL    HW239675   0.169   0.905   0.582 -0.0637 -2.8325  2.6286
 9405SOL     OW39676   4.080   2.925   4.461  0.9103  0.2623  0.1141
 9405SOL    HW139677   4.004   2.972   4.427 -1.7173 -1.8306  3.1265
 9405SOL    HW239678   4.082   2.961   4.551 -1.5846  2.0764 -0.5622
 9406SOL     OW39679   3.460   1.935   8.253 -0.1712  0.4285 -0.4316
 9406SOL    HW139680   3.459   2.004   8.186  0.7848  2.6874  1.8991
 9406SOL    HW239681   3.379   1.890   8.230 -0.1490  0.7055 -1.0719
 9407SOL     OW39682   0.945   0.942  13.967  0.0899 -0.3194  0.2379
 9407SOL    HW139683   0.937   0.848  13.950 -0.5430 -0.2874  0.3454
 9407SOL    HW239684   0.886   0.958  14.041 -0.8717  0.8440 -0.7835
 9408SOL     OW39685   3.592   0.188  13.548  0.0935 -0.0905 -0.1922
 9408SOL    HW139686   3.514   0.186  13.492 -1.9442  1.4748  2.5981
 9408SOL    HW239687   3.594   0.281  13.571 -0.1929  0.0195 -0.6195
 9409SOL     OW39688   4.572   0.515   6.610  0.4106  0.0686 -0.0264
 9409SOL    HW139689   4.536   0.588   6.560 -1.9627 -1.3284 -0.3818
 9409SOL    HW239690   4.574   0.433   6.561  0.3962 -0.4720  0.8684
 9410SOL     OW39691   0.707   3.888   3.613  0.0004  0.3150 -0.0794
 9410SOL    HW139692   0.773   3.848   3.556 -1.5836 -0.5424 -1.3234
 9410SOL    HW239693   0.745   3.970   3.645 -3.1367  0.9433  2.0483
 9411SOL     OW39694   2.780   0.324   2.209 -0.1131  0.0328  0.1276
 9411SOL    HW139695   2.712   0.325   2.276  0.3510 -0.9115  0.6093
 9411SOL    HW239696   2.802   0.416   2.217  0.2823 -0.1175  0.7124
 9412SOL     OW39697   0.792   4.218  16.135 -0.2832  0.2473 -0.1567
 9412SOL    HW139698   0.815   4.154  16.203  2.4006 -0.2779 -1.6020
 9412SOL    HW239699   0.698   4.230  16.148 -0.0880  0.1413  1.3665
 9413SOL     OW39700   2.278   2.260   2.550 -0.0280 -0.6074  0.1643
 9413SOL    HW139701   2.270   2.231   2.459  1.9452  0.6747 -0.4219
 9413SOL    HW239702   2.343   2.329   2.538  0.1266 -0.5209  1.4562
 9414SOL     OW39703   2.560   1.453   8.199 -0.7303 -0.1542 -0.5150
 9414SOL    HW139704   2.541   1.383   8.261  1.6281 -1.2092 -0.9743
 9414SOL    HW239705   2.548   1.525   8.260  0.8723 -1.5130  1.3833
 9415SOL     OW39706   1.944   3.613   3.034 -0.1739  0.1887 -0.2893
 9415SOL    HW139707   2.011   3.580   3.094 -1.4359 -0.5632  0.6898
 9415SOL    HW239708   1.965   3.558   2.958 -1.0965  0.9222 -1.0882
 9416SOL     OW39709   3.123   2.298   9.780  0.4351 -1.4452  0.2128
 9416SOL    HW139710   3.101   2.352   9.856  1.9584 -1.1342  0.4531
 9416SOL    HW239711   3.110   2.210   9.814  0.7333 -0.8525  1.9102
 9417SOL     OW39712   2.775   2.026  12.318  0.1987 -0.0037  0.5856
 9417SOL    HW139713   2.837   2.019  12.390  1.2893 -1.4606 -0.5021
 9417SOL    HW239714   2.745   2.117  12.323 -0.4208 -0.2573  1.4488
 9418SOL     OW39715   3.052   1.859   5.600 -0.1839  0.5434  0.2899
 9418SOL    HW139716   2.994   1.931   5.622 -0.6774  0.5292 -0.9841
 9418SOL    HW239717   3.024   1.827   5.514 -0.3012 -0.1710  0.5887
 9419SOL     OW39718   2.830   2.813   4.457 -0.3238 -0.2378 -0.4439
 9419SOL    HW139719   2.906   2.853   4.415 -0.6105 -0.8780 -1.5776
 9419SOL    HW239720   2.841   2.720   4.438 -2.5600 -0.3372 -1.2179
 9420SOL     OW39721   1.697   0.364   6.100 -0.1631  0.4676  0.3548
 9420SOL    HW139722   1.699   0.451   6.140  0.2772  0.1851  0.9553
 9420SOL    HW239723   1.758   0.313   6.154  0.0597 -1.6461 -1.9137
 9421SOL     OW39724   0.812   1.053   5.669 -0.4346  0.2729  0.1798
 9421SOL    HW139725   0.764   0.976   5.639  0.0725  0.9575 -2.4507
 9421SOL    HW239726   0.745   1.122   5.665 -1.8844 -1.0557  1.8010
 9422SOL     OW39727   2.440   4.141   8.466 -0.4011 -0.1772 -0.6707
 9422SOL    HW139728   2.526   4.174   8.439 -1.5080  1.0120 -2.7523
 9422SOL    HW239729   2.460   4.097   8.548 -0.9112 -0.3317 -0.6277
 9423SOL     OW39730   2.948   4.369   5.342  0.0674  0.7170  0.4220
 9423SOL    HW139731   2.922   4.435   5.278 -0.1404  0.5188  0.3005
 9423SOL    HW239732   3.012   4.328   5.284 -0.4686  0.8527 -0.2623
 9424SOL     OW39733   2.467   1.343   9.470 -0.3167  0.3697 -0.4411
 9424SOL    HW139734   2.449   1.286   9.395 -0.0073 -0.9378  0.4657
 9424SOL    HW239735   2.443   1.418   9.416 -2.9725 -1.4136 -1.7226
 9425SOL     OW39736   1.455   0.061   6.224 -0.2703 -0.3731  0.3955
 9425SOL    HW139737   1.449   0.137   6.166 -0.9928 -0.3842  0.4625
 9425SOL    HW239738   1.388   0.010   6.178 -0.0793 -1.7428  1.6194
 9426SOL     OW39739   1.098   4.623   6.488  0.1309  0.1966  0.4305
 9426SOL    HW139740   1.151   4.584   6.558  0.9286 -0.3054 -0.4623
 9426SOL    HW239741   1.089   4.716   6.508  0.6900 -0.1085  2.1435
 9427SOL     OW39742   0.233   4.404   2.319  0.2521  0.0248  0.3232
 9427SOL    HW139743   0.311   4.440   2.277 -0.8481  0.0436 -1.7101
 9427SOL    HW239744   0.192   4.368   2.241 -0.1981  0.2731  0.4409
 9428SOL     OW39745   1.622   0.735  13.423 -0.1101  0.0898  0.1562
 9428SOL    HW139746   1.533   0.701  13.430  0.4928 -1.4746  0.1277
 9428SOL    HW239747   1.676   0.660  13.399  0.4839 -0.1554  2.3180
 9429SOL     OW39748   4.707   2.118   1.748  0.2505 -0.1061  0.4214
 9429SOL    HW139749   4.692   2.177   1.674  1.0650 -0.6600 -0.1766
 9429SOL    HW239750   4.702   2.029   1.713  1.0938  0.0032  0.0149
 9430SOL     OW39751   1.385   4.593   2.507 -0.3706  0.1114 -0.5572
 9430SOL    HW139752   1.356   4.675   2.468 -1.2711 -1.3187 -2.8896
 9430SOL    HW239753   1.461   4.627   2.554 -1.5189 -0.7900  1.9748
 9431SOL     OW39754   4.212   2.135   9.883  0.3016  0.5538  0.8622
 9431SOL    HW139755   4.297   2.179   9.883 -0.1303  1.3820  0.9036
 9431SOL    HW239756   4.162   2.191   9.825  1.0144  0.9700  0.6465
 9432SOL     OW39757   3.444   0.624   4.859  0.2198 -0.6903  0.1329
 9432SOL    HW139758   3.401   0.611   4.944 -3.3130  2.0512 -1.2267
 9432SOL    HW239759   3.486   0.539   4.848 -0.1537 -0.5670 -2.1052
 9433SOL     OW39760   3.676   3.291  13.644  0.2635  0.1291 -0.3663
 9433SOL    HW139761   3.584   3.288  13.670  0.3696  1.8956  0.1687
 9433SOL    HW239762   3.726   3.260  13.720  0.5386 -0.0085 -0.5995
 9434SOL     OW39763   2.750   3.048   1.338 -0.2143  0.5111 -0.6239
 9434SOL    HW139764   2.832   3.023   1.380 -1.1784  0.5499  1.2978
 9434SOL    HW239765   2.765   3.023   1.247  2.6809  0.1995 -0.0755
 9435SOL     OW39766   2.075   3.288  13.628 -0.0964  0.3324 -0.0700
 9435SOL    HW139767   2.001   3.323  13.677  0.0705 -1.2967  1.3299
 9435SOL    HW239768   2.093   3.206  13.674 -1.2576 -1.2615 -2.4015
 9436SOL     OW39769   0.926   0.606   4.960 -0.2877 -0.5605  0.5486
 9436SOL    HW139770   0.913   0.621   4.866  0.2478 -0.3061  0.5155
 9436SOL    HW239771   0.893   0.688   4.996 -1.7586 -1.5976  1.5682
 9437SOL     OW39772   1.416   0.838   3.965 -0.2731  0.0926  0.6222
 9437SOL    HW139773   1.418   0.748   3.998  0.2154  0.0737  0.5438
 9437SOL    HW239774   1.501   0.871   3.995 -0.2346 -0.9046  1.6429
 9438SOL     OW39775   4.286   4.429  11.304 -0.2195 -0.1734 -0.7299
 9438SOL    HW139776   4.363   4.459  11.256  0.0914 -0.7478 -0.5857
 9438SOL    HW239777   4.298   4.335  11.293 -3.1249 -0.5734 -0.4986
 9439SOL     OW39778   2.431   3.024   6.547  0.0373  0.1759 -0.2544
 9439SOL    HW139779   2.499   3.086   6.572  0.1863  0.1661 -0.6241
 9439SOL    HW239780   2.370   3.055   6.614 -0.5529 -2.3780  0.3852
 9440SOL     OW39781   4.100   3.072   3.369  0.0413 -0.5188  0.2356
 9440SOL    HW139782   4.161   3.012   3.326 -0.6990 -0.8761 -0.3114
 9440SOL    HW239783   4.068   3.019   3.442 -0.2319 -2.6199 -1.4122
 9441SOL     OW39784   2.834   3.268   1.753  0.0662  0.4218  0.3461
 9441SOL    HW139785   2.847   3.193   1.695  1.0788 -0.2258  1.4183
 9441SOL    HW239786   2.874   3.339   1.704  1.3421 -1.3650 -1.1832
 9442SOL     OW39787   0.567   3.324   5.579 -0.2546  0.2341  0.1064
 9442SOL    HW139788   0.539   3.321   5.487  0.6758 -0.2725 -0.1653
 9442SOL    HW239789   0.554   3.417   5.598  0.0267 -0.1702  2.2373
 9443SOL     OW39790   2.557   2.643   4.741  0.2729 -0.3058  0.6402
 9443SOL    HW139791   2.519   2.558   4.716 -0.5914  0.3743 -0.3347
 9443SOL    HW239792   2.646   2.613   4.756  0.4528  0.2188  0.5969
 9444SOL     OW39793   0.065   0.954  16.117  0.2891  0.2663  0.4824
 9444SOL    HW139794   0.092   1.045  16.129 -0.2033  0.3691  0.8047
 9444SOL    HW239795   0.002   0.972  16.047  0.5873 -0.1811  0.0994
 9445SOL     OW39796   0.293   0.898   8.191 -0.4033 -0.1484  0.4430
 9445SOL    HW139797   0.385   0.915   8.212 -0.2644  0.9573 -1.0773
 9445SOL    HW239798   0.291   0.925   8.099  0.4259  2.7764  1.2966
 9446SOL     OW39799   3.177   2.502  15.561 -0.4210 -0.2806 -0.0539
 9446SOL    HW139800   3.114   2.568  15.590 -0.1211 -0.1773  0.3620
 9446SOL    HW239801   3.259   2.550  15.576 -1.3342  0.6627  1.9004
 9447SOL     OW39802   4.520   4.032  17.661  0.1615 -0.2484 -0.2191
 9447SOL    HW139803   4.480   4.110  17.701 -1.8819 -1.5430  0.2406
 9447SOL    HW239804   4.612   4.057  17.649 -0.2558  1.7917  0.7718
 9448SOL     OW39805   3.085   3.786   2.935 -0.0224 -0.6664  0.0654
 9448SOL    HW139806   3.019   3.836   2.984 -1.2293 -0.7761 -1.4541
 9448SOL    HW239807   3.074   3.708   2.988  0.7320 -2.0346 -1.8023
 9449SOL     OW39808   4.529   0.228   8.797 -0.0376 -0.2269  0.0441
 9449SOL    HW139809   4.613   0.189   8.774  0.0786  0.4939 -0.7637
 9449SOL    HW239810   4.553   0.301   8.855  0.8175  0.5530 -1.2972
 9450SOL     OW39811   1.161   0.134   8.662  0.1540 -0.7516 -0.0485
 9450SOL    HW139812   1.209   0.175   8.734  0.4543 -0.3975 -0.4481
 9450SOL    HW239813   1.231   0.089   8.615  0.8602 -0.2849  0.5467
 9451SOL     OW39814   4.231   3.071  13.719 -0.3549 -0.4213 -0.3881
 9451SOL    HW139815   4.227   2.976  13.702  1.9020 -0.9018  1.7006
 9451SOL    HW239816   4.325   3.088  13.720 -0.7012  1.3880  0.7570
 9452SOL     OW39817   0.130   1.541   4.718 -0.2883  0.4168 -0.0728
 9452SOL    HW139818   0.153   1.477   4.785 -2.7293 -0.5861 -0.2252
 9452SOL    HW239819   0.129   1.488   4.639 -0.4768  0.3984 -0.0579
 9453SOL     OW39820   0.876   1.292   8.620  0.6127 -0.3183  0.0090
 9453SOL    HW139821   0.938   1.226   8.588 -1.0516 -1.3000 -1.2233
 9453SOL    HW239822   0.917   1.311   8.704 -1.2603 -0.9135  1.0629
 9454SOL     OW39823   3.304   1.070   7.928 -0.3286  0.1826 -0.2015
 9454SOL    HW139824   3.277   1.078   7.836 -0.4277  0.0066 -0.1874
 9454SOL    HW239825   3.303   1.161   7.958 -0.6405 -0.8230  2.8057
 9455SOL     OW39826   3.757   3.790  10.880 -0.6379 -0.7368 -0.4646
 9455SOL    HW139827   3.724   3.705  10.912  1.0562 -1.3352 -0.3298
 9455SOL    HW239828   3.845   3.766  10.852 -1.0977 -2.4402 -0.4908
 9456SOL     OW39829   3.466   3.608   7.568 -0.0906  0.4922 -0.3032
 9456SOL    HW139830   3.470   3.525   7.616  1.0504  0.6097 -0.2145
 9456SOL    HW239831   3.500   3.581   7.483 -0.5748 -0.2107 -0.2805
 9457SOL     OW39832   2.087   2.099   5.130  0.2344 -0.3997 -0.4328
 9457SOL    HW139833   2.031   2.097   5.052 -0.1384 -0.4972 -0.1641
 9457SOL    HW239834   2.161   2.047   5.102  1.7342  0.6253  1.5936
 9458SOL     OW39835   4.267   1.210   6.779  0.4793  0.4777 -0.0197
 9458SOL    HW139836   4.342   1.267   6.793 -1.1748  2.1840  2.1189
 9458SOL    HW239837   4.301   1.160   6.705 -0.0022 -0.2194  0.2255
 9459SOL     OW39838   3.539   1.961   1.059 -0.3200  0.4409 -0.0132
 9459SOL    HW139839   3.516   1.921   1.143 -1.1022 -0.1926 -0.5206
 9459SOL    HW239840   3.474   2.032   1.062  0.1445  0.8949 -0.7185
 9460SOL     OW39841   0.564   0.960   7.088 -0.6778 -0.2280  0.1692
 9460SOL    HW139842   0.547   1.040   7.038 -1.1398 -1.1000 -1.0510
 9460SOL    HW239843   0.646   0.982   7.134  0.3633 -1.7913 -0.9609
 9461SOL     OW39844   0.640   1.266   4.614  0.1482 -0.0830  0.5104
 9461SOL    HW139845   0.659   1.252   4.707  1.9100 -0.3936  0.0997
 9461SOL    HW239846   0.671   1.183   4.578  3.2800  1.0406  0.6969
 9462SOL     OW39847   4.176   2.657   4.779  0.1073 -0.2444  0.0795
 9462SOL    HW139848   4.235   2.698   4.715 -2.7960 -0.0059 -2.4399
 9462SOL    HW239849   4.193   2.708   4.858 -0.1472 -0.4697  0.2774
 9463SOL     OW39850   0.468   0.597   4.739  0.0120 -0.2244 -0.0770
 9463SOL    HW139851   0.533   0.527   4.748 -1.1930 -1.2525  0.6721
 9463SOL    HW239852   0.386   0.548   4.728 -0.6140  0.9047 -0.3869
 9464SOL     OW39853   2.056   4.030   5.578  0.4644 -0.0463 -0.2659
 9464SOL    HW139854   2.028   4.040   5.487  0.3878  2.0204 -0.0060
 9464SOL    HW239855   1.976   4.058   5.622  0.5462 -0.2307  0.0023
 9465SOL     OW39856   3.823   0.379   8.400  0.3279  0.5706 -0.2568
 9465SOL    HW139857   3.798   0.470   8.384 -0.1971  1.0663  3.5455
 9465SOL    HW239858   3.740   0.336   8.379  0.6415  0.5747 -1.5360
 9466SOL     OW39859   3.320   4.151   8.723 -0.2372  0.3932 -0.2882
 9466SOL    HW139860   3.402   4.126   8.767 -0.2545  1.0318  0.1067
 9466SOL    HW239861   3.252   4.116   8.780  0.0446 -0.2893 -0.3795
 9467SOL     OW39862   1.317   4.612   6.075 -0.3107 -0.5717 -0.0132
 9467SOL    HW139863   1.395   4.557   6.074  0.4156  0.4641 -0.0376
 9467SOL    HW239864   1.265   4.594   5.996  0.1215  1.5953 -0.7925
 9468SOL     OW39865   2.184   4.241   1.966  0.0609 -0.0077 -0.4001
 9468SOL    HW139866   2.160   4.193   1.887  0.0532  0.1287 -0.4809
 9468SOL    HW239867   2.249   4.305   1.935  1.0070 -0.1819  1.2294
 9469SOL     OW39868   3.319   2.542   8.367 -0.3481 -0.1410  0.3829
 9469SOL    HW139869   3.290   2.593   8.442 -0.9753 -1.7143  1.2171
 9469SOL    HW239870   3.394   2.490   8.396 -1.3675 -3.1350 -2.4112
 9470SOL     OW39871   2.126   1.187   7.285  0.1601  0.5698  0.3978
 9470SOL    HW139872   2.178   1.230   7.353  0.3385  0.0030  0.6178
 9470SOL    HW239873   2.049   1.153   7.333  0.9383 -0.7198  0.7358
 9471SOL     OW39874   1.211   3.657   7.638 -0.4005  0.0833 -0.6014
 9471SOL    HW139875   1.289   3.608   7.662 -0.6640 -0.8268 -1.6493
 9471SOL    HW239876   1.225   3.668   7.544 -0.0415  1.1402 -0.4267
 9472SOL     OW39877   0.903   3.762   3.076 -0.3803 -0.4068  0.4952
 9472SOL    HW139878   0.841   3.689   3.082 -0.4395 -0.2437  1.8617
 9472SOL    HW239879   0.849   3.840   3.084 -1.3201 -0.8091 -2.0211
 9473SOL     OW39880   2.653   1.130   9.055 -0.1004  0.4319  0.4655
 9473SOL    HW139881   2.747   1.141   9.041  0.1086 -1.8255  0.1407
 9473SOL    HW239882   2.637   1.037   9.072  3.5022 -0.1521  0.5684
 9474SOL     OW39883   2.953   1.039   5.942 -0.1572 -0.0444 -0.4593
 9474SOL    HW139884   3.047   1.021   5.938 -0.1070  0.2005 -0.3852
 9474SOL    HW239885   2.924   1.004   5.857  1.3890 -0.3997 -0.8368
 9475SOL     OW39886   2.108   3.039  13.767  0.0211 -0.3404  0.2310
 9475SOL    HW139887   2.176   2.988  13.723  0.0339 -0.1364  0.0127
 9475SOL    HW239888   2.128   3.023  13.859  2.1066 -0.3649 -0.2270
 9476SOL     OW39889   4.487   1.865  16.586  0.3101  0.5329 -0.5735
 9476SOL    HW139890   4.531   1.947  16.565  2.4486 -0.7887 -1.2871
 9476SOL    HW239891   4.527   1.802  16.527  1.5412 -1.1196  2.0008
 9477SOL     OW39892   0.498   2.092   7.168 -0.3565 -0.5915 -0.8978
 9477SOL    HW139893   0.414   2.107   7.124 -1.8612 -0.7000  1.8915
 9477SOL    HW239894   0.544   2.174   7.151  1.2294 -1.3907 -0.4641
 9478SOL     OW39895   3.373   3.820  15.508 -0.4731  0.6074 -0.1785
 9478SOL    HW139896   3.396   3.854  15.421 -0.5100  2.5478  0.5586
 9478SOL    HW239897   3.322   3.893  15.542 -1.1689  0.5164 -1.0493
 9479SOL     OW39898   3.910   2.959  10.052 -0.4221 -0.7122 -0.0468
 9479SOL    HW139899   3.959   2.977   9.972 -0.7594 -0.2607 -0.1495
 9479SOL    HW239900   3.853   2.885  10.033  0.3787 -1.2880 -0.2088
 9480SOL     OW39901   1.185   0.731   1.990  0.0799 -0.0129 -0.1721
 9480SOL    HW139902   1.128   0.717   1.915  0.9753  0.7294 -1.0043
 9480SOL    HW239903   1.237   0.804   1.956 -0.1656 -0.1672 -0.8882
 9481SOL     OW39904   3.946   2.546   0.581 -0.2239 -0.0936 -0.4736
 9481SOL    HW139905   3.935   2.538   0.486 -0.2189  0.2861 -0.5074
 9481SOL    HW239906   4.041   2.544   0.584 -0.1991  0.6717 -0.8529
 9482SOL     OW39907   1.045   0.058   6.785  0.1512 -0.2737  0.3685
 9482SOL    HW139908   1.076   0.102   6.706  1.0039  0.2628  1.0006
 9482SOL    HW239909   0.970   0.111   6.811  0.0848 -0.4928  0.6214
 9483SOL     OW39910   0.831   2.034   6.163  0.0398 -0.2882  0.4322
 9483SOL    HW139911   0.921   2.068   6.168  0.6139 -1.7373 -0.1078
 9483SOL    HW239912   0.779   2.114   6.174 -1.2077 -0.9591 -0.6934
 9484SOL     OW39913   3.067   4.286   7.658 -0.2289  0.0886 -0.2715
 9484SOL    HW139914   2.993   4.338   7.689  0.6292  1.1177  0.0839
 9484SOL    HW239915   3.146   4.341   7.660 -0.6768  0.8870 -3.8160
 9485SOL     OW39916   3.581   1.751   3.429 -0.3278  0.1085 -0.1634
 9485SOL    HW139917   3.655   1.808   3.410 -0.1928 -0.0274 -0.0519
 9485SOL    HW239918   3.529   1.749   3.349  0.6591  1.1731 -0.8142
 9486SOL     OW39919   2.854   3.845  17.633 -0.5504 -0.5698 -0.0250
 9486SOL    HW139920   2.785   3.795  17.588 -2.4886  0.9080  1.3285
 9486SOL    HW239921   2.916   3.772  17.645  1.0170  0.6494 -0.7423
 9487SOL     OW39922   2.311   4.533   2.538  0.1838  0.4279  0.3434
 9487SOL    HW139923   2.256   4.461   2.570 -0.1303  1.1004  1.3091
 9487SOL    HW239924   2.281   4.601   2.598  1.3479  0.7917  0.5044
 9488SOL     OW39925   1.571   1.443   9.827 -0.1325  0.2105 -0.2925
 9488SOL    HW139926   1.491   1.491   9.807 -0.2436  0.6471  1.1520
 9488SOL    HW239927   1.624   1.465   9.750  0.7198  0.5000  0.3713
 9489SOL     OW39928   1.492   4.558   9.878  0.4269 -0.0527  0.2519
 9489SOL    HW139929   1.432   4.506   9.932  1.7666 -2.2607 -0.3695
 9489SOL    HW239930   1.559   4.489   9.869  1.2829  1.1232 -2.3481
 9490SOL     OW39931   4.218   1.348   8.604 -0.3779 -0.4249 -0.2637
 9490SOL    HW139932   4.291   1.401   8.571  0.9918 -2.6932 -0.8283
 9490SOL    HW239933   4.157   1.369   8.534  0.6922 -0.5674 -1.2447
 9491SOL     OW39934   4.071   3.273   8.918  0.5213  0.0019 -0.2867
 9491SOL    HW139935   4.043   3.295   8.829 -1.7810 -0.7880  0.2408
 9491SOL    HW239936   4.001   3.301   8.977 -0.0281  1.5955 -1.6947
 9492SOL     OW39937   0.145   3.728   4.968 -0.0519 -0.3310  0.5720
 9492SOL    HW139938   0.178   3.780   5.042  2.3717  0.4763 -1.0692
 9492SOL    HW239939   0.127   3.801   4.908  0.0545  0.4594  1.4837
 9493SOL     OW39940   3.837   2.491   5.287 -0.5157  0.1851 -0.0427
 9493SOL    HW139941   3.744   2.512   5.278 -0.4668  1.0242  1.5918
 9493SOL    HW239942   3.839   2.405   5.244  1.0809  1.6308 -2.8418
 9494SOL     OW39943   3.878   4.181  15.129  0.1667 -0.1957 -0.1667
 9494SOL    HW139944   3.824   4.249  15.168 -0.3393 -0.6387 -0.1032
 9494SOL    HW239945   3.831   4.158  15.049  1.0724 -0.1976 -0.6950
 9495SOL     OW39946   0.201   0.871   0.015 -0.0604  0.5197 -0.1320
 9495SOL    HW139947   0.206   0.902   0.105  2.8242 -2.7230  0.8257
 9495SOL    HW239948   0.107   0.882  17.704  0.0615 -0.8455 -1.8770
 9496SOL     OW39949   4.099   4.719   3.055 -0.0760  1.0839 -0.0796
 9496SOL    HW139950   4.024   4.683   3.009 -0.7852  2.3174  0.1110
 9496SOL    HW239951   4.119   0.068   2.998  0.3507  1.3342  0.4000
 9497SOL     OW39952   3.431   1.813  17.323 -0.7034 -0.1192  0.2663
 9497SOL    HW139953   3.490   1.832  17.250 -1.3065  2.0074  0.3313
 9497SOL    HW239954   3.417   1.721  17.345  0.3277 -0.2198  0.4725
 9498SOL     OW39955   1.037   1.721   7.249  0.4057  0.7389 -0.2170
 9498SOL    HW139956   1.122   1.678   7.243 -0.1091 -0.3330  0.0846
 9498SOL    HW239957   0.986   1.670   7.186  0.2554 -1.3490  1.5692
 9499SOL     OW39958   3.385   3.091   6.430 -0.3547  0.0428 -0.1558
 9499SOL    HW139959   3.295   3.122   6.426 -0.3692  0.0807  0.5884
 9499SOL    HW239960   3.407   3.113   6.339 -3.4856 -0.6887 -1.0929
 9500SOL     OW39961   2.300   0.473  11.237 -0.6382 -0.2946  0.6450
 9500SOL    HW139962   2.237   0.544  11.228 -0.3130 -0.4112 -2.3017
 9500SOL    HW239963   2.255   0.415  11.299 -3.1465  0.1649 -0.7261
 9501SOL     OW39964   0.412   2.583  12.528  0.7583  0.4946  0.2083
 9501SOL    HW139965   0.493   2.631  12.545  0.6246  0.6270  0.4685
 9501SOL    HW239966   0.427   2.555  12.437  0.0302 -1.0061  0.5460
 9502SOL     OW39967   2.465   1.133   2.589 -0.1737  0.1414 -0.1194
 9502SOL    HW139968   2.399   1.098   2.528 -0.6291  1.1449 -0.1940
 9502SOL    HW239969   2.501   1.204   2.537 -1.4878  1.0146  0.1575
 9503SOL     OW39970   0.141   0.562   0.502 -0.3136  0.0591 -0.3937
 9503SOL    HW139971   0.113   0.554   0.411  1.6562 -0.5500 -0.9443
 9503SOL    HW239972   0.174   0.651   0.490  0.4800 -0.4405 -1.8809
 9504SOL     OW39973   3.062   3.487  16.946  0.0184 -0.3548  0.8228
 9504SOL    HW139974   3.155   3.506  16.957 -0.2309  1.0953  0.3713
 9504SOL    HW239975   3.029   3.570  16.912 -1.0055 -2.1440 -2.5717
 9505SOL     OW39976   0.213   3.526   0.598 -0.3352  0.4019 -0.1143
 9505SOL    HW139977   0.133   3.475   0.585  0.9585 -0.9499 -2.6659
 9505SOL    HW239978   0.250   3.488   0.677  2.9896 -0.7294 -2.2267
 9506SOL     OW39979   0.731   2.618   3.815  0.1816  0.5739 -0.0950
 9506SOL    HW139980   0.724   2.578   3.901  1.0615  0.8001  0.0875
 9506SOL    HW239981   0.826   2.612   3.801  0.1448 -1.1372  0.4274
 9507SOL     OW39982   4.376   2.357   6.662 -0.0479 -0.1540 -0.3016
 9507SOL    HW139983   4.282   2.358   6.643 -0.5469  0.9807  2.2425
 9507SOL    HW239984   4.389   2.352   6.756 -1.2294 -0.8569 -0.1798
 9508SOL     OW39985   3.248   4.095   2.198 -0.0804 -0.6332  0.2485
 9508SOL    HW139986   3.165   4.062   2.164 -0.1374  0.8418 -1.0363
 9508SOL    HW239987   3.228   4.120   2.288  1.0307  0.3737  0.2103
 9509SOL     OW39988   2.533   0.762   7.198 -0.0658  0.2963  0.0071
 9509SOL    HW139989   2.557   0.800   7.282  0.0653 -0.3483  0.2627
 9509SOL    HW239990   2.485   0.682   7.221 -0.7135  0.6540 -0.0915
 9510SOL     OW39991   0.037   4.513   9.387 -0.0498 -0.6355  0.4042
 9510SOL    HW139992   0.003   4.430   9.419  1.2488 -0.7716  1.4002
 9510SOL    HW239993   0.006   4.580   9.448 -0.6366 -0.7905  0.2792
 9511SOL     OW39994   1.911   3.710  11.717  0.0288  0.1031 -0.1714
 9511SOL    HW139995   1.850   3.779  11.739 -0.2598 -0.7558  1.7264
 9511SOL    HW239996   1.887   3.657  11.793  1.1708 -1.2471 -0.7335
 9512SOL     OW39997   3.847   2.250   6.645 -0.2529  0.2438 -0.9457
 9512SOL    HW139998   3.794   2.328   6.627 -0.8454  0.1566  0.4941
 9512SOL    HW239999   3.803   2.184   6.591 -2.5413 -0.0830  1.3364
 9513SOL     OW40000   4.389   1.914  10.036 -0.3458 -0.7364 -0.1963
 9513SOL    HW140001   4.359   1.825  10.020 -1.3291 -0.2576 -1.0225
 9513SOL    HW240002   4.411   1.939   9.946  0.9059 -0.6973  0.1226
 9514SOL     OW40003   2.121   3.737   5.546 -0.3649  0.0720  0.3438
 9514SOL    HW140004   2.208   3.739   5.585  0.6169 -1.7578 -1.7474
 9514SOL    HW240005   2.069   3.810   5.580 -0.0550 -0.1200  1.2158
 9515SOL     OW40006   3.377   1.467  11.759  1.1615  0.6966 -0.7324
 9515SOL    HW140007   3.406   1.445  11.671  2.3787  4.3189 -1.2532
 9515SOL    HW240008   3.282   1.457  11.756  1.1461  1.1474 -1.7417
 9516SOL     OW40009   2.821   3.119  11.354 -0.3745  0.2807 -0.1885
 9516SOL    HW140010   2.737   3.164  11.364 -0.7507 -0.5207  0.3238
 9516SOL    HW240011   2.855   3.109  11.443 -0.7118  0.8574  0.0043
 9517SOL     OW40012   1.886   3.332   7.217 -0.0226  0.8060 -0.1744
 9517SOL    HW140013   1.885   3.248   7.172 -2.7754  0.9241 -0.2752
 9517SOL    HW240014   1.914   3.307   7.305  0.8891 -1.8483 -1.2033
 9518SOL     OW40015   1.037   3.119   4.291 -0.4107 -0.1078  0.2128
 9518SOL    HW140016   1.040   3.046   4.353 -0.7158  0.0651  0.4329
 9518SOL    HW240017   1.063   3.065   4.216  2.8791  1.3565  0.3106
 9519SOL     OW40018   0.090   3.852  11.702 -0.4503  0.0869 -0.4900
 9519SOL    HW140019   0.082   3.889  11.614  0.1703 -0.0268 -0.5922
 9519SOL    HW240020   0.054   3.928  11.747 -0.1023  0.5432 -0.9752
 9520SOL     OW40021   3.214   0.774   3.525  0.3730  0.3579  0.5645
 9520SOL    HW140022   3.285   0.797   3.465  2.3356 -1.2100  2.2408
 9520SOL    HW240023   3.258   0.819   3.597 -2.1918  1.4724  1.4020
 9521SOL     OW40024   0.709   1.589   5.641  0.0548 -0.0749  0.5083
 9521SOL    HW140025   0.688   1.654   5.708 -0.8484  1.1544 -0.9338
 9521SOL    HW240026   0.794   1.558   5.672  0.0270 -1.1916 -0.5131
 9522SOL     OW40027   1.334   3.543   2.859 -0.2638 -0.4883  0.2060
 9522SOL    HW140028   1.261   3.536   2.921 -0.7030 -2.9009 -0.6121
 9522SOL    HW240029   1.396   3.596   2.910 -0.6911  0.2563 -0.0483
 9523SOL     OW40030   3.727   1.988   4.335 -0.5520  0.0704 -0.1577
 9523SOL    HW140031   3.779   2.049   4.388 -0.9173  0.9110 -0.7669
 9523SOL    HW240032   3.677   2.049   4.281 -1.6477 -1.0936 -0.4432
 9524SOL     OW40033   4.146   0.573  16.851 -0.1274  0.1372  0.4334
 9524SOL    HW140034   4.237   0.545  16.841 -0.2495  0.5589 -1.7301
 9524SOL    HW240035   4.158   0.667  16.859 -2.5178  0.5717 -1.3716
 9525SOL     OW40036   2.662   1.479   3.407 -0.5760  0.0069 -0.8917
 9525SOL    HW140037   2.663   1.384   3.392  1.7662 -0.1711  0.3894
 9525SOL    HW240038   2.752   1.492   3.435 -0.3776 -0.1126 -1.4856
 9526SOL     OW40039   1.561   0.084   7.885 -0.6611 -0.1341 -0.0358
 9526SOL    HW140040   1.644   0.110   7.844  0.0367 -1.0430  0.8018
 9526SOL    HW240041   1.585   0.057   7.974  0.0065 -1.5327 -0.6422
 9527SOL     OW40042   1.947   1.078  11.318  0.1429 -0.1827  0.2550
 9527SOL    HW140043   1.941   1.149  11.382 -0.2716 -0.0926  0.1115
 9527SOL    HW240044   1.854   1.079  11.297 -0.1216  3.5693  1.5018
 9528SOL     OW40045   1.895   2.644   9.625  0.0184  0.5872 -0.2038
 9528SOL    HW140046   1.884   2.663   9.718  1.3074 -0.0628  0.0830
 9528SOL    HW240047   1.907   2.729   9.583  0.5183 -0.0073 -1.2534
 9529SOL     OW40048   3.200   0.085   5.135 -0.2287 -0.0185 -0.2177
 9529SOL    HW140049   3.132   0.048   5.078 -0.9207  1.3626 -0.3080
 9529SOL    HW240050   3.255   0.105   5.060  2.4935 -2.0633  1.2422
 9530SOL     OW40051   2.241   1.563   3.903  1.2903  0.0582  0.5859
 9530SOL    HW140052   2.174   1.603   3.959  1.2225  2.5804 -1.2856
 9530SOL    HW240053   2.217   1.474   3.928  0.5920  0.2215  0.4788
 9531SOL     OW40054   2.922   4.565   9.506  0.3203  0.1285 -0.2910
 9531SOL    HW140055   2.864   4.494   9.532 -1.7381  2.3736  1.2136
 9531SOL    HW240056   2.865   4.641   9.490  1.7819  1.6578  1.7752
 9532SOL     OW40057   4.595   3.037   3.748  0.0055 -0.2061 -0.2522
 9532SOL    HW140058   4.677   2.992   3.769 -0.0034  0.9119  2.2499
 9532SOL    HW240059   4.560   2.988   3.674 -0.6247  0.7179 -0.5673
 9533SOL     OW40060   3.046   0.569   9.068  0.1823 -0.2579  0.2251
 9533SOL    HW140061   3.005   0.554   9.153 -0.2099 -1.1756 -0.1274
 9533SOL    HW240062   3.135   0.599   9.085  0.2938 -0.3306 -0.2169
 9534SOL     OW40063   3.978   0.918   3.498  0.4459  0.4161  0.3400
 9534SOL    HW140064   4.021   0.868   3.428  1.3451 -1.6971  2.4180
 9534SOL    HW240065   3.984   0.845   3.558  3.3539  1.4355  1.2575
 9535SOL     OW40066   4.405   2.196  16.645 -0.2526 -0.2195  0.5535
 9535SOL    HW140067   4.457   2.126  16.605  2.6511  2.0719  0.3380
 9535SOL    HW240068   4.370   2.141  16.715  0.0669 -0.9186  0.1740
 9536SOL     OW40069   0.622   3.925   6.736  0.1416 -0.1123  0.2683
 9536SOL    HW140070   0.569   3.957   6.809  0.1607 -0.3576  0.3887
 9536SOL    HW240071   0.703   3.975   6.745  0.7594 -1.5209  2.4466
 9537SOL     OW40072   0.606   4.678   6.446  0.7127  0.1572 -0.3547
 9537SOL    HW140073   0.647   4.592   6.450  0.5464 -0.0074 -1.9671
 9537SOL    HW240074   0.664   4.726   6.505  0.6583 -1.3442  0.9127
 9538SOL     OW40075   0.625   0.882   3.660  0.3992 -0.1180 -1.0456
 9538SOL    HW140076   0.644   0.832   3.580  1.6468  1.2789 -1.6198
 9538SOL    HW240077   0.707   0.878   3.709 -0.3096 -2.9538 -0.0926
 9539SOL     OW40078   2.530   2.583   2.544  0.3486 -0.7179 -0.4032
 9539SOL    HW140079   2.534   2.644   2.470  0.9159  1.3374  1.3389
 9539SOL    HW240080   2.546   2.495   2.508 -0.2606 -0.8382 -0.3739
 9540SOL     OW40081   2.479   1.931   6.144  0.4807 -0.3675  0.0674
 9540SOL    HW140082   2.529   1.933   6.063  0.8967 -0.3416  0.3245
 9540SOL    HW240083   2.516   1.848   6.175  4.0017  1.1815  0.0098
 9541SOL     OW40084   3.238   4.636   7.981 -0.5021 -0.0651 -0.1219
 9541SOL    HW140085   3.264   4.678   7.899  0.3485  0.3873  0.3715
 9541SOL    HW240086   3.310   4.577   8.004 -0.4202  0.8995  2.1163
 9542SOL     OW40087   2.817   4.024  11.467  0.3196  0.2122 -0.1948
 9542SOL    HW140088   2.742   4.078  11.441  0.6575  0.0379 -1.5438
 9542SOL    HW240089   2.866   4.008  11.386  2.8072  2.7852  0.7606
 9543SOL     OW40090   4.333   1.832   5.844 -0.7309  0.2726  0.2787
 9543SOL    HW140091   4.388   1.772   5.894  2.3964  3.6089  0.8933
 9543SOL    HW240092   4.404   1.874   5.795 -1.1626  1.2622  0.4919
 9544SOL     OW40093   1.026   4.088   5.515  0.4970  0.6091 -0.3036
 9544SOL    HW140094   1.024   4.001   5.477  0.6175  0.1779  0.6863
 9544SOL    HW240095   0.952   4.128   5.470  1.3568  0.7025 -1.6253
 9545SOL     OW40096   0.077   0.956  16.749  0.2669  0.5159  0.0833
 9545SOL    HW140097   4.724   0.905  16.734  0.4748 -0.1499  1.3046
 9545SOL    HW240098   0.058   0.996  16.834  0.0349  1.6463 -0.4936
 9546SOL     OW40099   1.969   0.573   5.504 -0.0368 -0.5998  0.0841
 9546SOL    HW140100   1.946   0.520   5.581  2.4106  1.8749  2.4963
 9546SOL    HW240101   1.886   0.613   5.478 -0.3505 -1.6331 -0.5170
 9547SOL     OW40102   4.525   4.681  11.636  0.0738  0.4761  1.0646
 9547SOL    HW140103   4.510   0.022  11.703 -3.5188 -0.7541  1.4977
 9547SOL    HW240104   4.520   4.596  11.681 -1.5175  0.3502  0.6386
 9548SOL     OW40105   0.912   2.625   5.291 -0.0014 -0.0209 -0.1760
 9548SOL    HW140106   1.000   2.604   5.321  0.3499 -2.1192 -2.7515
 9548SOL    HW240107   0.896   2.702   5.346  0.0871  1.6442 -2.4655
 9549SOL     OW40108   3.974   4.125   7.261  0.4498 -0.0901 -0.2040
 9549SOL    HW140109   3.928   4.046   7.233  0.8043 -0.7187  0.9833
 9549SOL    HW240110   4.037   4.085   7.321  1.6005 -0.3192 -1.5714
 9550SOL     OW40111   0.842   4.107   3.709 -0.3031 -0.2845  0.4650
 9550SOL    HW140112   0.914   4.136   3.764  0.6044 -1.4301 -0.1391
 9550SOL    HW240113   0.783   4.182   3.720 -0.0945 -0.0801  0.1675
 9551SOL     OW40114   0.459   0.252   6.974 -0.0552  0.1884  0.1443
 9551SOL    HW140115   0.366   0.261   6.955  0.1046 -0.8326 -1.1092
 9551SOL    HW240116   0.491   0.182   6.918  3.5224  0.2326  2.1255
 9552SOL     OW40117   1.934   4.103   7.183 -0.3065 -0.0443 -0.1374
 9552SOL    HW140118   1.997   4.048   7.229 -0.9808 -0.8826 -0.2023
 9552SOL    HW240119   1.969   4.191   7.186 -1.1979  0.2664  1.2786
 9553SOL     OW40120   2.813   3.501   7.244 -0.8888 -0.5897  0.7387
 9553SOL    HW140121   2.792   3.572   7.184  0.4743 -1.3843 -0.6737
 9553SOL    HW240122   2.898   3.465   7.220 -1.2892 -0.8791 -0.2525
 9554SOL     OW40123   0.908   3.499   2.338  0.6441  0.2107 -0.2337
 9554SOL    HW140124   0.843   3.561   2.305 -0.4592  0.1173  1.7293
 9554SOL    HW240125   0.968   3.512   2.265  0.4938 -1.2402 -0.6279
 9555SOL     OW40126   0.993   3.184  10.971  0.8099 -0.5878  0.0778
 9555SOL    HW140127   0.900   3.167  10.984  0.1202  0.0544 -4.0322
 9555SOL    HW240128   1.004   3.158  10.880  0.0209 -1.3454  0.2041
 9556SOL     OW40129   2.805   0.522   4.067 -0.5852 -0.1210  0.3231
 9556SOL    HW140130   2.727   0.524   4.012 -0.7899 -0.1883  0.6107
 9556SOL    HW240131   2.856   0.453   4.025 -0.1574  0.0336  0.5866
 9557SOL     OW40132   0.699   1.590   1.140  0.0474 -0.2579 -0.8608
 9557SOL    HW140133   0.784   1.583   1.096  0.6362  0.8142  0.1047
 9557SOL    HW240134   0.720   1.612   1.231 -0.2966 -3.6765  0.0756
 9558SOL     OW40135   1.846   1.525   9.296  0.5829 -0.0714 -0.3107
 9558SOL    HW140136   1.915   1.461   9.276  0.5981 -0.1467 -0.0128
 9558SOL    HW240137   1.776   1.473   9.257 -2.1303  0.1881  4.2925
 9559SOL     OW40138   3.370   2.998   6.837 -0.3160 -0.4014 -0.0530
 9559SOL    HW140139   3.278   2.985   6.861 -0.4162 -1.1936 -0.8879
 9559SOL    HW240140   3.372   2.974   6.745  0.3992 -0.0581 -0.1250
 9560SOL     OW40141   3.273   0.523   4.443 -0.0051 -0.4919  0.1838
 9560SOL    HW140142   3.357   0.503   4.400 -0.1321 -0.5827 -0.0186
 9560SOL    HW240143   3.271   0.454   4.509  1.9814  0.4200  1.2092
 9561SOL     OW40144   0.341   1.284   7.200  0.3199 -0.2816  0.2646
 9561SOL    HW140145   0.382   1.349   7.258 -0.3723  2.1886 -2.0394
 9561SOL    HW240146   0.363   1.202   7.245  0.5060 -2.0256 -3.0187
 9562SOL     OW40147   3.478   2.329   4.480  0.1415  0.2252 -0.2722
 9562SOL    HW140148   3.404   2.285   4.438  0.2504  0.6627 -0.9165
 9562SOL    HW240149   3.540   2.336   4.407  0.8565  4.2743  0.6854
 9563SOL     OW40150   3.941   0.181  14.123 -0.0601  0.1874  0.3675
 9563SOL    HW140151   3.919   0.186  14.216 -0.8428  0.1204  0.1888
 9563SOL    HW240152   4.023   0.133  14.130  0.6306  1.1020 -1.4267
 9564SOL     OW40153   1.440   4.549   5.294  0.0680  0.5742 -0.0141
 9564SOL    HW140154   1.475   4.526   5.208 -1.1700 -3.0666  0.4620
 9564SOL    HW240155   1.448   4.467   5.342  1.3404  0.1968 -0.8546
 9565SOL     OW40156   2.110   4.078   6.871 -0.7820 -0.3323  0.1025
 9565SOL    HW140157   2.182   4.114   6.924 -0.3701 -0.3446 -0.4490
 9565SOL    HW240158   2.134   3.986   6.868 -3.9309 -1.0974 -1.3058
 9566SOL     OW40159   0.430   0.103   3.842  0.0534 -0.2022  0.7124
 9566SOL    HW140160   0.365   0.042   3.806 -1.9045  2.3565 -0.1037
 9566SOL    HW240161   0.469   0.136   3.761  0.6954  0.6584  1.3718
 9567SOL     OW40162   0.406   1.126  16.517  0.1594  0.3409  0.0209
 9567SOL    HW140163   0.483   1.090  16.473 -0.8282 -0.7582 -0.8057
 9567SOL    HW240164   0.427   1.219  16.508 -0.3565  0.5657  1.1968
 9568SOL     OW40165   1.966   1.902   0.948 -0.0633  0.4698  0.1785
 9568SOL    HW140166   1.948   1.862   1.033  1.5768 -1.1247 -0.2475
 9568SOL    HW240167   1.880   1.910   0.906  0.2036  1.6538 -0.1421
   4.72601   4.72601  17.70522
